  57  57   0   0
  0.4736842E+03  0.3000000E-08  0.3000000E-08  0.3000000E-08  0.5000000E-15
  1.000000000000000E-004
  CAR 
 6_Pd100_top_free_z(O)                   
      1.26658023    -30.82383023  301     -4.13467067      1.00000000
    -30.824  0.0000E+00  0.0000E+00
    -30.717  0.0000E+00  0.0000E+00
    -30.610  0.0000E+00  0.0000E+00
    -30.503  0.3633E-27  0.3887E-28
    -30.396  0.1767E-23  0.1890E-24
    -30.289  0.4773E-20  0.5108E-21
    -30.182  0.7144E-17  0.7647E-18
    -30.075  0.5902E-14  0.6321E-15
    -29.968  0.2683E-11  0.2876E-12
    -29.861  0.6648E-09  0.7140E-10
    -29.754  0.8897E-07  0.9588E-08
    -29.647  0.6333E-05  0.6871E-06
    -29.540  0.2335E-03  0.2566E-04
    -29.433  0.4229E-02  0.4780E-03
    -29.326  0.3291E-01  0.3998E-02
    -29.219  0.5377E-01  0.9751E-02
    -29.112 -0.3784E+00 -0.3073E-01
    -29.005 -0.6603E+00 -0.1014E+00
    -28.898  0.3662E+01  0.2903E+00
    -28.791  0.9773E+01  0.1336E+01
    -28.684  0.6586E+01  0.2040E+01
    -28.578  0.2748E+00  0.2070E+01
    -28.471 -0.6894E+00  0.1996E+01
    -28.364 -0.2658E-01  0.1993E+01
    -28.257  0.5376E-01  0.1999E+01
    -28.150  0.1065E-01  0.2000E+01
    -28.043  0.8001E-03  0.2000E+01
    -27.936  0.2847E-04  0.2000E+01
    -27.829  0.5164E-06  0.2000E+01
    -27.722  0.4938E-08  0.2000E+01
    -27.615  0.2537E-10  0.2000E+01
    -27.508  0.7058E-13  0.2000E+01
    -27.401  0.0000E+00  0.2000E+01
    -27.294  0.0000E+00  0.2000E+01
    -27.187  0.0000E+00  0.2000E+01
    -27.080  0.0000E+00  0.2000E+01
    -26.973  0.0000E+00  0.2000E+01
    -26.866  0.0000E+00  0.2000E+01
    -26.759  0.0000E+00  0.2000E+01
    -26.652  0.0000E+00  0.2000E+01
    -26.545  0.0000E+00  0.2000E+01
    -26.438  0.0000E+00  0.2000E+01
    -26.331  0.0000E+00  0.2000E+01
    -26.224  0.0000E+00  0.2000E+01
    -26.117  0.0000E+00  0.2000E+01
    -26.010  0.0000E+00  0.2000E+01
    -25.903  0.0000E+00  0.2000E+01
    -25.796  0.0000E+00  0.2000E+01
    -25.689  0.0000E+00  0.2000E+01
    -25.582  0.0000E+00  0.2000E+01
    -25.475  0.0000E+00  0.2000E+01
    -25.368  0.0000E+00  0.2000E+01
    -25.261  0.0000E+00  0.2000E+01
    -25.155  0.0000E+00  0.2000E+01
    -25.048  0.0000E+00  0.2000E+01
    -24.941  0.0000E+00  0.2000E+01
    -24.834  0.0000E+00  0.2000E+01
    -24.727  0.0000E+00  0.2000E+01
    -24.620  0.0000E+00  0.2000E+01
    -24.513  0.0000E+00  0.2000E+01
    -24.406  0.0000E+00  0.2000E+01
    -24.299  0.0000E+00  0.2000E+01
    -24.192  0.0000E+00  0.2000E+01
    -24.085  0.0000E+00  0.2000E+01
    -23.978  0.0000E+00  0.2000E+01
    -23.871  0.0000E+00  0.2000E+01
    -23.764  0.0000E+00  0.2000E+01
    -23.657  0.0000E+00  0.2000E+01
    -23.550  0.0000E+00  0.2000E+01
    -23.443  0.0000E+00  0.2000E+01
    -23.336  0.0000E+00  0.2000E+01
    -23.229  0.0000E+00  0.2000E+01
    -23.122  0.0000E+00  0.2000E+01
    -23.015  0.0000E+00  0.2000E+01
    -22.908  0.0000E+00  0.2000E+01
    -22.801  0.0000E+00  0.2000E+01
    -22.694  0.0000E+00  0.2000E+01
    -22.587  0.0000E+00  0.2000E+01
    -22.480  0.0000E+00  0.2000E+01
    -22.373  0.0000E+00  0.2000E+01
    -22.266  0.0000E+00  0.2000E+01
    -22.159  0.0000E+00  0.2000E+01
    -22.052  0.0000E+00  0.2000E+01
    -21.945  0.0000E+00  0.2000E+01
    -21.839  0.0000E+00  0.2000E+01
    -21.732  0.0000E+00  0.2000E+01
    -21.625  0.0000E+00  0.2000E+01
    -21.518  0.0000E+00  0.2000E+01
    -21.411  0.0000E+00  0.2000E+01
    -21.304  0.0000E+00  0.2000E+01
    -21.197  0.0000E+00  0.2000E+01
    -21.090  0.0000E+00  0.2000E+01
    -20.983  0.0000E+00  0.2000E+01
    -20.876  0.0000E+00  0.2000E+01
    -20.769  0.0000E+00  0.2000E+01
    -20.662  0.0000E+00  0.2000E+01
    -20.555  0.0000E+00  0.2000E+01
    -20.448  0.0000E+00  0.2000E+01
    -20.341  0.0000E+00  0.2000E+01
    -20.234  0.0000E+00  0.2000E+01
    -20.127  0.0000E+00  0.2000E+01
    -20.020  0.0000E+00  0.2000E+01
    -19.913  0.0000E+00  0.2000E+01
    -19.806  0.0000E+00  0.2000E+01
    -19.699  0.0000E+00  0.2000E+01
    -19.592  0.0000E+00  0.2000E+01
    -19.485  0.0000E+00  0.2000E+01
    -19.378  0.0000E+00  0.2000E+01
    -19.271  0.0000E+00  0.2000E+01
    -19.164  0.0000E+00  0.2000E+01
    -19.057  0.0000E+00  0.2000E+01
    -18.950  0.0000E+00  0.2000E+01
    -18.843  0.0000E+00  0.2000E+01
    -18.736  0.0000E+00  0.2000E+01
    -18.629  0.0000E+00  0.2000E+01
    -18.523  0.0000E+00  0.2000E+01
    -18.416  0.0000E+00  0.2000E+01
    -18.309  0.0000E+00  0.2000E+01
    -18.202  0.0000E+00  0.2000E+01
    -18.095  0.0000E+00  0.2000E+01
    -17.988  0.0000E+00  0.2000E+01
    -17.881  0.0000E+00  0.2000E+01
    -17.774  0.0000E+00  0.2000E+01
    -17.667  0.0000E+00  0.2000E+01
    -17.560  0.0000E+00  0.2000E+01
    -17.453  0.0000E+00  0.2000E+01
    -17.346  0.0000E+00  0.2000E+01
    -17.239  0.0000E+00  0.2000E+01
    -17.132  0.0000E+00  0.2000E+01
    -17.025  0.0000E+00  0.2000E+01
    -16.918  0.0000E+00  0.2000E+01
    -16.811  0.0000E+00  0.2000E+01
    -16.704  0.0000E+00  0.2000E+01
    -16.597  0.0000E+00  0.2000E+01
    -16.490  0.0000E+00  0.2000E+01
    -16.383  0.0000E+00  0.2000E+01
    -16.276  0.0000E+00  0.2000E+01
    -16.169  0.0000E+00  0.2000E+01
    -16.062  0.0000E+00  0.2000E+01
    -15.955  0.0000E+00  0.2000E+01
    -15.848  0.0000E+00  0.2000E+01
    -15.741  0.0000E+00  0.2000E+01
    -15.634  0.0000E+00  0.2000E+01
    -15.527  0.0000E+00  0.2000E+01
    -15.420  0.0000E+00  0.2000E+01
    -15.313  0.0000E+00  0.2000E+01
    -15.206  0.0000E+00  0.2000E+01
    -15.100  0.1438E-26  0.2000E+01
    -14.993  0.6374E-23  0.2000E+01
    -14.886  0.1570E-19  0.2000E+01
    -14.779  0.2140E-16  0.2000E+01
    -14.672  0.1609E-13  0.2000E+01
    -14.565  0.6655E-11  0.2000E+01
    -14.458  0.1497E-08  0.2000E+01
    -14.351  0.1817E-06  0.2000E+01
    -14.244  0.1169E-04  0.2000E+01
    -14.137  0.3869E-03  0.2000E+01
    -14.030  0.6213E-02  0.2001E+01
    -13.923  0.4117E-01  0.2005E+01
    -13.816  0.3326E-01  0.2009E+01
    -13.709 -0.5061E+00  0.1955E+01
    -13.602 -0.4027E+00  0.1911E+01
    -13.495  0.4821E+01  0.2427E+01
    -13.388  0.1000E+02  0.3497E+01
    -13.281  0.5418E+01  0.4077E+01
    -13.174 -0.2164E+00  0.4053E+01
    -13.067 -0.5707E+00  0.3992E+01
    -12.960  0.1748E-01  0.3994E+01
    -12.853  0.4548E-01  0.3999E+01
    -12.746  0.7485E-02  0.4000E+01
    -12.639  0.4959E-03  0.4000E+01
    -12.532  0.1582E-04  0.4000E+01
    -12.425  0.2589E-06  0.4000E+01
    -12.318  0.2261E-08  0.4000E+01
    -12.211  0.3870E-08  0.4000E+01
    -12.104  0.4478E-06  0.4000E+01
    -11.997  0.2760E-04  0.4000E+01
    -11.890  0.8768E-03  0.4000E+01
    -11.784  0.1350E-01  0.4002E+01
    -11.677  0.8509E-01  0.4011E+01
    -11.570  0.5101E-01  0.4016E+01
    -11.463 -0.1051E+01  0.3904E+01
    -11.356 -0.6322E+00  0.3836E+01
    -11.249  0.1002E+02  0.4908E+01
    -11.142  0.1989E+02  0.7036E+01
    -11.035  0.1046E+02  0.8155E+01
    -10.928 -0.4916E+00  0.8102E+01
    -10.821 -0.1098E+01  0.7985E+01
    -10.714  0.3896E-01  0.7989E+01
    -10.607  0.8827E-01  0.7998E+01
    -10.500  0.1507E-01  0.8000E+01
    -10.393  0.9663E-02  0.8001E+01
    -10.286  0.4907E-01  0.8006E+01
    -10.179  0.1186E-02  0.8006E+01
    -10.072 -0.6226E+00  0.7940E+01
     -9.965 -0.3065E-01  0.7936E+01
     -9.858  0.5913E+01  0.8569E+01
     -9.751  0.9943E+01  0.9633E+01
     -9.644  0.4328E+01  0.1010E+02
     -9.537 -0.5280E+00  0.1004E+02
     -9.430 -0.4520E+00  0.9991E+01
     -9.323  0.4347E-01  0.9995E+01
     -9.216  0.3763E-01  0.9999E+01
     -9.109  0.5301E-02  0.1000E+02
     -9.002  0.3137E-03  0.1000E+02
     -8.895  0.9056E-05  0.1000E+02
     -8.788  0.1349E-06  0.1000E+02
     -8.681  0.1067E-08  0.1000E+02
     -8.574  0.4554E-11  0.1000E+02
     -8.468  0.1038E-13  0.1000E+02
     -8.361  0.0000E+00  0.1000E+02
     -8.254  0.3812E-25  0.1000E+02
     -8.147  0.1350E-21  0.1000E+02
     -8.040  0.2653E-18  0.1000E+02
     -7.933  0.2883E-15  0.1000E+02
     -7.826  0.1725E-12  0.1000E+02
     -7.719  0.5665E-10  0.1000E+02
     -7.612  0.1008E-07  0.1000E+02
     -7.505  0.9622E-06  0.1000E+02
     -7.398  0.4824E-04  0.1000E+02
     -7.291  0.1223E-02  0.1000E+02
     -7.184  0.1444E-01  0.1000E+02
     -7.077  0.6015E-01  0.1001E+02
     -6.970 -0.8419E-01  0.9999E+01
     -6.863 -0.7737E+00  0.9916E+01
     -6.756  0.8838E+00  0.1001E+02
     -6.649  0.7655E+01  0.1083E+02
     -6.542  0.9497E+01  0.1185E+02
     -6.435  0.2145E+01  0.1208E+02
     -6.328 -0.3130E+01  0.1174E+02
     -6.221  0.5386E+01  0.1232E+02
     -6.114  0.2571E+02  0.1507E+02
     -6.007  0.2311E+02  0.1754E+02
     -5.900  0.7740E+01  0.1837E+02
     -5.793  0.2458E+02  0.2100E+02
     -5.686  0.7231E+02  0.2873E+02
     -5.579  0.1644E+03  0.4632E+02
     -5.472  0.2784E+03  0.7609E+02
     -5.365  0.2956E+03  0.1077E+03
     -5.258  0.2238E+03  0.1317E+03
     -5.152  0.2167E+03  0.1548E+03
     -5.045  0.3094E+03  0.1879E+03
     -4.938  0.3714E+03  0.2277E+03
     -4.831  0.3209E+03  0.2620E+03
     -4.724  0.2966E+03  0.2937E+03
     -4.617  0.3787E+03  0.3342E+03
     -4.510  0.4223E+03  0.3794E+03
     -4.403  0.4287E+03  0.4253E+03
     -4.296  0.5183E+03  0.4807E+03
     -4.189  0.5412E+03  0.5386E+03
     -4.082  0.3213E+03  0.5730E+03
     -3.975  0.7545E+02  0.5810E+03
     -3.868  0.1445E+02  0.5826E+03
     -3.761  0.3204E+02  0.5860E+03
     -3.654  0.1798E+02  0.5879E+03
     -3.547  0.8402E+01  0.5888E+03
     -3.440  0.2286E+02  0.5913E+03
     -3.333  0.2053E+02  0.5935E+03
     -3.226  0.1331E+01  0.5936E+03
     -3.119  0.1089E+02  0.5948E+03
     -3.012  0.5418E+02  0.6006E+03
     -2.905  0.6160E+02  0.6072E+03
     -2.798  0.2439E+02  0.6098E+03
     -2.691  0.3107E+01  0.6101E+03
     -2.584  0.1519E+02  0.6117E+03
     -2.477  0.2709E+02  0.6146E+03
     -2.370  0.1340E+02  0.6160E+03
     -2.263  0.5961E+01  0.6167E+03
     -2.156  0.2239E+02  0.6191E+03
     -2.049  0.3816E+02  0.6232E+03
     -1.942  0.4285E+02  0.6277E+03
     -1.835  0.4334E+02  0.6324E+03
     -1.729  0.4042E+02  0.6367E+03
     -1.622  0.3914E+02  0.6409E+03
     -1.515  0.3872E+02  0.6450E+03
     -1.408  0.3148E+02  0.6484E+03
     -1.301  0.1317E+02  0.6498E+03
     -1.194  0.1282E+01  0.6499E+03
     -1.087  0.1941E+02  0.6520E+03
     -0.980  0.6089E+02  0.6585E+03
     -0.873  0.7582E+02  0.6666E+03
     -0.766  0.4141E+02  0.6711E+03
     -0.659  0.9023E+01  0.6720E+03
     -0.552  0.1312E+00  0.6721E+03
     -0.445 -0.6412E+00  0.6720E+03
     -0.338 -0.6499E-01  0.6720E+03
     -0.231  0.1158E+00  0.6720E+03
     -0.124  0.3789E-01  0.6720E+03
     -0.017  0.4424E-02  0.6720E+03
      0.090  0.2375E-03  0.6720E+03
      0.197  0.6377E-05  0.6720E+03
      0.304  0.8923E-07  0.6720E+03
      0.411  0.6656E-09  0.6720E+03
      0.518  0.2684E-11  0.6720E+03
      0.625  0.6227E-14  0.6720E+03
      0.732  0.0000E+00  0.6720E+03
      0.839  0.0000E+00  0.6720E+03
      0.946  0.0000E+00  0.6720E+03
      1.053  0.0000E+00  0.6720E+03
      1.160  0.0000E+00  0.6720E+03
      1.267  0.0000E+00  0.6720E+03
