   57   57    1    1
  0.4736842E+03  0.3000000E-08  0.3000000E-08  0.3000000E-08  0.5000000E-15
  1.000000000000000E-004
  CAR 
 6_Pd100_top_free_z(O)                   
    560      1    336
 
  0.0000000E+00  0.0000000E+00  0.0000000E+00  0.1000000E+01
    1      -28.823830   1.000000
    2      -13.437274   1.000000
    3      -11.204541   1.000000
    4      -11.182673   1.000000
    5       -9.815925   1.000000
    6       -6.632190   1.000000
    7       -6.122081   1.000000
    8       -6.118057   1.000000
    9       -6.106401   1.000000
   10       -5.813764   1.000000
   11       -5.805888   1.000000
   12       -5.800751   1.000000
   13       -5.734085   1.000000
   14       -5.685372   1.000000
   15       -5.676918   1.000000
   16       -5.674302   1.000000
   17       -5.673404   1.000000
   18       -5.642356   1.000000
   19       -5.621233   1.000000
   20       -5.601624   1.000000
   21       -5.596830   1.000000
   22       -5.587123   1.000000
   23       -5.584651   1.000000
   24       -5.581033   1.000000
   25       -5.577987   1.000000
   26       -5.541186   1.000000
   27       -5.537718   1.000000
   28       -5.525256   1.000000
   29       -5.513512   1.000000
   30       -5.512397   1.000000
   31       -5.506805   1.000000
   32       -5.505652   1.000000
   33       -5.505347   1.000000
   34       -5.502965   1.000000
   35       -5.501008   1.000000
   36       -5.490255   1.000000
   37       -5.473766   1.000000
   38       -5.467157   1.000000
   39       -5.464218   1.000000
   40       -5.462243   1.000000
   41       -5.456765   1.000000
   42       -5.455372   1.000000
   43       -5.454993   1.000000
   44       -5.451690   1.000000
   45       -5.439690   1.000000
   46       -5.421820   1.000000
   47       -5.418095   1.000000
   48       -5.417402   1.000000
   49       -5.416072   1.000000
   50       -5.414299   1.000000
   51       -5.412616   1.000000
   52       -5.403986   1.000000
   53       -5.394431   1.000000
   54       -5.392229   1.000000
   55       -5.382957   1.000000
   56       -5.338329   1.000000
   57       -5.329852   1.000000
   58       -5.322379   1.000000
   59       -5.316758   1.000000
   60       -5.306494   1.000000
   61       -5.304418   1.000000
   62       -5.303533   1.000000
   63       -5.297157   1.000000
   64       -5.296578   1.000000
   65       -5.289088   1.000000
   66       -5.284395   1.000000
   67       -5.282831   1.000000
   68       -5.249918   1.000000
   69       -5.221097   1.000000
   70       -5.213062   1.000000
   71       -5.202706   1.000000
   72       -5.174326   1.000000
   73       -5.169318   1.000000
   74       -5.168648   1.000000
   75       -5.166853   1.000000
   76       -5.163732   1.000000
   77       -5.160458   1.000000
   78       -5.156335   1.000000
   79       -5.149421   1.000000
   80       -5.137468   1.000000
   81       -5.136034   1.000000
   82       -5.120258   1.000000
   83       -5.112822   1.000000
   84       -5.111620   1.000000
   85       -5.100585   1.000000
   86       -5.095500   1.000000
   87       -5.090237   1.000000
   88       -5.073659   1.000000
   89       -5.064577   1.000000
   90       -5.048922   1.000000
   91       -5.046547   1.000000
   92       -5.044975   1.000000
   93       -5.042487   1.000000
   94       -5.037955   1.000000
   95       -5.036338   1.000000
   96       -5.035696   1.000000
   97       -5.029325   1.000000
   98       -5.025227   1.000000
   99       -5.015514   1.000000
  100       -5.008262   1.000000
  101       -5.004637   1.000000
  102       -4.995116   1.000000
  103       -4.993358   1.000000
  104       -4.991689   1.000000
  105       -4.990602   1.000000
  106       -4.980602   1.000000
  107       -4.978800   1.000000
  108       -4.976312   1.000000
  109       -4.969150   1.000000
  110       -4.968356   1.000000
  111       -4.966702   1.000000
  112       -4.960830   1.000000
  113       -4.956360   1.000000
  114       -4.948005   1.000000
  115       -4.942186   0.999999
  116       -4.941121   0.999999
  117       -4.934483   0.999999
  118       -4.918007   0.999999
  119       -4.915503   0.999998
  120       -4.906354   0.999998
  121       -4.903511   0.999998
  122       -4.901814   0.999997
  123       -4.899462   0.999997
  124       -4.897018   0.999997
  125       -4.889858   0.999996
  126       -4.887445   0.999996
  127       -4.858064   0.999990
  128       -4.853088   0.999988
  129       -4.842535   0.999983
  130       -4.835872   0.999980
  131       -4.832390   0.999977
  132       -4.827420   0.999974
  133       -4.824870   0.999972
  134       -4.819207   0.999967
  135       -4.818678   0.999966
  136       -4.817451   0.999965
  137       -4.792829   0.999931
  138       -4.786048   0.999917
  139       -4.785037   0.999915
  140       -4.777477   0.999896
  141       -4.764165   0.999854
  142       -4.750907   0.999797
  143       -4.736524   0.999714
  144       -4.730444   0.999671
  145       -4.725293   0.999630
  146       -4.724540   0.999624
  147       -4.724477   0.999624
  148       -4.704917   0.999424
  149       -4.698922   0.999347
  150       -4.690498   0.999225
  151       -4.686535   0.999162
  152       -4.678233   0.999016
  153       -4.670051   0.998854
  154       -4.666298   0.998773
  155       -4.665029   0.998745
  156       -4.661447   0.998663
  157       -4.660515   0.998640
  158       -4.660055   0.998629
  159       -4.657001   0.998555
  160       -4.649436   0.998358
  161       -4.640858   0.998114
  162       -4.639371   0.998069
  163       -4.638530   0.998044
  164       -4.637500   0.998013
  165       -4.634402   0.997916
  166       -4.632743   0.997863
  167       -4.631710   0.997830
  168       -4.624342   0.997585
  169       -4.618574   0.997385
  170       -4.616744   0.997320
  171       -4.609262   0.997047
  172       -4.605241   0.996898
  173       -4.595676   0.996538
  174       -4.584963   0.996141
  175       -4.584017   0.996106
  176       -4.580653   0.995986
  177       -4.579523   0.995946
  178       -4.576337   0.995837
  179       -4.573710   0.995749
  180       -4.561647   0.995393
  181       -4.561321   0.995385
  182       -4.550311   0.995158
  183       -4.542437   0.995075
  184       -4.541134   0.995069
  185       -4.539060   0.995065
  186       -4.539049   0.995065
  187       -4.538392   0.995065
  188       -4.537552   0.995066
  189       -4.536604   0.995068
  190       -4.534338   0.995080
  191       -4.501271   0.996491
  192       -4.496031   0.996987
  193       -4.493989   0.997205
  194       -4.490804   0.997573
  195       -4.490229   0.997644
  196       -4.479183   0.999236
  197       -4.469743   1.000982
  198       -4.467515   1.001450
  199       -4.462027   1.002694
  200       -4.459369   1.003345
  201       -4.454578   1.004598
  202       -4.450955   1.005616
  203       -4.448203   1.006429
  204       -4.444587   1.007550
  205       -4.443394   1.007933
  206       -4.438993   1.009401
  207       -4.436883   1.010136
  208       -4.434665   1.010929
  209       -4.432675   1.011659
  210       -4.426461   1.014044
  211       -4.420977   1.016276
  212       -4.404146   1.023750
  213       -4.399750   1.025819
  214       -4.396261   1.027481
  215       -4.394386   1.028380
  216       -4.389192   1.030880
  217       -4.387259   1.031810
  218       -4.386910   1.031978
  219       -4.385585   1.032614
  220       -4.374711   1.037748
  221       -4.367213   1.041098
  222       -4.362296   1.043157
  223       -4.344300   1.049209
  224       -4.336344   1.050835
  225       -4.331783   1.051385
  226       -4.327807   1.051608
  227       -4.324740   1.051602
  228       -4.323912   1.051572
  229       -4.323062   1.051529
  230       -4.320440   1.051311
  231       -4.318336   1.051042
  232       -4.316291   1.050697
  233       -4.314629   1.050353
  234       -4.311743   1.049616
  235       -4.310061   1.049103
  236       -4.308594   1.048602
  237       -4.307359   1.048142
  238       -4.303742   1.046586
  239       -4.302684   1.046069
  240       -4.297468   1.043105
  241       -4.293744   1.040543
  242       -4.286892   1.034798
  243       -4.281354   1.029121
  244       -4.279636   1.027163
  245       -4.278955   1.026361
  246       -4.276052   1.022771
  247       -4.270673   1.015374
  248       -4.268994   1.012861
  249       -4.268316   1.011819
  250       -4.266345   1.008697
  251       -4.251896   0.981501
  252       -4.245057   0.965898
  253       -4.244025   0.963387
  254       -4.242895   0.960590
  255       -4.236777   0.944595
  256       -4.236483   0.943791
  257       -4.235917   0.942230
  258       -4.234438   0.938096
  259       -4.230900   0.927864
  260       -4.229791   0.924557
  261       -4.224820   0.909148
  262       -4.224065   0.906726
  263       -4.222419   0.901367
  264       -4.221804   0.899340
  265       -4.219724   0.892371
  266       -4.208830   0.853264
  267       -4.207265   0.847293
  268       -4.205002   0.838505
  269       -4.204325   0.835843
  270       -4.201107   0.822968
  271       -4.200691   0.821276
  272       -4.189488   0.773670
  273       -4.180263   0.731674
  274       -4.179779   0.729406
  275       -4.173871   0.701275
  276       -4.168835   0.676667
  277       -4.166613   0.665646
  278       -4.163052   0.647791
  279       -4.155782   0.610702
  280       -4.154473   0.603944
  281       -4.154161   0.602332
  282       -4.140585   0.531261
  283       -4.124347   0.445509
  284       -4.116974   0.406967
  285       -4.115073   0.397111
  286       -4.111731   0.379897
  287       -4.103743   0.339419
  288       -4.096062   0.301589
  289       -4.039384   0.074945
  290       -3.960201  -0.048794
  291       -3.888686  -0.034968
  292       -3.810354  -0.003441
  293       -3.809055  -0.003116
  294       -3.786176   0.001392
  295       -3.484570   0.000086
  296       -3.480745   0.000077
  297       -3.374854   0.000003
  298       -3.049685   0.000000
  299       -3.044543   0.000000
  300       -3.018868   0.000000
  301       -3.009471   0.000000
  302       -3.000127   0.000000
  303       -2.996029   0.000000
  304       -2.923628   0.000000
  305       -2.837554   0.000000
  306       -2.586512   0.000000
  307       -2.523488   0.000000
  308       -2.505816   0.000000
  309       -2.243317   0.000000
  310       -2.115884   0.000000
  311       -2.109290   0.000000
  312       -2.104981   0.000000
  313       -1.988837   0.000000
  314       -1.937524   0.000000
  315       -1.929159   0.000000
  316       -1.871000   0.000000
  317       -1.836554   0.000000
  318       -1.753218   0.000000
  319       -1.725746   0.000000
  320       -1.668755   0.000000
  321       -1.627320   0.000000
  322       -1.550628   0.000000
  323       -1.519628   0.000000
  324       -1.456783   0.000000
  325       -1.384969   0.000000
  326       -1.111500   0.000000
  327       -1.075027   0.000000
  328       -1.001835   0.000000
  329       -0.976708   0.000000
  330       -0.969624   0.000000
  331       -0.936340   0.000000
  332       -0.928069   0.000000
  333       -0.917371   0.000000
  334       -0.890057   0.000000
  335       -0.867049   0.000000
  336       -0.733420   0.000000
