   57   57    1    1
  0.4736842E+03  0.3000000E-08  0.3000000E-08  0.3000000E-08  0.5000000E-15
  1.000000000000000E-004
  CAR 
 6_Pd100_top_free_z(O)                   
    560      1    336
 
  0.0000000E+00  0.0000000E+00  0.0000000E+00  0.1000000E+01
    1      -28.106927   1.000000
    2      -13.279642   1.000000
    3      -11.111433   1.000000
    4      -11.022536   1.000000
    5      -10.403010   1.000000
    6       -6.652105   1.000000
    7       -6.148385   1.000000
    8       -6.138354   1.000000
    9       -6.138082   1.000000
   10       -6.067469   1.000000
   11       -5.986642   1.000000
   12       -5.854224   1.000000
   13       -5.825861   1.000000
   14       -5.803987   1.000000
   15       -5.776402   1.000000
   16       -5.755139   1.000000
   17       -5.699726   1.000000
   18       -5.694622   1.000000
   19       -5.689089   1.000000
   20       -5.673630   1.000000
   21       -5.652427   1.000000
   22       -5.635712   1.000000
   23       -5.621596   1.000000
   24       -5.616181   1.000000
   25       -5.604970   1.000000
   26       -5.589285   1.000000
   27       -5.578664   1.000000
   28       -5.572038   1.000000
   29       -5.567982   1.000000
   30       -5.562320   1.000000
   31       -5.555833   1.000000
   32       -5.541040   1.000000
   33       -5.530807   1.000000
   34       -5.528464   1.000000
   35       -5.526130   1.000000
   36       -5.520427   1.000000
   37       -5.520085   1.000000
   38       -5.511698   1.000000
   39       -5.509270   1.000000
   40       -5.496670   1.000000
   41       -5.481821   1.000000
   42       -5.481032   1.000000
   43       -5.480032   1.000000
   44       -5.475181   1.000000
   45       -5.473659   1.000000
   46       -5.466697   1.000000
   47       -5.458841   1.000000
   48       -5.453368   1.000000
   49       -5.439022   1.000000
   50       -5.438469   1.000000
   51       -5.436181   1.000000
   52       -5.430483   1.000000
   53       -5.421837   1.000000
   54       -5.412216   1.000000
   55       -5.412004   1.000000
   56       -5.404785   1.000000
   57       -5.397855   1.000000
   58       -5.383012   1.000000
   59       -5.356173   1.000000
   60       -5.345006   1.000000
   61       -5.339688   1.000000
   62       -5.333429   1.000000
   63       -5.326578   1.000000
   64       -5.321687   1.000000
   65       -5.309966   1.000000
   66       -5.307172   1.000000
   67       -5.306134   1.000000
   68       -5.303615   1.000000
   69       -5.289025   1.000000
   70       -5.263605   1.000000
   71       -5.236819   1.000000
   72       -5.219900   1.000000
   73       -5.215749   1.000000
   74       -5.210790   1.000000
   75       -5.204793   1.000000
   76       -5.193694   1.000000
   77       -5.191423   1.000000
   78       -5.182883   1.000000
   79       -5.174839   1.000000
   80       -5.173417   1.000000
   81       -5.170440   1.000000
   82       -5.167858   1.000000
   83       -5.165329   1.000000
   84       -5.140078   1.000000
   85       -5.133851   1.000000
   86       -5.130821   1.000000
   87       -5.121724   1.000000
   88       -5.119422   1.000000
   89       -5.112912   1.000000
   90       -5.103090   1.000000
   91       -5.077942   1.000000
   92       -5.075605   1.000000
   93       -5.071600   1.000000
   94       -5.068648   1.000000
   95       -5.059076   1.000000
   96       -5.058031   1.000000
   97       -5.055356   1.000000
   98       -5.047424   1.000000
   99       -5.042944   1.000000
  100       -5.041133   1.000000
  101       -5.033846   1.000000
  102       -5.028904   1.000000
  103       -5.025319   1.000000
  104       -5.020355   1.000000
  105       -5.014147   1.000000
  106       -5.009908   1.000000
  107       -5.007596   1.000000
  108       -5.003011   1.000000
  109       -5.002395   1.000000
  110       -4.990562   1.000000
  111       -4.989696   1.000000
  112       -4.987061   1.000000
  113       -4.979454   1.000000
  114       -4.977632   1.000000
  115       -4.968956   1.000000
  116       -4.966123   0.999999
  117       -4.956967   0.999999
  118       -4.952016   0.999999
  119       -4.946909   0.999999
  120       -4.940728   0.999999
  121       -4.931152   0.999998
  122       -4.920801   0.999997
  123       -4.918629   0.999997
  124       -4.913389   0.999997
  125       -4.907997   0.999996
  126       -4.902301   0.999995
  127       -4.900278   0.999995
  128       -4.886259   0.999992
  129       -4.877428   0.999989
  130       -4.861326   0.999982
  131       -4.857271   0.999980
  132       -4.852709   0.999977
  133       -4.848949   0.999974
  134       -4.843169   0.999970
  135       -4.838361   0.999965
  136       -4.836584   0.999963
  137       -4.823917   0.999947
  138       -4.818697   0.999939
  139       -4.810677   0.999925
  140       -4.801467   0.999904
  141       -4.790888   0.999873
  142       -4.790347   0.999871
  143       -4.782435   0.999843
  144       -4.777487   0.999822
  145       -4.776567   0.999818
  146       -4.765269   0.999761
  147       -4.749740   0.999657
  148       -4.737168   0.999546
  149       -4.731558   0.999487
  150       -4.724682   0.999406
  151       -4.721331   0.999364
  152       -4.718842   0.999330
  153       -4.710064   0.999200
  154       -4.708812   0.999180
  155       -4.700781   0.999042
  156       -4.699907   0.999026
  157       -4.687562   0.998775
  158       -4.685652   0.998733
  159       -4.682176   0.998652
  160       -4.674313   0.998457
  161       -4.668576   0.998302
  162       -4.664415   0.998184
  163       -4.660686   0.998074
  164       -4.659153   0.998027
  165       -4.657037   0.997962
  166       -4.655819   0.997924
  167       -4.651921   0.997799
  168       -4.648520   0.997687
  169       -4.646363   0.997614
  170       -4.640954   0.997427
  171       -4.637262   0.997296
  172       -4.625739   0.996873
  173       -4.615652   0.996494
  174       -4.611956   0.996355
  175       -4.609055   0.996248
  176       -4.605721   0.996126
  177       -4.602723   0.996018
  178       -4.601011   0.995958
  179       -4.598620   0.995875
  180       -4.596127   0.995790
  181       -4.587893   0.995532
  182       -4.582435   0.995383
  183       -4.576531   0.995248
  184       -4.575415   0.995226
  185       -4.571495   0.995158
  186       -4.565848   0.995091
  187       -4.564626   0.995081
  188       -4.561369   0.995067
  189       -4.557446   0.995070
  190       -4.555048   0.995083
  191       -4.551378   0.995124
  192       -4.533854   0.995699
  193       -4.520220   0.996690
  194       -4.516555   0.997054
  195       -4.514623   0.997264
  196       -4.512954   0.997456
  197       -4.502466   0.998894
  198       -4.499125   0.999441
  199       -4.497450   0.999732
  200       -4.493664   1.000434
  201       -4.491643   1.000833
  202       -4.481087   1.003207
  203       -4.479138   1.003699
  204       -4.474281   1.005002
  205       -4.466936   1.007177
  206       -4.463850   1.008164
  207       -4.454862   1.011282
  208       -4.454349   1.011471
  209       -4.451471   1.012549
  210       -4.446947   1.014314
  211       -4.441197   1.016673
  212       -4.432180   1.020602
  213       -4.430090   1.021547
  214       -4.428961   1.022063
  215       -4.420801   1.025873
  216       -4.416459   1.027945
  217       -4.414804   1.028739
  218       -4.411232   1.030458
  219       -4.404100   1.033884
  220       -4.398964   1.036314
  221       -4.389276   1.040709
  222       -4.382054   1.043721
  223       -4.377173   1.045574
  224       -4.374222   1.046608
  225       -4.368457   1.048407
  226       -4.358335   1.050704
  227       -4.355269   1.051143
  228       -4.345878   1.051601
  229       -4.342623   1.051411
  230       -4.341871   1.051339
  231       -4.339396   1.051027
  232       -4.338906   1.050950
  233       -4.334976   1.050162
  234       -4.332528   1.049506
  235       -4.330552   1.048878
  236       -4.329848   1.048634
  237       -4.329303   1.048436
  238       -4.327701   1.047815
  239       -4.323129   1.045702
  240       -4.316317   1.041556
  241       -4.314050   1.039897
  242       -4.312448   1.038637
  243       -4.300536   1.026853
  244       -4.295062   1.019924
  245       -4.293009   1.017067
  246       -4.291473   1.014835
  247       -4.288980   1.011038
  248       -4.285857   1.005970
  249       -4.283641   1.002164
  250       -4.275343   0.986310
  251       -4.272687   0.980692
  252       -4.271292   0.977634
  253       -4.267974   0.970064
  254       -4.267016   0.967799
  255       -4.266562   0.966714
  256       -4.259178   0.947941
  257       -4.258522   0.946172
  258       -4.257030   0.942086
  259       -4.255589   0.938056
  260       -4.251875   0.927298
  261       -4.249677   0.920682
  262       -4.247409   0.913656
  263       -4.245520   0.907658
  264       -4.243775   0.901991
  265       -4.243480   0.901023
  266       -4.236471   0.877035
  267       -4.231635   0.859425
  268       -4.229833   0.852647
  269       -4.228528   0.847666
  270       -4.226934   0.841501
  271       -4.224798   0.833099
  272       -4.216674   0.799747
  273       -4.213294   0.785244
  274       -4.201530   0.732146
  275       -4.192696   0.689904
  276       -4.185993   0.656719
  277       -4.184284   0.648128
  278       -4.180271   0.627754
  279       -4.179065   0.621585
  280       -4.177844   0.615318
  281       -4.163859   0.542380
  282       -4.149742   0.467791
  283       -4.144368   0.439497
  284       -4.136912   0.400596
  285       -4.135731   0.394491
  286       -4.132274   0.376709
  287       -4.122470   0.327279
  288       -4.121219   0.321097
  289       -4.061347   0.077347
  290       -3.971648  -0.051117
  291       -3.870024  -0.016483
  292       -3.832006  -0.003564
  293       -3.820382  -0.000904
  294       -3.603925   0.000837
  295       -3.521039   0.000128
  296       -3.503264   0.000080
  297       -3.336650   0.000000
  298       -3.076189   0.000000
  299       -3.074813   0.000000
  300       -3.054491   0.000000
  301       -3.040385   0.000000
  302       -3.025334   0.000000
  303       -2.958574   0.000000
  304       -2.948947   0.000000
  305       -2.633568   0.000000
  306       -2.615261   0.000000
  307       -2.527890   0.000000
  308       -2.437719   0.000000
  309       -2.289001   0.000000
  310       -2.121503   0.000000
  311       -2.119624   0.000000
  312       -2.099121   0.000000
  313       -2.012421   0.000000
  314       -1.976298   0.000000
  315       -1.943983   0.000000
  316       -1.889992   0.000000
  317       -1.771725   0.000000
  318       -1.742978   0.000000
  319       -1.669077   0.000000
  320       -1.650958   0.000000
  321       -1.588923   0.000000
  322       -1.559529   0.000000
  323       -1.445041   0.000000
  324       -1.353983   0.000000
  325       -1.247600   0.000000
  326       -1.195215   0.000000
  327       -1.087347   0.000000
  328       -0.994211   0.000000
  329       -0.988436   0.000000
  330       -0.974753   0.000000
  331       -0.957742   0.000000
  332       -0.939017   0.000000
  333       -0.929201   0.000000
  334       -0.889749   0.000000
  335       -0.874449   0.000000
  336       -0.802217   0.000000
