  57  57   0   0
  0.4736842E+03  0.3000000E-08  0.3000000E-08  0.3000000E-08  0.5000000E-15
  1.000000000000000E-004
  CAR 
 6_Pd100_top_free_z(O)                   
      1.23125361    -30.35375637  301     -4.14230603      1.00000000
    -30.354  0.0000E+00  0.0000E+00
    -30.248  0.0000E+00  0.0000E+00
    -30.143  0.0000E+00  0.0000E+00
    -30.038  0.2436E-27  0.2565E-28
    -29.933  0.1070E-23  0.1127E-24
    -29.827  0.2659E-20  0.2801E-21
    -29.722  0.3731E-17  0.3931E-18
    -29.617  0.2944E-14  0.3104E-15
    -29.511  0.1303E-11  0.1375E-12
    -29.406  0.3208E-09  0.3391E-10
    -29.301  0.4354E-07  0.4618E-08
    -29.196  0.3216E-05  0.3432E-06
    -29.090  0.1262E-03  0.1363E-04
    -28.985  0.2520E-02  0.2789E-03
    -28.880  0.2309E-01  0.2710E-02
    -28.775  0.6451E-01  0.9502E-02
    -28.669 -0.2015E+00 -0.1171E-01
    -28.564 -0.8209E+00 -0.9814E-01
    -28.459  0.1842E+01  0.9584E-01
    -28.353  0.8626E+01  0.1004E+01
    -28.248  0.8587E+01  0.1908E+01
    -28.143  0.1801E+01  0.2098E+01
    -28.038 -0.8213E+00  0.2011E+01
    -27.932 -0.1969E+00  0.1991E+01
    -27.827  0.6455E-01  0.1997E+01
    -27.722  0.2280E-01  0.2000E+01
    -27.616  0.2472E-02  0.2000E+01
    -27.511  0.1232E-03  0.2000E+01
    -27.406  0.3123E-05  0.2000E+01
    -27.301  0.4210E-07  0.2000E+01
    -27.195  0.3088E-09  0.2000E+01
    -27.090  0.1251E-11  0.2000E+01
    -26.985  0.2109E-14  0.2000E+01
    -26.879  0.0000E+00  0.2000E+01
    -26.774  0.0000E+00  0.2000E+01
    -26.669  0.0000E+00  0.2000E+01
    -26.564  0.0000E+00  0.2000E+01
    -26.458  0.0000E+00  0.2000E+01
    -26.353  0.0000E+00  0.2000E+01
    -26.248  0.0000E+00  0.2000E+01
    -26.142  0.0000E+00  0.2000E+01
    -26.037  0.0000E+00  0.2000E+01
    -25.932  0.0000E+00  0.2000E+01
    -25.827  0.0000E+00  0.2000E+01
    -25.721  0.0000E+00  0.2000E+01
    -25.616  0.0000E+00  0.2000E+01
    -25.511  0.0000E+00  0.2000E+01
    -25.405  0.0000E+00  0.2000E+01
    -25.300  0.0000E+00  0.2000E+01
    -25.195  0.0000E+00  0.2000E+01
    -25.090  0.0000E+00  0.2000E+01
    -24.984  0.0000E+00  0.2000E+01
    -24.879  0.0000E+00  0.2000E+01
    -24.774  0.0000E+00  0.2000E+01
    -24.668  0.0000E+00  0.2000E+01
    -24.563  0.0000E+00  0.2000E+01
    -24.458  0.0000E+00  0.2000E+01
    -24.353  0.0000E+00  0.2000E+01
    -24.247  0.0000E+00  0.2000E+01
    -24.142  0.0000E+00  0.2000E+01
    -24.037  0.0000E+00  0.2000E+01
    -23.931  0.0000E+00  0.2000E+01
    -23.826  0.0000E+00  0.2000E+01
    -23.721  0.0000E+00  0.2000E+01
    -23.616  0.0000E+00  0.2000E+01
    -23.510  0.0000E+00  0.2000E+01
    -23.405  0.0000E+00  0.2000E+01
    -23.300  0.0000E+00  0.2000E+01
    -23.194  0.0000E+00  0.2000E+01
    -23.089  0.0000E+00  0.2000E+01
    -22.984  0.0000E+00  0.2000E+01
    -22.879  0.0000E+00  0.2000E+01
    -22.773  0.0000E+00  0.2000E+01
    -22.668  0.0000E+00  0.2000E+01
    -22.563  0.0000E+00  0.2000E+01
    -22.458  0.0000E+00  0.2000E+01
    -22.352  0.0000E+00  0.2000E+01
    -22.247  0.0000E+00  0.2000E+01
    -22.142  0.0000E+00  0.2000E+01
    -22.036  0.0000E+00  0.2000E+01
    -21.931  0.0000E+00  0.2000E+01
    -21.826  0.0000E+00  0.2000E+01
    -21.721  0.0000E+00  0.2000E+01
    -21.615  0.0000E+00  0.2000E+01
    -21.510  0.0000E+00  0.2000E+01
    -21.405  0.0000E+00  0.2000E+01
    -21.299  0.0000E+00  0.2000E+01
    -21.194  0.0000E+00  0.2000E+01
    -21.089  0.0000E+00  0.2000E+01
    -20.984  0.0000E+00  0.2000E+01
    -20.878  0.0000E+00  0.2000E+01
    -20.773  0.0000E+00  0.2000E+01
    -20.668  0.0000E+00  0.2000E+01
    -20.562  0.0000E+00  0.2000E+01
    -20.457  0.0000E+00  0.2000E+01
    -20.352  0.0000E+00  0.2000E+01
    -20.247  0.0000E+00  0.2000E+01
    -20.141  0.0000E+00  0.2000E+01
    -20.036  0.0000E+00  0.2000E+01
    -19.931  0.0000E+00  0.2000E+01
    -19.825  0.0000E+00  0.2000E+01
    -19.720  0.0000E+00  0.2000E+01
    -19.615  0.0000E+00  0.2000E+01
    -19.510  0.0000E+00  0.2000E+01
    -19.404  0.0000E+00  0.2000E+01
    -19.299  0.0000E+00  0.2000E+01
    -19.194  0.0000E+00  0.2000E+01
    -19.088  0.0000E+00  0.2000E+01
    -18.983  0.0000E+00  0.2000E+01
    -18.878  0.0000E+00  0.2000E+01
    -18.773  0.0000E+00  0.2000E+01
    -18.667  0.0000E+00  0.2000E+01
    -18.562  0.0000E+00  0.2000E+01
    -18.457  0.0000E+00  0.2000E+01
    -18.351  0.0000E+00  0.2000E+01
    -18.246  0.0000E+00  0.2000E+01
    -18.141  0.0000E+00  0.2000E+01
    -18.036  0.0000E+00  0.2000E+01
    -17.930  0.0000E+00  0.2000E+01
    -17.825  0.0000E+00  0.2000E+01
    -17.720  0.0000E+00  0.2000E+01
    -17.614  0.0000E+00  0.2000E+01
    -17.509  0.0000E+00  0.2000E+01
    -17.404  0.0000E+00  0.2000E+01
    -17.299  0.0000E+00  0.2000E+01
    -17.193  0.0000E+00  0.2000E+01
    -17.088  0.0000E+00  0.2000E+01
    -16.983  0.0000E+00  0.2000E+01
    -16.877  0.0000E+00  0.2000E+01
    -16.772  0.0000E+00  0.2000E+01
    -16.667  0.0000E+00  0.2000E+01
    -16.562  0.0000E+00  0.2000E+01
    -16.456  0.0000E+00  0.2000E+01
    -16.351  0.0000E+00  0.2000E+01
    -16.246  0.0000E+00  0.2000E+01
    -16.141  0.0000E+00  0.2000E+01
    -16.035  0.0000E+00  0.2000E+01
    -15.930  0.0000E+00  0.2000E+01
    -15.825  0.0000E+00  0.2000E+01
    -15.719  0.0000E+00  0.2000E+01
    -15.614  0.0000E+00  0.2000E+01
    -15.509  0.0000E+00  0.2000E+01
    -15.404  0.0000E+00  0.2000E+01
    -15.298  0.0000E+00  0.2000E+01
    -15.193  0.0000E+00  0.2000E+01
    -15.088  0.0000E+00  0.2000E+01
    -14.982  0.1891E-25  0.2000E+01
    -14.877  0.6212E-22  0.2000E+01
    -14.772  0.1154E-18  0.2000E+01
    -14.667  0.1207E-15  0.2000E+01
    -14.561  0.7090E-13  0.2000E+01
    -14.456  0.2331E-10  0.2000E+01
    -14.351  0.4239E-08  0.2000E+01
    -14.245  0.4227E-06  0.2000E+01
    -14.140  0.2269E-04  0.2000E+01
    -14.035  0.6357E-03  0.2000E+01
    -13.930  0.8703E-02  0.2001E+01
    -13.824  0.4834E-01  0.2006E+01
    -13.719  0.9633E-02  0.2007E+01
    -13.614 -0.5881E+00  0.1945E+01
    -13.508 -0.2107E+00  0.1923E+01
    -13.403  0.5341E+01  0.2485E+01
    -13.298  0.1003E+02  0.3541E+01
    -13.193  0.5133E+01  0.4082E+01
    -13.087 -0.2807E+00  0.4052E+01
    -12.982 -0.5659E+00  0.3992E+01
    -12.877  0.1622E-01  0.3994E+01
    -12.771  0.4685E-01  0.3999E+01
    -12.666  0.8176E-02  0.4000E+01
    -12.561  0.5844E-03  0.4000E+01
    -12.456  0.2047E-04  0.4000E+01
    -12.350  0.3746E-06  0.4000E+01
    -12.245  0.3745E-08  0.4000E+01
    -12.140  0.8604E-08  0.4000E+01
    -12.034  0.7834E-06  0.4000E+01
    -11.929  0.3836E-04  0.4000E+01
    -11.824  0.9739E-03  0.4000E+01
    -11.719  0.1191E-01  0.4001E+01
    -11.613  0.5600E-01  0.4007E+01
    -11.508 -0.2819E-01  0.4004E+01
    -11.403 -0.6592E+00  0.3935E+01
    -11.297  0.2822E+00  0.3965E+01
    -11.192  0.6005E+01  0.4597E+01
    -11.087  0.9233E+01  0.5569E+01
    -10.982  0.7749E+01  0.6385E+01
    -10.876  0.9249E+01  0.7358E+01
    -10.771  0.6190E+01  0.8010E+01
    -10.666 -0.3351E+00  0.7975E+01
    -10.560  0.8993E+00  0.8069E+01
    -10.455  0.8333E+01  0.8947E+01
    -10.350  0.8877E+01  0.9881E+01
    -10.245  0.2074E+01  0.1010E+02
    -10.139 -0.8148E+00  0.1001E+02
    -10.034 -0.2253E+00  0.9990E+01
     -9.929  0.6408E-01  0.9997E+01
     -9.823  0.2463E-01  0.1000E+02
     -9.718  0.2778E-02  0.1000E+02
     -9.613  0.1429E-03  0.1000E+02
     -9.508  0.3729E-05  0.1000E+02
     -9.402  0.5167E-07  0.1000E+02
     -9.297  0.3892E-09  0.1000E+02
     -9.192  0.1618E-11  0.1000E+02
     -9.087  0.4218E-14  0.1000E+02
     -8.981  0.0000E+00  0.1000E+02
     -8.876  0.0000E+00  0.1000E+02
     -8.771  0.0000E+00  0.1000E+02
     -8.665  0.0000E+00  0.1000E+02
     -8.560  0.0000E+00  0.1000E+02
     -8.455  0.0000E+00  0.1000E+02
     -8.350  0.8674E-28  0.1000E+02
     -8.244  0.4075E-24  0.1000E+02
     -8.139  0.1084E-20  0.1000E+02
     -8.034  0.1627E-17  0.1000E+02
     -7.928  0.1375E-14  0.1000E+02
     -7.823  0.6523E-12  0.1000E+02
     -7.718  0.1722E-09  0.1000E+02
     -7.613  0.2510E-07  0.1000E+02
     -7.507  0.1994E-05  0.1000E+02
     -7.402  0.8450E-04  0.1000E+02
     -7.297  0.1835E-02  0.1000E+02
     -7.191  0.1862E-01  0.1000E+02
     -7.086  0.6370E-01  0.1001E+02
     -6.981 -0.1316E+00  0.9995E+01
     -6.876 -0.7923E+00  0.9912E+01
     -6.770  0.1296E+01  0.1005E+02
     -6.665  0.8035E+01  0.1089E+02
     -6.560  0.8279E+01  0.1177E+02
     -6.454  0.1513E+01  0.1192E+02
     -6.349  0.6680E+01  0.1263E+02
     -6.244  0.2305E+02  0.1505E+02
     -6.139  0.3421E+02  0.1866E+02
     -6.033  0.2551E+02  0.2134E+02
     -5.928  0.8143E+01  0.2220E+02
     -5.823  0.2115E+02  0.2443E+02
     -5.717  0.6524E+02  0.3129E+02
     -5.612  0.1389E+03  0.4591E+02
     -5.507  0.2449E+03  0.7170E+02
     -5.402  0.2981E+03  0.1031E+03
     -5.296  0.2461E+03  0.1290E+03
     -5.191  0.2060E+03  0.1507E+03
     -5.086  0.2716E+03  0.1793E+03
     -4.980  0.3584E+03  0.2170E+03
     -4.875  0.3413E+03  0.2529E+03
     -4.770  0.2883E+03  0.2833E+03
     -4.665  0.3396E+03  0.3191E+03
     -4.559  0.4126E+03  0.3625E+03
     -4.454  0.4202E+03  0.4067E+03
     -4.349  0.4735E+03  0.4566E+03
     -4.243  0.5551E+03  0.5150E+03
     -4.138  0.4392E+03  0.5613E+03
     -4.033  0.1675E+03  0.5789E+03
     -3.928  0.2369E+02  0.5814E+03
     -3.822  0.2637E+02  0.5842E+03
     -3.717  0.2889E+02  0.5872E+03
     -3.612  0.1010E+02  0.5883E+03
     -3.506  0.1319E+02  0.5897E+03
     -3.401  0.2163E+02  0.5920E+03
     -3.296  0.1205E+02  0.5932E+03
     -3.191  0.3747E+01  0.5936E+03
     -3.085  0.2994E+02  0.5968E+03
     -2.980  0.6336E+02  0.6034E+03
     -2.875  0.4635E+02  0.6083E+03
     -2.770  0.1259E+02  0.6096E+03
     -2.664  0.5552E+01  0.6102E+03
     -2.559  0.2049E+02  0.6124E+03
     -2.454  0.2562E+02  0.6151E+03
     -2.348  0.8914E+01  0.6160E+03
     -2.243  0.7579E+01  0.6168E+03
     -2.138  0.2788E+02  0.6198E+03
     -2.033  0.3757E+02  0.6237E+03
     -1.927  0.4049E+02  0.6280E+03
     -1.822  0.4528E+02  0.6327E+03
     -1.717  0.4073E+02  0.6370E+03
     -1.611  0.3719E+02  0.6409E+03
     -1.506  0.3584E+02  0.6447E+03
     -1.401  0.2855E+02  0.6477E+03
     -1.296  0.1565E+02  0.6494E+03
     -1.190  0.2905E+01  0.6497E+03
     -1.085  0.1416E+02  0.6512E+03
     -0.980  0.5729E+02  0.6572E+03
     -0.874  0.7976E+02  0.6656E+03
     -0.769  0.5057E+02  0.6709E+03
     -0.664  0.1295E+02  0.6723E+03
     -0.559 -0.1581E+01  0.6721E+03
     -0.453 -0.1419E+01  0.6720E+03
     -0.348  0.9944E-01  0.6720E+03
     -0.243  0.1794E+00  0.6720E+03
     -0.137  0.3854E-01  0.6720E+03
     -0.032  0.3525E-02  0.6720E+03
      0.073  0.1605E-03  0.6720E+03
      0.178  0.3846E-05  0.6720E+03
      0.284  0.4991E-07  0.6720E+03
      0.389  0.3565E-09  0.6720E+03
      0.494  0.1413E-11  0.6720E+03
      0.600  0.2109E-14  0.6720E+03
      0.705  0.0000E+00  0.6720E+03
      0.810  0.0000E+00  0.6720E+03
      0.915  0.0000E+00  0.6720E+03
      1.021  0.0000E+00  0.6720E+03
      1.126  0.0000E+00  0.6720E+03
      1.231  0.0000E+00  0.6720E+03
