   57   57    1    1
  0.4736842E+03  0.3000000E-08  0.3000000E-08  0.3000000E-08  0.5000000E-15
  1.000000000000000E-004
  CAR 
 6_Pd100_top_free_z(O)                   
    560      1    336
 
  0.0000000E+00  0.0000000E+00  0.0000000E+00  0.1000000E+01
    1      -28.250273   1.000000
    2      -13.331192   1.000000
    3      -11.243334   1.000000
    4      -10.850331   1.000000
    5      -10.229505   1.000000
    6       -6.661197   1.000000
    7       -6.408114   1.000000
    8       -6.268758   1.000000
    9       -6.151601   1.000000
   10       -6.131867   1.000000
   11       -6.112607   1.000000
   12       -5.877855   1.000000
   13       -5.819166   1.000000
   14       -5.817013   1.000000
   15       -5.776208   1.000000
   16       -5.748358   1.000000
   17       -5.697870   1.000000
   18       -5.695833   1.000000
   19       -5.689444   1.000000
   20       -5.676162   1.000000
   21       -5.670262   1.000000
   22       -5.635077   1.000000
   23       -5.618940   1.000000
   24       -5.603542   1.000000
   25       -5.599248   1.000000
   26       -5.593144   1.000000
   27       -5.576636   1.000000
   28       -5.567655   1.000000
   29       -5.552506   1.000000
   30       -5.549970   1.000000
   31       -5.544206   1.000000
   32       -5.529049   1.000000
   33       -5.522151   1.000000
   34       -5.521750   1.000000
   35       -5.516618   1.000000
   36       -5.515960   1.000000
   37       -5.509990   1.000000
   38       -5.498278   1.000000
   39       -5.490116   1.000000
   40       -5.482073   1.000000
   41       -5.477297   1.000000
   42       -5.473165   1.000000
   43       -5.470592   1.000000
   44       -5.467130   1.000000
   45       -5.466134   1.000000
   46       -5.457871   1.000000
   47       -5.440866   1.000000
   48       -5.434403   1.000000
   49       -5.431426   1.000000
   50       -5.428749   1.000000
   51       -5.425312   1.000000
   52       -5.418628   1.000000
   53       -5.408396   1.000000
   54       -5.408229   1.000000
   55       -5.400299   1.000000
   56       -5.394610   1.000000
   57       -5.378696   1.000000
   58       -5.356155   1.000000
   59       -5.341493   1.000000
   60       -5.334248   1.000000
   61       -5.330202   1.000000
   62       -5.326698   1.000000
   63       -5.320165   1.000000
   64       -5.319312   1.000000
   65       -5.305200   1.000000
   66       -5.303114   1.000000
   67       -5.296349   1.000000
   68       -5.284043   1.000000
   69       -5.265469   1.000000
   70       -5.238147   1.000000
   71       -5.220342   1.000000
   72       -5.215322   1.000000
   73       -5.204039   1.000000
   74       -5.198559   1.000000
   75       -5.196095   1.000000
   76       -5.184394   1.000000
   77       -5.183400   1.000000
   78       -5.178912   1.000000
   79       -5.169997   1.000000
   80       -5.168341   1.000000
   81       -5.166617   1.000000
   82       -5.141131   1.000000
   83       -5.140797   1.000000
   84       -5.130522   1.000000
   85       -5.127478   1.000000
   86       -5.121483   1.000000
   87       -5.112515   1.000000
   88       -5.104092   1.000000
   89       -5.089643   1.000000
   90       -5.078173   1.000000
   91       -5.073922   1.000000
   92       -5.061223   1.000000
   93       -5.059222   1.000000
   94       -5.057668   1.000000
   95       -5.054708   1.000000
   96       -5.052875   1.000000
   97       -5.050076   1.000000
   98       -5.042455   1.000000
   99       -5.040638   1.000000
  100       -5.032459   1.000000
  101       -5.027684   1.000000
  102       -5.024541   1.000000
  103       -5.013595   1.000000
  104       -5.009427   1.000000
  105       -5.007014   1.000000
  106       -5.004458   1.000000
  107       -4.999060   1.000000
  108       -4.994904   1.000000
  109       -4.992470   1.000000
  110       -4.982639   1.000000
  111       -4.980732   1.000000
  112       -4.975360   1.000000
  113       -4.968135   1.000000
  114       -4.963862   0.999999
  115       -4.960560   0.999999
  116       -4.959850   0.999999
  117       -4.949246   0.999999
  118       -4.942961   0.999999
  119       -4.934286   0.999999
  120       -4.929379   0.999998
  121       -4.915545   0.999997
  122       -4.913847   0.999997
  123       -4.910572   0.999997
  124       -4.909411   0.999997
  125       -4.903968   0.999996
  126       -4.902477   0.999996
  127       -4.881330   0.999992
  128       -4.877145   0.999990
  129       -4.864198   0.999986
  130       -4.853969   0.999981
  131       -4.845725   0.999975
  132       -4.843454   0.999974
  133       -4.839941   0.999971
  134       -4.838408   0.999970
  135       -4.836337   0.999968
  136       -4.833124   0.999965
  137       -4.814452   0.999940
  138       -4.800839   0.999914
  139       -4.798556   0.999908
  140       -4.785648   0.999872
  141       -4.780249   0.999853
  142       -4.771003   0.999815
  143       -4.766703   0.999794
  144       -4.758536   0.999750
  145       -4.748857   0.999686
  146       -4.741155   0.999626
  147       -4.734321   0.999564
  148       -4.730984   0.999531
  149       -4.719186   0.999397
  150       -4.707381   0.999233
  151       -4.698501   0.999087
  152       -4.693347   0.998992
  153       -4.687888   0.998884
  154       -4.686893   0.998863
  155       -4.684056   0.998803
  156       -4.679459   0.998700
  157       -4.677375   0.998651
  158       -4.675363   0.998603
  159       -4.672966   0.998544
  160       -4.667215   0.998395
  161       -4.663126   0.998283
  162       -4.660233   0.998201
  163       -4.651452   0.997937
  164       -4.650280   0.997900
  165       -4.649973   0.997890
  166       -4.647819   0.997821
  167       -4.647415   0.997808
  168       -4.645276   0.997738
  169       -4.641676   0.997617
  170       -4.632599   0.997300
  171       -4.625199   0.997030
  172       -4.616708   0.996713
  173       -4.612201   0.996543
  174       -4.607688   0.996374
  175       -4.600501   0.996109
  176       -4.598488   0.996037
  177       -4.597455   0.996000
  178       -4.594590   0.995900
  179       -4.593719   0.995870
  180       -4.589030   0.995714
  181       -4.580198   0.995450
  182       -4.571565   0.995244
  183       -4.568917   0.995194
  184       -4.563283   0.995112
  185       -4.560634   0.995087
  186       -4.559685   0.995080
  187       -4.555056   0.995065
  188       -4.553735   0.995066
  189       -4.552103   0.995072
  190       -4.544055   0.995167
  191       -4.533675   0.995480
  192       -4.531695   0.995568
  193       -4.516967   0.996552
  194       -4.514058   0.996823
  195       -4.507408   0.997548
  196       -4.506202   0.997697
  197       -4.501804   0.998282
  198       -4.492044   0.999847
  199       -4.489092   1.000396
  200       -4.481665   1.001943
  201       -4.476662   1.003122
  202       -4.471310   1.004508
  203       -4.464909   1.006337
  204       -4.462775   1.006988
  205       -4.459878   1.007906
  206       -4.456375   1.009066
  207       -4.452885   1.010276
  208       -4.448438   1.011895
  209       -4.443133   1.013936
  210       -4.442481   1.014194
  211       -4.430914   1.019045
  212       -4.427999   1.020339
  213       -4.421842   1.023147
  214       -4.420905   1.023582
  215       -4.412976   1.027330
  216       -4.409682   1.028910
  217       -4.407446   1.029986
  218       -4.406617   1.030385
  219       -4.401708   1.032747
  220       -4.397929   1.034553
  221       -4.387457   1.039406
  222       -4.374534   1.044787
  223       -4.369682   1.046531
  224       -4.363337   1.048506
  225       -4.355776   1.050308
  226       -4.348554   1.051352
  227       -4.340195   1.051567
  228       -4.339097   1.051506
  229       -4.338325   1.051450
  230       -4.336309   1.051252
  231       -4.335579   1.051161
  232       -4.334926   1.051071
  233       -4.330924   1.050330
  234       -4.327689   1.049485
  235       -4.326429   1.049093
  236       -4.323847   1.048177
  237       -4.323604   1.048083
  238       -4.322047   1.047446
  239       -4.319093   1.046075
  240       -4.314065   1.043231
  241       -4.310958   1.041137
  242       -4.304037   1.035491
  243       -4.296517   1.027723
  244       -4.295238   1.026224
  245       -4.291288   1.021256
  246       -4.290097   1.019656
  247       -4.286034   1.013833
  248       -4.284790   1.011936
  249       -4.280841   1.005553
  250       -4.275050   0.995175
  251       -4.268970   0.982945
  252       -4.266166   0.976836
  253       -4.264454   0.972960
  254       -4.260713   0.964096
  255       -4.257512   0.956083
  256       -4.255751   0.951507
  257       -4.252321   0.942248
  258       -4.249875   0.935365
  259       -4.246827   0.926463
  260       -4.245514   0.922520
  261       -4.244240   0.918628
  262       -4.242062   0.911829
  263       -4.238980   0.901903
  264       -4.238027   0.898758
  265       -4.237258   0.896197
  266       -4.228303   0.864743
  267       -4.226609   0.858458
  268       -4.223571   0.846936
  269       -4.222688   0.843526
  270       -4.219438   0.830741
  271       -4.216772   0.819985
  272       -4.209609   0.789925
  273       -4.205083   0.770108
  274       -4.195174   0.724687
  275       -4.187156   0.686125
  276       -4.185650   0.678722
  277       -4.178311   0.642033
  278       -4.175358   0.627010
  279       -4.174671   0.623498
  280       -4.171482   0.607103
  281       -4.165528   0.576169
  282       -4.159321   0.543590
  283       -4.140961   0.446645
  284       -4.130398   0.391567
  285       -4.129609   0.387503
  286       -4.128962   0.384174
  287       -4.119028   0.333862
  288       -4.112354   0.301075
  289       -4.053383   0.067864
  290       -3.968571  -0.050856
  291       -3.905547  -0.035187
  292       -3.831756  -0.004761
  293       -3.817545  -0.001305
  294       -3.740120   0.004901
  295       -3.505058   0.000095
  296       -3.493340   0.000070
  297       -3.382820   0.000002
  298       -3.065123   0.000000
  299       -3.063871   0.000000
  300       -3.040205   0.000000
  301       -3.037854   0.000000
  302       -3.025845   0.000000
  303       -2.972078   0.000000
  304       -2.944516   0.000000
  305       -2.861966   0.000000
  306       -2.541478   0.000000
  307       -2.525595   0.000000
  308       -2.413941   0.000000
  309       -2.286065   0.000000
  310       -2.142050   0.000000
  311       -2.121118   0.000000
  312       -2.117080   0.000000
  313       -1.990261   0.000000
  314       -1.981151   0.000000
  315       -1.944691   0.000000
  316       -1.866537   0.000000
  317       -1.848173   0.000000
  318       -1.743866   0.000000
  319       -1.685585   0.000000
  320       -1.644887   0.000000
  321       -1.604834   0.000000
  322       -1.562876   0.000000
  323       -1.460586   0.000000
  324       -1.357366   0.000000
  325       -1.273810   0.000000
  326       -1.141125   0.000000
  327       -1.074229   0.000000
  328       -1.017891   0.000000
  329       -0.989573   0.000000
  330       -0.980441   0.000000
  331       -0.957107   0.000000
  332       -0.938990   0.000000
  333       -0.898975   0.000000
  334       -0.885572   0.000000
  335       -0.803357   0.000000
  336       -0.597376   0.000000
