  57  57   0   0
  0.4736842E+03  0.3000000E-08  0.3000000E-08  0.3000000E-08  0.5000000E-15
  1.000000000000000E-004
  CAR 
 6_Pd100_top_free_z(O)                   
      1.35072363    -31.39515956  301     -4.10727699      1.00000000
    -31.395  0.0000E+00  0.0000E+00
    -31.286  0.0000E+00  0.0000E+00
    -31.177  0.0000E+00  0.0000E+00
    -31.068  0.6092E-27  0.6650E-28
    -30.959  0.3376E-23  0.3686E-24
    -30.849  0.1014E-19  0.1107E-20
    -30.740  0.1647E-16  0.1799E-17
    -30.631  0.1439E-13  0.1573E-14
    -30.522  0.6750E-11  0.7384E-12
    -30.413  0.1680E-08  0.1841E-09
    -30.304  0.2197E-06  0.2416E-07
    -30.194  0.1482E-04  0.1642E-05
    -30.085  0.4997E-03  0.5619E-04
    -29.976  0.7867E-02  0.9149E-03
    -29.867  0.4758E-01  0.6108E-02
    -29.758  0.1741E-02  0.6298E-02
    -29.649 -0.6320E+00 -0.6269E-01
    -29.540  0.8881E-01 -0.5300E-01
    -29.430  0.6312E+01  0.6360E+00
    -29.321  0.9790E+01  0.1705E+01
    -29.212  0.3640E+01  0.2102E+01
    -29.103 -0.6793E+00  0.2028E+01
    -28.994 -0.3446E+00  0.1990E+01
    -28.885  0.5807E-01  0.1996E+01
    -28.775  0.2883E-01  0.2000E+01
    -28.666  0.3257E-02  0.2000E+01
    -28.557  0.1561E-03  0.2000E+01
    -28.448  0.3603E-05  0.2000E+01
    -28.339  0.4212E-07  0.2000E+01
    -28.230  0.2561E-09  0.2000E+01
    -28.121  0.8218E-12  0.2000E+01
    -28.011  0.2034E-14  0.2000E+01
    -27.902  0.0000E+00  0.2000E+01
    -27.793  0.0000E+00  0.2000E+01
    -27.684  0.0000E+00  0.2000E+01
    -27.575  0.0000E+00  0.2000E+01
    -27.466  0.0000E+00  0.2000E+01
    -27.357  0.0000E+00  0.2000E+01
    -27.247  0.0000E+00  0.2000E+01
    -27.138  0.0000E+00  0.2000E+01
    -27.029  0.0000E+00  0.2000E+01
    -26.920  0.0000E+00  0.2000E+01
    -26.811  0.0000E+00  0.2000E+01
    -26.702  0.0000E+00  0.2000E+01
    -26.592  0.0000E+00  0.2000E+01
    -26.483  0.0000E+00  0.2000E+01
    -26.374  0.0000E+00  0.2000E+01
    -26.265  0.0000E+00  0.2000E+01
    -26.156  0.0000E+00  0.2000E+01
    -26.047  0.0000E+00  0.2000E+01
    -25.938  0.0000E+00  0.2000E+01
    -25.828  0.0000E+00  0.2000E+01
    -25.719  0.0000E+00  0.2000E+01
    -25.610  0.0000E+00  0.2000E+01
    -25.501  0.0000E+00  0.2000E+01
    -25.392  0.0000E+00  0.2000E+01
    -25.283  0.0000E+00  0.2000E+01
    -25.173  0.0000E+00  0.2000E+01
    -25.064  0.0000E+00  0.2000E+01
    -24.955  0.0000E+00  0.2000E+01
    -24.846  0.0000E+00  0.2000E+01
    -24.737  0.0000E+00  0.2000E+01
    -24.628  0.0000E+00  0.2000E+01
    -24.519  0.0000E+00  0.2000E+01
    -24.409  0.0000E+00  0.2000E+01
    -24.300  0.0000E+00  0.2000E+01
    -24.191  0.0000E+00  0.2000E+01
    -24.082  0.0000E+00  0.2000E+01
    -23.973  0.0000E+00  0.2000E+01
    -23.864  0.0000E+00  0.2000E+01
    -23.754  0.0000E+00  0.2000E+01
    -23.645  0.0000E+00  0.2000E+01
    -23.536  0.0000E+00  0.2000E+01
    -23.427  0.0000E+00  0.2000E+01
    -23.318  0.0000E+00  0.2000E+01
    -23.209  0.0000E+00  0.2000E+01
    -23.100  0.0000E+00  0.2000E+01
    -22.990  0.0000E+00  0.2000E+01
    -22.881  0.0000E+00  0.2000E+01
    -22.772  0.0000E+00  0.2000E+01
    -22.663  0.0000E+00  0.2000E+01
    -22.554  0.0000E+00  0.2000E+01
    -22.445  0.0000E+00  0.2000E+01
    -22.335  0.0000E+00  0.2000E+01
    -22.226  0.0000E+00  0.2000E+01
    -22.117  0.0000E+00  0.2000E+01
    -22.008  0.0000E+00  0.2000E+01
    -21.899  0.0000E+00  0.2000E+01
    -21.790  0.0000E+00  0.2000E+01
    -21.681  0.0000E+00  0.2000E+01
    -21.571  0.0000E+00  0.2000E+01
    -21.462  0.0000E+00  0.2000E+01
    -21.353  0.0000E+00  0.2000E+01
    -21.244  0.0000E+00  0.2000E+01
    -21.135  0.0000E+00  0.2000E+01
    -21.026  0.0000E+00  0.2000E+01
    -20.916  0.0000E+00  0.2000E+01
    -20.807  0.0000E+00  0.2000E+01
    -20.698  0.0000E+00  0.2000E+01
    -20.589  0.0000E+00  0.2000E+01
    -20.480  0.0000E+00  0.2000E+01
    -20.371  0.0000E+00  0.2000E+01
    -20.262  0.0000E+00  0.2000E+01
    -20.152  0.0000E+00  0.2000E+01
    -20.043  0.0000E+00  0.2000E+01
    -19.934  0.0000E+00  0.2000E+01
    -19.825  0.0000E+00  0.2000E+01
    -19.716  0.0000E+00  0.2000E+01
    -19.607  0.0000E+00  0.2000E+01
    -19.497  0.0000E+00  0.2000E+01
    -19.388  0.0000E+00  0.2000E+01
    -19.279  0.0000E+00  0.2000E+01
    -19.170  0.0000E+00  0.2000E+01
    -19.061  0.0000E+00  0.2000E+01
    -18.952  0.0000E+00  0.2000E+01
    -18.843  0.0000E+00  0.2000E+01
    -18.733  0.0000E+00  0.2000E+01
    -18.624  0.0000E+00  0.2000E+01
    -18.515  0.0000E+00  0.2000E+01
    -18.406  0.0000E+00  0.2000E+01
    -18.297  0.0000E+00  0.2000E+01
    -18.188  0.0000E+00  0.2000E+01
    -18.079  0.0000E+00  0.2000E+01
    -17.969  0.0000E+00  0.2000E+01
    -17.860  0.0000E+00  0.2000E+01
    -17.751  0.0000E+00  0.2000E+01
    -17.642  0.0000E+00  0.2000E+01
    -17.533  0.0000E+00  0.2000E+01
    -17.424  0.0000E+00  0.2000E+01
    -17.314  0.0000E+00  0.2000E+01
    -17.205  0.0000E+00  0.2000E+01
    -17.096  0.0000E+00  0.2000E+01
    -16.987  0.0000E+00  0.2000E+01
    -16.878  0.0000E+00  0.2000E+01
    -16.769  0.0000E+00  0.2000E+01
    -16.660  0.0000E+00  0.2000E+01
    -16.550  0.0000E+00  0.2000E+01
    -16.441  0.0000E+00  0.2000E+01
    -16.332  0.0000E+00  0.2000E+01
    -16.223  0.1097E-25  0.2000E+01
    -16.114  0.4975E-22  0.2000E+01
    -16.005  0.1222E-18  0.2000E+01
    -15.895  0.1621E-15  0.2000E+01
    -15.786  0.1155E-12  0.2000E+01
    -15.677  0.4410E-10  0.2000E+01
    -15.568  0.8904E-08  0.2000E+01
    -15.459  0.9398E-06  0.2000E+01
    -15.350  0.5076E-04  0.2000E+01
    -15.241  0.1347E-02  0.2000E+01
    -15.131  0.1605E-01  0.2002E+01
    -15.022  0.6216E-01  0.2009E+01
    -14.913 -0.1307E+00  0.1994E+01
    -14.804 -0.8065E+00  0.1906E+01
    -14.695  0.1560E+01  0.2077E+01
    -14.586  0.8508E+01  0.3005E+01
    -14.476  0.8455E+01  0.3928E+01
    -14.367  0.1509E+01  0.4093E+01
    -14.258 -0.8046E+00  0.4005E+01
    -14.149 -0.1257E+00  0.3991E+01
    -14.040  0.6191E-01  0.3998E+01
    -13.931  0.1575E-01  0.4000E+01
    -13.822  0.1312E-02  0.4000E+01
    -13.712  0.5076E-04  0.4000E+01
    -13.603  0.8367E-04  0.4000E+01
    -13.494  0.1985E-02  0.4000E+01
    -13.385  0.2091E-01  0.4003E+01
    -13.276  0.6390E-01  0.4009E+01
    -13.167 -0.2121E+00  0.3986E+01
    -13.057 -0.7937E+00  0.3900E+01
    -12.948  0.2432E+01  0.4165E+01
    -12.839  0.9185E+01  0.5168E+01
    -12.730  0.6968E+01  0.5928E+01
    -12.621  0.9492E+00  0.6032E+01
    -12.512  0.5660E+01  0.6650E+01
    -12.403  0.9698E+01  0.7708E+01
    -12.293  0.3598E+01  0.8101E+01
    -12.184 -0.6800E+00  0.8027E+01
    -12.075 -0.3117E+00  0.7993E+01
    -11.966  0.1228E+00  0.8006E+01
    -11.857 -0.1943E+00  0.7985E+01
    -11.748 -0.7942E+00  0.7898E+01
    -11.638  0.2479E+01  0.8169E+01
    -11.529  0.9250E+01  0.9178E+01
    -11.420  0.7511E+01  0.9998E+01
    -11.311  0.7467E+00  0.1008E+02
    -11.202 -0.7449E+00  0.9998E+01
    -11.093 -0.5476E-01  0.9993E+01
    -10.984  0.5616E-01  0.9999E+01
    -10.874  0.1148E-01  0.1000E+02
    -10.765  0.8384E-03  0.1000E+02
    -10.656  0.2807E-04  0.1000E+02
    -10.547  0.4660E-06  0.1000E+02
    -10.438  0.3975E-08  0.1000E+02
    -10.329  0.1777E-10  0.1000E+02
    -10.219  0.4272E-13  0.1000E+02
    -10.110  0.0000E+00  0.1000E+02
    -10.001  0.0000E+00  0.1000E+02
     -9.892  0.0000E+00  0.1000E+02
     -9.783  0.0000E+00  0.1000E+02
     -9.674  0.0000E+00  0.1000E+02
     -9.565  0.0000E+00  0.1000E+02
     -9.455  0.0000E+00  0.1000E+02
     -9.346  0.0000E+00  0.1000E+02
     -9.237  0.0000E+00  0.1000E+02
     -9.128  0.0000E+00  0.1000E+02
     -9.019  0.0000E+00  0.1000E+02
     -8.910  0.0000E+00  0.1000E+02
     -8.801  0.9355E-25  0.1000E+02
     -8.691  0.3696E-21  0.1000E+02
     -8.582  0.7924E-18  0.1000E+02
     -8.473  0.9190E-15  0.1000E+02
     -8.364  0.5753E-12  0.1000E+02
     -8.255  0.1928E-09  0.1000E+02
     -8.146  0.3433E-07  0.1000E+02
     -8.036  0.3207E-05  0.1000E+02
     -7.927  0.1538E-03  0.1000E+02
     -7.818  0.3626E-02  0.1000E+02
     -7.709  0.3805E-01  0.1000E+02
     -7.600  0.1201E+00  0.1002E+02
     -7.491 -0.3618E+00  0.9978E+01
     -7.382 -0.1517E+01  0.9813E+01
     -7.272  0.4077E+01  0.1026E+02
     -7.163  0.1746E+02  0.1216E+02
     -7.054  0.1588E+02  0.1390E+02
     -6.945  0.1840E+01  0.1410E+02
     -6.836 -0.9751E+00  0.1399E+02
     -6.727  0.6889E+01  0.1474E+02
     -6.617  0.9114E+01  0.1574E+02
     -6.508  0.3016E+01  0.1607E+02
     -6.399  0.4146E+01  0.1652E+02
     -6.290  0.7839E+01  0.1738E+02
     -6.181  0.1466E+02  0.1898E+02
     -6.072  0.3213E+02  0.2248E+02
     -5.963  0.3257E+02  0.2604E+02
     -5.853  0.1964E+02  0.2818E+02
     -5.744  0.3007E+02  0.3147E+02
     -5.635  0.7918E+02  0.4011E+02
     -5.526  0.1790E+03  0.5964E+02
     -5.417  0.2776E+03  0.8995E+02
     -5.308  0.2763E+03  0.1201E+03
     -5.198  0.2254E+03  0.1447E+03
     -5.089  0.2444E+03  0.1714E+03
     -4.980  0.3219E+03  0.2065E+03
     -4.871  0.3566E+03  0.2454E+03
     -4.762  0.3165E+03  0.2800E+03
     -4.653  0.3249E+03  0.3155E+03
     -4.544  0.3940E+03  0.3585E+03
     -4.434  0.4107E+03  0.4033E+03
     -4.325  0.4523E+03  0.4527E+03
     -4.216  0.5423E+03  0.5119E+03
     -4.107  0.4420E+03  0.5601E+03
     -3.998  0.1661E+03  0.5782E+03
     -3.889  0.2102E+02  0.5805E+03
     -3.779  0.2507E+02  0.5833E+03
     -3.670  0.2394E+02  0.5859E+03
     -3.561  0.1461E+02  0.5875E+03
     -3.452  0.2211E+02  0.5899E+03
     -3.343  0.1729E+02  0.5918E+03
     -3.234  0.3974E+01  0.5922E+03
     -3.125  0.1333E+02  0.5937E+03
     -3.015  0.4676E+02  0.5988E+03
     -2.906  0.5768E+02  0.6051E+03
     -2.797  0.2987E+02  0.6083E+03
     -2.688  0.9120E+01  0.6093E+03
     -2.579  0.7389E+01  0.6101E+03
     -2.470  0.2232E+02  0.6126E+03
     -2.360  0.3165E+02  0.6160E+03
     -2.251  0.2100E+02  0.6183E+03
     -2.142  0.1492E+02  0.6199E+03
     -2.033  0.2103E+02  0.6222E+03
     -1.924  0.3418E+02  0.6260E+03
     -1.815  0.4650E+02  0.6310E+03
     -1.706  0.4328E+02  0.6358E+03
     -1.596  0.3492E+02  0.6396E+03
     -1.487  0.2910E+02  0.6427E+03
     -1.378  0.2646E+02  0.6456E+03
     -1.269  0.3502E+02  0.6495E+03
     -1.160  0.3337E+02  0.6531E+03
     -1.051  0.2407E+02  0.6557E+03
     -0.941  0.3558E+02  0.6596E+03
     -0.832  0.5054E+02  0.6651E+03
     -0.723  0.4006E+02  0.6695E+03
     -0.614  0.1941E+02  0.6716E+03
     -0.505  0.4625E+01  0.6721E+03
     -0.396 -0.8628E+00  0.6720E+03
     -0.287 -0.4690E+00  0.6720E+03
     -0.177  0.1091E+00  0.6720E+03
     -0.068  0.6305E-01  0.6720E+03
      0.041  0.8820E-02  0.6720E+03
      0.150  0.5282E-03  0.6720E+03
      0.259  0.1526E-04  0.6720E+03
      0.368  0.2231E-06  0.6720E+03
      0.478  0.1694E-08  0.6720E+03
      0.587  0.6784E-11  0.6720E+03
      0.696  0.1424E-13  0.6720E+03
      0.805  0.0000E+00  0.6720E+03
      0.914  0.0000E+00  0.6720E+03
      1.023  0.0000E+00  0.6720E+03
      1.132  0.0000E+00  0.6720E+03
      1.242  0.0000E+00  0.6720E+03
      1.351  0.0000E+00  0.6720E+03
