  57  57   0   0
  0.4736842E+03  0.3000000E-08  0.3000000E-08  0.3000000E-08  0.5000000E-15
  1.000000000000000E-004
  CAR 
 6_Pd100_top_free_z(O)                   
      1.46241694    -30.56662267  301     -4.15877864      1.00000000
    -30.567  0.0000E+00  0.0000E+00
    -30.460  0.0000E+00  0.0000E+00
    -30.353  0.0000E+00  0.0000E+00
    -30.246  0.3461E-27  0.3696E-28
    -30.140  0.1663E-23  0.1775E-24
    -30.033  0.4447E-20  0.4749E-21
    -29.926  0.6604E-17  0.7055E-18
    -29.819  0.5426E-14  0.5800E-15
    -29.713  0.2459E-11  0.2632E-12
    -29.606  0.6089E-09  0.6527E-10
    -29.499  0.8164E-07  0.8782E-08
    -29.392  0.5839E-05  0.6322E-06
    -29.285  0.2170E-03  0.2380E-04
    -29.179  0.3978E-02  0.4485E-03
    -29.072  0.3162E-01  0.3824E-02
    -28.965  0.5618E-01  0.9822E-02
    -28.858 -0.3551E+00 -0.2809E-01
    -28.752 -0.6965E+00 -0.1025E+00
    -28.645  0.3423E+01  0.2630E+00
    -28.538  0.9683E+01  0.1297E+01
    -28.431  0.6854E+01  0.2029E+01
    -28.325  0.4222E+00  0.2074E+01
    -28.218 -0.7168E+00  0.1997E+01
    -28.111 -0.4174E-01  0.1993E+01
    -28.004  0.5594E-01  0.1999E+01
    -27.898  0.1177E-01  0.2000E+01
    -27.791  0.9233E-03  0.2000E+01
    -27.684  0.3422E-04  0.2000E+01
    -27.577  0.6465E-06  0.2000E+01
    -27.470  0.6447E-08  0.2000E+01
    -27.364  0.3460E-10  0.2000E+01
    -27.257  0.1019E-12  0.2000E+01
    -27.150  0.0000E+00  0.2000E+01
    -27.043  0.0000E+00  0.2000E+01
    -26.937  0.0000E+00  0.2000E+01
    -26.830  0.0000E+00  0.2000E+01
    -26.723  0.0000E+00  0.2000E+01
    -26.616  0.0000E+00  0.2000E+01
    -26.510  0.0000E+00  0.2000E+01
    -26.403  0.0000E+00  0.2000E+01
    -26.296  0.0000E+00  0.2000E+01
    -26.189  0.0000E+00  0.2000E+01
    -26.083  0.0000E+00  0.2000E+01
    -25.976  0.0000E+00  0.2000E+01
    -25.869  0.0000E+00  0.2000E+01
    -25.762  0.0000E+00  0.2000E+01
    -25.656  0.0000E+00  0.2000E+01
    -25.549  0.0000E+00  0.2000E+01
    -25.442  0.0000E+00  0.2000E+01
    -25.335  0.0000E+00  0.2000E+01
    -25.228  0.0000E+00  0.2000E+01
    -25.122  0.0000E+00  0.2000E+01
    -25.015  0.0000E+00  0.2000E+01
    -24.908  0.0000E+00  0.2000E+01
    -24.801  0.0000E+00  0.2000E+01
    -24.695  0.0000E+00  0.2000E+01
    -24.588  0.0000E+00  0.2000E+01
    -24.481  0.0000E+00  0.2000E+01
    -24.374  0.0000E+00  0.2000E+01
    -24.268  0.0000E+00  0.2000E+01
    -24.161  0.0000E+00  0.2000E+01
    -24.054  0.0000E+00  0.2000E+01
    -23.947  0.0000E+00  0.2000E+01
    -23.841  0.0000E+00  0.2000E+01
    -23.734  0.0000E+00  0.2000E+01
    -23.627  0.0000E+00  0.2000E+01
    -23.520  0.0000E+00  0.2000E+01
    -23.413  0.0000E+00  0.2000E+01
    -23.307  0.0000E+00  0.2000E+01
    -23.200  0.0000E+00  0.2000E+01
    -23.093  0.0000E+00  0.2000E+01
    -22.986  0.0000E+00  0.2000E+01
    -22.880  0.0000E+00  0.2000E+01
    -22.773  0.0000E+00  0.2000E+01
    -22.666  0.0000E+00  0.2000E+01
    -22.559  0.0000E+00  0.2000E+01
    -22.453  0.0000E+00  0.2000E+01
    -22.346  0.0000E+00  0.2000E+01
    -22.239  0.0000E+00  0.2000E+01
    -22.132  0.0000E+00  0.2000E+01
    -22.026  0.0000E+00  0.2000E+01
    -21.919  0.0000E+00  0.2000E+01
    -21.812  0.0000E+00  0.2000E+01
    -21.705  0.0000E+00  0.2000E+01
    -21.598  0.0000E+00  0.2000E+01
    -21.492  0.0000E+00  0.2000E+01
    -21.385  0.0000E+00  0.2000E+01
    -21.278  0.0000E+00  0.2000E+01
    -21.171  0.0000E+00  0.2000E+01
    -21.065  0.0000E+00  0.2000E+01
    -20.958  0.0000E+00  0.2000E+01
    -20.851  0.0000E+00  0.2000E+01
    -20.744  0.0000E+00  0.2000E+01
    -20.638  0.0000E+00  0.2000E+01
    -20.531  0.0000E+00  0.2000E+01
    -20.424  0.0000E+00  0.2000E+01
    -20.317  0.0000E+00  0.2000E+01
    -20.211  0.0000E+00  0.2000E+01
    -20.104  0.0000E+00  0.2000E+01
    -19.997  0.0000E+00  0.2000E+01
    -19.890  0.0000E+00  0.2000E+01
    -19.784  0.0000E+00  0.2000E+01
    -19.677  0.0000E+00  0.2000E+01
    -19.570  0.0000E+00  0.2000E+01
    -19.463  0.0000E+00  0.2000E+01
    -19.356  0.0000E+00  0.2000E+01
    -19.250  0.0000E+00  0.2000E+01
    -19.143  0.0000E+00  0.2000E+01
    -19.036  0.0000E+00  0.2000E+01
    -18.929  0.0000E+00  0.2000E+01
    -18.823  0.0000E+00  0.2000E+01
    -18.716  0.0000E+00  0.2000E+01
    -18.609  0.0000E+00  0.2000E+01
    -18.502  0.0000E+00  0.2000E+01
    -18.396  0.0000E+00  0.2000E+01
    -18.289  0.0000E+00  0.2000E+01
    -18.182  0.0000E+00  0.2000E+01
    -18.075  0.0000E+00  0.2000E+01
    -17.969  0.0000E+00  0.2000E+01
    -17.862  0.0000E+00  0.2000E+01
    -17.755  0.0000E+00  0.2000E+01
    -17.648  0.0000E+00  0.2000E+01
    -17.541  0.0000E+00  0.2000E+01
    -17.435  0.0000E+00  0.2000E+01
    -17.328  0.0000E+00  0.2000E+01
    -17.221  0.0000E+00  0.2000E+01
    -17.114  0.0000E+00  0.2000E+01
    -17.008  0.0000E+00  0.2000E+01
    -16.901  0.0000E+00  0.2000E+01
    -16.794  0.0000E+00  0.2000E+01
    -16.687  0.0000E+00  0.2000E+01
    -16.581  0.0000E+00  0.2000E+01
    -16.474  0.0000E+00  0.2000E+01
    -16.367  0.0000E+00  0.2000E+01
    -16.260  0.0000E+00  0.2000E+01
    -16.154  0.0000E+00  0.2000E+01
    -16.047  0.0000E+00  0.2000E+01
    -15.940  0.0000E+00  0.2000E+01
    -15.833  0.0000E+00  0.2000E+01
    -15.727  0.0000E+00  0.2000E+01
    -15.620  0.0000E+00  0.2000E+01
    -15.513  0.0000E+00  0.2000E+01
    -15.406  0.0000E+00  0.2000E+01
    -15.299  0.0000E+00  0.2000E+01
    -15.193  0.0000E+00  0.2000E+01
    -15.086  0.0000E+00  0.2000E+01
    -14.979  0.2218E-25  0.2000E+01
    -14.872  0.8035E-22  0.2000E+01
    -14.766  0.1619E-18  0.2000E+01
    -14.659  0.1808E-15  0.2000E+01
    -14.552  0.1115E-12  0.2000E+01
    -14.445  0.3783E-10  0.2000E+01
    -14.339  0.6979E-08  0.2000E+01
    -14.232  0.6928E-06  0.2000E+01
    -14.125  0.3629E-04  0.2000E+01
    -14.018  0.9680E-03  0.2000E+01
    -13.912  0.1218E-01  0.2001E+01
    -13.805  0.5668E-01  0.2007E+01
    -13.698 -0.4784E-01  0.2002E+01
    -13.591 -0.7268E+00  0.1925E+01
    -13.484  0.4862E+00  0.1977E+01
    -13.378  0.6968E+01  0.2721E+01
    -13.271  0.9636E+01  0.3749E+01
    -13.164  0.3310E+01  0.4103E+01
    -13.057 -0.7126E+00  0.4027E+01
    -12.951 -0.3427E+00  0.3990E+01
    -12.844  0.5738E-01  0.3996E+01
    -12.737  0.3083E-01  0.4000E+01
    -12.630  0.3819E-02  0.4000E+01
    -12.524  0.2058E-03  0.4000E+01
    -12.417  0.5478E-05  0.4000E+01
    -12.310  0.7581E-07  0.4000E+01
    -12.203  0.5900E-09  0.4000E+01
    -12.097  0.5738E-08  0.4000E+01
    -11.990  0.5868E-06  0.4000E+01
    -11.883  0.3183E-04  0.4000E+01
    -11.776  0.8885E-03  0.4000E+01
    -11.669  0.1200E-01  0.4001E+01
    -11.563  0.6568E-01  0.4008E+01
    -11.456  0.2146E-01  0.4011E+01
    -11.349 -0.7299E+00  0.3933E+01
    -11.242 -0.3662E+00  0.3894E+01
    -11.136  0.6966E+01  0.4637E+01
    -11.029  0.1635E+02  0.6383E+01
    -10.922  0.1338E+02  0.7812E+01
    -10.815  0.3052E+01  0.8138E+01
    -10.709 -0.1027E+01  0.8028E+01
    -10.602 -0.9410E+00  0.7928E+01
    -10.495  0.9123E-02  0.7928E+01
    -10.388  0.5823E+01  0.8550E+01
    -10.282  0.9972E+01  0.9615E+01
    -10.175  0.4483E+01  0.1009E+02
    -10.068 -0.4886E+00  0.1004E+02
     -9.961 -0.4721E+00  0.9991E+01
     -9.855  0.3974E-01  0.9995E+01
     -9.748  0.3914E-01  0.9999E+01
     -9.641  0.5702E-02  0.1000E+02
     -9.534  0.3473E-03  0.1000E+02
     -9.427  0.1032E-04  0.1000E+02
     -9.321  0.1585E-06  0.1000E+02
     -9.214  0.1294E-08  0.1000E+02
     -9.107  0.5711E-11  0.1000E+02
     -9.000  0.1456E-13  0.1000E+02
     -8.894  0.0000E+00  0.1000E+02
     -8.787  0.0000E+00  0.1000E+02
     -8.680  0.0000E+00  0.1000E+02
     -8.573  0.0000E+00  0.1000E+02
     -8.467  0.0000E+00  0.1000E+02
     -8.360  0.4632E-28  0.1000E+02
     -8.253  0.2541E-24  0.1000E+02
     -8.146  0.7768E-21  0.1000E+02
     -8.040  0.1319E-17  0.1000E+02
     -7.933  0.1241E-14  0.1000E+02
     -7.826  0.6443E-12  0.1000E+02
     -7.719  0.1832E-09  0.1000E+02
     -7.612  0.2827E-07  0.1000E+02
     -7.506  0.2337E-05  0.1000E+02
     -7.399  0.1011E-03  0.1000E+02
     -7.292  0.2193E-02  0.1000E+02
     -7.185  0.2153E-01  0.1000E+02
     -7.079  0.6433E-01  0.1001E+02
     -6.972 -0.1944E+00  0.9989E+01
     -6.865 -0.8163E+00  0.9902E+01
     -6.758  0.1950E+01  0.1011E+02
     -6.652  0.8866E+01  0.1106E+02
     -6.545  0.8531E+01  0.1197E+02
     -6.438  0.5442E+00  0.1203E+02
     -6.331 -0.2964E+01  0.1171E+02
     -6.225  0.9229E+01  0.1269E+02
     -6.118  0.3067E+02  0.1597E+02
     -6.011  0.3083E+02  0.1926E+02
     -5.904  0.2300E+02  0.2172E+02
     -5.797  0.3687E+02  0.2565E+02
     -5.691  0.7758E+02  0.3393E+02
     -5.584  0.1743E+03  0.5254E+02
     -5.477  0.2860E+03  0.8307E+02
     -5.370  0.2861E+03  0.1136E+03
     -5.264  0.2166E+03  0.1367E+03
     -5.157  0.2269E+03  0.1610E+03
     -5.050  0.3177E+03  0.1949E+03
     -4.943  0.3594E+03  0.2333E+03
     -4.837  0.3079E+03  0.2661E+03
     -4.730  0.3079E+03  0.2990E+03
     -4.623  0.3960E+03  0.3413E+03
     -4.516  0.4267E+03  0.3868E+03
     -4.410  0.4343E+03  0.4332E+03
     -4.303  0.5295E+03  0.4897E+03
     -4.196  0.5256E+03  0.5458E+03
     -4.089  0.2808E+03  0.5758E+03
     -3.983  0.5015E+02  0.5812E+03
     -3.876  0.7865E+01  0.5820E+03
     -3.769  0.2925E+02  0.5851E+03
     -3.662  0.2129E+02  0.5874E+03
     -3.555  0.1566E+02  0.5891E+03
     -3.449  0.2522E+02  0.5918E+03
     -3.342  0.1757E+02  0.5936E+03
     -3.235  0.2169E+00  0.5937E+03
     -3.128  0.1629E+02  0.5954E+03
     -3.022  0.5476E+02  0.6013E+03
     -2.915  0.5344E+02  0.6070E+03
     -2.808  0.2162E+02  0.6093E+03
     -2.701  0.4672E+01  0.6098E+03
     -2.595  0.1073E+02  0.6109E+03
     -2.488  0.2607E+02  0.6137E+03
     -2.381  0.2369E+02  0.6162E+03
     -2.274  0.1344E+02  0.6177E+03
     -2.168  0.2181E+02  0.6200E+03
     -2.061  0.3792E+02  0.6240E+03
     -1.954  0.3864E+02  0.6282E+03
     -1.847  0.3319E+02  0.6317E+03
     -1.740  0.3596E+02  0.6355E+03
     -1.634  0.4200E+02  0.6400E+03
     -1.527  0.3601E+02  0.6439E+03
     -1.420  0.2340E+02  0.6464E+03
     -1.313  0.2200E+02  0.6487E+03
     -1.207  0.2534E+02  0.6514E+03
     -1.100  0.2494E+02  0.6541E+03
     -0.993  0.4388E+02  0.6588E+03
     -0.886  0.6150E+02  0.6653E+03
     -0.780  0.3826E+02  0.6694E+03
     -0.673  0.7983E+01  0.6703E+03
     -0.566  0.4556E+01  0.6708E+03
     -0.459  0.8847E+01  0.6717E+03
     -0.353  0.3623E+01  0.6721E+03
     -0.246 -0.5815E+00  0.6720E+03
     -0.139 -0.3375E+00  0.6720E+03
     -0.032  0.5740E-01  0.6720E+03
      0.074  0.3166E-01  0.6720E+03
      0.181  0.3979E-02  0.6720E+03
      0.288  0.2170E-03  0.6720E+03
      0.395  0.5839E-05  0.6720E+03
      0.502  0.8164E-07  0.6720E+03
      0.608  0.6089E-09  0.6720E+03
      0.715  0.2458E-11  0.6720E+03
      0.822  0.6239E-14  0.6720E+03
      0.929  0.0000E+00  0.6720E+03
      1.035  0.0000E+00  0.6720E+03
      1.142  0.0000E+00  0.6720E+03
      1.249  0.0000E+00  0.6720E+03
      1.356  0.0000E+00  0.6720E+03
      1.462  0.0000E+00  0.6720E+03
