   57   57    1    1
  0.4736842E+03  0.3000000E-08  0.3000000E-08  0.3000000E-08  0.5000000E-15
  1.000000000000000E-004
  CAR 
 6_Pd100_top_free_z(O)                   
    560      1    336
 
  0.0000000E+00  0.0000000E+00  0.0000000E+00  0.1000000E+01
    1      -29.287696   1.000000
    2      -13.797862   1.000000
    3      -11.586909   1.000000
    4      -11.586465   1.000000
    5       -9.142004   1.000000
    6       -6.619834   1.000000
    7       -6.100919   1.000000
    8       -6.100616   1.000000
    9       -6.093879   1.000000
   10       -5.787366   1.000000
   11       -5.786364   1.000000
   12       -5.783644   1.000000
   13       -5.720437   1.000000
   14       -5.666981   1.000000
   15       -5.659255   1.000000
   16       -5.658934   1.000000
   17       -5.657977   1.000000
   18       -5.597635   1.000000
   19       -5.596296   1.000000
   20       -5.585121   1.000000
   21       -5.573333   1.000000
   22       -5.571140   1.000000
   23       -5.569877   1.000000
   24       -5.528366   1.000000
   25       -5.522201   1.000000
   26       -5.521719   1.000000
   27       -5.520331   1.000000
   28       -5.496054   1.000000
   29       -5.495680   1.000000
   30       -5.494572   1.000000
   31       -5.489756   1.000000
   32       -5.487530   1.000000
   33       -5.487472   1.000000
   34       -5.487047   1.000000
   35       -5.485042   1.000000
   36       -5.453892   1.000000
   37       -5.453229   1.000000
   38       -5.444978   1.000000
   39       -5.443208   1.000000
   40       -5.442829   1.000000
   41       -5.442686   1.000000
   42       -5.441744   1.000000
   43       -5.441333   1.000000
   44       -5.405655   1.000000
   45       -5.405478   1.000000
   46       -5.403748   1.000000
   47       -5.401133   1.000000
   48       -5.399924   1.000000
   49       -5.397316   1.000000
   50       -5.396244   1.000000
   51       -5.395357   1.000000
   52       -5.380379   1.000000
   53       -5.380085   1.000000
   54       -5.378904   1.000000
   55       -5.363975   1.000000
   56       -5.305078   1.000000
   57       -5.304317   1.000000
   58       -5.300410   1.000000
   59       -5.298811   1.000000
   60       -5.292213   1.000000
   61       -5.291345   1.000000
   62       -5.290896   1.000000
   63       -5.280262   1.000000
   64       -5.274884   1.000000
   65       -5.274143   1.000000
   66       -5.261769   1.000000
   67       -5.261554   1.000000
   68       -5.190956   1.000000
   69       -5.180671   1.000000
   70       -5.178950   1.000000
   71       -5.177663   1.000000
   72       -5.162840   1.000000
   73       -5.155312   1.000000
   74       -5.154322   1.000000
   75       -5.153471   1.000000
   76       -5.153030   1.000000
   77       -5.141424   1.000000
   78       -5.137209   1.000000
   79       -5.134801   1.000000
   80       -5.123216   1.000000
   81       -5.100665   1.000000
   82       -5.099335   1.000000
   83       -5.098129   1.000000
   84       -5.087425   1.000000
   85       -5.079439   1.000000
   86       -5.077841   1.000000
   87       -5.076861   1.000000
   88       -5.036576   1.000000
   89       -5.035117   1.000000
   90       -5.029207   1.000000
   91       -5.028796   1.000000
   92       -5.028361   1.000000
   93       -5.024524   1.000000
   94       -5.023488   1.000000
   95       -5.023008   1.000000
   96       -5.005065   1.000000
   97       -5.003914   1.000000
   98       -5.001810   1.000000
   99       -4.994752   1.000000
  100       -4.992969   1.000000
  101       -4.983497   1.000000
  102       -4.980994   1.000000
  103       -4.978903   1.000000
  104       -4.968127   1.000000
  105       -4.967002   1.000000
  106       -4.965381   1.000000
  107       -4.956371   1.000000
  108       -4.955886   1.000000
  109       -4.954451   1.000000
  110       -4.944747   1.000000
  111       -4.944172   1.000000
  112       -4.933699   0.999999
  113       -4.931938   0.999999
  114       -4.929777   0.999999
  115       -4.926977   0.999999
  116       -4.926627   0.999999
  117       -4.910637   0.999999
  118       -4.893191   0.999998
  119       -4.892568   0.999998
  120       -4.891453   0.999998
  121       -4.879354   0.999996
  122       -4.876930   0.999996
  123       -4.876136   0.999996
  124       -4.875248   0.999996
  125       -4.873983   0.999996
  126       -4.873808   0.999996
  127       -4.819878   0.999977
  128       -4.819715   0.999977
  129       -4.818685   0.999976
  130       -4.815133   0.999974
  131       -4.814889   0.999974
  132       -4.814711   0.999973
  133       -4.806763   0.999967
  134       -4.805922   0.999966
  135       -4.804215   0.999964
  136       -4.769967   0.999908
  137       -4.766902   0.999900
  138       -4.765877   0.999898
  139       -4.760713   0.999883
  140       -4.740439   0.999805
  141       -4.738738   0.999797
  142       -4.737966   0.999793
  143       -4.712441   0.999624
  144       -4.711330   0.999615
  145       -4.710878   0.999611
  146       -4.699910   0.999504
  147       -4.697017   0.999473
  148       -4.680196   0.999253
  149       -4.666306   0.999019
  150       -4.662152   0.998940
  151       -4.660293   0.998902
  152       -4.658379   0.998863
  153       -4.647780   0.998625
  154       -4.646179   0.998586
  155       -4.645726   0.998575
  156       -4.645490   0.998569
  157       -4.645349   0.998566
  158       -4.642638   0.998498
  159       -4.630143   0.998155
  160       -4.624881   0.997996
  161       -4.624098   0.997972
  162       -4.620159   0.997848
  163       -4.619936   0.997840
  164       -4.619242   0.997818
  165       -4.618758   0.997802
  166       -4.616639   0.997733
  167       -4.616429   0.997726
  168       -4.610620   0.997529
  169       -4.603318   0.997272
  170       -4.600974   0.997187
  171       -4.572008   0.996109
  172       -4.571479   0.996090
  173       -4.570571   0.996058
  174       -4.568855   0.995996
  175       -4.568243   0.995975
  176       -4.567379   0.995945
  177       -4.565407   0.995876
  178       -4.562543   0.995780
  179       -4.552075   0.995460
  180       -4.548313   0.995362
  181       -4.548080   0.995356
  182       -4.529967   0.995073
  183       -4.528816   0.995069
  184       -4.526384   0.995065
  185       -4.526271   0.995065
  186       -4.525645   0.995066
  187       -4.524907   0.995067
  188       -4.521758   0.995084
  189       -4.521184   0.995088
  190       -4.520092   0.995099
  191       -4.485336   0.996846
  192       -4.480148   0.997403
  193       -4.478984   0.997540
  194       -4.478859   0.997555
  195       -4.477691   0.997699
  196       -4.466480   0.999337
  197       -4.456603   1.001199
  198       -4.456042   1.001318
  199       -4.453055   1.001970
  200       -4.445326   1.003843
  201       -4.439997   1.005291
  202       -4.435455   1.006628
  203       -4.432018   1.007702
  204       -4.430984   1.008036
  205       -4.423828   1.010477
  206       -4.421991   1.011140
  207       -4.421303   1.011392
  208       -4.416514   1.013202
  209       -4.415955   1.013420
  210       -4.413764   1.014284
  211       -4.396227   1.021823
  212       -4.385950   1.026630
  213       -4.383462   1.027819
  214       -4.382113   1.028467
  215       -4.381835   1.028600
  216       -4.381247   1.028883
  217       -4.377932   1.030478
  218       -4.375642   1.031581
  219       -4.375328   1.031732
  220       -4.342092   1.046221
  221       -4.339311   1.047156
  222       -4.338874   1.047296
  223       -4.315513   1.051612
  224       -4.313669   1.051622
  225       -4.311241   1.051544
  226       -4.310435   1.051495
  227       -4.309636   1.051434
  228       -4.307682   1.051236
  229       -4.306122   1.051024
  230       -4.305754   1.050967
  231       -4.305179   1.050873
  232       -4.299852   1.049674
  233       -4.298878   1.049388
  234       -4.298305   1.049211
  235       -4.296603   1.048639
  236       -4.295054   1.048059
  237       -4.293944   1.047610
  238       -4.292874   1.047148
  239       -4.289943   1.045739
  240       -4.289149   1.045321
  241       -4.276308   1.036182
  242       -4.274760   1.034761
  243       -4.258728   1.015590
  244       -4.258373   1.015068
  245       -4.258060   1.014606
  246       -4.257256   1.013400
  247       -4.256311   1.011954
  248       -4.254874   1.009697
  249       -4.251957   1.004887
  250       -4.238859   0.979452
  251       -4.236874   0.975037
  252       -4.228156   0.953851
  253       -4.227441   0.951984
  254       -4.226266   0.948870
  255       -4.221800   0.936550
  256       -4.221306   0.935142
  257       -4.218606   0.927267
  258       -4.216899   0.922144
  259       -4.216292   0.920292
  260       -4.216078   0.919639
  261       -4.211940   0.906620
  262       -4.210931   0.903347
  263       -4.210394   0.901591
  264       -4.209852   0.899805
  265       -4.207669   0.892500
  266       -4.206195   0.887466
  267       -4.195817   0.849761
  268       -4.191437   0.832692
  269       -4.191186   0.831696
  270       -4.190993   0.830923
  271       -4.188461   0.820716
  272       -4.188183   0.819584
  273       -4.165281   0.718054
  274       -4.164484   0.714261
  275       -4.161508   0.699967
  276       -4.150669   0.646328
  277       -4.150392   0.644927
  278       -4.149583   0.640830
  279       -4.143820   0.611375
  280       -4.142569   0.604922
  281       -4.142309   0.603579
  282       -4.129308   0.535567
  283       -4.100987   0.386829
  284       -4.100236   0.382968
  285       -4.100001   0.381760
  286       -4.098748   0.375335
  287       -4.098256   0.372824
  288       -4.084595   0.304626
  289       -4.083388   0.298778
  290       -3.938781  -0.051062
  291       -3.851491  -0.023002
  292       -3.793920  -0.002387
  293       -3.787915  -0.001066
  294       -3.780667   0.000320
  295       -3.462617   0.000066
  296       -3.459775   0.000061
  297       -3.433408   0.000029
  298       -3.031820   0.000000
  299       -3.027297   0.000000
  300       -3.021698   0.000000
  301       -2.994608   0.000000
  302       -2.987480   0.000000
  303       -2.943173   0.000000
  304       -2.907176   0.000000
  305       -2.899306   0.000000
  306       -2.499818   0.000000
  307       -2.491527   0.000000
  308       -2.490628   0.000000
  309       -2.313524   0.000000
  310       -2.095728   0.000000
  311       -2.089142   0.000000
  312       -2.054930   0.000000
  313       -1.998822   0.000000
  314       -1.939864   0.000000
  315       -1.913052   0.000000
  316       -1.857157   0.000000
  317       -1.831897   0.000000
  318       -1.761623   0.000000
  319       -1.706636   0.000000
  320       -1.669970   0.000000
  321       -1.612586   0.000000
  322       -1.598510   0.000000
  323       -1.529170   0.000000
  324       -1.508490   0.000000
  325       -1.458393   0.000000
  326       -1.209499   0.000000
  327       -1.186883   0.000000
  328       -1.167440   0.000000
  329       -0.965169   0.000000
  330       -0.959159   0.000000
  331       -0.938254   0.000000
  332       -0.906712   0.000000
  333       -0.904482   0.000000
  334       -0.886476   0.000000
  335       -0.749714   0.000000
  336       -0.598322   0.000000
