<?xml version="1.0" encoding="ISO-8859-1"?>
<modeling>
 <generator>
  <i name="program" type="string">vasp </i>
  <i name="version" type="string">5.4.4.18Apr17-6-g9f103f2a35  </i>
  <i name="subversion" type="string">(build Sep 03 2018 23:53:05) complex            parallel </i>
  <i name="platform" type="string">LinuxIFC </i>
  <i name="date" type="string">2021 11 28 </i>
  <i name="time" type="string">03:10:27 </i>
 </generator>
 <incar>
  <i type="string" name="SYSTEM"> 6_Pd100_top_free_z(O)</i>
  <i type="int" name="ISTART">     0</i>
  <i type="string" name="PREC">normal   			! encut=max(enmax), ngx,y,z</i>
  <i type="string" name="ALGO"> Fast     			! Mix RMM-DIIS and Dav</i>
  <i type="logical" name="ADDGRID"> F  </i>
  <i type="int" name="ISPIN">     1</i>
  <i type="int" name="ICHARG">     2</i>
  <i type="int" name="NELM">   100</i>
  <i type="int" name="NELMIN">     6</i>
  <i type="int" name="IBRION">     2</i>
  <i name="EDIFF">      0.00010000</i>
  <i name="EDIFFG">     -0.05000000</i>
  <i type="int" name="NSW">     0</i>
  <i type="int" name="ISIF">     2</i>
  <i type="int" name="ISYM">     2</i>
  <i name="ENCUT">    400.00000000</i>
  <i type="string" name="LREAL"> Auto     			! Auto or A projection done</i>
  <i type="int" name="ISMEAR">     2</i>
  <i name="SIGMA">      0.20000000</i>
  <i type="logical" name="LWAVE"> F  </i>
  <i type="logical" name="LCHARG"> F  </i>
  <v type="int" name="KPOINT_BSE">    -1     0     0     0</v>
  <i type="int" name="MAXMEM"> 10000</i>
  <i type="int" name="NELM">   100</i>
  <i type="string" name="GGA"> RP         			! Revised PBE</i>
 </incar>
 <structure name="primitive_cell" >
  <crystal>
   <varray name="basis" >
    <v>      30.00000000       0.00000000       0.00000000 </v>
    <v>       0.00000000      30.00000000       0.00000000 </v>
    <v>       0.00000000       0.00000000      30.00000000 </v>
   </varray>
   <i name="volume">  27000.00000000 </i>
   <varray name="rec_basis" >
    <v>       0.03333333       0.00000000       0.00000000 </v>
    <v>       0.00000000       0.03333333       0.00000000 </v>
    <v>       0.00000000       0.00000000       0.03333333 </v>
   </varray>
  </crystal>
  <varray name="positions" >
   <v>       0.44576020       0.32826710       0.41691983 </v>
   <v>      -0.44576020       0.32826710       0.41691983 </v>
   <v>      -0.50000000       0.38250690       0.34021317 </v>
   <v>      -0.50000000       0.27609440      -0.50000000 </v>
   <v>       0.38804720       0.38804720       0.34167483 </v>
   <v>      -0.50000000       0.38416601      -0.50000000 </v>
   <v>       0.44208300       0.44208300       0.41809300 </v>
   <v>       0.38317830       0.38317830      -0.50000000 </v>
   <v>      -0.44208300       0.44208300       0.41809300 </v>
   <v>       0.44576020       0.32826710      -0.41691977 </v>
   <v>       0.32826705       0.44576024       0.41691983 </v>
   <v>      -0.38804720       0.38804720       0.34167483 </v>
   <v>      -0.38317830       0.38317830      -0.50000000 </v>
   <v>      -0.50000000      -0.50000000       0.33478917 </v>
   <v>      -0.50000000      -0.50000000      -0.50000000 </v>
   <v>      -0.44576020       0.32826710      -0.41691977 </v>
   <v>       0.38250685      -0.49999995       0.34021317 </v>
   <v>       0.44208300       0.44208300      -0.41809297 </v>
   <v>       0.38416599      -0.49999998      -0.50000000 </v>
   <v>      -0.44208300       0.44208300      -0.41809297 </v>
   <v>       0.44208298      -0.44208298       0.41809300 </v>
   <v>       0.32826705       0.44576024      -0.41691977 </v>
   <v>      -0.50000000       0.38250690      -0.34021320 </v>
   <v>       0.32826712      -0.44576022       0.41691983 </v>
   <v>      -0.38250685      -0.49999995       0.34021317 </v>
   <v>      -0.32826705       0.44576024       0.41691983 </v>
   <v>       0.27609443       0.49999998      -0.50000000 </v>
   <v>       0.38804720       0.38804720      -0.34167487 </v>
   <v>      -0.38416599      -0.49999998      -0.50000000 </v>
   <v>      -0.44208298      -0.44208298       0.41809300 </v>
   <v>       0.44208298      -0.44208298      -0.41809297 </v>
   <v>      -0.38804720       0.38804720      -0.34167487 </v>
   <v>       0.38804722      -0.38804722       0.34167483 </v>
   <v>       0.38250685      -0.49999995      -0.34021320 </v>
   <v>       0.32826712      -0.44576022      -0.41691977 </v>
   <v>      -0.32826705       0.44576024      -0.41691977 </v>
   <v>       0.50000000      -0.38250681       0.34021317 </v>
   <v>      -0.50000000      -0.38416596      -0.50000000 </v>
   <v>      -0.44208298      -0.44208298      -0.41809297 </v>
   <v>      -0.50000000      -0.50000000      -0.33478913 </v>
   <v>       0.38317828      -0.38317828      -0.50000000 </v>
   <v>      -0.32826712      -0.44576022       0.41691983 </v>
   <v>      -0.27609443       0.49999998      -0.50000000 </v>
   <v>      -0.38804722      -0.38804722       0.34167483 </v>
   <v>      -0.38250685      -0.49999995      -0.34021320 </v>
   <v>       0.44576027      -0.32826707       0.41691983 </v>
   <v>      -0.38317828      -0.38317828      -0.50000000 </v>
   <v>      -0.32826712      -0.44576022      -0.41691977 </v>
   <v>      -0.44576027      -0.32826707       0.41691983 </v>
   <v>       0.38804722      -0.38804722      -0.34167487 </v>
   <v>      -0.50000000      -0.38250681      -0.34021320 </v>
   <v>       0.44576027      -0.32826707      -0.41691977 </v>
   <v>      -0.25519207      -0.44033997       0.35399300 </v>
   <v>      -0.44576027      -0.32826707      -0.41691977 </v>
   <v>      -0.50000000      -0.27609445       0.50000000 </v>
   <v>      -0.38804722      -0.38804722      -0.34167487 </v>
   <v>      -0.22358427      -0.43263710       0.33514167 </v>
  </varray>
 </structure>
 <varray name="primitive_index" >
  <v type="int" >        1 </v>
  <v type="int" >        3 </v>
  <v type="int" >        5 </v>
  <v type="int" >        7 </v>
  <v type="int" >       15 </v>
  <v type="int" >       29 </v>
  <v type="int" >       28 </v>
  <v type="int" >       34 </v>
  <v type="int" >       21 </v>
  <v type="int" >       19 </v>
  <v type="int" >       22 </v>
  <v type="int" >       11 </v>
  <v type="int" >       36 </v>
  <v type="int" >       38 </v>
  <v type="int" >       52 </v>
  <v type="int" >       24 </v>
  <v type="int" >       32 </v>
  <v type="int" >       44 </v>
  <v type="int" >       48 </v>
  <v type="int" >       42 </v>
  <v type="int" >       43 </v>
  <v type="int" >       40 </v>
  <v type="int" >        6 </v>
  <v type="int" >        4 </v>
  <v type="int" >       30 </v>
  <v type="int" >       26 </v>
  <v type="int" >        8 </v>
  <v type="int" >       16 </v>
  <v type="int" >       49 </v>
  <v type="int" >       47 </v>
  <v type="int" >       53 </v>
  <v type="int" >       12 </v>
  <v type="int" >       13 </v>
  <v type="int" >       33 </v>
  <v type="int" >       25 </v>
  <v type="int" >       45 </v>
  <v type="int" >       50 </v>
  <v type="int" >       55 </v>
  <v type="int" >       54 </v>
  <v type="int" >       39 </v>
  <v type="int" >       37 </v>
  <v type="int" >        2 </v>
  <v type="int" >        9 </v>
  <v type="int" >       17 </v>
  <v type="int" >       31 </v>
  <v type="int" >       27 </v>
  <v type="int" >       35 </v>
  <v type="int" >       20 </v>
  <v type="int" >       23 </v>
  <v type="int" >       14 </v>
  <v type="int" >       51 </v>
  <v type="int" >       46 </v>
  <v type="int" >       56 </v>
  <v type="int" >       41 </v>
  <v type="int" >       10 </v>
  <v type="int" >       18 </v>
  <v type="int" >       57 </v>
 </varray>
 <kpoints>
  <generation param="Monkhorst-Pack">
   <v type="int" name="divisions">       1        1        1 </v>
   <v name="usershift">      0.00000000       0.00000000       0.00000000 </v>
   <v name="genvec1">      1.00000000       0.00000000       0.00000000 </v>
   <v name="genvec2">      0.00000000       1.00000000       0.00000000 </v>
   <v name="genvec3">      0.00000000       0.00000000       1.00000000 </v>
   <v name="shift">      0.00000000       0.00000000       0.00000000 </v>
  </generation>
  <varray name="kpointlist" >
   <v>       0.00000000       0.00000000       0.00000000 </v>
  </varray>
  <varray name="weights" >
   <v>       1.00000000 </v>
  </varray>
 </kpoints>
 <parameters>
  <separator name="general" >
   <i type="string" name="SYSTEM">6_Pd100_top_free_z(O)</i>
   <i type="logical" name="LCOMPAT"> F  </i>
  </separator>
  <separator name="electronic" >
   <i type="string" name="PREC">normal</i>
   <i name="ENMAX">    400.00000000</i>
   <i name="ENAUG">    644.87300000</i>
   <i name="EDIFF">      0.00010000</i>
   <i type="int" name="IALGO">    68</i>
   <i type="int" name="IWAVPR">    10</i>
   <i type="int" name="NBANDS">   336</i>
   <i name="NELECT">    560.00000000</i>
   <i type="int" name="TURBO">     0</i>
   <i type="int" name="IRESTART">     0</i>
   <i type="int" name="NREBOOT">     0</i>
   <i type="int" name="NMIN">     0</i>
   <i name="EREF">      0.00000000</i>
   <separator name="electronic smearing" >
    <i type="int" name="ISMEAR">     2</i>
    <i name="SIGMA">      0.20000000</i>
    <i name="KSPACING">      0.50000000</i>
    <i type="logical" name="KGAMMA"> T  </i>
   </separator>
   <separator name="electronic projectors" >
    <i type="logical" name="LREAL"> T  </i>
    <v name="ROPT">     -0.00050000     -0.00050000     -0.00050000</v>
    <i type="int" name="LMAXPAW">  -100</i>
    <i type="int" name="LMAXMIX">     2</i>
    <i type="logical" name="NLSPLINE"> F  </i>
   </separator>
   <separator name="electronic startup" >
    <i type="int" name="ISTART">     0</i>
    <i type="int" name="ICHARG">     2</i>
    <i type="int" name="INIWAV">     1</i>
   </separator>
   <separator name="electronic spin" >
    <i type="int" name="ISPIN">     1</i>
    <i type="logical" name="LNONCOLLINEAR"> F  </i>
    <v name="MAGMOM">      1.00000000      1.00000000      1.00000000      1.00000000      1.00000000      1.00000000      1.00000000      1.00000000      1.00000000      1.00000000      1.00000000      1.00000000      1.00000000      1.00000000      1.00000000      1.00000000      1.00000000      1.00000000      1.00000000      1.00000000
      1.00000000      1.00000000      1.00000000      1.00000000      1.00000000      1.00000000      1.00000000      1.00000000      1.00000000      1.00000000      1.00000000      1.00000000      1.00000000      1.00000000      1.00000000      1.00000000      1.00000000      1.00000000      1.00000000      1.00000000
      1.00000000      1.00000000      1.00000000      1.00000000      1.00000000      1.00000000      1.00000000      1.00000000      1.00000000      1.00000000      1.00000000      1.00000000      1.00000000      1.00000000      1.00000000      1.00000000      1.00000000</v>
    <i name="NUPDOWN">     -1.00000000</i>
    <i type="logical" name="LSORBIT"> F  </i>
    <v name="SAXIS">      0.00000000      0.00000000      1.00000000</v>
    <i type="logical" name="LSPIRAL"> F  </i>
    <v name="QSPIRAL">      0.00000000      0.00000000      0.00000000</v>
    <i type="logical" name="LZEROZ"> F  </i>
   </separator>
   <separator name="electronic exchange-correlation" >
    <i type="logical" name="LASPH"> F  </i>
    <i type="logical" name="LMETAGGA"> F  </i>
   </separator>
   <separator name="electronic convergence" >
    <i type="int" name="NELM">   100</i>
    <i type="int" name="NELMDL">    -5</i>
    <i type="int" name="NELMIN">     6</i>
    <i name="ENINI">    400.00000000</i>
    <separator name="electronic convergence detail" >
     <i type="logical" name="LDIAG"> T  </i>
     <i type="logical" name="LSUBROT"> F  </i>
     <i name="WEIMIN">      0.00000000</i>
     <i name="EBREAK">      0.00000007</i>
     <i name="DEPER">      0.30000000</i>
     <i type="int" name="NRMM">     4</i>
     <i name="TIME">      0.40000000</i>
    </separator>
   </separator>
   <separator name="electronic mixer" >
    <i name="AMIX">      0.40000000</i>
    <i name="BMIX">      1.00000000</i>
    <i name="AMIN">      0.10000000</i>
    <i name="AMIX_MAG">      1.60000000</i>
    <i name="BMIX_MAG">      1.00000000</i>
    <separator name="electronic mixer details" >
     <i type="int" name="IMIX">     4</i>
     <i type="logical" name="MIXFIRST"> F  </i>
     <i type="int" name="MAXMIX">   -45</i>
     <i name="WC">    100.00000000</i>
     <i type="int" name="INIMIX">     1</i>
     <i type="int" name="MIXPRE">     1</i>
     <i type="int" name="MREMOVE">     5</i>
    </separator>
   </separator>
   <separator name="electronic dipolcorrection" >
    <i type="logical" name="LDIPOL"> F  </i>
    <i type="logical" name="LMONO"> F  </i>
    <i type="int" name="IDIPOL">     0</i>
    <i name="EPSILON">      1.00000000</i>
    <v name="DIPOL">   -100.00000000   -100.00000000   -100.00000000</v>
    <i name="EFIELD">      0.00000000</i>
   </separator>
  </separator>
  <separator name="grids" >
   <i type="int" name="NGX">   150</i>
   <i type="int" name="NGY">   150</i>
   <i type="int" name="NGZ">   150</i>
   <i type="int" name="NGXF">   300</i>
   <i type="int" name="NGYF">   300</i>
   <i type="int" name="NGZF">   300</i>
   <i type="logical" name="ADDGRID"> F  </i>
  </separator>
  <separator name="ionic" >
   <i type="int" name="NSW">     0</i>
   <i type="int" name="IBRION">    -1</i>
   <i type="int" name="MDALGO">     0</i>
   <i type="int" name="ISIF">     2</i>
   <i name="PSTRESS">      0.00000000</i>
   <i name="EDIFFG">     -0.05000000</i>
   <i type="int" name="NFREE">     1</i>
   <i name="POTIM">      0.50000000</i>
   <i name="SMASS">     -3.00000000</i>
   <i name="SCALEE">      1.00000000</i>
  </separator>
  <separator name="ionic md" >
   <i name="TEBEG">      0.00010000</i>
   <i name="TEEND">      0.00010000</i>
   <i type="int" name="NBLOCK">     1</i>
   <i type="int" name="KBLOCK">     1</i>
   <i type="int" name="NPACO">   256</i>
   <i name="APACO">     16.00000000</i>
  </separator>
  <separator name="symmetry" >
   <i type="int" name="ISYM">     2</i>
   <i name="SYMPREC">      0.00001000</i>
  </separator>
  <separator name="dos" >
   <i type="int" name="LORBIT">     0</i>
   <v name="RWIGS">     -1.00000000     -1.00000000     -1.00000000</v>
   <i type="int" name="NEDOS">   301</i>
   <i name="EMIN">     10.00000000</i>
   <i name="EMAX">    -10.00000000</i>
   <i name="EFERMI">      0.00000000</i>
  </separator>
  <separator name="writing" >
   <i type="int" name="NWRITE">     2</i>
   <i type="logical" name="LWAVE"> F  </i>
   <i type="logical" name="LDOWNSAMPLE"> F  </i>
   <i type="logical" name="LCHARG"> F  </i>
   <i type="logical" name="LPARD"> F  </i>
   <i type="logical" name="LVTOT"> F  </i>
   <i type="logical" name="LVHAR"> F  </i>
   <i type="logical" name="LELF"> F  </i>
   <i type="logical" name="LOPTICS"> F  </i>
   <v name="STM">      0.00000000      0.00000000      0.00000000      0.00000000      0.00000000      0.00000000      0.00000000</v>
  </separator>
  <separator name="performance" >
   <i type="int" name="NPAR">     1</i>
   <i type="int" name="NSIM">     4</i>
   <i type="int" name="NBLK">    -1</i>
   <i type="logical" name="LPLANE"> T  </i>
   <i type="logical" name="LSCALAPACK"> T  </i>
   <i type="logical" name="LSCAAWARE"> F  </i>
   <i type="logical" name="LSCALU"> F  </i>
   <i type="logical" name="LASYNC"> F  </i>
   <i type="logical" name="LORBITALREAL"> F  </i>
  </separator>
  <separator name="miscellaneous" >
   <i type="int" name="IDIOT">     3</i>
   <i type="int" name="ISPECIAL">     0</i>
   <i type="logical" name="LMUSIC"> F  </i>
   <v name="POMASS">    106.42000000     12.01100000     16.00000000</v>
   <v name="DARWINR">      0.00000000      0.00000000      0.00000000</v>
   <v name="DARWINV">      1.00000000      1.00000000      1.00000000</v>
   <i type="logical" name="LCORR"> T  </i>
  </separator>
  <i type="logical" name="GGA_COMPAT"> T  </i>
  <i type="logical" name="LBERRY"> F  </i>
  <i type="int" name="ICORELEVEL">     0</i>
  <i type="logical" name="LDAU"> F  </i>
  <i type="int" name="I_CONSTRAINED_M">     0</i>
  <separator name="electronic exchange-correlation" >
   <i type="string" name="GGA">RP</i>
   <i type="int" name="VOSKOWN">     0</i>
   <i type="logical" name="LHFCALC"> F  </i>
   <i type="string" name="PRECFOCK"></i>
   <i type="logical" name="LSYMGRAD"> F  </i>
   <i type="logical" name="LHFONE"> F  </i>
   <i type="logical" name="LRHFCALC"> F  </i>
   <i type="logical" name="LTHOMAS"> F  </i>
   <i type="logical" name="LMODELHF"> F  </i>
   <i name="ENCUT4O">     -1.00000000</i>
   <i type="int" name="EXXOEP">     0</i>
   <i type="int" name="FOURORBIT">     0</i>
   <i name="AEXX">      0.00000000</i>
   <i name="HFALPHA">      0.00000000</i>
   <i name="MCALPHA">      0.00000000</i>
   <i name="ALDAX">      1.00000000</i>
   <i name="AGGAX">      1.00000000</i>
   <i name="ALDAC">      1.00000000</i>
   <i name="AGGAC">      1.00000000</i>
   <i type="int" name="NKREDX">     1</i>
   <i type="int" name="NKREDY">     1</i>
   <i type="int" name="NKREDZ">     1</i>
   <i type="logical" name="SHIFTRED"> F  </i>
   <i type="logical" name="ODDONLY"> F  </i>
   <i type="logical" name="EVENONLY"> F  </i>
   <i type="int" name="LMAXFOCK">     0</i>
   <i type="int" name="NMAXFOCKAE">     0</i>
   <i type="logical" name="LFOCKAEDFT"> F  </i>
   <i name="HFSCREEN">      0.00000000</i>
   <i name="HFSCREENC">      0.00000000</i>
   <i type="int" name="NBANDSGWLOW">     0</i>
  </separator>
  <separator name="vdW DFT" >
   <i type="logical" name="LUSE_VDW"> F  </i>
   <i name="Zab_VDW">     -0.84910000</i>
   <i name="PARAM1">      0.12340000</i>
   <i name="PARAM2">      1.00000000</i>
   <i name="PARAM3">      0.00000000</i>
  </separator>
  <separator name="model GW" >
   <i type="int" name="MODEL_GW">     0</i>
   <i name="MODEL_EPS0">    284.21052632</i>
   <i name="MODEL_ALPHA">      1.00000000</i>
  </separator>
  <separator name="linear response parameters" >
   <i type="logical" name="LEPSILON"> F  </i>
   <i type="logical" name="LRPA"> F  </i>
   <i type="logical" name="LNABLA"> F  </i>
   <i type="logical" name="LVEL"> F  </i>
   <i type="int" name="KINTER">     0</i>
   <i name="CSHIFT">      0.10000000</i>
   <i name="OMEGAMAX">     -1.00000000</i>
   <i name="DEG_THRESHOLD">      0.00200000</i>
   <i name="RTIME">     -0.10000000</i>
   <i name="WPLASMAI">      0.00000000</i>
   <v name="DFIELD">      0.00000000      0.00000000      0.00000000</v>
   <v name="WPLASMA">      0.00000000      0.00000000      0.00000000      0.00000000      0.00000000      0.00000000      0.00000000      0.00000000      0.00000000</v>
  </separator>
  <separator name="orbital magnetization" >
   <i type="logical" name="NUCIND"> F  </i>
   <v name="MAGPOS">      0.00000000      0.00000000      0.00000000</v>
   <i type="logical" name="LNICSALL"> T  </i>
   <i type="logical" name="ORBITALMAG"> F  </i>
   <i type="logical" name="LMAGBLOCH"> F  </i>
   <i type="logical" name="LCHIMAG"> F  </i>
   <i type="logical" name="LGAUGE"> T  </i>
   <i type="int" name="MAGATOM">     0</i>
   <v name="MAGDIPOL">      0.00000000      0.00000000      0.00000000</v>
   <v name="AVECCONST">      0.00000000      0.00000000      0.00000000</v>
  </separator>
  <separator name="response functions" >
   <i type="logical" name="LADDER"> F  </i>
   <i type="logical" name="LRPAFORCE"> F  </i>
   <i type="logical" name="LFXC"> F  </i>
   <i type="logical" name="LHARTREE"> T  </i>
   <i type="int" name="IBSE">     0</i>
   <v type="int" name="KPOINT">    -1     0     0     0</v>
   <i type="logical" name="LTCTE"> F  </i>
   <i type="logical" name="LTETE"> F  </i>
   <i type="logical" name="LTRIPLET"> F  </i>
   <i type="logical" name="LFXCEPS"> F  </i>
   <i type="logical" name="LFXHEG"> F  </i>
   <i type="int" name="NATURALO">     2</i>
   <i type="logical" name="L2ORDER"> F  </i>
   <i type="logical" name="LMP2LT"> F  </i>
   <i type="logical" name="LUSEW"> F  </i>
   <i name="ENCUTGW">     -2.00000000</i>
   <i name="ENCUTGWSOFT">     -2.00000000</i>
   <i name="ENCUTLF">     -1.00000000</i>
   <i type="int" name="LMAXMP2">    -1</i>
   <i name="SCISSOR">      0.00000000</i>
   <i type="int" name="NOMEGA">     0</i>
   <i type="int" name="NOMEGAR">     0</i>
   <i type="int" name="NBANDSGW">    -1</i>
   <i type="int" name="NBANDSO">    -1</i>
   <i type="int" name="NBANDSV">    -1</i>
   <i type="int" name="NELM">   100</i>
   <i type="int" name="NELMHF">     1</i>
   <i type="int" name="DIM">     3</i>
   <i type="int" name="ANTIRES">     0</i>
   <i name="OMEGAMAX">    -30.00000000</i>
   <i name="OMEGAMIN">    -30.00000000</i>
   <i name="OMEGATL">   -200.00000000</i>
   <i type="int" name="OMEGAGRID">   140</i>
   <i name="CSHIFT">     -0.10000000</i>
   <i type="logical" name="SELFENERGY"> F  </i>
   <i type="logical" name="LSPECTRAL"> F  </i>
   <i type="logical" name="LSPECTRALGW"> F  </i>
   <i type="logical" name="LSINGLES"> F  </i>
   <i type="logical" name="LFERMIGW"> F  </i>
   <i type="logical" name="ODDONLYGW"> F  </i>
   <i type="logical" name="EVENONLYGW"> F  </i>
   <i type="int" name="NKREDLFX">     1</i>
   <i type="int" name="NKREDLFY">     1</i>
   <i type="int" name="NKREDLFZ">     1</i>
   <i type="int" name="MAXMEM"> 10000</i>
   <i type="int" name="TELESCOPE">     0</i>
   <i type="int" name="TAUPAR">     1</i>
   <i type="int" name="OMEGAPAR">    -1</i>
   <i name="LAMBDA">      1.00000000</i>
  </separator>
  <separator name="External order field" >
   <i name="OFIELD_KAPPA">      0.00000000</i>
   <v name="OFIELD_K">      0.00000000      0.00000000      0.00000000</v>
   <i name="OFIELD_Q6_NEAR">      0.00000000</i>
   <i name="OFIELD_Q6_FAR">      0.00000000</i>
   <i name="OFIELD_A">      0.00000000</i>
  </separator>
 </parameters>
 <atominfo>
  <atoms>      57 </atoms>
  <types>       3 </types>
  <array name="atoms" >
   <dimension dim="1">ion</dimension>
   <field type="string">element</field>
   <field type="int">atomtype</field>
   <set>
    <rc><c>Pd</c><c>   1</c></rc>
    <rc><c>Pd</c><c>   1</c></rc>
    <rc><c>Pd</c><c>   1</c></rc>
    <rc><c>Pd</c><c>   1</c></rc>
    <rc><c>Pd</c><c>   1</c></rc>
    <rc><c>Pd</c><c>   1</c></rc>
    <rc><c>Pd</c><c>   1</c></rc>
    <rc><c>Pd</c><c>   1</c></rc>
    <rc><c>Pd</c><c>   1</c></rc>
    <rc><c>Pd</c><c>   1</c></rc>
    <rc><c>Pd</c><c>   1</c></rc>
    <rc><c>Pd</c><c>   1</c></rc>
    <rc><c>Pd</c><c>   1</c></rc>
    <rc><c>Pd</c><c>   1</c></rc>
    <rc><c>Pd</c><c>   1</c></rc>
    <rc><c>Pd</c><c>   1</c></rc>
    <rc><c>Pd</c><c>   1</c></rc>
    <rc><c>Pd</c><c>   1</c></rc>
    <rc><c>Pd</c><c>   1</c></rc>
    <rc><c>Pd</c><c>   1</c></rc>
    <rc><c>Pd</c><c>   1</c></rc>
    <rc><c>Pd</c><c>   1</c></rc>
    <rc><c>Pd</c><c>   1</c></rc>
    <rc><c>Pd</c><c>   1</c></rc>
    <rc><c>Pd</c><c>   1</c></rc>
    <rc><c>Pd</c><c>   1</c></rc>
    <rc><c>Pd</c><c>   1</c></rc>
    <rc><c>Pd</c><c>   1</c></rc>
    <rc><c>Pd</c><c>   1</c></rc>
    <rc><c>Pd</c><c>   1</c></rc>
    <rc><c>Pd</c><c>   1</c></rc>
    <rc><c>Pd</c><c>   1</c></rc>
    <rc><c>Pd</c><c>   1</c></rc>
    <rc><c>Pd</c><c>   1</c></rc>
    <rc><c>Pd</c><c>   1</c></rc>
    <rc><c>Pd</c><c>   1</c></rc>
    <rc><c>Pd</c><c>   1</c></rc>
    <rc><c>Pd</c><c>   1</c></rc>
    <rc><c>Pd</c><c>   1</c></rc>
    <rc><c>Pd</c><c>   1</c></rc>
    <rc><c>Pd</c><c>   1</c></rc>
    <rc><c>Pd</c><c>   1</c></rc>
    <rc><c>Pd</c><c>   1</c></rc>
    <rc><c>Pd</c><c>   1</c></rc>
    <rc><c>Pd</c><c>   1</c></rc>
    <rc><c>Pd</c><c>   1</c></rc>
    <rc><c>Pd</c><c>   1</c></rc>
    <rc><c>Pd</c><c>   1</c></rc>
    <rc><c>Pd</c><c>   1</c></rc>
    <rc><c>Pd</c><c>   1</c></rc>
    <rc><c>Pd</c><c>   1</c></rc>
    <rc><c>Pd</c><c>   1</c></rc>
    <rc><c>Pd</c><c>   1</c></rc>
    <rc><c>Pd</c><c>   1</c></rc>
    <rc><c>Pd</c><c>   1</c></rc>
    <rc><c>C </c><c>   2</c></rc>
    <rc><c>O </c><c>   3</c></rc>
   </set>
  </array>
  <array name="atomtypes" >
   <dimension dim="1">type</dimension>
   <field type="int">atomspertype</field>
   <field type="string">element</field>
   <field>mass</field>
   <field>valence</field>
   <field type="string">pseudopotential</field>
   <set>
    <rc><c>  55</c><c>Pd</c><c>    106.42000000</c><c>     10.00000000</c><c>  PAW_PBE Pd 04Jan2005                  </c></rc>
    <rc><c>   1</c><c>C </c><c>     12.01100000</c><c>      4.00000000</c><c>  PAW_PBE C 08Apr2002                   </c></rc>
    <rc><c>   1</c><c>O </c><c>     16.00000000</c><c>      6.00000000</c><c>  PAW_PBE O 08Apr2002                   </c></rc>
   </set>
  </array>
 </atominfo>
 <structure name="initialpos" >
  <crystal>
   <varray name="basis" >
    <v>      30.00000000       0.00000000       0.00000000 </v>
    <v>       0.00000000      30.00000000       0.00000000 </v>
    <v>       0.00000000       0.00000000      30.00000000 </v>
   </varray>
   <i name="volume">  27000.00000000 </i>
   <varray name="rec_basis" >
    <v>       0.03333333       0.00000000       0.00000000 </v>
    <v>       0.00000000       0.03333333       0.00000000 </v>
    <v>       0.00000000       0.00000000       0.03333333 </v>
   </varray>
  </crystal>
  <varray name="positions" >
   <v>       0.44576020       0.32826710       0.41691983 </v>
   <v>       0.67173288       0.55423978       0.41691983 </v>
   <v>       0.55423980       0.32826710       0.41691983 </v>
   <v>       0.32826712       0.55423978       0.41691983 </v>
   <v>       0.50000000       0.38250690       0.34021317 </v>
   <v>       0.50000000       0.38250690       0.65978680 </v>
   <v>       0.50000000       0.27609440       0.50000000 </v>
   <v>       0.27609443       0.49999998       0.50000000 </v>
   <v>       0.72390557       0.49999998       0.50000000 </v>
   <v>       0.50000000       0.72390555       0.50000000 </v>
   <v>       0.61195280       0.38804720       0.34167483 </v>
   <v>       0.61195280       0.38804720       0.65832513 </v>
   <v>       0.38804722       0.61195278       0.34167483 </v>
   <v>       0.38804722       0.61195278       0.65832513 </v>
   <v>       0.38804720       0.38804720       0.34167483 </v>
   <v>       0.38804720       0.38804720       0.65832513 </v>
   <v>       0.61195278       0.61195278       0.34167483 </v>
   <v>       0.61195278       0.61195278       0.65832513 </v>
   <v>       0.44576020       0.32826710       0.58308023 </v>
   <v>       0.67173288       0.55423978       0.58308023 </v>
   <v>       0.55791699       0.44208301       0.41809300 </v>
   <v>       0.32826705       0.44576024       0.41691983 </v>
   <v>       0.55423973       0.67173293       0.41691983 </v>
   <v>       0.55423980       0.32826710       0.58308023 </v>
   <v>       0.32826712       0.55423978       0.58308023 </v>
   <v>       0.67173295       0.44576024       0.41691983 </v>
   <v>       0.44576027       0.67173293       0.41691983 </v>
   <v>       0.44208301       0.44208301       0.41809300 </v>
   <v>       0.50000000       0.38416601       0.50000000 </v>
   <v>       0.61749315       0.50000005       0.34021317 </v>
   <v>       0.61749315       0.50000005       0.65978680 </v>
   <v>       0.38250685       0.50000005       0.34021317 </v>
   <v>       0.38250685       0.50000005       0.65978680 </v>
   <v>       0.38317830       0.38317830       0.50000000 </v>
   <v>       0.61682172       0.61682172       0.50000000 </v>
   <v>       0.61682170       0.38317830       0.50000000 </v>
   <v>       0.38317828       0.61682172       0.50000000 </v>
   <v>       0.50000000       0.50000000       0.33478917 </v>
   <v>       0.50000000       0.50000000       0.66521087 </v>
   <v>       0.32826705       0.44576024       0.58308023 </v>
   <v>       0.55423973       0.67173293       0.58308023 </v>
   <v>       0.55791699       0.44208301       0.58190703 </v>
   <v>       0.44208298       0.55791702       0.41809300 </v>
   <v>       0.44208301       0.44208301       0.58190703 </v>
   <v>       0.67173295       0.44576024       0.58308023 </v>
   <v>       0.44576027       0.67173293       0.58308023 </v>
   <v>       0.55791702       0.55791702       0.41809300 </v>
   <v>       0.38416599       0.50000002       0.50000000 </v>
   <v>       0.61583401       0.50000002       0.50000000 </v>
   <v>       0.50000000       0.61749319       0.34021317 </v>
   <v>       0.50000000       0.61749319       0.65978680 </v>
   <v>       0.50000000       0.50000000       0.50000000 </v>
   <v>       0.44208298       0.55791702       0.58190703 </v>
   <v>       0.55791702       0.55791702       0.58190703 </v>
   <v>       0.50000000       0.61583404       0.50000000 </v>
   <v>       0.74480793       0.55966003       0.35399300 </v>
   <v>       0.77641573       0.56736290       0.33514167 </v>
  </varray>
  <varray name="selective"  type="logical" >
   <v type="logical" >  F  F  F </v>
   <v type="logical" >  F  F  F </v>
   <v type="logical" >  F  F  F </v>
   <v type="logical" >  F  F  F </v>
   <v type="logical" >  F  F  F </v>
   <v type="logical" >  F  F  F </v>
   <v type="logical" >  F  F  F </v>
   <v type="logical" >  F  F  F </v>
   <v type="logical" >  F  F  F </v>
   <v type="logical" >  F  F  F </v>
   <v type="logical" >  F  F  F </v>
   <v type="logical" >  F  F  F </v>
   <v type="logical" >  F  F  F </v>
   <v type="logical" >  F  F  F </v>
   <v type="logical" >  F  F  F </v>
   <v type="logical" >  F  F  F </v>
   <v type="logical" >  F  F  F </v>
   <v type="logical" >  F  F  F </v>
   <v type="logical" >  F  F  F </v>
   <v type="logical" >  F  F  F </v>
   <v type="logical" >  F  F  F </v>
   <v type="logical" >  F  F  F </v>
   <v type="logical" >  F  F  F </v>
   <v type="logical" >  F  F  F </v>
   <v type="logical" >  F  F  F </v>
   <v type="logical" >  F  F  F </v>
   <v type="logical" >  F  F  F </v>
   <v type="logical" >  F  F  F </v>
   <v type="logical" >  F  F  F </v>
   <v type="logical" >  F  F  F </v>
   <v type="logical" >  F  F  F </v>
   <v type="logical" >  F  F  F </v>
   <v type="logical" >  F  F  F </v>
   <v type="logical" >  F  F  F </v>
   <v type="logical" >  F  F  F </v>
   <v type="logical" >  F  F  F </v>
   <v type="logical" >  F  F  F </v>
   <v type="logical" >  F  F  F </v>
   <v type="logical" >  F  F  F </v>
   <v type="logical" >  F  F  F </v>
   <v type="logical" >  F  F  F </v>
   <v type="logical" >  F  F  F </v>
   <v type="logical" >  F  F  F </v>
   <v type="logical" >  F  F  F </v>
   <v type="logical" >  F  F  F </v>
   <v type="logical" >  F  F  F </v>
   <v type="logical" >  F  F  F </v>
   <v type="logical" >  F  F  F </v>
   <v type="logical" >  F  F  F </v>
   <v type="logical" >  F  F  F </v>
   <v type="logical" >  F  F  F </v>
   <v type="logical" >  F  F  F </v>
   <v type="logical" >  F  F  F </v>
   <v type="logical" >  F  F  F </v>
   <v type="logical" >  F  F  F </v>
   <v type="logical" >  F  F  F </v>
   <v type="logical" >  F  F  F </v>
  </varray>
  <nose>
   <v>      -3.00000000       0.00000000       0.00010000       0.00010000 </v>
  </nose>
 </structure>
 <calculation>
  <scstep>
   <time name="dav">  352.63  352.69</time>
   <time name="total">  366.42  366.48</time>
   <energy>
    <i name="alphaZ">     75.25431677 </i>
    <i name="ewald"> 137073.76039343 </i>
    <i name="hartreedc">-180442.29300234 </i>
    <i name="XCdc">  -1704.12394962 </i>
    <i name="pawpsdc">  44873.02882129 </i>
    <i name="pawaedc"> -41398.84523641 </i>
    <i name="eentropy">      0.00255989 </i>
    <i name="bandstr">    816.53544974 </i>
    <i name="atom">  45086.50549395 </i>
    <i name="e_fr_energy">   4379.82484670 </i>
    <i name="e_wo_entrp">   4379.82228681 </i>
    <i name="e_0_energy">   4379.82420672 </i>
   </energy>
  </scstep>
  <scstep>
   <time name="dav">  577.87  577.89</time>
   <time name="total">  577.87  577.89</time>
   <energy>
    <i name="e_fr_energy">   2028.39978114 </i>
    <i name="e_wo_entrp">   2028.43779941 </i>
    <i name="e_0_energy">   2028.40928571 </i>
   </energy>
  </scstep>
  <scstep>
   <time name="dav">  504.31  504.32</time>
   <time name="total">  504.31  504.33</time>
   <energy>
    <i name="e_fr_energy">    237.15849488 </i>
    <i name="e_wo_entrp">    237.18240220 </i>
    <i name="e_0_energy">    237.16447171 </i>
   </energy>
  </scstep>
  <scstep>
   <time name="dav">  428.29  428.31</time>
   <time name="total">  428.29  428.31</time>
   <energy>
    <i name="e_fr_energy">   -132.37712737 </i>
    <i name="e_wo_entrp">   -132.35463666 </i>
    <i name="e_0_energy">   -132.37150469 </i>
   </energy>
  </scstep>
  <scstep>
   <time name="dav">  523.74  523.75</time>
   <time name="total">  549.53  549.54</time>
   <energy>
    <i name="e_fr_energy">   -178.49016629 </i>
    <i name="e_wo_entrp">   -178.99781684 </i>
    <i name="e_0_energy">   -178.61707893 </i>
   </energy>
  </scstep>
  <scstep>
   <time name="diag">   68.23   68.23</time>
   <time name="diis">  192.04  192.04</time>
   <time name="orth">   13.45   13.45</time>
   <time name="total">  312.69  312.69</time>
   <energy>
    <i name="e_fr_energy">   -178.49663605 </i>
    <i name="e_wo_entrp">   -178.29682136 </i>
    <i name="e_0_energy">   -178.44668238 </i>
   </energy>
  </scstep>
  <scstep>
   <time name="diag">   69.15   69.15</time>
   <time name="diis">  226.81  226.82</time>
   <time name="orth">   13.44   13.44</time>
   <time name="total">  348.66  348.68</time>
   <energy>
    <i name="e_fr_energy">   -179.95974583 </i>
    <i name="e_wo_entrp">   -180.00451987 </i>
    <i name="e_0_energy">   -179.97093934 </i>
   </energy>
  </scstep>
  <scstep>
   <time name="diag">   70.23   70.23</time>
   <time name="diis">  208.01  208.02</time>
   <time name="orth">   13.56   13.56</time>
   <time name="total">  331.88  331.89</time>
   <energy>
    <i name="e_fr_energy">   -183.10929198 </i>
    <i name="e_wo_entrp">   -182.97220691 </i>
    <i name="e_0_energy">   -183.07502071 </i>
   </energy>
  </scstep>
  <scstep>
   <time name="diag">   69.87   69.88</time>
   <time name="diis">  197.31  197.33</time>
   <time name="orth">   13.55   13.55</time>
   <time name="total">  320.81  320.83</time>
   <energy>
    <i name="e_fr_energy">   -182.90858669 </i>
    <i name="e_wo_entrp">   -182.68081611 </i>
    <i name="e_0_energy">   -182.85164405 </i>
   </energy>
  </scstep>
  <scstep>
   <time name="diag">   68.93   68.93</time>
   <time name="diis">  194.66  194.66</time>
   <time name="orth">   13.46   13.46</time>
   <time name="total">  317.02  317.03</time>
   <energy>
    <i name="e_fr_energy">   -180.24298345 </i>
    <i name="e_wo_entrp">   -180.18126918 </i>
    <i name="e_0_energy">   -180.22755488 </i>
   </energy>
  </scstep>
  <scstep>
   <time name="diag">   69.60   69.60</time>
   <time name="diis">  193.95  193.95</time>
   <time name="orth">   13.75   13.75</time>
   <time name="total">  317.81  317.81</time>
   <energy>
    <i name="e_fr_energy">   -177.53683650 </i>
    <i name="e_wo_entrp">   -177.38892764 </i>
    <i name="e_0_energy">   -177.49985929 </i>
   </energy>
  </scstep>
  <scstep>
   <time name="diag">   69.36   69.36</time>
   <time name="diis">  191.62  191.62</time>
   <time name="orth">   13.79   13.78</time>
   <time name="total">  315.24  315.25</time>
   <energy>
    <i name="e_fr_energy">   -175.90210638 </i>
    <i name="e_wo_entrp">   -175.80970934 </i>
    <i name="e_0_energy">   -175.87900712 </i>
   </energy>
  </scstep>
  <scstep>
   <time name="diag">   68.67   68.67</time>
   <time name="diis">  194.69  194.69</time>
   <time name="orth">   13.64   13.64</time>
   <time name="total">  317.59  317.59</time>
   <energy>
    <i name="e_fr_energy">   -175.82097010 </i>
    <i name="e_wo_entrp">   -175.68923838 </i>
    <i name="e_0_energy">   -175.78803717 </i>
   </energy>
  </scstep>
  <scstep>
   <time name="diag">   68.14   68.14</time>
   <time name="diis">  191.44  191.44</time>
   <time name="orth">   13.47   13.47</time>
   <time name="total">  312.98  312.98</time>
   <energy>
    <i name="e_fr_energy">   -176.30639452 </i>
    <i name="e_wo_entrp">   -176.24777051 </i>
    <i name="e_0_energy">   -176.29173852 </i>
   </energy>
  </scstep>
  <scstep>
   <time name="diag">   68.20   68.20</time>
   <time name="diis">  191.57  191.57</time>
   <time name="orth">   13.63   13.63</time>
   <time name="total">  313.57  313.57</time>
   <energy>
    <i name="e_fr_energy">   -175.45467257 </i>
    <i name="e_wo_entrp">   -175.34807367 </i>
    <i name="e_0_energy">   -175.42802284 </i>
   </energy>
  </scstep>
  <scstep>
   <time name="diag">   67.87   67.88</time>
   <time name="diis">  188.42  188.42</time>
   <time name="orth">   13.51   13.51</time>
   <time name="total">  309.85  309.86</time>
   <energy>
    <i name="e_fr_energy">   -175.34136572 </i>
    <i name="e_wo_entrp">   -175.42427147 </i>
    <i name="e_0_energy">   -175.36209216 </i>
   </energy>
  </scstep>
  <scstep>
   <time name="diag">   67.98   67.98</time>
   <time name="diis">  188.64  188.65</time>
   <time name="orth">   13.65   13.65</time>
   <time name="total">  310.90  310.91</time>
   <energy>
    <i name="e_fr_energy">   -174.78100809 </i>
    <i name="e_wo_entrp">   -174.75354128 </i>
    <i name="e_0_energy">   -174.77414138 </i>
   </energy>
  </scstep>
  <scstep>
   <time name="diag">   68.16   68.16</time>
   <time name="diis">  188.27  188.27</time>
   <time name="orth">   13.64   13.64</time>
   <time name="total">  310.86  310.86</time>
   <energy>
    <i name="e_fr_energy">   -174.43497598 </i>
    <i name="e_wo_entrp">   -174.36915642 </i>
    <i name="e_0_energy">   -174.41852109 </i>
   </energy>
  </scstep>
  <scstep>
   <time name="diag">   67.37   67.38</time>
   <time name="diis">  190.21  190.21</time>
   <time name="orth">   13.52   13.52</time>
   <time name="total">  311.11  311.12</time>
   <energy>
    <i name="e_fr_energy">   -174.62729945 </i>
    <i name="e_wo_entrp">   -174.64300848 </i>
    <i name="e_0_energy">   -174.63122670 </i>
   </energy>
  </scstep>
  <scstep>
   <time name="diag">   68.41   68.41</time>
   <time name="diis">  191.35  191.36</time>
   <time name="orth">   13.92   13.92</time>
   <time name="total">  314.14  314.16</time>
   <energy>
    <i name="e_fr_energy">   -174.45249050 </i>
    <i name="e_wo_entrp">   -174.46103500 </i>
    <i name="e_0_energy">   -174.45462662 </i>
   </energy>
  </scstep>
  <scstep>
   <time name="diag">   67.89   67.89</time>
   <time name="diis">  189.16  189.16</time>
   <time name="orth">   13.88   13.88</time>
   <time name="total">  310.85  310.85</time>
   <energy>
    <i name="e_fr_energy">   -174.43357732 </i>
    <i name="e_wo_entrp">   -174.42871578 </i>
    <i name="e_0_energy">   -174.43236193 </i>
   </energy>
  </scstep>
  <scstep>
   <time name="diag">   67.74   67.74</time>
   <time name="diis">  186.14  186.14</time>
   <time name="orth">   13.30   13.30</time>
   <time name="total">  306.17  306.17</time>
   <energy>
    <i name="e_fr_energy">   -174.24616806 </i>
    <i name="e_wo_entrp">   -174.15401001 </i>
    <i name="e_0_energy">   -174.22312855 </i>
   </energy>
  </scstep>
  <scstep>
   <time name="diag">   66.19   66.19</time>
   <time name="diis">  181.31  181.31</time>
   <time name="orth">   13.28   13.28</time>
   <time name="total">  299.49  299.49</time>
   <energy>
    <i name="e_fr_energy">   -174.02371562 </i>
    <i name="e_wo_entrp">   -173.88833904 </i>
    <i name="e_0_energy">   -173.98987147 </i>
   </energy>
  </scstep>
  <scstep>
   <time name="diag">   66.01   66.01</time>
   <time name="diis">  181.48  181.48</time>
   <time name="orth">   13.49   13.49</time>
   <time name="total">  299.63  299.63</time>
   <energy>
    <i name="e_fr_energy">   -173.97640368 </i>
    <i name="e_wo_entrp">   -173.84039852 </i>
    <i name="e_0_energy">   -173.94240239 </i>
   </energy>
  </scstep>
  <scstep>
   <time name="diag">   65.73   65.73</time>
   <time name="diis">  181.11  181.11</time>
   <time name="orth">   13.27   13.27</time>
   <time name="total">  298.76  298.76</time>
   <energy>
    <i name="e_fr_energy">   -173.89566601 </i>
    <i name="e_wo_entrp">   -173.76869983 </i>
    <i name="e_0_energy">   -173.86392447 </i>
   </energy>
  </scstep>
  <scstep>
   <time name="diag">   65.81   65.81</time>
   <time name="diis">  177.11  177.11</time>
   <time name="orth">   12.92   12.92</time>
   <time name="total">  294.09  294.10</time>
   <energy>
    <i name="e_fr_energy">   -173.78087720 </i>
    <i name="e_wo_entrp">   -173.66613518 </i>
    <i name="e_0_energy">   -173.75219169 </i>
   </energy>
  </scstep>
  <scstep>
   <time name="diag">   64.70   64.70</time>
   <time name="diis">  175.03  175.03</time>
   <time name="orth">   12.76   12.76</time>
   <time name="total">  290.23  290.23</time>
   <energy>
    <i name="e_fr_energy">   -173.75118877 </i>
    <i name="e_wo_entrp">   -173.62936797 </i>
    <i name="e_0_energy">   -173.72073357 </i>
   </energy>
  </scstep>
  <scstep>
   <time name="diag">   64.64   64.64</time>
   <time name="diis">  173.84  173.84</time>
   <time name="orth">   12.69   12.69</time>
   <time name="total">  289.39  289.39</time>
   <energy>
    <i name="e_fr_energy">   -173.75014514 </i>
    <i name="e_wo_entrp">   -173.62928864 </i>
    <i name="e_0_energy">   -173.71993101 </i>
   </energy>
  </scstep>
  <scstep>
   <time name="diag">   64.71   64.71</time>
   <time name="diis">  172.95  172.95</time>
   <time name="orth">   12.65   12.65</time>
   <time name="total">  288.45  288.45</time>
   <energy>
    <i name="e_fr_energy">   -173.72324053 </i>
    <i name="e_wo_entrp">   -173.61374726 </i>
    <i name="e_0_energy">   -173.69586721 </i>
   </energy>
  </scstep>
  <scstep>
   <time name="diag">   64.58   64.58</time>
   <time name="diis">  173.95  173.96</time>
   <time name="orth">   12.71   12.71</time>
   <time name="total">  289.10  289.10</time>
   <energy>
    <i name="e_fr_energy">   -173.71186705 </i>
    <i name="e_wo_entrp">   -173.59579054 </i>
    <i name="e_0_energy">   -173.68284793 </i>
   </energy>
  </scstep>
  <scstep>
   <time name="diag">   64.65   64.65</time>
   <time name="diis">  173.81  173.81</time>
   <time name="orth">   12.76   12.76</time>
   <time name="total">  289.40  289.41</time>
   <energy>
    <i name="e_fr_energy">   -173.70917798 </i>
    <i name="e_wo_entrp">   -173.59648257 </i>
    <i name="e_0_energy">   -173.68100413 </i>
   </energy>
  </scstep>
  <scstep>
   <time name="diag">   64.73   64.73</time>
   <time name="diis">  171.98  171.98</time>
   <time name="orth">   12.86   12.86</time>
   <time name="total">  287.85  287.85</time>
   <energy>
    <i name="e_fr_energy">   -173.69475530 </i>
    <i name="e_wo_entrp">   -173.58170555 </i>
    <i name="e_0_energy">   -173.66649286 </i>
   </energy>
  </scstep>
  <scstep>
   <time name="diag">   64.78   64.78</time>
   <time name="diis">  171.59  171.61</time>
   <time name="orth">   12.86   12.86</time>
   <time name="total">  287.21  287.25</time>
   <energy>
    <i name="e_fr_energy">   -173.69346059 </i>
    <i name="e_wo_entrp">   -173.57978972 </i>
    <i name="e_0_energy">   -173.66504287 </i>
   </energy>
  </scstep>
  <scstep>
   <time name="diag">   64.45   64.46</time>
   <time name="diis">  171.25  171.27</time>
   <time name="orth">   12.70   12.70</time>
   <time name="total">  286.40  286.43</time>
   <energy>
    <i name="e_fr_energy">   -173.69003532 </i>
    <i name="e_wo_entrp">   -173.57588193 </i>
    <i name="e_0_energy">   -173.66149697 </i>
   </energy>
  </scstep>
  <scstep>
   <time name="diag">   64.48   64.49</time>
   <time name="diis">  173.01  173.02</time>
   <time name="orth">   12.73   12.73</time>
   <time name="total">  288.29  288.32</time>
   <energy>
    <i name="e_fr_energy">   -173.68781707 </i>
    <i name="e_wo_entrp">   -173.57366951 </i>
    <i name="e_0_energy">   -173.65928018 </i>
   </energy>
  </scstep>
  <scstep>
   <time name="diag">   64.89   64.90</time>
   <time name="diis">  170.40  170.43</time>
   <time name="orth">   12.61   12.61</time>
   <time name="total">  286.38  286.42</time>
   <energy>
    <i name="e_fr_energy">   -173.68963933 </i>
    <i name="e_wo_entrp">   -173.57591021 </i>
    <i name="e_0_energy">   -173.66120705 </i>
   </energy>
  </scstep>
  <scstep>
   <time name="diag">   64.80   64.81</time>
   <time name="diis">  170.42  170.45</time>
   <time name="orth">   12.83   12.83</time>
   <time name="total">  286.67  286.72</time>
   <energy>
    <i name="e_fr_energy">   -173.68960325 </i>
    <i name="e_wo_entrp">   -173.57755569 </i>
    <i name="e_0_energy">   -173.66159136 </i>
   </energy>
  </scstep>
  <scstep>
   <time name="diag">   64.81   64.82</time>
   <time name="diis">  171.32  171.35</time>
   <time name="orth">   12.82   12.82</time>
   <time name="total">  287.55  287.59</time>
   <energy>
    <i name="e_fr_energy">   -173.69076364 </i>
    <i name="e_wo_entrp">   -173.57835585 </i>
    <i name="e_0_energy">   -173.66266170 </i>
   </energy>
  </scstep>
  <scstep>
   <time name="diag">   64.73   64.74</time>
   <time name="diis">  167.54  167.56</time>
   <time name="orth">   12.65   12.66</time>
   <time name="total">  283.48  283.52</time>
   <energy>
    <i name="e_fr_energy">   -173.69299786 </i>
    <i name="e_wo_entrp">   -173.57825662 </i>
    <i name="e_0_energy">   -173.66431255 </i>
   </energy>
  </scstep>
  <scstep>
   <time name="diag">   64.72   64.73</time>
   <time name="diis">  154.11  154.13</time>
   <time name="orth">   12.69   12.69</time>
   <time name="total">  270.17  270.21</time>
   <energy>
    <i name="e_fr_energy">   -173.69411687 </i>
    <i name="e_wo_entrp">   -173.57810341 </i>
    <i name="e_0_energy">   -173.66511351 </i>
   </energy>
  </scstep>
  <scstep>
   <time name="diag">   65.00   65.00</time>
   <time name="diis">  147.15  147.17</time>
   <time name="orth">   12.69   12.70</time>
   <time name="total">  264.11  264.13</time>
   <energy>
    <i name="e_fr_energy">   -173.69652316 </i>
    <i name="e_wo_entrp">   -173.58215888 </i>
    <i name="e_0_energy">   -173.66793209 </i>
   </energy>
  </scstep>
  <scstep>
   <time name="diag">   64.93   64.94</time>
   <time name="diis">  135.82  135.83</time>
   <time name="orth">   12.67   12.67</time>
   <time name="total">  252.84  252.85</time>
   <energy>
    <i name="e_fr_energy">   -173.69844553 </i>
    <i name="e_wo_entrp">   -173.58516035 </i>
    <i name="e_0_energy">   -173.67012424 </i>
   </energy>
  </scstep>
  <scstep>
   <time name="diag">   64.94   64.94</time>
   <time name="diis">  130.81  130.82</time>
   <time name="orth">   12.87   12.87</time>
   <time name="total">  248.43  248.44</time>
   <energy>
    <i name="e_fr_energy">   -173.70100956 </i>
    <i name="e_wo_entrp">   -173.58819905 </i>
    <i name="e_0_energy">   -173.67280693 </i>
   </energy>
  </scstep>
  <scstep>
   <time name="diag">   64.50   64.50</time>
   <time name="diis">  124.86  124.87</time>
   <time name="orth">   12.91   12.91</time>
   <time name="total">  241.76  241.77</time>
   <energy>
    <i name="e_fr_energy">   -173.70341928 </i>
    <i name="e_wo_entrp">   -173.59017293 </i>
    <i name="e_0_energy">   -173.67510769 </i>
   </energy>
  </scstep>
  <scstep>
   <time name="diag">   64.45   64.45</time>
   <time name="diis">  111.57  111.57</time>
   <time name="orth">   12.95   12.95</time>
   <time name="total">  228.67  228.68</time>
   <energy>
    <i name="e_fr_energy">   -173.70476283 </i>
    <i name="e_wo_entrp">   -173.59130669 </i>
    <i name="e_0_energy">   -173.67639880 </i>
   </energy>
  </scstep>
  <scstep>
   <time name="diag">   64.32   64.32</time>
   <time name="diis">  111.16  111.16</time>
   <time name="orth">   12.83   12.83</time>
   <time name="total">  228.13  228.13</time>
   <energy>
    <i name="e_fr_energy">   -173.70666309 </i>
    <i name="e_wo_entrp">   -173.59244036 </i>
    <i name="e_0_energy">   -173.67810741 </i>
   </energy>
  </scstep>
  <scstep>
   <time name="diag">   64.43   64.43</time>
   <time name="diis">  111.91  111.91</time>
   <time name="orth">   12.83   12.83</time>
   <time name="total">  229.06  229.06</time>
   <energy>
    <i name="e_fr_energy">   -173.70712916 </i>
    <i name="e_wo_entrp">   -173.59244551 </i>
    <i name="e_0_energy">   -173.67845825 </i>
   </energy>
  </scstep>
  <scstep>
   <time name="diag">   64.66   64.66</time>
   <time name="diis">  108.55  108.55</time>
   <time name="orth">   12.70   12.70</time>
   <time name="total">  226.24  226.24</time>
   <energy>
    <i name="e_fr_energy">   -173.70825854 </i>
    <i name="e_wo_entrp">   -173.59377602 </i>
    <i name="e_0_energy">   -173.67963791 </i>
   </energy>
  </scstep>
  <scstep>
   <time name="diag">   64.53   64.52</time>
   <time name="diis">  108.82  108.82</time>
   <time name="orth">   12.84   12.84</time>
   <time name="total">  226.51  226.50</time>
   <energy>
    <i name="e_fr_energy">   -173.70920430 </i>
    <i name="e_wo_entrp">   -173.59548238 </i>
    <i name="e_0_energy">   -173.68077382 </i>
   </energy>
  </scstep>
  <scstep>
   <time name="diag">   64.54   64.54</time>
   <time name="diis">  107.82  107.82</time>
   <time name="orth">   12.80   12.80</time>
   <time name="total">  225.41  225.41</time>
   <energy>
    <i name="e_fr_energy">   -173.71040493 </i>
    <i name="e_wo_entrp">   -173.59643220 </i>
    <i name="e_0_energy">   -173.68191175 </i>
   </energy>
  </scstep>
  <scstep>
   <time name="diag">   64.35   64.35</time>
   <time name="diis">  108.04  108.05</time>
   <time name="orth">   12.59   12.59</time>
   <time name="total">  224.59  224.59</time>
   <energy>
    <i name="e_fr_energy">   -173.71152425 </i>
    <i name="e_wo_entrp">   -173.59763248 </i>
    <i name="e_0_energy">   -173.68305131 </i>
   </energy>
  </scstep>
  <scstep>
   <time name="diag">   63.28   63.28</time>
   <time name="diis">  106.42  106.42</time>
   <time name="orth">   12.73   12.73</time>
   <time name="total">  221.51  221.50</time>
   <energy>
    <i name="e_fr_energy">   -173.71196149 </i>
    <i name="e_wo_entrp">   -173.59835442 </i>
    <i name="e_0_energy">   -173.68355973 </i>
   </energy>
  </scstep>
  <scstep>
   <time name="diag">   63.40   63.40</time>
   <time name="diis">  105.33  105.33</time>
   <time name="orth">   12.68   12.68</time>
   <time name="total">  220.37  220.37</time>
   <energy>
    <i name="e_fr_energy">   -173.71291477 </i>
    <i name="e_wo_entrp">   -173.59883731 </i>
    <i name="e_0_energy">   -173.68439541 </i>
   </energy>
  </scstep>
  <scstep>
   <time name="diag">   63.30   63.30</time>
   <time name="diis">  100.49  100.50</time>
   <time name="orth">   12.54   12.54</time>
   <time name="total">  215.88  215.88</time>
   <energy>
    <i name="e_fr_energy">   -173.71331045 </i>
    <i name="e_wo_entrp">   -173.59947079 </i>
    <i name="e_0_energy">   -173.68485053 </i>
   </energy>
  </scstep>
  <scstep>
   <time name="diag">   63.38   63.38</time>
   <time name="diis">   97.92   97.92</time>
   <time name="orth">   12.47   12.47</time>
   <time name="total">  212.76  212.76</time>
   <energy>
    <i name="e_fr_energy">   -173.71377949 </i>
    <i name="e_wo_entrp">   -173.59968826 </i>
    <i name="e_0_energy">   -173.68525668 </i>
   </energy>
  </scstep>
  <scstep>
   <time name="diag">   63.21   63.21</time>
   <time name="diis">   95.82   95.82</time>
   <time name="orth">   12.52   12.52</time>
   <time name="total">  210.47  210.47</time>
   <energy>
    <i name="e_fr_energy">   -173.71417022 </i>
    <i name="e_wo_entrp">   -173.60021422 </i>
    <i name="e_0_energy">   -173.68568122 </i>
   </energy>
  </scstep>
  <scstep>
   <time name="diag">   63.42   63.42</time>
   <time name="diis">   79.25   79.25</time>
   <time name="orth">   12.50   12.50</time>
   <time name="total">  194.10  194.10</time>
   <energy>
    <i name="e_fr_energy">   -173.71429341 </i>
    <i name="e_wo_entrp">   -173.60040908 </i>
    <i name="e_0_energy">   -173.68582233 </i>
   </energy>
  </scstep>
  <scstep>
   <time name="diag">   63.11   63.11</time>
   <time name="diis">   81.41   81.41</time>
   <time name="orth">   12.47   12.47</time>
   <time name="total">  196.21  196.21</time>
   <energy>
    <i name="e_fr_energy">   -173.71454121 </i>
    <i name="e_wo_entrp">   -173.60064647 </i>
    <i name="e_0_energy">   -173.68606753 </i>
   </energy>
  </scstep>
  <scstep>
   <time name="diag">   63.32   63.32</time>
   <time name="diis">   70.42   70.42</time>
   <time name="orth">   12.53   12.53</time>
   <time name="total">  158.59  158.59</time>
   <energy>
    <i name="alphaZ">     75.25431677 </i>
    <i name="ewald"> 137073.76039343 </i>
    <i name="hartreedc">-181449.91264217 </i>
    <i name="XCdc">  -1693.46758978 </i>
    <i name="pawpsdc">  46031.72827392 </i>
    <i name="pawaedc"> -42501.23230945 </i>
    <i name="eentropy">     -0.11389172 </i>
    <i name="bandstr">  -2796.23665129 </i>
    <i name="atom">  45086.50549395 </i>
    <i name="e_fr_energy">   -173.71460634 </i>
    <i name="e_wo_entrp">   -173.60071462 </i>
    <i name="e_0_energy">   -173.68613341 </i>
   </energy>
  </scstep>
  <structure>
   <crystal>
    <varray name="basis" >
     <v>      30.00000000       0.00000000       0.00000000 </v>
     <v>       0.00000000      30.00000000       0.00000000 </v>
     <v>       0.00000000       0.00000000      30.00000000 </v>
    </varray>
    <i name="volume">  27000.00000000 </i>
    <varray name="rec_basis" >
     <v>       0.03333333       0.00000000       0.00000000 </v>
     <v>       0.00000000       0.03333333       0.00000000 </v>
     <v>       0.00000000       0.00000000       0.03333333 </v>
    </varray>
   </crystal>
   <varray name="positions" >
    <v>       0.44576020       0.32826710       0.41691983 </v>
    <v>       0.67173288       0.55423978       0.41691983 </v>
    <v>       0.55423980       0.32826710       0.41691983 </v>
    <v>       0.32826712       0.55423978       0.41691983 </v>
    <v>       0.50000000       0.38250690       0.34021317 </v>
    <v>       0.50000000       0.38250690       0.65978680 </v>
    <v>       0.50000000       0.27609440       0.50000000 </v>
    <v>       0.27609443       0.49999998       0.50000000 </v>
    <v>       0.72390557       0.49999998       0.50000000 </v>
    <v>       0.50000000       0.72390555       0.50000000 </v>
    <v>       0.61195280       0.38804720       0.34167483 </v>
    <v>       0.61195280       0.38804720       0.65832513 </v>
    <v>       0.38804722       0.61195278       0.34167483 </v>
    <v>       0.38804722       0.61195278       0.65832513 </v>
    <v>       0.38804720       0.38804720       0.34167483 </v>
    <v>       0.38804720       0.38804720       0.65832513 </v>
    <v>       0.61195278       0.61195278       0.34167483 </v>
    <v>       0.61195278       0.61195278       0.65832513 </v>
    <v>       0.44576020       0.32826710       0.58308023 </v>
    <v>       0.67173288       0.55423978       0.58308023 </v>
    <v>       0.55791699       0.44208301       0.41809300 </v>
    <v>       0.32826705       0.44576024       0.41691983 </v>
    <v>       0.55423973       0.67173293       0.41691983 </v>
    <v>       0.55423980       0.32826710       0.58308023 </v>
    <v>       0.32826712       0.55423978       0.58308023 </v>
    <v>       0.67173295       0.44576024       0.41691983 </v>
    <v>       0.44576027       0.67173293       0.41691983 </v>
    <v>       0.44208301       0.44208301       0.41809300 </v>
    <v>       0.50000000       0.38416601       0.50000000 </v>
    <v>       0.61749315       0.50000005       0.34021317 </v>
    <v>       0.61749315       0.50000005       0.65978680 </v>
    <v>       0.38250685       0.50000005       0.34021317 </v>
    <v>       0.38250685       0.50000005       0.65978680 </v>
    <v>       0.38317830       0.38317830       0.50000000 </v>
    <v>       0.61682172       0.61682172       0.50000000 </v>
    <v>       0.61682170       0.38317830       0.50000000 </v>
    <v>       0.38317828       0.61682172       0.50000000 </v>
    <v>       0.50000000       0.50000000       0.33478917 </v>
    <v>       0.50000000       0.50000000       0.66521087 </v>
    <v>       0.32826705       0.44576024       0.58308023 </v>
    <v>       0.55423973       0.67173293       0.58308023 </v>
    <v>       0.55791699       0.44208301       0.58190703 </v>
    <v>       0.44208298       0.55791702       0.41809300 </v>
    <v>       0.44208301       0.44208301       0.58190703 </v>
    <v>       0.67173295       0.44576024       0.58308023 </v>
    <v>       0.44576027       0.67173293       0.58308023 </v>
    <v>       0.55791702       0.55791702       0.41809300 </v>
    <v>       0.38416599       0.50000002       0.50000000 </v>
    <v>       0.61583401       0.50000002       0.50000000 </v>
    <v>       0.50000000       0.61749319       0.34021317 </v>
    <v>       0.50000000       0.61749319       0.65978680 </v>
    <v>       0.50000000       0.50000000       0.50000000 </v>
    <v>       0.44208298       0.55791702       0.58190703 </v>
    <v>       0.55791702       0.55791702       0.58190703 </v>
    <v>       0.50000000       0.61583404       0.50000000 </v>
    <v>       0.74480793       0.55966003       0.35399300 </v>
    <v>       0.77641573       0.56736290       0.33514167 </v>
   </varray>
  </structure>
  <varray name="forces" >
   <v>       0.70294920       1.10802597       0.29244409 </v>
   <v>      -0.66472112      -0.64149129      -0.04370333 </v>
   <v>      -0.70324909       1.10854795       0.29215463 </v>
   <v>       1.11259473      -0.70161125       0.28821603 </v>
   <v>       0.00040481       0.41395857       1.28080619 </v>
   <v>       0.00527888       0.41405053      -1.28196033 </v>
   <v>       0.00033494       1.51810046       0.00208169 </v>
   <v>       1.51723752      -0.00003713       0.00035911 </v>
   <v>      -1.52518301      -0.01285004       0.02183272 </v>
   <v>      -0.00110780      -1.51794501       0.00250153 </v>
   <v>      -0.75657127       0.76108048       1.07478187 </v>
   <v>      -0.76100469       0.75486793      -1.07307371 </v>
   <v>       0.75287534      -0.76014096       1.07494622 </v>
   <v>       0.75937911      -0.75428118      -1.07318513 </v>
   <v>       0.75555750       0.75862875       1.07331127 </v>
   <v>       0.75497745       0.75697435      -1.07216404 </v>
   <v>      -0.78677013      -0.74627456       1.06373087 </v>
   <v>      -0.75899074      -0.75587061      -1.07238118 </v>
   <v>       0.70668573       1.10834830      -0.29507565 </v>
   <v>      -1.10634547      -0.70415037      -0.29202446 </v>
   <v>       0.11204216      -0.11143759      -0.15709205 </v>
   <v>       1.11112300       0.70365229       0.28991521 </v>
   <v>      -0.70425664      -1.10628285       0.29034117 </v>
   <v>      -0.70424309       1.10790353      -0.28980615 </v>
   <v>       1.10866702      -0.70479879      -0.29248151 </v>
   <v>      -1.12399388       0.66132956       0.30464788 </v>
   <v>       0.70428177      -1.10851448       0.29246801 </v>
   <v>      -0.11256668      -0.11129144      -0.15828410 </v>
   <v>       0.00020444      -0.23063218       0.00179847 </v>
   <v>      -0.45304669      -0.02511060       1.26167335 </v>
   <v>      -0.41433292       0.00035797      -1.28120851 </v>
   <v>       0.41135857       0.00103238       1.28243990 </v>
   <v>       0.41403755      -0.00105387      -1.28232733 </v>
   <v>       0.82879085       0.82921107       0.00033036 </v>
   <v>      -0.83374538      -0.84755006      -0.00738273 </v>
   <v>      -0.82609701       0.83134554      -0.00575998 </v>
   <v>       0.82824964      -0.82815244       0.00016206 </v>
   <v>       0.00705223      -0.00192191       1.17848534 </v>
   <v>       0.00056618       0.00051670      -1.17786571 </v>
   <v>       1.10908499       0.70415626      -0.29175700 </v>
   <v>      -0.71354700      -1.10763311      -0.28430699 </v>
   <v>       0.10889728      -0.11962442       0.16513013 </v>
   <v>      -0.12401179       0.11082718      -0.15905546 </v>
   <v>      -0.11423279      -0.10978355       0.15628547 </v>
   <v>      -1.10552890       0.70612930      -0.29606494 </v>
   <v>       0.70704014      -1.10895645      -0.29151199 </v>
   <v>       0.11298931       0.11214296      -0.14085083 </v>
   <v>      -0.23011643      -0.00101188       0.00292634 </v>
   <v>       0.23579558       0.02358723      -0.01819404 </v>
   <v>       0.00741317      -0.41395836       1.28091308 </v>
   <v>       0.00054307      -0.41198172      -1.28305386 </v>
   <v>       0.00693233       0.00022590      -0.00524953 </v>
   <v>      -0.11340759       0.11347131       0.15950526 </v>
   <v>       0.11543540       0.11430476       0.15431601 </v>
   <v>       0.00424763       0.22998910      -0.00052840 </v>
   <v>      -2.49907499      -0.51663898       1.63057853 </v>
   <v>       2.13311756       0.50822072      -1.29273383 </v>
  </varray>
  <varray name="stress" >
   <v>      -6.68399094       0.02666118      -0.02472137 </v>
   <v>       0.02666118      -6.74768610      -0.01497575 </v>
   <v>      -0.02472135      -0.01497574      -6.75640392 </v>
  </varray>
  <energy>
   <i name="e_fr_energy">   -173.71460634 </i>
   <i name="e_wo_entrp">   -173.68613341 </i>
   <i name="e_0_energy">     -0.11389172 </i>
  </energy>
  <time name="totalsc">17559.9817560.60</time>
  <eigenvalues>
   <array>
    <dimension dim="1">band</dimension>
    <dimension dim="2">kpoint</dimension>
    <dimension dim="3">spin</dimension>
    <field>eigene</field>
    <field>occ</field>
    <set>
     <set comment="spin 1">
      <set comment="kpoint 1">
       <r>  -29.2877    1.0000 </r>
       <r>  -13.7979    1.0000 </r>
       <r>  -11.5869    1.0000 </r>
       <r>  -11.5865    1.0000 </r>
       <r>   -9.1420    1.0000 </r>
       <r>   -6.6198    1.0000 </r>
       <r>   -6.1009    1.0000 </r>
       <r>   -6.1006    1.0000 </r>
       <r>   -6.0939    1.0000 </r>
       <r>   -5.7874    1.0000 </r>
       <r>   -5.7864    1.0000 </r>
       <r>   -5.7836    1.0000 </r>
       <r>   -5.7204    1.0000 </r>
       <r>   -5.6670    1.0000 </r>
       <r>   -5.6593    1.0000 </r>
       <r>   -5.6589    1.0000 </r>
       <r>   -5.6580    1.0000 </r>
       <r>   -5.5976    1.0000 </r>
       <r>   -5.5963    1.0000 </r>
       <r>   -5.5851    1.0000 </r>
       <r>   -5.5733    1.0000 </r>
       <r>   -5.5711    1.0000 </r>
       <r>   -5.5699    1.0000 </r>
       <r>   -5.5284    1.0000 </r>
       <r>   -5.5222    1.0000 </r>
       <r>   -5.5217    1.0000 </r>
       <r>   -5.5203    1.0000 </r>
       <r>   -5.4961    1.0000 </r>
       <r>   -5.4957    1.0000 </r>
       <r>   -5.4946    1.0000 </r>
       <r>   -5.4898    1.0000 </r>
       <r>   -5.4875    1.0000 </r>
       <r>   -5.4875    1.0000 </r>
       <r>   -5.4870    1.0000 </r>
       <r>   -5.4850    1.0000 </r>
       <r>   -5.4539    1.0000 </r>
       <r>   -5.4532    1.0000 </r>
       <r>   -5.4450    1.0000 </r>
       <r>   -5.4432    1.0000 </r>
       <r>   -5.4428    1.0000 </r>
       <r>   -5.4427    1.0000 </r>
       <r>   -5.4417    1.0000 </r>
       <r>   -5.4413    1.0000 </r>
       <r>   -5.4057    1.0000 </r>
       <r>   -5.4055    1.0000 </r>
       <r>   -5.4037    1.0000 </r>
       <r>   -5.4011    1.0000 </r>
       <r>   -5.3999    1.0000 </r>
       <r>   -5.3973    1.0000 </r>
       <r>   -5.3962    1.0000 </r>
       <r>   -5.3954    1.0000 </r>
       <r>   -5.3804    1.0000 </r>
       <r>   -5.3801    1.0000 </r>
       <r>   -5.3789    1.0000 </r>
       <r>   -5.3640    1.0000 </r>
       <r>   -5.3051    1.0000 </r>
       <r>   -5.3043    1.0000 </r>
       <r>   -5.3004    1.0000 </r>
       <r>   -5.2988    1.0000 </r>
       <r>   -5.2922    1.0000 </r>
       <r>   -5.2913    1.0000 </r>
       <r>   -5.2909    1.0000 </r>
       <r>   -5.2803    1.0000 </r>
       <r>   -5.2749    1.0000 </r>
       <r>   -5.2741    1.0000 </r>
       <r>   -5.2618    1.0000 </r>
       <r>   -5.2616    1.0000 </r>
       <r>   -5.1910    1.0000 </r>
       <r>   -5.1807    1.0000 </r>
       <r>   -5.1789    1.0000 </r>
       <r>   -5.1777    1.0000 </r>
       <r>   -5.1628    1.0000 </r>
       <r>   -5.1553    1.0000 </r>
       <r>   -5.1543    1.0000 </r>
       <r>   -5.1535    1.0000 </r>
       <r>   -5.1530    1.0000 </r>
       <r>   -5.1414    1.0000 </r>
       <r>   -5.1372    1.0000 </r>
       <r>   -5.1348    1.0000 </r>
       <r>   -5.1232    1.0000 </r>
       <r>   -5.1007    1.0000 </r>
       <r>   -5.0993    1.0000 </r>
       <r>   -5.0981    1.0000 </r>
       <r>   -5.0874    1.0000 </r>
       <r>   -5.0794    1.0000 </r>
       <r>   -5.0778    1.0000 </r>
       <r>   -5.0769    1.0000 </r>
       <r>   -5.0366    1.0000 </r>
       <r>   -5.0351    1.0000 </r>
       <r>   -5.0292    1.0000 </r>
       <r>   -5.0288    1.0000 </r>
       <r>   -5.0284    1.0000 </r>
       <r>   -5.0245    1.0000 </r>
       <r>   -5.0235    1.0000 </r>
       <r>   -5.0230    1.0000 </r>
       <r>   -5.0051    1.0000 </r>
       <r>   -5.0039    1.0000 </r>
       <r>   -5.0018    1.0000 </r>
       <r>   -4.9948    1.0000 </r>
       <r>   -4.9930    1.0000 </r>
       <r>   -4.9835    1.0000 </r>
       <r>   -4.9810    1.0000 </r>
       <r>   -4.9789    1.0000 </r>
       <r>   -4.9681    1.0000 </r>
       <r>   -4.9670    1.0000 </r>
       <r>   -4.9654    1.0000 </r>
       <r>   -4.9564    1.0000 </r>
       <r>   -4.9559    1.0000 </r>
       <r>   -4.9545    1.0000 </r>
       <r>   -4.9447    1.0000 </r>
       <r>   -4.9442    1.0000 </r>
       <r>   -4.9337    1.0000 </r>
       <r>   -4.9319    1.0000 </r>
       <r>   -4.9298    1.0000 </r>
       <r>   -4.9270    1.0000 </r>
       <r>   -4.9266    1.0000 </r>
       <r>   -4.9106    1.0000 </r>
       <r>   -4.8932    1.0000 </r>
       <r>   -4.8926    1.0000 </r>
       <r>   -4.8915    1.0000 </r>
       <r>   -4.8794    1.0000 </r>
       <r>   -4.8769    1.0000 </r>
       <r>   -4.8761    1.0000 </r>
       <r>   -4.8752    1.0000 </r>
       <r>   -4.8740    1.0000 </r>
       <r>   -4.8738    1.0000 </r>
       <r>   -4.8199    1.0000 </r>
       <r>   -4.8197    1.0000 </r>
       <r>   -4.8187    1.0000 </r>
       <r>   -4.8151    1.0000 </r>
       <r>   -4.8149    1.0000 </r>
       <r>   -4.8147    1.0000 </r>
       <r>   -4.8068    1.0000 </r>
       <r>   -4.8059    1.0000 </r>
       <r>   -4.8042    1.0000 </r>
       <r>   -4.7700    0.9999 </r>
       <r>   -4.7669    0.9999 </r>
       <r>   -4.7659    0.9999 </r>
       <r>   -4.7607    0.9999 </r>
       <r>   -4.7404    0.9998 </r>
       <r>   -4.7387    0.9998 </r>
       <r>   -4.7380    0.9998 </r>
       <r>   -4.7124    0.9996 </r>
       <r>   -4.7113    0.9996 </r>
       <r>   -4.7109    0.9996 </r>
       <r>   -4.6999    0.9995 </r>
       <r>   -4.6970    0.9995 </r>
       <r>   -4.6802    0.9993 </r>
       <r>   -4.6663    0.9990 </r>
       <r>   -4.6622    0.9989 </r>
       <r>   -4.6603    0.9989 </r>
       <r>   -4.6584    0.9989 </r>
       <r>   -4.6478    0.9986 </r>
       <r>   -4.6462    0.9986 </r>
       <r>   -4.6457    0.9986 </r>
       <r>   -4.6455    0.9986 </r>
       <r>   -4.6453    0.9986 </r>
       <r>   -4.6426    0.9985 </r>
       <r>   -4.6301    0.9982 </r>
       <r>   -4.6249    0.9980 </r>
       <r>   -4.6241    0.9980 </r>
       <r>   -4.6202    0.9978 </r>
       <r>   -4.6199    0.9978 </r>
       <r>   -4.6192    0.9978 </r>
       <r>   -4.6188    0.9978 </r>
       <r>   -4.6166    0.9977 </r>
       <r>   -4.6164    0.9977 </r>
       <r>   -4.6106    0.9975 </r>
       <r>   -4.6033    0.9973 </r>
       <r>   -4.6010    0.9972 </r>
       <r>   -4.5720    0.9961 </r>
       <r>   -4.5715    0.9961 </r>
       <r>   -4.5706    0.9961 </r>
       <r>   -4.5689    0.9960 </r>
       <r>   -4.5682    0.9960 </r>
       <r>   -4.5674    0.9959 </r>
       <r>   -4.5654    0.9959 </r>
       <r>   -4.5625    0.9958 </r>
       <r>   -4.5521    0.9955 </r>
       <r>   -4.5483    0.9954 </r>
       <r>   -4.5481    0.9954 </r>
       <r>   -4.5300    0.9951 </r>
       <r>   -4.5288    0.9951 </r>
       <r>   -4.5264    0.9951 </r>
       <r>   -4.5263    0.9951 </r>
       <r>   -4.5256    0.9951 </r>
       <r>   -4.5249    0.9951 </r>
       <r>   -4.5218    0.9951 </r>
       <r>   -4.5212    0.9951 </r>
       <r>   -4.5201    0.9951 </r>
       <r>   -4.4853    0.9968 </r>
       <r>   -4.4801    0.9974 </r>
       <r>   -4.4790    0.9975 </r>
       <r>   -4.4789    0.9976 </r>
       <r>   -4.4777    0.9977 </r>
       <r>   -4.4665    0.9993 </r>
       <r>   -4.4566    1.0012 </r>
       <r>   -4.4560    1.0013 </r>
       <r>   -4.4531    1.0020 </r>
       <r>   -4.4453    1.0038 </r>
       <r>   -4.4400    1.0053 </r>
       <r>   -4.4355    1.0066 </r>
       <r>   -4.4320    1.0077 </r>
       <r>   -4.4310    1.0080 </r>
       <r>   -4.4238    1.0105 </r>
       <r>   -4.4220    1.0111 </r>
       <r>   -4.4213    1.0114 </r>
       <r>   -4.4165    1.0132 </r>
       <r>   -4.4160    1.0134 </r>
       <r>   -4.4138    1.0143 </r>
       <r>   -4.3962    1.0218 </r>
       <r>   -4.3859    1.0266 </r>
       <r>   -4.3835    1.0278 </r>
       <r>   -4.3821    1.0285 </r>
       <r>   -4.3818    1.0286 </r>
       <r>   -4.3812    1.0289 </r>
       <r>   -4.3779    1.0305 </r>
       <r>   -4.3756    1.0316 </r>
       <r>   -4.3753    1.0317 </r>
       <r>   -4.3421    1.0462 </r>
       <r>   -4.3393    1.0472 </r>
       <r>   -4.3389    1.0473 </r>
       <r>   -4.3155    1.0516 </r>
       <r>   -4.3137    1.0516 </r>
       <r>   -4.3112    1.0515 </r>
       <r>   -4.3104    1.0515 </r>
       <r>   -4.3096    1.0514 </r>
       <r>   -4.3077    1.0512 </r>
       <r>   -4.3061    1.0510 </r>
       <r>   -4.3058    1.0510 </r>
       <r>   -4.3052    1.0509 </r>
       <r>   -4.2999    1.0497 </r>
       <r>   -4.2989    1.0494 </r>
       <r>   -4.2983    1.0492 </r>
       <r>   -4.2966    1.0486 </r>
       <r>   -4.2951    1.0481 </r>
       <r>   -4.2939    1.0476 </r>
       <r>   -4.2929    1.0471 </r>
       <r>   -4.2899    1.0457 </r>
       <r>   -4.2891    1.0453 </r>
       <r>   -4.2763    1.0362 </r>
       <r>   -4.2748    1.0348 </r>
       <r>   -4.2587    1.0156 </r>
       <r>   -4.2584    1.0151 </r>
       <r>   -4.2581    1.0146 </r>
       <r>   -4.2573    1.0134 </r>
       <r>   -4.2563    1.0120 </r>
       <r>   -4.2549    1.0097 </r>
       <r>   -4.2520    1.0049 </r>
       <r>   -4.2389    0.9795 </r>
       <r>   -4.2369    0.9750 </r>
       <r>   -4.2282    0.9539 </r>
       <r>   -4.2274    0.9520 </r>
       <r>   -4.2263    0.9489 </r>
       <r>   -4.2218    0.9365 </r>
       <r>   -4.2213    0.9351 </r>
       <r>   -4.2186    0.9273 </r>
       <r>   -4.2169    0.9221 </r>
       <r>   -4.2163    0.9203 </r>
       <r>   -4.2161    0.9196 </r>
       <r>   -4.2119    0.9066 </r>
       <r>   -4.2109    0.9033 </r>
       <r>   -4.2104    0.9016 </r>
       <r>   -4.2099    0.8998 </r>
       <r>   -4.2077    0.8925 </r>
       <r>   -4.2062    0.8875 </r>
       <r>   -4.1958    0.8498 </r>
       <r>   -4.1914    0.8327 </r>
       <r>   -4.1912    0.8317 </r>
       <r>   -4.1910    0.8309 </r>
       <r>   -4.1885    0.8207 </r>
       <r>   -4.1882    0.8196 </r>
       <r>   -4.1653    0.7181 </r>
       <r>   -4.1645    0.7143 </r>
       <r>   -4.1615    0.7000 </r>
       <r>   -4.1507    0.6463 </r>
       <r>   -4.1504    0.6449 </r>
       <r>   -4.1496    0.6408 </r>
       <r>   -4.1438    0.6114 </r>
       <r>   -4.1426    0.6049 </r>
       <r>   -4.1423    0.6036 </r>
       <r>   -4.1293    0.5356 </r>
       <r>   -4.1010    0.3868 </r>
       <r>   -4.1002    0.3830 </r>
       <r>   -4.1000    0.3818 </r>
       <r>   -4.0987    0.3753 </r>
       <r>   -4.0983    0.3728 </r>
       <r>   -4.0846    0.3046 </r>
       <r>   -4.0834    0.2988 </r>
       <r>   -3.9388   -0.0511 </r>
       <r>   -3.8515   -0.0230 </r>
       <r>   -3.7939   -0.0024 </r>
       <r>   -3.7879   -0.0011 </r>
       <r>   -3.7807    0.0003 </r>
       <r>   -3.4626    0.0001 </r>
       <r>   -3.4598    0.0001 </r>
       <r>   -3.4334    0.0000 </r>
       <r>   -3.0318    0.0000 </r>
       <r>   -3.0273    0.0000 </r>
       <r>   -3.0217    0.0000 </r>
       <r>   -2.9946    0.0000 </r>
       <r>   -2.9875    0.0000 </r>
       <r>   -2.9432    0.0000 </r>
       <r>   -2.9072    0.0000 </r>
       <r>   -2.8993    0.0000 </r>
       <r>   -2.4998    0.0000 </r>
       <r>   -2.4915    0.0000 </r>
       <r>   -2.4906    0.0000 </r>
       <r>   -2.3135    0.0000 </r>
       <r>   -2.0957    0.0000 </r>
       <r>   -2.0891    0.0000 </r>
       <r>   -2.0549    0.0000 </r>
       <r>   -1.9988    0.0000 </r>
       <r>   -1.9399    0.0000 </r>
       <r>   -1.9131    0.0000 </r>
       <r>   -1.8572    0.0000 </r>
       <r>   -1.8319    0.0000 </r>
       <r>   -1.7616    0.0000 </r>
       <r>   -1.7066    0.0000 </r>
       <r>   -1.6700    0.0000 </r>
       <r>   -1.6126    0.0000 </r>
       <r>   -1.5985    0.0000 </r>
       <r>   -1.5292    0.0000 </r>
       <r>   -1.5085    0.0000 </r>
       <r>   -1.4584    0.0000 </r>
       <r>   -1.2095    0.0000 </r>
       <r>   -1.1869    0.0000 </r>
       <r>   -1.1674    0.0000 </r>
       <r>   -0.9652    0.0000 </r>
       <r>   -0.9592    0.0000 </r>
       <r>   -0.9383    0.0000 </r>
       <r>   -0.9067    0.0000 </r>
       <r>   -0.9045    0.0000 </r>
       <r>   -0.8865    0.0000 </r>
       <r>   -0.7497    0.0000 </r>
       <r>   -0.5983    0.0000 </r>
      </set>
     </set>
    </set>
   </array>
  </eigenvalues>
  <separator name="orbital magnetization" >
   <v name="MAGDIPOLOUT">      0.00000000      0.00000000      0.00000000</v>
  </separator>
  <dos>
   <i name="efermi">     -4.12257799 </i>
   <total>
    <array>
     <dimension dim="1">gridpoints</dimension>
     <dimension dim="2">spin</dimension>
     <field>energy</field>
     <field>total</field>
     <field>integrated</field>
     <set>
      <set comment="spin 1">
       <r>   -31.2877     0.0000     0.0000 </r>
       <r>   -31.1787     0.0000     0.0000 </r>
       <r>   -31.0698     0.0000     0.0000 </r>
       <r>   -30.9608     0.0000     0.0000 </r>
       <r>   -30.8518     0.0000     0.0000 </r>
       <r>   -30.7429     0.0000     0.0000 </r>
       <r>   -30.6339     0.0000     0.0000 </r>
       <r>   -30.5249     0.0000     0.0000 </r>
       <r>   -30.4160     0.0000     0.0000 </r>
       <r>   -30.3070     0.0000     0.0000 </r>
       <r>   -30.1981     0.0000     0.0000 </r>
       <r>   -30.0891     0.0000     0.0000 </r>
       <r>   -29.9801     0.0005     0.0001 </r>
       <r>   -29.8712     0.0075     0.0009 </r>
       <r>   -29.7622     0.0463     0.0059 </r>
       <r>   -29.6532     0.0084     0.0068 </r>
       <r>   -29.5443    -0.6114    -0.0598 </r>
       <r>   -29.4353    -0.0043    -0.0603 </r>
       <r>   -29.3263     6.0860     0.6029 </r>
       <r>   -29.2174     9.8571     1.6770 </r>
       <r>   -29.1084     3.8859     2.1004 </r>
       <r>   -28.9994    -0.6374     2.0309 </r>
       <r>   -28.8905    -0.3738     1.9902 </r>
       <r>   -28.7815     0.0553     1.9962 </r>
       <r>   -28.6725     0.0308     1.9996 </r>
       <r>   -28.5636     0.0036     2.0000 </r>
       <r>   -28.4546     0.0002     2.0000 </r>
       <r>   -28.3457     0.0000     2.0000 </r>
       <r>   -28.2367     0.0000     2.0000 </r>
       <r>   -28.1277     0.0000     2.0000 </r>
       <r>   -28.0188     0.0000     2.0000 </r>
       <r>   -27.9098     0.0000     2.0000 </r>
       <r>   -27.8008     0.0000     2.0000 </r>
       <r>   -27.6919     0.0000     2.0000 </r>
       <r>   -27.5829     0.0000     2.0000 </r>
       <r>   -27.4739     0.0000     2.0000 </r>
       <r>   -27.3650     0.0000     2.0000 </r>
       <r>   -27.2560     0.0000     2.0000 </r>
       <r>   -27.1470     0.0000     2.0000 </r>
       <r>   -27.0381     0.0000     2.0000 </r>
       <r>   -26.9291     0.0000     2.0000 </r>
       <r>   -26.8201     0.0000     2.0000 </r>
       <r>   -26.7112     0.0000     2.0000 </r>
       <r>   -26.6022     0.0000     2.0000 </r>
       <r>   -26.4933     0.0000     2.0000 </r>
       <r>   -26.3843     0.0000     2.0000 </r>
       <r>   -26.2753     0.0000     2.0000 </r>
       <r>   -26.1664     0.0000     2.0000 </r>
       <r>   -26.0574     0.0000     2.0000 </r>
       <r>   -25.9484     0.0000     2.0000 </r>
       <r>   -25.8395     0.0000     2.0000 </r>
       <r>   -25.7305     0.0000     2.0000 </r>
       <r>   -25.6215     0.0000     2.0000 </r>
       <r>   -25.5126     0.0000     2.0000 </r>
       <r>   -25.4036     0.0000     2.0000 </r>
       <r>   -25.2946     0.0000     2.0000 </r>
       <r>   -25.1857     0.0000     2.0000 </r>
       <r>   -25.0767     0.0000     2.0000 </r>
       <r>   -24.9678     0.0000     2.0000 </r>
       <r>   -24.8588     0.0000     2.0000 </r>
       <r>   -24.7498     0.0000     2.0000 </r>
       <r>   -24.6409     0.0000     2.0000 </r>
       <r>   -24.5319     0.0000     2.0000 </r>
       <r>   -24.4229     0.0000     2.0000 </r>
       <r>   -24.3140     0.0000     2.0000 </r>
       <r>   -24.2050     0.0000     2.0000 </r>
       <r>   -24.0960     0.0000     2.0000 </r>
       <r>   -23.9871     0.0000     2.0000 </r>
       <r>   -23.8781     0.0000     2.0000 </r>
       <r>   -23.7691     0.0000     2.0000 </r>
       <r>   -23.6602     0.0000     2.0000 </r>
       <r>   -23.5512     0.0000     2.0000 </r>
       <r>   -23.4422     0.0000     2.0000 </r>
       <r>   -23.3333     0.0000     2.0000 </r>
       <r>   -23.2243     0.0000     2.0000 </r>
       <r>   -23.1154     0.0000     2.0000 </r>
       <r>   -23.0064     0.0000     2.0000 </r>
       <r>   -22.8974     0.0000     2.0000 </r>
       <r>   -22.7885     0.0000     2.0000 </r>
       <r>   -22.6795     0.0000     2.0000 </r>
       <r>   -22.5705     0.0000     2.0000 </r>
       <r>   -22.4616     0.0000     2.0000 </r>
       <r>   -22.3526     0.0000     2.0000 </r>
       <r>   -22.2436     0.0000     2.0000 </r>
       <r>   -22.1347     0.0000     2.0000 </r>
       <r>   -22.0257     0.0000     2.0000 </r>
       <r>   -21.9167     0.0000     2.0000 </r>
       <r>   -21.8078     0.0000     2.0000 </r>
       <r>   -21.6988     0.0000     2.0000 </r>
       <r>   -21.5898     0.0000     2.0000 </r>
       <r>   -21.4809     0.0000     2.0000 </r>
       <r>   -21.3719     0.0000     2.0000 </r>
       <r>   -21.2630     0.0000     2.0000 </r>
       <r>   -21.1540     0.0000     2.0000 </r>
       <r>   -21.0450     0.0000     2.0000 </r>
       <r>   -20.9361     0.0000     2.0000 </r>
       <r>   -20.8271     0.0000     2.0000 </r>
       <r>   -20.7181     0.0000     2.0000 </r>
       <r>   -20.6092     0.0000     2.0000 </r>
       <r>   -20.5002     0.0000     2.0000 </r>
       <r>   -20.3912     0.0000     2.0000 </r>
       <r>   -20.2823     0.0000     2.0000 </r>
       <r>   -20.1733     0.0000     2.0000 </r>
       <r>   -20.0643     0.0000     2.0000 </r>
       <r>   -19.9554     0.0000     2.0000 </r>
       <r>   -19.8464     0.0000     2.0000 </r>
       <r>   -19.7375     0.0000     2.0000 </r>
       <r>   -19.6285     0.0000     2.0000 </r>
       <r>   -19.5195     0.0000     2.0000 </r>
       <r>   -19.4106     0.0000     2.0000 </r>
       <r>   -19.3016     0.0000     2.0000 </r>
       <r>   -19.1926     0.0000     2.0000 </r>
       <r>   -19.0837     0.0000     2.0000 </r>
       <r>   -18.9747     0.0000     2.0000 </r>
       <r>   -18.8657     0.0000     2.0000 </r>
       <r>   -18.7568     0.0000     2.0000 </r>
       <r>   -18.6478     0.0000     2.0000 </r>
       <r>   -18.5388     0.0000     2.0000 </r>
       <r>   -18.4299     0.0000     2.0000 </r>
       <r>   -18.3209     0.0000     2.0000 </r>
       <r>   -18.2119     0.0000     2.0000 </r>
       <r>   -18.1030     0.0000     2.0000 </r>
       <r>   -17.9940     0.0000     2.0000 </r>
       <r>   -17.8851     0.0000     2.0000 </r>
       <r>   -17.7761     0.0000     2.0000 </r>
       <r>   -17.6671     0.0000     2.0000 </r>
       <r>   -17.5582     0.0000     2.0000 </r>
       <r>   -17.4492     0.0000     2.0000 </r>
       <r>   -17.3402     0.0000     2.0000 </r>
       <r>   -17.2313     0.0000     2.0000 </r>
       <r>   -17.1223     0.0000     2.0000 </r>
       <r>   -17.0133     0.0000     2.0000 </r>
       <r>   -16.9044     0.0000     2.0000 </r>
       <r>   -16.7954     0.0000     2.0000 </r>
       <r>   -16.6864     0.0000     2.0000 </r>
       <r>   -16.5775     0.0000     2.0000 </r>
       <r>   -16.4685     0.0000     2.0000 </r>
       <r>   -16.3595     0.0000     2.0000 </r>
       <r>   -16.2506     0.0000     2.0000 </r>
       <r>   -16.1416     0.0000     2.0000 </r>
       <r>   -16.0327     0.0000     2.0000 </r>
       <r>   -15.9237     0.0000     2.0000 </r>
       <r>   -15.8147     0.0000     2.0000 </r>
       <r>   -15.7058     0.0000     2.0000 </r>
       <r>   -15.5968     0.0000     2.0000 </r>
       <r>   -15.4878     0.0000     2.0000 </r>
       <r>   -15.3789     0.0000     2.0000 </r>
       <r>   -15.2699     0.0000     2.0000 </r>
       <r>   -15.1609     0.0000     2.0000 </r>
       <r>   -15.0520     0.0000     2.0000 </r>
       <r>   -14.9430     0.0000     2.0000 </r>
       <r>   -14.8340     0.0000     2.0000 </r>
       <r>   -14.7251     0.0000     2.0000 </r>
       <r>   -14.6161     0.0000     2.0000 </r>
       <r>   -14.5072     0.0003     2.0000 </r>
       <r>   -14.3982     0.0051     2.0006 </r>
       <r>   -14.2892     0.0378     2.0047 </r>
       <r>   -14.1803     0.0395     2.0090 </r>
       <r>   -14.0713    -0.4852     1.9562 </r>
       <r>   -13.9623    -0.4076     1.9117 </r>
       <r>   -13.8534     4.9088     2.4466 </r>
       <r>   -13.7444     9.9912     3.5353 </r>
       <r>   -13.6354     5.0514     4.0857 </r>
       <r>   -13.5265    -0.3672     4.0457 </r>
       <r>   -13.4175    -0.5007     3.9912 </r>
       <r>   -13.3085     0.0366     3.9951 </r>
       <r>   -13.1996     0.0388     3.9994 </r>
       <r>   -13.0906     0.0054     4.0000 </r>
       <r>   -12.9816     0.0003     4.0000 </r>
       <r>   -12.8727     0.0000     4.0000 </r>
       <r>   -12.7637     0.0000     4.0000 </r>
       <r>   -12.6548     0.0000     4.0000 </r>
       <r>   -12.5458     0.0000     4.0000 </r>
       <r>   -12.4368     0.0000     4.0000 </r>
       <r>   -12.3279     0.0002     4.0000 </r>
       <r>   -12.2189     0.0048     4.0005 </r>
       <r>   -12.1099     0.0472     4.0057 </r>
       <r>   -12.0010     0.1263     4.0194 </r>
       <r>   -11.8920    -0.5112     3.9637 </r>
       <r>   -11.7830    -1.5559     3.7942 </r>
       <r>   -11.6741     5.5533     4.3993 </r>
       <r>   -11.5651    18.8422     6.4525 </r>
       <r>   -11.4561    14.4535     8.0274 </r>
       <r>   -11.3472     1.1434     8.1520 </r>
       <r>   -11.2382    -1.4456     7.9944 </r>
       <r>   -11.1292    -0.0810     7.9856 </r>
       <r>   -11.0203     0.1091     7.9975 </r>
       <r>   -10.9113     0.0214     7.9998 </r>
       <r>   -10.8024     0.0015     8.0000 </r>
       <r>   -10.6934     0.0001     8.0000 </r>
       <r>   -10.5844     0.0000     8.0000 </r>
       <r>   -10.4755     0.0000     8.0000 </r>
       <r>   -10.3665     0.0000     8.0000 </r>
       <r>   -10.2575     0.0000     8.0000 </r>
       <r>   -10.1486     0.0000     8.0000 </r>
       <r>   -10.0396     0.0000     8.0000 </r>
       <r>    -9.9306     0.0000     8.0000 </r>
       <r>    -9.8217     0.0007     8.0001 </r>
       <r>    -9.7127     0.0098     8.0011 </r>
       <r>    -9.6037     0.0526     8.0069 </r>
       <r>    -9.4948    -0.0263     8.0040 </r>
       <r>    -9.3858    -0.6973     7.9280 </r>
       <r>    -9.2769     0.4100     7.9727 </r>
       <r>    -9.1679     6.9476     8.7297 </r>
       <r>    -9.0589     9.5582     9.7712 </r>
       <r>    -8.9500     3.0469    10.1032 </r>
       <r>    -8.8410    -0.7537    10.0211 </r>
       <r>    -8.7320    -0.2840     9.9902 </r>
       <r>    -8.6231     0.0620     9.9969 </r>
       <r>    -8.5141     0.0253     9.9997 </r>
       <r>    -8.4051     0.0027    10.0000 </r>
       <r>    -8.2962     0.0001    10.0000 </r>
       <r>    -8.1872     0.0000    10.0000 </r>
       <r>    -8.0782     0.0000    10.0000 </r>
       <r>    -7.9693     0.0000    10.0000 </r>
       <r>    -7.8603     0.0000    10.0000 </r>
       <r>    -7.7513     0.0000    10.0000 </r>
       <r>    -7.6424     0.0000    10.0000 </r>
       <r>    -7.5334     0.0000    10.0000 </r>
       <r>    -7.4245     0.0000    10.0000 </r>
       <r>    -7.3155     0.0004    10.0000 </r>
       <r>    -7.2065     0.0070    10.0008 </r>
       <r>    -7.0976     0.0447    10.0057 </r>
       <r>    -6.9886     0.0156    10.0074 </r>
       <r>    -6.8796    -0.5878     9.9433 </r>
       <r>    -6.7707    -0.0915     9.9334 </r>
       <r>    -6.6617     5.8964    10.5759 </r>
       <r>    -6.5527    10.0741    11.6736 </r>
       <r>    -6.4438     3.9531    12.1043 </r>
       <r>    -6.3348    -2.7623    11.8033 </r>
       <r>    -6.2258     1.9784    12.0189 </r>
       <r>    -6.1169    22.4438    14.4645 </r>
       <r>    -6.0079    25.8775    17.2842 </r>
       <r>    -5.8989     8.5586    18.2168 </r>
       <r>    -5.7900    20.2523    20.4236 </r>
       <r>    -5.6810    60.8253    27.0514 </r>
       <r>    -5.5721   144.2970    42.7746 </r>
       <r>    -5.4631   270.1040    72.2064 </r>
       <r>    -5.3541   303.1336   105.2372 </r>
       <r>    -5.2452   227.0141   129.9737 </r>
       <r>    -5.1362   214.6400   153.3619 </r>
       <r>    -5.0272   307.6169   186.8812 </r>
       <r>    -4.9183   368.9220   227.0807 </r>
       <r>    -4.8093   315.6841   261.4791 </r>
       <r>    -4.7003   299.0611   294.0661 </r>
       <r>    -4.5914   394.6384   337.0677 </r>
       <r>    -4.4824   432.5562   384.2010 </r>
       <r>    -4.3734   433.9542   431.4867 </r>
       <r>    -4.2645   533.8385   489.6562 </r>
       <r>    -4.1555   530.3120   547.4414 </r>
       <r>    -4.0466   269.7918   576.8391 </r>
       <r>    -3.9376    41.0194   581.3088 </r>
       <r>    -3.8286    15.1123   582.9555 </r>
       <r>    -3.7197    33.7991   586.6384 </r>
       <r>    -3.6107    13.1943   588.0761 </r>
       <r>    -3.5017    14.1277   589.6155 </r>
       <r>    -3.3928    28.8535   592.7596 </r>
       <r>    -3.2838    11.7015   594.0346 </r>
       <r>    -3.1748    -4.3299   593.5628 </r>
       <r>    -3.0659    24.1947   596.1992 </r>
       <r>    -2.9569    67.1564   603.5168 </r>
       <r>    -2.8479    53.6614   609.3640 </r>
       <r>    -2.7390     8.5450   610.2951 </r>
       <r>    -2.6300    -3.0369   609.9642 </r>
       <r>    -2.5210    18.9845   612.0328 </r>
       <r>    -2.4121    31.0110   615.4119 </r>
       <r>    -2.3031    16.1168   617.1681 </r>
       <r>    -2.1942     8.0608   618.0464 </r>
       <r>    -2.0852    25.5126   620.8264 </r>
       <r>    -1.9762    45.0874   625.7393 </r>
       <r>    -1.8673    46.3187   630.7864 </r>
       <r>    -1.7583    40.9927   635.2532 </r>
       <r>    -1.6493    43.4528   639.9880 </r>
       <r>    -1.5404    48.4485   645.2672 </r>
       <r>    -1.4314    33.9831   648.9701 </r>
       <r>    -1.3224    12.0079   650.2786 </r>
       <r>    -1.2135    16.5745   652.0846 </r>
       <r>    -1.1045    24.7250   654.7788 </r>
       <r>    -0.9955    33.2513   658.4020 </r>
       <r>    -0.8866    54.6059   664.3521 </r>
       <r>    -0.7776    40.8409   668.8023 </r>
       <r>    -0.6686    14.8633   670.4219 </r>
       <r>    -0.5597     9.6434   671.4727 </r>
       <r>    -0.4507     5.2746   672.0474 </r>
       <r>    -0.3418    -0.0313   672.0440 </r>
       <r>    -0.2328    -0.4993   671.9896 </r>
       <r>    -0.1238     0.0382   671.9938 </r>
       <r>    -0.0149     0.0492   671.9991 </r>
       <r>     0.0941     0.0076   671.9999 </r>
       <r>     0.2031     0.0005   672.0000 </r>
       <r>     0.3120     0.0000   672.0000 </r>
       <r>     0.4210     0.0000   672.0000 </r>
       <r>     0.5300     0.0000   672.0000 </r>
       <r>     0.6389     0.0000   672.0000 </r>
       <r>     0.7479     0.0000   672.0000 </r>
       <r>     0.8569     0.0000   672.0000 </r>
       <r>     0.9658     0.0000   672.0000 </r>
       <r>     1.0748     0.0000   672.0000 </r>
       <r>     1.1837     0.0000   672.0000 </r>
       <r>     1.2927     0.0000   672.0000 </r>
       <r>     1.4017     0.0000   672.0000 </r>
      </set>
     </set>
    </array>
   </total>
  </dos>
 </calculation>
 <structure name="finalpos" >
  <crystal>
   <varray name="basis" >
    <v>      30.00000000       0.00000000       0.00000000 </v>
    <v>       0.00000000      30.00000000       0.00000000 </v>
    <v>       0.00000000       0.00000000      30.00000000 </v>
   </varray>
   <i name="volume">  27000.00000000 </i>
   <varray name="rec_basis" >
    <v>       0.03333333       0.00000000       0.00000000 </v>
    <v>       0.00000000       0.03333333       0.00000000 </v>
    <v>       0.00000000       0.00000000       0.03333333 </v>
   </varray>
  </crystal>
  <varray name="positions" >
   <v>       0.44576020       0.32826710       0.41691983 </v>
   <v>       0.67173288       0.55423978       0.41691983 </v>
   <v>       0.55423980       0.32826710       0.41691983 </v>
   <v>       0.32826712       0.55423978       0.41691983 </v>
   <v>       0.50000000       0.38250690       0.34021317 </v>
   <v>       0.50000000       0.38250690       0.65978680 </v>
   <v>       0.50000000       0.27609440       0.50000000 </v>
   <v>       0.27609443       0.49999998       0.50000000 </v>
   <v>       0.72390557       0.49999998       0.50000000 </v>
   <v>       0.50000000       0.72390555       0.50000000 </v>
   <v>       0.61195280       0.38804720       0.34167483 </v>
   <v>       0.61195280       0.38804720       0.65832513 </v>
   <v>       0.38804722       0.61195278       0.34167483 </v>
   <v>       0.38804722       0.61195278       0.65832513 </v>
   <v>       0.38804720       0.38804720       0.34167483 </v>
   <v>       0.38804720       0.38804720       0.65832513 </v>
   <v>       0.61195278       0.61195278       0.34167483 </v>
   <v>       0.61195278       0.61195278       0.65832513 </v>
   <v>       0.44576020       0.32826710       0.58308023 </v>
   <v>       0.67173288       0.55423978       0.58308023 </v>
   <v>       0.55791699       0.44208301       0.41809300 </v>
   <v>       0.32826705       0.44576024       0.41691983 </v>
   <v>       0.55423973       0.67173293       0.41691983 </v>
   <v>       0.55423980       0.32826710       0.58308023 </v>
   <v>       0.32826712       0.55423978       0.58308023 </v>
   <v>       0.67173295       0.44576024       0.41691983 </v>
   <v>       0.44576027       0.67173293       0.41691983 </v>
   <v>       0.44208301       0.44208301       0.41809300 </v>
   <v>       0.50000000       0.38416601       0.50000000 </v>
   <v>       0.61749315       0.50000005       0.34021317 </v>
   <v>       0.61749315       0.50000005       0.65978680 </v>
   <v>       0.38250685       0.50000005       0.34021317 </v>
   <v>       0.38250685       0.50000005       0.65978680 </v>
   <v>       0.38317830       0.38317830       0.50000000 </v>
   <v>       0.61682172       0.61682172       0.50000000 </v>
   <v>       0.61682170       0.38317830       0.50000000 </v>
   <v>       0.38317828       0.61682172       0.50000000 </v>
   <v>       0.50000000       0.50000000       0.33478917 </v>
   <v>       0.50000000       0.50000000       0.66521087 </v>
   <v>       0.32826705       0.44576024       0.58308023 </v>
   <v>       0.55423973       0.67173293       0.58308023 </v>
   <v>       0.55791699       0.44208301       0.58190703 </v>
   <v>       0.44208298       0.55791702       0.41809300 </v>
   <v>       0.44208301       0.44208301       0.58190703 </v>
   <v>       0.67173295       0.44576024       0.58308023 </v>
   <v>       0.44576027       0.67173293       0.58308023 </v>
   <v>       0.55791702       0.55791702       0.41809300 </v>
   <v>       0.38416599       0.50000002       0.50000000 </v>
   <v>       0.61583401       0.50000002       0.50000000 </v>
   <v>       0.50000000       0.61749319       0.34021317 </v>
   <v>       0.50000000       0.61749319       0.65978680 </v>
   <v>       0.50000000       0.50000000       0.50000000 </v>
   <v>       0.44208298       0.55791702       0.58190703 </v>
   <v>       0.55791702       0.55791702       0.58190703 </v>
   <v>       0.50000000       0.61583404       0.50000000 </v>
   <v>       0.74480793       0.55966003       0.35399300 </v>
   <v>       0.77641573       0.56736290       0.33514167 </v>
  </varray>
  <varray name="selective"  type="logical" >
   <v type="logical" >  F  F  F </v>
   <v type="logical" >  F  F  F </v>
   <v type="logical" >  F  F  F </v>
   <v type="logical" >  F  F  F </v>
   <v type="logical" >  F  F  F </v>
   <v type="logical" >  F  F  F </v>
   <v type="logical" >  F  F  F </v>
   <v type="logical" >  F  F  F </v>
   <v type="logical" >  F  F  F </v>
   <v type="logical" >  F  F  F </v>
   <v type="logical" >  F  F  F </v>
   <v type="logical" >  F  F  F </v>
   <v type="logical" >  F  F  F </v>
   <v type="logical" >  F  F  F </v>
   <v type="logical" >  F  F  F </v>
   <v type="logical" >  F  F  F </v>
   <v type="logical" >  F  F  F </v>
   <v type="logical" >  F  F  F </v>
   <v type="logical" >  F  F  F </v>
   <v type="logical" >  F  F  F </v>
   <v type="logical" >  F  F  F </v>
   <v type="logical" >  F  F  F </v>
   <v type="logical" >  F  F  F </v>
   <v type="logical" >  F  F  F </v>
   <v type="logical" >  F  F  F </v>
   <v type="logical" >  F  F  F </v>
   <v type="logical" >  F  F  F </v>
   <v type="logical" >  F  F  F </v>
   <v type="logical" >  F  F  F </v>
   <v type="logical" >  F  F  F </v>
   <v type="logical" >  F  F  F </v>
   <v type="logical" >  F  F  F </v>
   <v type="logical" >  F  F  F </v>
   <v type="logical" >  F  F  F </v>
   <v type="logical" >  F  F  F </v>
   <v type="logical" >  F  F  F </v>
   <v type="logical" >  F  F  F </v>
   <v type="logical" >  F  F  F </v>
   <v type="logical" >  F  F  F </v>
   <v type="logical" >  F  F  F </v>
   <v type="logical" >  F  F  F </v>
   <v type="logical" >  F  F  F </v>
   <v type="logical" >  F  F  F </v>
   <v type="logical" >  F  F  F </v>
   <v type="logical" >  F  F  F </v>
   <v type="logical" >  F  F  F </v>
   <v type="logical" >  F  F  F </v>
   <v type="logical" >  F  F  F </v>
   <v type="logical" >  F  F  F </v>
   <v type="logical" >  F  F  F </v>
   <v type="logical" >  F  F  F </v>
   <v type="logical" >  F  F  F </v>
   <v type="logical" >  F  F  F </v>
   <v type="logical" >  F  F  F </v>
   <v type="logical" >  F  F  F </v>
   <v type="logical" >  F  F  F </v>
   <v type="logical" >  F  F  F </v>
  </varray>
  <nose>
   <v>      -3.00000000       0.00000000       0.00010000       0.00010000 </v>
  </nose>
 </structure>
</modeling>
