 vasp.5.4.4.18Apr17-6-g9f103f2a35 (build Sep 03 2018 23:53:05) complex          
  
 executed on             LinuxIFC date 2021.12.02  09:45:17
 running on    1 total cores
 distrk:  each k-point on    1 cores,    1 groups
 distr:  one band on NCORES_PER_BAND=   1 cores,    1 groups


--------------------------------------------------------------------------------------------------------


 INCAR:
 POTCAR:    PAW_PBE Pd 04Jan2005                  
 POTCAR:    PAW_PBE C 08Apr2002                   
 POTCAR:    PAW_PBE O 08Apr2002                   
 POTCAR:    PAW_PBE Pd 04Jan2005                  
   VRHFIN =Pd : s1 d9                                                           
   LEXCH  = PE                                                                  
   EATOM  =   809.7530 eV,   59.5152 Ry                                         
                                                                                
   TITEL  = PAW_PBE Pd 04Jan2005                                                
   LULTRA =        F    use ultrasoft PP ?                                      
   IUNSCR =        1    unscreen: 0-lin 1-nonlin 2-no                           
   RPACOR =    2.000    partial core radius                                     
   POMASS =  106.420; ZVAL   =   10.000    mass and valenz                      
   RCORE  =    2.600    outmost cutoff radius                                   
   RWIGS  =    2.710; RWIGS  =    1.434    wigner-seitz radius (au A)           
   ENMAX  =  250.925; ENMIN  =  188.194 eV                                      
   ICORE  =        3    local potential                                         
   LCOR   =        T    correct aug charges                                     
   LPAW   =        T    paw PP                                                  
   EAUG   =  416.230                                                            
   DEXC   =    0.000                                                            
   RMAX   =    2.653    core radius for proj-oper                               
   RAUG   =    1.300    factor for augmentation sphere                          
   RDEP   =    2.734    radius for radial grids                                 
   RDEPT  =    2.103    core radius for aug-charge                              
                                                                                
   Atomic configuration                                                         
   12 entries                                                                   
     n  l   j            E        occ.                                          
     1  0  0.50    -24164.6631   2.0000                                         
     2  0  0.50     -3530.9218   2.0000                                         
     2  1  1.50     -3165.6822   6.0000                                         
     3  0  0.50      -639.4577   2.0000                                         
     3  1  1.50      -519.4532   6.0000                                         
     3  2  2.50      -328.9757  10.0000                                         
     4  0  0.50       -88.7014   2.0000                                         
     4  1  1.50       -54.4540   6.0000                                         
     4  2  2.50        -6.6878   9.0000                                         
     5  0  0.50        -4.3543   1.0000                                         
     5  1  0.50        -1.3606   0.0000                                         
     4  3  2.50        -1.3606   0.0000                                         
   Description                                                                  
     l       E           TYP  RCUT    TYP  RCUT                                 
     2     -6.6878251     23  2.400                                             
     2     -8.0484077     23  2.400                                             
     0     -4.3542939     23  2.400                                             
     0      4.3406793     23  2.400                                             
     1     -4.0817478     23  2.600                                             
     1     15.8380318     23  2.600                                             
     3     -4.0817478     23  2.400                                             
  local pseudopotential read in
  partial core-charges read in
  partial kinetic energy density read in
  atomic valenz-charges read in
  non local Contribution for L=           2  read in
    real space projection operators read in
  non local Contribution for L=           2  read in
    real space projection operators read in
  non local Contribution for L=           0  read in
    real space projection operators read in
  non local Contribution for L=           0  read in
    real space projection operators read in
  non local Contribution for L=           1  read in
    real space projection operators read in
  non local Contribution for L=           1  read in
    real space projection operators read in
    PAW grid and wavefunctions read in
 
   number of l-projection  operators is LMAX  =           6
   number of lm-projection operators is LMMAX =          18
 
 POTCAR:    PAW_PBE C 08Apr2002                   
   VRHFIN =C: s2p2                                                              
   LEXCH  = PE                                                                  
   EATOM  =   147.1560 eV,   10.8157 Ry                                         
                                                                                
   TITEL  = PAW_PBE C 08Apr2002                                                 
   LULTRA =        F    use ultrasoft PP ?                                      
   IUNSCR =        1    unscreen: 0-lin 1-nonlin 2-no                           
   RPACOR =    1.200    partial core radius                                     
   POMASS =   12.011; ZVAL   =    4.000    mass and valenz                      
   RCORE  =    1.500    outmost cutoff radius                                   
   RWIGS  =    1.630; RWIGS  =    0.863    wigner-seitz radius (au A)           
   ENMAX  =  400.000; ENMIN  =  300.000 eV                                      
   ICORE  =        2    local potential                                         
   LCOR   =        T    correct aug charges                                     
   LPAW   =        T    paw PP                                                  
   EAUG   =  644.873                                                            
   DEXC   =    0.000                                                            
   RMAX   =    1.529    core radius for proj-oper                               
   RAUG   =    1.300    factor for augmentation sphere                          
   RDEP   =    1.501    radius for radial grids                                 
   RDEPT  =    1.300    core radius for aug-charge                              
                                                                                
   Atomic configuration                                                         
    4 entries                                                                   
     n  l   j            E        occ.                                          
     1  0  0.50      -273.3789   2.0000                                         
     2  0  0.50       -13.7508   2.0000                                         
     2  1  0.50        -5.2854   2.0000                                         
     3  2  1.50        -5.4423   0.0000                                         
   Description                                                                  
     l       E           TYP  RCUT    TYP  RCUT                                 
     0    -13.7508458     23  1.200                                             
     0     -8.2022199     23  1.200                                             
     1     -5.2854383     23  1.500                                             
     1     34.0145650     23  1.500                                             
     2     -5.4423304      7  1.500                                             
  local pseudopotential read in
  partial core-charges read in
  partial kinetic energy density read in
  atomic valenz-charges read in
  non local Contribution for L=           0  read in
    real space projection operators read in
  non local Contribution for L=           0  read in
    real space projection operators read in
  non local Contribution for L=           1  read in
    real space projection operators read in
  non local Contribution for L=           1  read in
    real space projection operators read in
    PAW grid and wavefunctions read in
 
   number of l-projection  operators is LMAX  =           4
   number of lm-projection operators is LMMAX =           8
 
 POTCAR:    PAW_PBE O 08Apr2002                   
   VRHFIN =O: s2p4                                                              
   LEXCH  = PE                                                                  
   EATOM  =   432.3788 eV,   31.7789 Ry                                         
                                                                                
   TITEL  = PAW_PBE O 08Apr2002                                                 
   LULTRA =        F    use ultrasoft PP ?                                      
   IUNSCR =        1    unscreen: 0-lin 1-nonlin 2-no                           
   RPACOR =    1.200    partial core radius                                     
   POMASS =   16.000; ZVAL   =    6.000    mass and valenz                      
   RCORE  =    1.520    outmost cutoff radius                                   
   RWIGS  =    1.550; RWIGS  =    0.820    wigner-seitz radius (au A)           
   ENMAX  =  400.000; ENMIN  =  300.000 eV                                      
   ICORE  =        2    local potential                                         
   LCOR   =        T    correct aug charges                                     
   LPAW   =        T    paw PP                                                  
   EAUG   =  605.392                                                            
   DEXC   =    0.000                                                            
   RMAX   =    1.553    core radius for proj-oper                               
   RAUG   =    1.300    factor for augmentation sphere                          
   RDEP   =    1.550    radius for radial grids                                 
   RDEPT  =    1.329    core radius for aug-charge                              
                                                                                
   Atomic configuration                                                         
    4 entries                                                                   
     n  l   j            E        occ.                                          
     1  0  0.50      -514.6923   2.0000                                         
     2  0  0.50       -23.9615   2.0000                                         
     2  1  0.50        -9.0305   4.0000                                         
     3  2  1.50        -9.5241   0.0000                                         
   Description                                                                  
     l       E           TYP  RCUT    TYP  RCUT                                 
     0    -23.9615318     23  1.200                                             
     0     -9.5240782     23  1.200                                             
     1     -9.0304911     23  1.520                                             
     1      8.1634956     23  1.520                                             
     2     -9.5240782      7  1.500                                             
  local pseudopotential read in
  partial core-charges read in
  partial kinetic energy density read in
  kinetic energy density of atom read in
  atomic valenz-charges read in
  non local Contribution for L=           0  read in
    real space projection operators read in
  non local Contribution for L=           0  read in
    real space projection operators read in
  non local Contribution for L=           1  read in
    real space projection operators read in
  non local Contribution for L=           1  read in
    real space projection operators read in
    PAW grid and wavefunctions read in
 
   number of l-projection  operators is LMAX  =           4
   number of lm-projection operators is LMMAX =           8
 
 Optimization of the real space projectors (new method)

 maximal supplied QI-value         = 14.36
 optimisation between [QCUT,QGAM] = [ 10.20, 20.39] = [ 29.12,116.47] Ry 
 Optimized for a Real-space Cutoff    1.51 Angstroem

   l    n(q)    QCUT    max X(q) W(low)/X(q) W(high)/X(q)  e(spline) 
   2      8    10.197    59.108    0.26E-03    0.14E-03    0.96E-07
   2      8    10.197    58.101    0.27E-03    0.14E-03    0.98E-07
   0      9    10.197   102.235    0.54E-04    0.60E-05    0.72E-07
   0      9    10.197    58.388    0.52E-04    0.60E-05    0.68E-07
   1      9    10.197    22.191    0.18E-03    0.25E-03    0.79E-07
   1      9    10.197    15.590    0.15E-03    0.21E-03    0.69E-07
 Optimization of the real space projectors (new method)

 maximal supplied QI-value         = 25.13
 optimisation between [QCUT,QGAM] = [ 10.05, 20.36] = [ 28.30,116.06] Ry 
 Optimized for a Real-space Cutoff    1.30 Angstroem

   l    n(q)    QCUT    max X(q) W(low)/X(q) W(high)/X(q)  e(spline) 
   0      8    10.053   115.676    0.49E-03    0.72E-03    0.18E-06
   0      8    10.053    87.132    0.49E-03    0.71E-03    0.18E-06
   1      7    10.053     4.429    0.32E-03    0.31E-03    0.18E-06
   1      7    10.053     2.733    0.23E-03    0.19E-03    0.20E-06
 Optimization of the real space projectors (new method)

 maximal supplied QI-value         = 24.76
 optimisation between [QCUT,QGAM] = [ 10.15, 20.30] = [ 28.85,115.39] Ry 
 Optimized for a Real-space Cutoff    1.38 Angstroem

   l    n(q)    QCUT    max X(q) W(low)/X(q) W(high)/X(q)  e(spline) 
   0      8    10.150    20.381    0.22E-03    0.32E-03    0.29E-06
   0      8    10.150    15.268    0.23E-03    0.35E-03    0.30E-06
   1      8    10.150     5.964    0.46E-03    0.53E-03    0.21E-06
   1      8    10.150     5.382    0.38E-03    0.45E-03    0.19E-06

 ----------------------------------------------------------------------------- 
|                                                                             |
|  ADVICE TO THIS USER RUNNING 'VASP/VAMP'   (HEAR YOUR MASTER'S VOICE ...):  |
|                                                                             |
|      You enforced a specific xc-type in the INCAR file,                     |
|      a different type was found on the POTCAR file                          |
|          I HOPE YOU KNOW, WHAT YOU ARE  DOING                               |
|                                                                             |
 ----------------------------------------------------------------------------- 

  PAW_PBE Pd 04Jan2005                  :
 energy of atom  1       EATOM= -809.7530
 kinetic energy error for atom=    0.0091 (will be added to EATOM!!)
  PAW_PBE C 08Apr2002                   :
 energy of atom  2       EATOM= -147.1560
 kinetic energy error for atom=    0.0288 (will be added to EATOM!!)
  PAW_PBE O 08Apr2002                   :
 energy of atom  3       EATOM= -432.3788
 kinetic energy error for atom=    0.1156 (will be added to EATOM!!)
 
 
 POSCAR: Pd55PES                                 
  positions in cartesian coordinates
  No initial velocities read in
 exchange correlation table for  LEXCH =        9
   RHO(1)=    0.500       N(1)  =     2000
   RHO(2)=  100.500       N(2)  =     4000
 


--------------------------------------------------------------------------------------------------------


 ion  position               nearest neighbor table
   1  0.446  0.328  0.417-   3 3.25   5 3.25   7 3.36  15 3.36  29 3.42  28 3.42
   2  0.672  0.554  0.417-  26 3.25  30 3.25  17 3.36   9 3.36  47 3.42  49 3.42
   3  0.554  0.328  0.417-   1 3.25   5 3.25   7 3.36  11 3.36  29 3.42  21 3.42
   4  0.328  0.554  0.417-  32 3.25  22 3.25  13 3.36   8 3.36  43 3.42  48 3.42
   5  0.500  0.383  0.340-   1 3.25   3 3.25  11 3.36  15 3.36  21 3.42  28 3.42
   6  0.500  0.383  0.660-  24 3.25  19 3.25  16 3.36  12 3.36  42 3.42  44 3.42
   7  0.500  0.276  0.500-  29 3.24   3 3.36   1 3.36  19 3.36  24 3.36
   8  0.276  0.500  0.500-  48 3.24  22 3.36  40 3.36   4 3.36  25 3.36
   9  0.724  0.500  0.500-  49 3.24  26 3.36  45 3.36   2 3.36  20 3.36
  10  0.500  0.724  0.500-  55 3.24  27 3.36  23 3.36  46 3.36  41 3.36
  11  0.612  0.388  0.342-  21 3.24   5 3.36   3 3.36  30 3.36  26 3.36
  12  0.612  0.388  0.658-  42 3.24  24 3.36  45 3.36   6 3.36  31 3.36
  13  0.388  0.612  0.342-  43 3.24  32 3.36  50 3.36   4 3.36  27 3.36
  14  0.388  0.612  0.658-  53 3.24  25 3.36  33 3.36  51 3.36  46 3.36
  15  0.388  0.388  0.342-  28 3.24   5 3.36   1 3.36  32 3.36  22 3.36
  16  0.388  0.388  0.658-  44 3.24  19 3.36  40 3.36   6 3.36  33 3.36
  17  0.612  0.612  0.342-  47 3.24  30 3.36  50 3.36   2 3.36  23 3.36
  18  0.612  0.612  0.658-  54 3.24  31 3.36  20 3.36  51 3.36  41 3.36
  19  0.446  0.328  0.583-   6 3.25  24 3.25  16 3.36   7 3.36  44 3.42  29 3.42
  20  0.672  0.554  0.583-  31 3.25  45 3.25  18 3.36   9 3.36  54 3.42  49 3.42
  21  0.558  0.442  0.418-  11 3.24   5 3.42   3 3.42  30 3.42  26 3.42
  22  0.328  0.446  0.417-   4 3.25  32 3.25   8 3.36  15 3.36  48 3.42  28 3.42
  23  0.554  0.672  0.417-  27 3.25  50 3.25  10 3.36  17 3.36  55 3.42  47 3.42
  24  0.554  0.328  0.583-   6 3.25  19 3.25  12 3.36   7 3.36  42 3.42  29 3.42
  25  0.328  0.554  0.583-  33 3.25  40 3.25  14 3.36   8 3.36  53 3.42  48 3.42
  26  0.672  0.446  0.417-   2 3.25  30 3.25   9 3.36  11 3.36  49 3.42  21 3.42
  27  0.446  0.672  0.417-  23 3.25  50 3.25  10 3.36  13 3.36  55 3.42  43 3.42
  28  0.442  0.442  0.418-  15 3.24   5 3.42   1 3.42  32 3.42  22 3.42
  29  0.500  0.384  0.500-   7 3.24   3 3.42   1 3.42  24 3.42  19 3.42
  30  0.617  0.500  0.340-   2 3.25  26 3.25  17 3.36  11 3.36  47 3.42  21 3.42
  31  0.617  0.500  0.660-  20 3.25  45 3.25  18 3.36  12 3.36  54 3.42  42 3.42
  32  0.383  0.500  0.340-   4 3.25  22 3.25  13 3.36  15 3.36  43 3.42  28 3.42
  33  0.383  0.500  0.660-  25 3.25  40 3.25  14 3.36  16 3.36  53 3.42  44 3.42
  34  0.383  0.383  0.500-
  35  0.617  0.617  0.500-
  36  0.617  0.383  0.500-
  37  0.383  0.617  0.500-
  38  0.500  0.500  0.335-
  39  0.500  0.500  0.665-  56 1.62  57 2.09
  40  0.328  0.446  0.583-  33 3.25  25 3.25  16 3.36   8 3.36  44 3.42  48 3.42
  41  0.554  0.672  0.583-  46 3.25  51 3.25  10 3.36  18 3.36  54 3.42  55 3.42
  42  0.558  0.442  0.582-  12 3.24   6 3.42  24 3.42  31 3.42  45 3.42
  43  0.442  0.558  0.418-  13 3.24   4 3.42  32 3.42  27 3.42  50 3.42
  44  0.442  0.442  0.582-  16 3.24   6 3.42  19 3.42  33 3.42  40 3.42
  45  0.672  0.446  0.583-  20 3.25  31 3.25   9 3.36  12 3.36  49 3.42  42 3.42
  46  0.446  0.672  0.583-  41 3.25  51 3.25  10 3.36  14 3.36  53 3.42  55 3.42
  47  0.558  0.558  0.418-  17 3.24   2 3.42  30 3.42  23 3.42  50 3.42
  48  0.384  0.500  0.500-   8 3.24   4 3.42  22 3.42  25 3.42  40 3.42
  49  0.616  0.500  0.500-   9 3.24   2 3.42  26 3.42  20 3.42  45 3.42
  50  0.500  0.617  0.340-  27 3.25  23 3.25  13 3.36  17 3.36  43 3.42  47 3.42
  51  0.500  0.617  0.660-  57 2.07  56 2.14  41 3.25  46 3.25  14 3.36  18 3.36  53 3.42  54 3.42

  52  0.500  0.500  0.500-
  53  0.442  0.558  0.582-  56 2.47  14 3.24  25 3.42  33 3.42  51 3.42  46 3.42
  54  0.558  0.558  0.582-  18 3.24  31 3.42  20 3.42  51 3.42  41 3.42
  55  0.500  0.616  0.500-  10 3.24  23 3.42  27 3.42  41 3.42  46 3.42
  56  0.480  0.549  0.654-  57 1.13  39 1.62  51 2.14  53 2.47
  57  0.476  0.560  0.690-  56 1.13  51 2.07  39 2.09
 
  LATTYP: Found a simple cubic cell.
 ALAT       =    30.0000000000
  
  Lattice vectors:
  
 A1 = (  30.0000000000,   0.0000000000,   0.0000000000)
 A2 = (   0.0000000000,  30.0000000000,   0.0000000000)
 A3 = (   0.0000000000,   0.0000000000,  30.0000000000)


Analysis of symmetry for initial positions (statically):
=====================================================================
 Subroutine PRICEL returns:
 Original cell was already a primitive cell.
 

 Routine SETGRP: Setting up the symmetry group for a 
 simple cubic supercell.


 Subroutine GETGRP returns: Found  1 space group operations
 (whereof  1 operations were pure point group operations)
 out of a pool of 48 trial point group operations.


The static configuration has the point symmetry C_1 .


Analysis of symmetry for dynamics (positions and initial velocities):
=====================================================================
 Subroutine PRICEL returns:
 Original cell was already a primitive cell.
 

 Routine SETGRP: Setting up the symmetry group for a 
 simple cubic supercell.


 Subroutine GETGRP returns: Found  1 space group operations
 (whereof  1 operations were pure point group operations)
 out of a pool of 48 trial point group operations.


The dynamic configuration has the point symmetry C_1 .


Analysis of constrained symmetry for selective dynamics:
=====================================================================
 Subroutine PRICEL returns:
 Original cell was already a primitive cell.
 

 Routine SETGRP: Setting up the symmetry group for a 
 simple cubic supercell.


 Subroutine GETGRP returns: Found  1 space group operations
 (whereof  1 operations were pure point group operations)
 out of a pool of 48 trial point group operations.


The constrained configuration has the point symmetry C_1 .


 Subroutine INISYM returns: Found  1 space group operations
 (whereof  1 operations are pure point group operations),
 and found     1 'primitive' translations

 
 
 KPOINTS: K-points                                

Automatic generation of k-mesh.
Space group operators:
 irot       det(A)        alpha          n_x          n_y          n_z        tau_x        tau_y        tau_z
    1     1.000000     0.000000     1.000000     0.000000     0.000000     0.000000     0.000000     0.000000
 
 Subroutine IBZKPT returns following result:
 ===========================================
 
 Found      1 irreducible k-points:
 
 Following reciprocal coordinates:
            Coordinates               Weight
  0.000000  0.000000  0.000000      1.000000
 
 Following cartesian coordinates:
            Coordinates               Weight
  0.000000  0.000000  0.000000      1.000000
 


--------------------------------------------------------------------------------------------------------




 Dimension of arrays:
   k-points           NKPTS =      1   k-points in BZ     NKDIM =      1   number of bands    NBANDS=    336
   number of dos      NEDOS =    301   number of ions     NIONS =     57
   non local maximal  LDIM  =      6   non local SUM 2l+1 LMDIM =     18
   total plane-waves  NPLWV = ******
   max r-space proj   IRMAX =   1847   max aug-charges    IRDMAX=   6262
   dimension x,y,z NGX =   150 NGY =  150 NGZ =  150
   dimension x,y,z NGXF=   300 NGYF=  300 NGZF=  300
   support grid    NGXF=   300 NGYF=  300 NGZF=  300
   ions per type =              55   1   1
   NGX,Y,Z   is equivalent  to a cutoff of   8.31,  8.31,  8.31 a.u.
   NGXF,Y,Z  is equivalent  to a cutoff of  16.62, 16.62, 16.62 a.u.

 SYSTEM =  6_Pd100_top_free_z(O)                   
 POSCAR =  Pd55PES                                 

 Startparameter for this run:
   NWRITE =      2    write-flag & timer
   PREC   = normal    normal or accurate (medium, high low for compatibility)
   ISTART =      0    job   : 0-new  1-cont  2-samecut
   ICHARG =      2    charge: 1-file 2-atom 10-const
   ISPIN  =      1    spin polarized calculation?
   LNONCOLLINEAR =      F non collinear calculations
   LSORBIT =      F    spin-orbit coupling
   INIWAV =      1    electr: 0-lowe 1-rand  2-diag
   LASPH  =      F    aspherical Exc in radial PAW
   METAGGA=      F    non-selfconsistent MetaGGA calc.

 Electronic Relaxation 1
   ENCUT  =  400.0 eV  29.40 Ry    5.42 a.u.  48.92 48.92 48.92*2*pi/ulx,y,z
   ENINI  =  400.0     initial cutoff
   ENAUG  =  644.9 eV  augmentation charge cutoff
   NELM   =    100;   NELMIN=  6; NELMDL= -5     # of ELM steps 
   EDIFF  = 0.1E-03   stopping-criterion for ELM
   LREAL  =      T    real-space projection
   NLSPLINE    = F    spline interpolate recip. space projectors
   LCOMPAT=      F    compatible to vasp.4.4
   GGA_COMPAT  = T    GGA compatible to vasp.4.4-vasp.4.6
   LMAXPAW     = -100 max onsite density
   LMAXMIX     =    2 max onsite mixed and CHGCAR
   VOSKOWN=      0    Vosko Wilk Nusair interpolation
   ROPT   =   -0.00050  -0.00050  -0.00050
 Ionic relaxation
   EDIFFG = -.5E-01   stopping-criterion for IOM
   NSW    =      0    number of steps for IOM
   NBLOCK =      1;   KBLOCK =      1    inner block; outer block 
   IBRION =     -1    ionic relax: 0-MD 1-quasi-New 2-CG
   NFREE  =      1    steps in history (QN), initial steepest desc. (CG)
   ISIF   =      2    stress and relaxation
   IWAVPR =     10    prediction:  0-non 1-charg 2-wave 3-comb
   ISYM   =      2    0-nonsym 1-usesym 2-fastsym
   LCORR  =      T    Harris-Foulkes like correction to forces

   POTIM  = 0.5000    time-step for ionic-motion
   TEIN   =    0.0    initial temperature
   TEBEG  =    0.0;   TEEND  =   0.0 temperature during run
   SMASS  =  -3.00    Nose mass-parameter (am)
   estimated Nose-frequenzy (Omega)   =  0.10E-29 period in steps =****** mass=  -0.206E-25a.u.
   SCALEE = 1.0000    scale energy and forces
   NPACO  =    256;   APACO  = 16.0  distance and # of slots for P.C.
   PSTRESS=    0.0 pullay stress

  Mass of Ions in am
   POMASS = 106.42 12.01 16.00
  Ionic Valenz
   ZVAL   =  10.00  4.00  6.00
  Atomic Wigner-Seitz radii
   RWIGS  =  -1.00 -1.00 -1.00
  virtual crystal weights 
   VCA    =   1.00  1.00  1.00
   NELECT =     560.0000    total number of electrons
   NUPDOWN=      -1.0000    fix difference up-down

 DOS related values:
   EMIN   =  10.00;   EMAX   =-10.00  energy-range for DOS
   EFERMI =   0.00
   ISMEAR =     2;   SIGMA  =   0.20  broadening in eV -4-tet -1-fermi 0-gaus

 Electronic relaxation 2 (details)
   IALGO  =     68    algorithm
   LDIAG  =      T    sub-space diagonalisation (order eigenvalues)
   LSUBROT=      F    optimize rotation matrix (better conditioning)
   TURBO    =      0    0=normal 1=particle mesh
   IRESTART =      0    0=no restart 2=restart with 2 vectors
   NREBOOT  =      0    no. of reboots
   NMIN     =      0    reboot dimension
   EREF     =   0.00    reference energy to select bands
   IMIX   =      4    mixing-type and parameters
     AMIX     =   0.40;   BMIX     =  1.00
     AMIX_MAG =   1.60;   BMIX_MAG =  1.00
     AMIN     =   0.10
     WC   =   100.;   INIMIX=   1;  MIXPRE=   1;  MAXMIX= -45

 Intra band minimization:
   WEIMIN = 0.0000     energy-eigenvalue tresh-hold
   EBREAK =  0.74E-07  absolut break condition
   DEPER  =   0.30     relativ break condition  

   TIME   =   0.40     timestep for ELM

  volume/ion in A,a.u.               =     473.68      3196.58
  Fermi-wavevector in a.u.,A,eV,Ry     =   0.449797  0.849992  2.752691  0.202317
  Thomas-Fermi vector in A             =   1.430086
 
 Write flags
   LWAVE        =      F    write WAVECAR
   LDOWNSAMPLE  =      F    k-point downsampling of WAVECAR
   LCHARG       =      F    write CHGCAR
   LVTOT        =      F    write LOCPOT, total local potential
   LVHAR        =      F    write LOCPOT, Hartree potential only
   LELF         =      F    write electronic localiz. function (ELF)
   LORBIT       =      0    0 simple, 1 ext, 2 COOP (PROOUT), +10 PAW based schemes


 Dipole corrections
   LMONO  =      F    monopole corrections only (constant potential shift)
   LDIPOL =      F    correct potential (dipole corrections)
   IDIPOL =      0    1-x, 2-y, 3-z, 4-all directions 
   EPSILON=  1.0000000 bulk dielectric constant

 Exchange correlation treatment:
   GGA     =    RP    GGA type
   LEXCH   =     9    internal setting for exchange type
   VOSKOWN=      0    Vosko Wilk Nusair interpolation
   LHFCALC =     F    Hartree Fock is set to
   LHFONE  =     F    Hartree Fock one center treatment
   AEXX    =    0.0000 exact exchange contribution

 Linear response parameters
   LEPSILON=     F    determine dielectric tensor
   LRPA    =     F    only Hartree local field effects (RPA)
   LNABLA  =     F    use nabla operator in PAW spheres
   LVEL    =     F    velocity operator in full k-point grid
   LINTERFAST=   F  fast interpolation
   KINTER  =     0    interpolate to denser k-point grid
   CSHIFT  =0.1000    complex shift for real part using Kramers Kronig
   OMEGAMAX=  -1.0    maximum frequency
   DEG_THRESHOLD= 0.2000000E-02 threshold for treating states as degnerate
   RTIME   =   -0.100 relaxation time in fs
  (WPLASMAI=    0.000 imaginary part of plasma frequency in eV, 0.658/RTIME)
   DFIELD  = 0.0000000 0.0000000 0.0000000 field for delta impulse in time
 
 Orbital magnetization related:
   ORBITALMAG=     F  switch on orbital magnetization
   LCHIMAG   =     F  perturbation theory with respect to B field
   DQ        =  0.001000  dq finite difference perturbation B field
   LLRAUG    =     F  two centre corrections for induced B field



--------------------------------------------------------------------------------------------------------


 Static calculation
 charge density and potential will be updated during run
 non-spin polarized calculation
 RMM-DIIS sequential band-by-band and
  variant of blocked Davidson during initial phase
 perform sub-space diagonalisation
    before iterative eigenvector-optimisation
 modified Broyden-mixing scheme, WC =      100.0
 initial mixing is a Kerker type mixing with AMIX =  0.4000 and BMIX =      1.0000
 Hartree-type preconditioning will be used
 using additional bands           56
 real space projection scheme for non local part
 use partial core corrections
 calculate Harris-corrections to forces 
   (improved forces if not selfconsistent)
 use gradient corrections 
 use of overlap-Matrix (Vanderbilt PP)
 Methfessel and Paxton  Order N= 2 SIGMA  =   0.20


--------------------------------------------------------------------------------------------------------


  energy-cutoff  :      400.00
  volume of cell :    27000.00
      direct lattice vectors                 reciprocal lattice vectors
    30.000000000  0.000000000  0.000000000     0.033333333  0.000000000  0.000000000
     0.000000000 30.000000000  0.000000000     0.000000000  0.033333333  0.000000000
     0.000000000  0.000000000 30.000000000     0.000000000  0.000000000  0.033333333

  length of vectors
    30.000000000 30.000000000 30.000000000     0.033333333  0.033333333  0.033333333


 
 k-points in units of 2pi/SCALE and weight: K-points                                
   0.00000000  0.00000000  0.00000000       1.000
 
 k-points in reciprocal lattice and weights: K-points                                
   0.00000000  0.00000000  0.00000000       1.000
 
 position of ions in fractional coordinates (direct lattice) 
   0.44576020  0.32826710  0.41691983
   0.67173288  0.55423978  0.41691983
   0.55423980  0.32826710  0.41691983
   0.32826712  0.55423978  0.41691983
   0.50000000  0.38250690  0.34021317
   0.50000000  0.38250690  0.65978680
   0.50000000  0.27609440  0.50000000
   0.27609443  0.49999998  0.50000000
   0.72390557  0.49999998  0.50000000
   0.50000000  0.72390555  0.50000000
   0.61195280  0.38804720  0.34167483
   0.61195280  0.38804720  0.65832513
   0.38804722  0.61195278  0.34167483
   0.38804722  0.61195278  0.65832513
   0.38804720  0.38804720  0.34167483
   0.38804720  0.38804720  0.65832513
   0.61195278  0.61195278  0.34167483
   0.61195278  0.61195278  0.65832513
   0.44576020  0.32826710  0.58308023
   0.67173288  0.55423978  0.58308023
   0.55791699  0.44208301  0.41809300
   0.32826705  0.44576024  0.41691983
   0.55423973  0.67173293  0.41691983
   0.55423980  0.32826710  0.58308023
   0.32826712  0.55423978  0.58308023
   0.67173295  0.44576024  0.41691983
   0.44576027  0.67173293  0.41691983
   0.44208301  0.44208301  0.41809300
   0.50000000  0.38416601  0.50000000
   0.61749315  0.50000005  0.34021317
   0.61749315  0.50000005  0.65978680
   0.38250685  0.50000005  0.34021317
   0.38250685  0.50000005  0.65978680
   0.38317830  0.38317830  0.50000000
   0.61682172  0.61682172  0.50000000
   0.61682170  0.38317830  0.50000000
   0.38317828  0.61682172  0.50000000
   0.50000000  0.50000000  0.33478917
   0.50000000  0.50000000  0.66521087
   0.32826705  0.44576024  0.58308023
   0.55423973  0.67173293  0.58308023
   0.55791699  0.44208301  0.58190703
   0.44208298  0.55791702  0.41809300
   0.44208301  0.44208301  0.58190703
   0.67173295  0.44576024  0.58308023
   0.44576027  0.67173293  0.58308023
   0.55791702  0.55791702  0.41809300
   0.38416599  0.50000002  0.50000000
   0.61583401  0.50000002  0.50000000
   0.50000000  0.61749319  0.34021317
   0.50000000  0.61749319  0.65978680
   0.50000000  0.50000000  0.50000000
   0.44208298  0.55791702  0.58190703
   0.55791702  0.55791702  0.58190703
   0.50000000  0.61583404  0.50000000
   0.48011540  0.54908423  0.65425627
   0.47553117  0.56040023  0.68981880
 
 position of ions in cartesian coordinates  (Angst):
  13.37280588  9.84801292 12.50759500
  20.15198637 16.62719342 12.50759500
  16.62719412  9.84801292 12.50759500
   9.84801363 16.62719342 12.50759500
  15.00000000 11.47520705 10.20639500
  15.00000000 11.47520705 19.79360400
  15.00000000  8.28283206 15.00000000
   8.28283277 14.99999929 15.00000000
  21.71716723 14.99999929 15.00000000
  15.00000000 21.71716652 14.99999999
  18.35858397 11.64141603 10.25024500
  18.35858397 11.64141603 19.74975399
  11.64141674 18.35858326 10.25024500
  11.64141674 18.35858326 19.74975400
  11.64141603 11.64141603 10.25024500
  11.64141603 11.64141603 19.74975400
  18.35858326 18.35858326 10.25024500
  18.35858326 18.35858326 19.74975400
  13.37280588  9.84801291 17.49240700
  20.15198638 16.62719341 17.49240700
  16.73750985 13.26249015 12.54279000
   9.84801151 13.37280729 12.50759500
  16.62719200 20.15198779 12.50759500
  16.62719412  9.84801292 17.49240700
   9.84801363 16.62719342 17.49240700
  20.15198849 13.37280729 12.50759500
  13.37280800 20.15198779 12.50759500
  13.26249015 13.26249015 12.54279000
  15.00000000 11.52498029 15.00000000
  18.52479437 15.00000140 10.20639500
  18.52479437 15.00000141 19.79360400
  11.47520562 15.00000141 10.20639501
  11.47520563 15.00000141 19.79360400
  11.49534898 11.49534898 15.00000000
  18.50465172 18.50465172 15.00000000
  18.50465102 11.49534898 15.00000000
  11.49534828 18.50465172 15.00000000
  15.00000000 15.00000000 10.04367500
  15.00000000 15.00000000 19.95632599
   9.84801151 13.37280729 17.49240700
  16.62719200 20.15198779 17.49240700
  16.73750985 13.26249015 17.45721100
  13.26248944 16.73751056 12.54279001
  13.26249015 13.26249015 17.45721100
  20.15198849 13.37280729 17.49240699
  13.37280800 20.15198779 17.49240700
  16.73751056 16.73751056 12.54279000
  11.52497959 15.00000071 15.00000000
  18.47502041 15.00000071 15.00000000
  14.99999999 18.52479579 10.20639500
  15.00000000 18.52479578 19.79360400
  15.00000000 15.00000000 15.00000000
  13.26248944 16.73751057 17.45721101
  16.73751056 16.73751057 17.45721100
  15.00000000 18.47502112 15.00000000
  14.40346200 16.47252700 19.62768800
  14.26593500 16.81200700 20.69456400
 


--------------------------------------------------------------------------------------------------------


 k-point  1 :   0.0000 0.0000 0.0000  plane waves:  490521

 maximum and minimum number of plane-waves per node :    490521   490521

 maximum number of plane-waves:    490521
 maximum index in each direction: 
   IXMAX=   48   IYMAX=   48   IZMAX=   48
   IXMIN=  -48   IYMIN=  -48   IZMIN=  -48


 serial   3D FFT for wavefunctions
 parallel 3D FFT for charge:
    minimum data exchange during FFTs selected (reduces bandwidth)


 total amount of memory used by VASP MPI-rank0  5486942. kBytes
=======================================================================

   base      :      30000. kBytes
   nonlr-proj:      17127. kBytes
   fftplans  :     924480. kBytes
   grid      :    1872000. kBytes
   one-center:        886. kBytes
   wavefun   :    2642449. kBytes
 
     INWAV:  cpu time    0.0001: real time    0.0006
 Broyden mixing: mesh for mixing (old mesh)
   NGX = 97   NGY = 97   NGZ = 97
  (NGX  =300   NGY  =300   NGZ  =300)
  gives a total of 912673 points

 initial charge density was supplied:
 charge density of overlapping atoms calculated
 number of electron     560.0000000 magnetization 
 keeping initial charge density in first step


--------------------------------------------------------------------------------------------------------


 Maximum index for non-local projection operator         1763
 Maximum index for augmentation-charges         5898 (set IRDMAX)


--------------------------------------------------------------------------------------------------------


 First call to EWALD:  gamma=   0.059
 Maximum number of real-space cells 3x 3x 3
 Maximum number of reciprocal cells 3x 3x 3

    FEWALD:  cpu time    0.0151: real time    0.0151


--------------------------------------- Iteration      1(   1)  ---------------------------------------


    POTLOK:  cpu time   14.1042: real time   14.1081
    SETDIJ:  cpu time    0.1157: real time    0.1157
     EDDAV:  cpu time  367.8803: real time  367.9406
       DOS:  cpu time    0.0013: real time    0.0013
    --------------------------------------------
      LOOP:  cpu time  382.1015: real time  382.1657

 eigenvalue-minimisations  :   688
 total energy-change (2. order) : 0.4415886E+04  (-0.1005690E+05)
 number of electron     560.0000000 magnetization 
 augmentation part      560.0000000 magnetization 

 Free energy of the ion-electron system (eV)
  ---------------------------------------------------
  alpha Z        PSCENC =        75.25431677
  Ewald energy   TEWEN  =    141069.86806408
  -Hartree energ DENC   =   -184402.97125112
  -exchange      EXHF   =         0.00000000
  -V(xc)+E(xc)   XCENC  =     -1700.24692237
  PAW double counting   =     44873.02882129   -41398.84523641
  entropy T*S    EENTRO =         0.01221112
  eigenvalues    EBANDS =       813.28030548
  atomic energy  EATOM  =     45086.50549395
  Solvation  Ediel_sol  =         0.00000000
  ---------------------------------------------------
  free energy    TOTEN  =      4415.88580279 eV

  energy without entropy =     4415.87359168  energy(sigma->0) =     4415.88275001


--------------------------------------------------------------------------------------------------------




--------------------------------------- Iteration      1(   2)  ---------------------------------------


     EDDAV:  cpu time  600.0490: real time  600.0639
       DOS:  cpu time    0.0012: real time    0.0012
    --------------------------------------------
      LOOP:  cpu time  600.0503: real time  600.0651

 eigenvalue-minimisations  :  1240
 total energy-change (2. order) :-0.2403294E+04  (-0.2163000E+04)
 number of electron     560.0000000 magnetization 
 augmentation part      560.0000000 magnetization 

 Free energy of the ion-electron system (eV)
  ---------------------------------------------------
  alpha Z        PSCENC =        75.25431677
  Ewald energy   TEWEN  =    141069.86806408
  -Hartree energ DENC   =   -184402.97125112
  -exchange      EXHF   =         0.00000000
  -V(xc)+E(xc)   XCENC  =     -1700.24692237
  PAW double counting   =     44873.02882129   -41398.84523641
  entropy T*S    EENTRO =        -0.02655487
  eigenvalues    EBANDS =     -1589.97508420
  atomic energy  EATOM  =     45086.50549395
  Solvation  Ediel_sol  =         0.00000000
  ---------------------------------------------------
  free energy    TOTEN  =      2012.59164713 eV

  energy without entropy =     2012.61820200  energy(sigma->0) =     2012.59828585


--------------------------------------------------------------------------------------------------------




--------------------------------------- Iteration      1(   3)  ---------------------------------------


     EDDAV:  cpu time  491.7636: real time  491.7740
       DOS:  cpu time    0.0011: real time    0.0011
    --------------------------------------------
      LOOP:  cpu time  491.7646: real time  491.7751

 eigenvalue-minimisations  :   984
 total energy-change (2. order) :-0.1774896E+04  (-0.1670932E+04)
 number of electron     560.0000000 magnetization 
 augmentation part      560.0000000 magnetization 

 Free energy of the ion-electron system (eV)
  ---------------------------------------------------
  alpha Z        PSCENC =        75.25431677
  Ewald energy   TEWEN  =    141069.86806408
  -Hartree energ DENC   =   -184402.97125112
  -exchange      EXHF   =         0.00000000
  -V(xc)+E(xc)   XCENC  =     -1700.24692237
  PAW double counting   =     44873.02882129   -41398.84523641
  entropy T*S    EENTRO =        -0.01735577
  eigenvalues    EBANDS =     -3364.87979614
  atomic energy  EATOM  =     45086.50549395
  Solvation  Ediel_sol  =         0.00000000
  ---------------------------------------------------
  free energy    TOTEN  =       237.69613429 eV

  energy without entropy =      237.71349006  energy(sigma->0) =      237.70047323


--------------------------------------------------------------------------------------------------------




--------------------------------------- Iteration      1(   4)  ---------------------------------------


     EDDAV:  cpu time  429.3700: real time  429.4009
       DOS:  cpu time    0.0012: real time    0.0012
    --------------------------------------------
      LOOP:  cpu time  429.3712: real time  429.4021

 eigenvalue-minimisations  :   840
 total energy-change (2. order) :-0.3709093E+03  (-0.3170549E+03)
 number of electron     560.0000000 magnetization 
 augmentation part      560.0000000 magnetization 

 Free energy of the ion-electron system (eV)
  ---------------------------------------------------
  alpha Z        PSCENC =        75.25431677
  Ewald energy   TEWEN  =    141069.86806408
  -Hartree energ DENC   =   -184402.97125112
  -exchange      EXHF   =         0.00000000
  -V(xc)+E(xc)   XCENC  =     -1700.24692237
  PAW double counting   =     44873.02882129   -41398.84523641
  entropy T*S    EENTRO =        -0.02775709
  eigenvalues    EBANDS =     -3735.77870515
  atomic energy  EATOM  =     45086.50549395
  Solvation  Ediel_sol  =         0.00000000
  ---------------------------------------------------
  free energy    TOTEN  =      -133.21317604 eV

  energy without entropy =     -133.18541895  energy(sigma->0) =     -133.20623676


--------------------------------------------------------------------------------------------------------




--------------------------------------- Iteration      1(   5)  ---------------------------------------


     EDDAV:  cpu time  517.2609: real time  517.3104
       DOS:  cpu time    0.0014: real time    0.0014
    CHARGE:  cpu time   25.9633: real time   25.9669
    MIXING:  cpu time    0.4363: real time    0.4363
    --------------------------------------------
      LOOP:  cpu time  543.6618: real time  543.7150

 eigenvalue-minimisations  :  1056
 total energy-change (2. order) :-0.4582150E+02  (-0.3823274E+02)
 number of electron     559.9999908 magnetization 
 augmentation part      245.1191446 magnetization 

 Broyden mixing:
  rms(total) = 0.23224E+01    rms(broyden)= 0.23217E+01
  rms(prec ) = 0.24069E+01
  weight for this iteration     100.00

 Free energy of the ion-electron system (eV)
  ---------------------------------------------------
  alpha Z        PSCENC =        75.25431677
  Ewald energy   TEWEN  =    141069.86806408
  -Hartree energ DENC   =   -184402.97125112
  -exchange      EXHF   =         0.00000000
  -V(xc)+E(xc)   XCENC  =     -1700.24692237
  PAW double counting   =     44873.02882129   -41398.84523641
  entropy T*S    EENTRO =         0.45803820
  eigenvalues    EBANDS =     -3782.08599832
  atomic energy  EATOM  =     45086.50549395
  Solvation  Ediel_sol  =         0.00000000
  ---------------------------------------------------
  free energy    TOTEN  =      -179.03467393 eV

  energy without entropy =     -179.49271212  energy(sigma->0) =     -179.14918347


--------------------------------------------------------------------------------------------------------




--------------------------------------- Iteration      1(   6)  ---------------------------------------


    POTLOK:  cpu time   13.1095: real time   13.1123
    SETDIJ:  cpu time    0.1205: real time    0.1205
    EDDIAG:  cpu time   68.6728: real time   68.6792
  RMM-DIIS:  cpu time  190.6105: real time  190.6368
    ORTHCH:  cpu time   13.7235: real time   13.7249
       DOS:  cpu time    0.0014: real time    0.0014
    CHARGE:  cpu time   25.6518: real time   25.6544
    MIXING:  cpu time    0.4681: real time    0.4681
    --------------------------------------------
      LOOP:  cpu time  312.3581: real time  312.3977

 eigenvalue-minimisations  :   730
 total energy-change (2. order) : 0.1511985E+01  (-0.6635596E+01)
 number of electron     559.9999929 magnetization 
 augmentation part      240.6464556 magnetization 

 Broyden mixing:
  rms(total) = 0.23760E+01    rms(broyden)= 0.23757E+01
  rms(prec ) = 0.26486E+01
  weight for this iteration     100.00

 eigenvalues of (default mixing * dielectric matrix)
  average eigenvalue GAMMA=   0.5103
  0.5103

 Free energy of the ion-electron system (eV)
  ---------------------------------------------------
  alpha Z        PSCENC =        75.25431677
  Ewald energy   TEWEN  =    141069.86806408
  -Hartree energ DENC   =   -184823.93810336
  -exchange      EXHF   =         0.00000000
  -V(xc)+E(xc)   XCENC  =     -1693.67994956
  PAW double counting   =     45777.10406962   -42277.09178393
  entropy T*S    EENTRO =        -0.19544700
  eigenvalues    EBANDS =     -3391.34934992
  atomic energy  EATOM  =     45086.50549395
  Solvation  Ediel_sol  =         0.00000000
  ---------------------------------------------------
  free energy    TOTEN  =      -177.52268935 eV

  energy without entropy =     -177.32724234  energy(sigma->0) =     -177.47382760


--------------------------------------------------------------------------------------------------------




--------------------------------------- Iteration      1(   7)  ---------------------------------------


    POTLOK:  cpu time   13.3305: real time   13.3327
    SETDIJ:  cpu time    0.1202: real time    0.1202
    EDDIAG:  cpu time   67.6065: real time   67.6164
  RMM-DIIS:  cpu time  216.4092: real time  216.4227
    ORTHCH:  cpu time   13.2265: real time   13.2278
       DOS:  cpu time    0.0014: real time    0.0014
    CHARGE:  cpu time   25.3967: real time   25.3994
    MIXING:  cpu time    0.5225: real time    0.5225
    --------------------------------------------
      LOOP:  cpu time  336.6136: real time  336.6432

 eigenvalue-minimisations  :   826
 total energy-change (2. order) :-0.6504314E+01  (-0.2747510E+01)
 number of electron     559.9999872 magnetization 
 augmentation part      239.6484174 magnetization 

 Broyden mixing:
  rms(total) = 0.30235E+01    rms(broyden)= 0.30232E+01
  rms(prec ) = 0.36114E+01
  weight for this iteration     100.00

 eigenvalues of (default mixing * dielectric matrix)
  average eigenvalue GAMMA=   0.4631
  0.7350  0.1912

 Free energy of the ion-electron system (eV)
  ---------------------------------------------------
  alpha Z        PSCENC =        75.25431677
  Ewald energy   TEWEN  =    141069.86806408
  -Hartree energ DENC   =   -184950.17826089
  -exchange      EXHF   =         0.00000000
  -V(xc)+E(xc)   XCENC  =     -1694.02329315
  PAW double counting   =     45931.25826022   -42427.57195961
  entropy T*S    EENTRO =        -0.05267828
  eigenvalues    EBANDS =     -3275.08694642
  atomic energy  EATOM  =     45086.50549395
  Solvation  Ediel_sol  =         0.00000000
  ---------------------------------------------------
  free energy    TOTEN  =      -184.02700333 eV

  energy without entropy =     -183.97432505  energy(sigma->0) =     -184.01383376


--------------------------------------------------------------------------------------------------------




--------------------------------------- Iteration      1(   8)  ---------------------------------------


    POTLOK:  cpu time   13.3292: real time   13.3371
    SETDIJ:  cpu time    0.1256: real time    0.1256
    EDDIAG:  cpu time   68.0795: real time   68.0796
  RMM-DIIS:  cpu time  203.9247: real time  203.9254
    ORTHCH:  cpu time   13.7518: real time   13.7517
       DOS:  cpu time    0.0014: real time    0.0014
    CHARGE:  cpu time   25.7726: real time   25.7724
    MIXING:  cpu time    0.5108: real time    0.5108
    --------------------------------------------
      LOOP:  cpu time  325.4957: real time  325.5040

 eigenvalue-minimisations  :   783
 total energy-change (2. order) :-0.3882031E+01  (-0.1552341E+01)
 number of electron     559.9999876 magnetization 
 augmentation part      239.3512082 magnetization 

 Broyden mixing:
  rms(total) = 0.32346E+01    rms(broyden)= 0.32343E+01
  rms(prec ) = 0.38183E+01
  weight for this iteration     100.00

 eigenvalues of (default mixing * dielectric matrix)
  average eigenvalue GAMMA=   0.4308
  0.9305  0.2150  0.1470

 Free energy of the ion-electron system (eV)
  ---------------------------------------------------
  alpha Z        PSCENC =        75.25431677
  Ewald energy   TEWEN  =    141069.86806408
  -Hartree energ DENC   =   -184965.77701724
  -exchange      EXHF   =         0.00000000
  -V(xc)+E(xc)   XCENC  =     -1694.16665271
  PAW double counting   =     46039.73369499   -42533.88252438
  entropy T*S    EENTRO =        -0.18780155
  eigenvalues    EBANDS =     -3265.25660816
  atomic energy  EATOM  =     45086.50549395
  Solvation  Ediel_sol  =         0.00000000
  ---------------------------------------------------
  free energy    TOTEN  =      -187.90903423 eV

  energy without entropy =     -187.72123269  energy(sigma->0) =     -187.86208385


--------------------------------------------------------------------------------------------------------




--------------------------------------- Iteration      1(   9)  ---------------------------------------


    POTLOK:  cpu time   13.0998: real time   13.1026
    SETDIJ:  cpu time    0.1223: real time    0.1223
    EDDIAG:  cpu time   68.4109: real time   68.4128
  RMM-DIIS:  cpu time  192.5976: real time  192.5991
    ORTHCH:  cpu time   13.3756: real time   13.3756
       DOS:  cpu time    0.0014: real time    0.0014
    CHARGE:  cpu time   25.3827: real time   25.3827
    MIXING:  cpu time    0.5348: real time    0.5348
    --------------------------------------------
      LOOP:  cpu time  313.5251: real time  313.5312

 eigenvalue-minimisations  :   738
 total energy-change (2. order) : 0.2298964E+01  (-0.1144700E+01)
 number of electron     559.9999884 magnetization 
 augmentation part      240.3735914 magnetization 

 Broyden mixing:
  rms(total) = 0.32202E+01    rms(broyden)= 0.32198E+01
  rms(prec ) = 0.37035E+01
  weight for this iteration     100.00

 eigenvalues of (default mixing * dielectric matrix)
  average eigenvalue GAMMA=   0.3999
  1.0874  0.1992  0.1565  0.1565

 Free energy of the ion-electron system (eV)
  ---------------------------------------------------
  alpha Z        PSCENC =        75.25431677
  Ewald energy   TEWEN  =    141069.86806408
  -Hartree energ DENC   =   -184974.18941072
  -exchange      EXHF   =         0.00000000
  -V(xc)+E(xc)   XCENC  =     -1694.34975957
  PAW double counting   =     46129.44807287   -42622.20729901
  entropy T*S    EENTRO =        -0.19738793
  eigenvalues    EBANDS =     -3255.74216065
  atomic energy  EATOM  =     45086.50549395
  Solvation  Ediel_sol  =         0.00000000
  ---------------------------------------------------
  free energy    TOTEN  =      -185.61007021 eV

  energy without entropy =     -185.41268228  energy(sigma->0) =     -185.56072323


--------------------------------------------------------------------------------------------------------




--------------------------------------- Iteration      1(  10)  ---------------------------------------


    POTLOK:  cpu time   12.8344: real time   12.8369
    SETDIJ:  cpu time    0.1206: real time    0.1206
    EDDIAG:  cpu time   67.3496: real time   67.3501
  RMM-DIIS:  cpu time  189.3232: real time  189.3313
    ORTHCH:  cpu time   13.5149: real time   13.5148
       DOS:  cpu time    0.0014: real time    0.0014
    CHARGE:  cpu time   25.1714: real time   25.1713
    MIXING:  cpu time    0.5817: real time    0.5817
    --------------------------------------------
      LOOP:  cpu time  308.8973: real time  308.9082

 eigenvalue-minimisations  :   725
 total energy-change (2. order) : 0.3356393E+01  (-0.8183402E+00)
 number of electron     559.9999904 magnetization 
 augmentation part      241.1830372 magnetization 

 Broyden mixing:
  rms(total) = 0.33351E+01    rms(broyden)= 0.33348E+01
  rms(prec ) = 0.38680E+01
  weight for this iteration     100.00

 eigenvalues of (default mixing * dielectric matrix)
  average eigenvalue GAMMA=   0.3649
  1.1760  0.2328  0.1598  0.1598  0.0959

 Free energy of the ion-electron system (eV)
  ---------------------------------------------------
  alpha Z        PSCENC =        75.25431677
  Ewald energy   TEWEN  =    141069.86806408
  -Hartree energ DENC   =   -185005.08895918
  -exchange      EXHF   =         0.00000000
  -V(xc)+E(xc)   XCENC  =     -1694.34938542
  PAW double counting   =     46205.99732158   -42697.40704609
  entropy T*S    EENTRO =        -0.11101176
  eigenvalues    EBANDS =     -3222.92247102
  atomic energy  EATOM  =     45086.50549395
  Solvation  Ediel_sol  =         0.00000000
  ---------------------------------------------------
  free energy    TOTEN  =      -182.25367708 eV

  energy without entropy =     -182.14266532  energy(sigma->0) =     -182.22592414


--------------------------------------------------------------------------------------------------------




--------------------------------------- Iteration      1(  11)  ---------------------------------------


    POTLOK:  cpu time   13.2316: real time   13.2349
    SETDIJ:  cpu time    0.1201: real time    0.1201
    EDDIAG:  cpu time   68.0946: real time   68.0960
  RMM-DIIS:  cpu time  183.0480: real time  183.0495
    ORTHCH:  cpu time   13.2245: real time   13.2244
       DOS:  cpu time    0.0014: real time    0.0014
    CHARGE:  cpu time   24.6505: real time   24.6521
    MIXING:  cpu time    0.5929: real time    0.5928
    --------------------------------------------
      LOOP:  cpu time  302.9635: real time  302.9712

 eigenvalue-minimisations  :   723
 total energy-change (2. order) : 0.3469672E+01  (-0.4695570E+00)
 number of electron     559.9999900 magnetization 
 augmentation part      241.7819091 magnetization 

 Broyden mixing:
  rms(total) = 0.23713E+01    rms(broyden)= 0.23709E+01
  rms(prec ) = 0.27124E+01
  weight for this iteration     100.00

 eigenvalues of (default mixing * dielectric matrix)
  average eigenvalue GAMMA=   0.3562
  1.3099  0.2209  0.2209  0.1827  0.1014  0.1014

 Free energy of the ion-electron system (eV)
  ---------------------------------------------------
  alpha Z        PSCENC =        75.25431677
  Ewald energy   TEWEN  =    141069.86806408
  -Hartree energ DENC   =   -185023.22307852
  -exchange      EXHF   =         0.00000000
  -V(xc)+E(xc)   XCENC  =     -1694.23879730
  PAW double counting   =     46253.12665991   -42743.45341591
  entropy T*S    EENTRO =        -0.08620806
  eigenvalues    EBANDS =     -3202.53703963
  atomic energy  EATOM  =     45086.50549395
  Solvation  Ediel_sol  =         0.00000000
  ---------------------------------------------------
  free energy    TOTEN  =      -178.78400471 eV

  energy without entropy =     -178.69779664  energy(sigma->0) =     -178.76245269


--------------------------------------------------------------------------------------------------------




--------------------------------------- Iteration      1(  12)  ---------------------------------------


    POTLOK:  cpu time   12.9767: real time   12.9781
    SETDIJ:  cpu time    0.1177: real time    0.1177
    EDDIAG:  cpu time   65.6846: real time   65.6846
  RMM-DIIS:  cpu time  178.1218: real time  178.1259
    ORTHCH:  cpu time   12.9289: real time   12.9288
       DOS:  cpu time    0.0014: real time    0.0014
    CHARGE:  cpu time   24.4635: real time   24.4648
    MIXING:  cpu time    0.6103: real time    0.6103
    --------------------------------------------
      LOOP:  cpu time  294.9051: real time  294.9117

 eigenvalue-minimisations  :   710
 total energy-change (2. order) : 0.1394078E+01  (-0.4650784E+00)
 number of electron     559.9999899 magnetization 
 augmentation part      241.8913597 magnetization 

 Broyden mixing:
  rms(total) = 0.24356E+01    rms(broyden)= 0.24354E+01
  rms(prec ) = 0.29161E+01
  weight for this iteration     100.00

 eigenvalues of (default mixing * dielectric matrix)
  average eigenvalue GAMMA=   0.3382
  1.3803  0.2435  0.2435  0.2059  0.1023  0.1023  0.0897

 Free energy of the ion-electron system (eV)
  ---------------------------------------------------
  alpha Z        PSCENC =        75.25431677
  Ewald energy   TEWEN  =    141069.86806408
  -Hartree energ DENC   =   -185044.92704919
  -exchange      EXHF   =         0.00000000
  -V(xc)+E(xc)   XCENC  =     -1693.89977946
  PAW double counting   =     46319.49186065   -42807.93626312
  entropy T*S    EENTRO =        -0.01598979
  eigenvalues    EBANDS =     -3181.73058081
  atomic energy  EATOM  =     45086.50549395
  Solvation  Ediel_sol  =         0.00000000
  ---------------------------------------------------
  free energy    TOTEN  =      -177.38992691 eV

  energy without entropy =     -177.37393712  energy(sigma->0) =     -177.38592946


--------------------------------------------------------------------------------------------------------




--------------------------------------- Iteration      1(  13)  ---------------------------------------


    POTLOK:  cpu time   12.5059: real time   12.5072
    SETDIJ:  cpu time    0.1185: real time    0.1185
    EDDIAG:  cpu time   65.9645: real time   65.9653
  RMM-DIIS:  cpu time  182.0887: real time  182.0926
    ORTHCH:  cpu time   13.3102: real time   13.3101
       DOS:  cpu time    0.0015: real time    0.0014
    CHARGE:  cpu time   25.6812: real time   25.6838
    MIXING:  cpu time    0.7055: real time    0.7055
    --------------------------------------------
      LOOP:  cpu time  300.3760: real time  300.3844

 eigenvalue-minimisations  :   722
 total energy-change (2. order) : 0.9147793E+00  (-0.2459007E+00)
 number of electron     559.9999875 magnetization 
 augmentation part      241.8659455 magnetization 

 Broyden mixing:
  rms(total) = 0.20455E+01    rms(broyden)= 0.20453E+01
  rms(prec ) = 0.24321E+01
  weight for this iteration     100.00

 eigenvalues of (default mixing * dielectric matrix)
  average eigenvalue GAMMA=   0.3364
  1.4811  0.2859  0.2859  0.2449  0.1134  0.1134  0.0986  0.0684

 Free energy of the ion-electron system (eV)
  ---------------------------------------------------
  alpha Z        PSCENC =        75.25431677
  Ewald energy   TEWEN  =    141069.86806408
  -Hartree energ DENC   =   -185062.82744735
  -exchange      EXHF   =         0.00000000
  -V(xc)+E(xc)   XCENC  =     -1693.61663501
  PAW double counting   =     46359.71464335   -42846.89027758
  entropy T*S    EENTRO =        -0.05850176
  eigenvalues    EBANDS =     -3164.42480404
  atomic energy  EATOM  =     45086.50549395
  Solvation  Ediel_sol  =         0.00000000
  ---------------------------------------------------
  free energy    TOTEN  =      -176.47514758 eV

  energy without entropy =     -176.41664583  energy(sigma->0) =     -176.46052214


--------------------------------------------------------------------------------------------------------




--------------------------------------- Iteration      1(  14)  ---------------------------------------


    POTLOK:  cpu time   13.1208: real time   13.1219
    SETDIJ:  cpu time    0.1243: real time    0.1243
    EDDIAG:  cpu time   67.7942: real time   67.7942
  RMM-DIIS:  cpu time  185.6019: real time  185.6040
    ORTHCH:  cpu time   13.4847: real time   13.4846
       DOS:  cpu time    0.0015: real time    0.0015
    CHARGE:  cpu time   24.9063: real time   24.9061
    MIXING:  cpu time    0.7028: real time    0.7028
    --------------------------------------------
      LOOP:  cpu time  305.7365: real time  305.7395

 eigenvalue-minimisations  :   721
 total energy-change (2. order) :-0.1665592E+00  (-0.2346583E+00)
 number of electron     559.9999909 magnetization 
 augmentation part      241.7727921 magnetization 

 Broyden mixing:
  rms(total) = 0.31629E+01    rms(broyden)= 0.31627E+01
  rms(prec ) = 0.36797E+01
  weight for this iteration     100.00

 eigenvalues of (default mixing * dielectric matrix)
  average eigenvalue GAMMA=   0.3328
  1.6026  0.3489  0.3489  0.2101  0.1275  0.1275  0.0818  0.0818  0.0663

 Free energy of the ion-electron system (eV)
  ---------------------------------------------------
  alpha Z        PSCENC =        75.25431677
  Ewald energy   TEWEN  =    141069.86806408
  -Hartree energ DENC   =   -185093.00820719
  -exchange      EXHF   =         0.00000000
  -V(xc)+E(xc)   XCENC  =     -1693.17172004
  PAW double counting   =     46418.22854181   -42903.46590142
  entropy T*S    EENTRO =         0.15467045
  eigenvalues    EBANDS =     -3137.00696515
  atomic energy  EATOM  =     45086.50549395
  Solvation  Ediel_sol  =         0.00000000
  ---------------------------------------------------
  free energy    TOTEN  =      -176.64170674 eV

  energy without entropy =     -176.79637719  energy(sigma->0) =     -176.68037436


--------------------------------------------------------------------------------------------------------




--------------------------------------- Iteration      1(  15)  ---------------------------------------


    POTLOK:  cpu time   12.8759: real time   12.8792
    SETDIJ:  cpu time    0.1207: real time    0.1207
    EDDIAG:  cpu time   66.2260: real time   66.2260
  RMM-DIIS:  cpu time  176.6619: real time  176.6658
    ORTHCH:  cpu time   13.1443: real time   13.1442
       DOS:  cpu time    0.0015: real time    0.0015
    CHARGE:  cpu time   24.3077: real time   24.3075
    MIXING:  cpu time    0.7494: real time    0.7494
    --------------------------------------------
      LOOP:  cpu time  294.0874: real time  294.0942

 eigenvalue-minimisations  :   699
 total energy-change (2. order) : 0.1670404E+01  (-0.2437671E+00)
 number of electron     559.9999852 magnetization 
 augmentation part      241.5221703 magnetization 

 Broyden mixing:
  rms(total) = 0.23005E+01    rms(broyden)= 0.23002E+01
  rms(prec ) = 0.26197E+01
  weight for this iteration     100.00

 eigenvalues of (default mixing * dielectric matrix)
  average eigenvalue GAMMA=   0.3257
  1.6990  0.3779  0.3779  0.1920  0.1468  0.1468  0.0877  0.0877  0.0705  0.0705

 Free energy of the ion-electron system (eV)
  ---------------------------------------------------
  alpha Z        PSCENC =        75.25431677
  Ewald energy   TEWEN  =    141069.86806408
  -Hartree energ DENC   =   -185131.06541305
  -exchange      EXHF   =         0.00000000
  -V(xc)+E(xc)   XCENC  =     -1692.66711993
  PAW double counting   =     46482.43352988   -42965.50510232
  entropy T*S    EENTRO =         0.11714749
  eigenvalues    EBANDS =     -3099.91221921
  atomic energy  EATOM  =     45086.50549395
  Solvation  Ediel_sol  =         0.00000000
  ---------------------------------------------------
  free energy    TOTEN  =      -174.97130234 eV

  energy without entropy =     -175.08844983  energy(sigma->0) =     -175.00058921


--------------------------------------------------------------------------------------------------------




--------------------------------------- Iteration      1(  16)  ---------------------------------------


    POTLOK:  cpu time   12.8226: real time   12.8248
    SETDIJ:  cpu time    0.1204: real time    0.1204
    EDDIAG:  cpu time   66.5398: real time   66.5427
  RMM-DIIS:  cpu time  180.4112: real time  180.4158
    ORTHCH:  cpu time   13.3289: real time   13.3288
       DOS:  cpu time    0.0014: real time    0.0014
    CHARGE:  cpu time   25.1556: real time   25.1554
    MIXING:  cpu time    0.8259: real time    0.8259
    --------------------------------------------
      LOOP:  cpu time  299.2059: real time  299.2153

 eigenvalue-minimisations  :   703
 total energy-change (2. order) : 0.8066401E+00  (-0.1698785E+00)
 number of electron     559.9999886 magnetization 
 augmentation part      241.4612543 magnetization 

 Broyden mixing:
  rms(total) = 0.17582E+01    rms(broyden)= 0.17579E+01
  rms(prec ) = 0.20037E+01
  weight for this iteration     100.00

 eigenvalues of (default mixing * dielectric matrix)
  average eigenvalue GAMMA=   0.3127
  1.7562  0.3825  0.3825  0.1691  0.1691  0.1373  0.1145  0.1145  0.0713  0.0711
  0.0711

 Free energy of the ion-electron system (eV)
  ---------------------------------------------------
  alpha Z        PSCENC =        75.25431677
  Ewald energy   TEWEN  =    141069.86806408
  -Hartree energ DENC   =   -185148.29031357
  -exchange      EXHF   =         0.00000000
  -V(xc)+E(xc)   XCENC  =     -1692.27547859
  PAW double counting   =     46526.44032717   -43007.92619614
  entropy T*S    EENTRO =         0.04188202
  eigenvalues    EBANDS =     -3083.78275791
  atomic energy  EATOM  =     45086.50549395
  Solvation  Ediel_sol  =         0.00000000
  ---------------------------------------------------
  free energy    TOTEN  =      -174.16466223 eV

  energy without entropy =     -174.20654424  energy(sigma->0) =     -174.17513273


--------------------------------------------------------------------------------------------------------




--------------------------------------- Iteration      1(  17)  ---------------------------------------


    POTLOK:  cpu time   12.9773: real time   12.9781
    SETDIJ:  cpu time    0.1234: real time    0.1234
    EDDIAG:  cpu time   66.9016: real time   66.9018
  RMM-DIIS:  cpu time  181.0965: real time  181.1085
    ORTHCH:  cpu time   13.3385: real time   13.3413
       DOS:  cpu time    0.0015: real time    0.0015
    CHARGE:  cpu time   25.0551: real time   25.0552
    MIXING:  cpu time    0.8297: real time    0.8297
    --------------------------------------------
      LOOP:  cpu time  300.3236: real time  300.3396

 eigenvalue-minimisations  :   717
 total energy-change (2. order) : 0.4643839E+00  (-0.1007244E+00)
 number of electron     559.9999922 magnetization 
 augmentation part      241.3178770 magnetization 

 Broyden mixing:
  rms(total) = 0.12133E+01    rms(broyden)= 0.12130E+01
  rms(prec ) = 0.14402E+01
  weight for this iteration     100.00

 eigenvalues of (default mixing * dielectric matrix)
  average eigenvalue GAMMA=   0.3196
  1.8239  0.5229  0.3235  0.3235  0.1762  0.1359  0.1359  0.0915  0.0915  0.0699
  0.0703  0.0703

 Free energy of the ion-electron system (eV)
  ---------------------------------------------------
  alpha Z        PSCENC =        75.25431677
  Ewald energy   TEWEN  =    141069.86806408
  -Hartree energ DENC   =   -185166.66785386
  -exchange      EXHF   =         0.00000000
  -V(xc)+E(xc)   XCENC  =     -1692.00408649
  PAW double counting   =     46553.82060903   -43034.27326177
  entropy T*S    EENTRO =        -0.00050421
  eigenvalues    EBANDS =     -3066.20305583
  atomic energy  EATOM  =     45086.50549395
  Solvation  Ediel_sol  =         0.00000000
  ---------------------------------------------------
  free energy    TOTEN  =      -173.70027833 eV

  energy without entropy =     -173.69977411  energy(sigma->0) =     -173.70015227


--------------------------------------------------------------------------------------------------------




--------------------------------------- Iteration      1(  18)  ---------------------------------------


    POTLOK:  cpu time   13.0069: real time   13.0106
    SETDIJ:  cpu time    0.1208: real time    0.1208
    EDDIAG:  cpu time   67.1295: real time   67.1303
  RMM-DIIS:  cpu time  185.2844: real time  185.2899
    ORTHCH:  cpu time   13.2333: real time   13.2334
       DOS:  cpu time    0.0015: real time    0.0015
    CHARGE:  cpu time   25.2603: real time   25.2604
    MIXING:  cpu time    0.9403: real time    0.9404
    --------------------------------------------
      LOOP:  cpu time  304.9770: real time  304.9872

 eigenvalue-minimisations  :   718
 total energy-change (2. order) :-0.4217964E+00  (-0.7267486E-01)
 number of electron     559.9999903 magnetization 
 augmentation part      241.2367678 magnetization 

 Broyden mixing:
  rms(total) = 0.15946E+01    rms(broyden)= 0.15943E+01
  rms(prec ) = 0.19388E+01
  weight for this iteration     100.00

 eigenvalues of (default mixing * dielectric matrix)
  average eigenvalue GAMMA=   0.3207
  1.8651  0.6208  0.3835  0.3835  0.1453  0.1453  0.1587  0.0948  0.0948  0.0776
  0.0776  0.0611  0.0611

 Free energy of the ion-electron system (eV)
  ---------------------------------------------------
  alpha Z        PSCENC =        75.25431677
  Ewald energy   TEWEN  =    141069.86806408
  -Hartree energ DENC   =   -185179.49228196
  -exchange      EXHF   =         0.00000000
  -V(xc)+E(xc)   XCENC  =     -1691.77257536
  PAW double counting   =     46576.84137237   -43056.26846759
  entropy T*S    EENTRO =         0.11322562
  eigenvalues    EBANDS =     -3055.17122261
  atomic energy  EATOM  =     45086.50549395
  Solvation  Ediel_sol  =         0.00000000
  ---------------------------------------------------
  free energy    TOTEN  =      -174.12207471 eV

  energy without entropy =     -174.23530033  energy(sigma->0) =     -174.15038112


--------------------------------------------------------------------------------------------------------




--------------------------------------- Iteration      1(  19)  ---------------------------------------


    POTLOK:  cpu time   12.9499: real time   12.9510
    SETDIJ:  cpu time    0.1262: real time    0.1262
    EDDIAG:  cpu time   67.3460: real time   67.3469
  RMM-DIIS:  cpu time  182.0889: real time  182.0923
    ORTHCH:  cpu time   13.2792: real time   13.2792
       DOS:  cpu time    0.0015: real time    0.0015
    CHARGE:  cpu time   24.9326: real time   24.9325
    MIXING:  cpu time    0.9965: real time    0.9965
    --------------------------------------------
      LOOP:  cpu time  301.7208: real time  301.7260

 eigenvalue-minimisations  :   712
 total energy-change (2. order) : 0.2804627E+00  (-0.4775250E-01)
 number of electron     559.9999885 magnetization 
 augmentation part      241.3825624 magnetization 

 Broyden mixing:
  rms(total) = 0.15523E+01    rms(broyden)= 0.15521E+01
  rms(prec ) = 0.18004E+01
  weight for this iteration     100.00

 eigenvalues of (default mixing * dielectric matrix)
  average eigenvalue GAMMA=   0.3186
  1.9071  0.7205  0.4204  0.4204  0.1514  0.1514  0.1194  0.1045  0.1045  0.0880
  0.0880  0.0662  0.0662  0.0523

 Free energy of the ion-electron system (eV)
  ---------------------------------------------------
  alpha Z        PSCENC =        75.25431677
  Ewald energy   TEWEN  =    141069.86806408
  -Hartree energ DENC   =   -185187.82161322
  -exchange      EXHF   =         0.00000000
  -V(xc)+E(xc)   XCENC  =     -1691.64155077
  PAW double counting   =     46587.35518677   -43066.17563911
  entropy T*S    EENTRO =         0.07346138
  eigenvalues    EBANDS =     -3047.25933183
  atomic energy  EATOM  =     45086.50549395
  Solvation  Ediel_sol  =         0.00000000
  ---------------------------------------------------
  free energy    TOTEN  =      -173.84161198 eV

  energy without entropy =     -173.91507336  energy(sigma->0) =     -173.85997732


--------------------------------------------------------------------------------------------------------




--------------------------------------- Iteration      1(  20)  ---------------------------------------


    POTLOK:  cpu time   12.9080: real time   12.9104
    SETDIJ:  cpu time    0.1171: real time    0.1171
    EDDIAG:  cpu time   66.4660: real time   66.4700
  RMM-DIIS:  cpu time  175.6661: real time  175.6695
    ORTHCH:  cpu time   13.2829: real time   13.2829
       DOS:  cpu time    0.0015: real time    0.0015
    CHARGE:  cpu time   24.9960: real time   24.9962
    MIXING:  cpu time    1.0158: real time    1.0158
    --------------------------------------------
      LOOP:  cpu time  294.4532: real time  294.4633

 eigenvalue-minimisations  :   697
 total energy-change (2. order) : 0.5994521E+00  (-0.4723827E-01)
 number of electron     559.9999895 magnetization 
 augmentation part      241.3720013 magnetization 

 Broyden mixing:
  rms(total) = 0.96214E+00    rms(broyden)= 0.96192E+00
  rms(prec ) = 0.11013E+01
  weight for this iteration     100.00

 eigenvalues of (default mixing * dielectric matrix)
  average eigenvalue GAMMA=   0.3122
  1.9336  0.7525  0.4367  0.4367  0.1597  0.1597  0.1300  0.1300  0.1032  0.0876
  0.0876  0.0703  0.0703  0.0719  0.0529

 Free energy of the ion-electron system (eV)
  ---------------------------------------------------
  alpha Z        PSCENC =        75.25431677
  Ewald energy   TEWEN  =    141069.86806408
  -Hartree energ DENC   =   -185204.16407376
  -exchange      EXHF   =         0.00000000
  -V(xc)+E(xc)   XCENC  =     -1691.46952613
  PAW double counting   =     46601.77432303   -43079.73027717
  entropy T*S    EENTRO =        -0.01274355
  eigenvalues    EBANDS =     -3031.26773708
  atomic energy  EATOM  =     45086.50549395
  Solvation  Ediel_sol  =         0.00000000
  ---------------------------------------------------
  free energy    TOTEN  =      -173.24215985 eV

  energy without entropy =     -173.22941630  energy(sigma->0) =     -173.23897396


--------------------------------------------------------------------------------------------------------




--------------------------------------- Iteration      1(  21)  ---------------------------------------


    POTLOK:  cpu time   13.1026: real time   13.1056
    SETDIJ:  cpu time    0.1214: real time    0.1214
    EDDIAG:  cpu time   67.5108: real time   67.5117
  RMM-DIIS:  cpu time  177.7820: real time  177.7820
    ORTHCH:  cpu time   13.2741: real time   13.2740
       DOS:  cpu time    0.0015: real time    0.0015
    CHARGE:  cpu time   24.7697: real time   24.7695
    MIXING:  cpu time    1.1107: real time    1.1107
    --------------------------------------------
      LOOP:  cpu time  297.6727: real time  297.6763

 eigenvalue-minimisations  :   694
 total energy-change (2. order) : 0.3170438E+00  (-0.2441367E-01)
 number of electron     559.9999912 magnetization 
 augmentation part      241.4118732 magnetization 

 Broyden mixing:
  rms(total) = 0.75860E+00    rms(broyden)= 0.75839E+00
  rms(prec ) = 0.85636E+00
  weight for this iteration     100.00

 eigenvalues of (default mixing * dielectric matrix)
  average eigenvalue GAMMA=   0.3097
  1.9615  0.7414  0.4589  0.4589  0.2055  0.2055  0.1426  0.1426  0.0987  0.0987
  0.0852  0.0852  0.0819  0.0690  0.0690  0.0507

 Free energy of the ion-electron system (eV)
  ---------------------------------------------------
  alpha Z        PSCENC =        75.25431677
  Ewald energy   TEWEN  =    141069.86806408
  -Hartree energ DENC   =   -185213.17971351
  -exchange      EXHF   =         0.00000000
  -V(xc)+E(xc)   XCENC  =     -1691.33632128
  PAW double counting   =     46608.82994990   -43086.20732356
  entropy T*S    EENTRO =        -0.03777196
  eigenvalues    EBANDS =     -3022.62181046
  atomic energy  EATOM  =     45086.50549395
  Solvation  Ediel_sol  =         0.00000000
  ---------------------------------------------------
  free energy    TOTEN  =      -172.92511605 eV

  energy without entropy =     -172.88734409  energy(sigma->0) =     -172.91567306


--------------------------------------------------------------------------------------------------------




--------------------------------------- Iteration      1(  22)  ---------------------------------------


    POTLOK:  cpu time   12.9325: real time   12.9334
    SETDIJ:  cpu time    0.1216: real time    0.1216
    EDDIAG:  cpu time   67.2896: real time   67.2904
  RMM-DIIS:  cpu time  179.2651: real time  179.2676
    ORTHCH:  cpu time   13.2994: real time   13.2993
       DOS:  cpu time    0.0015: real time    0.0015
    CHARGE:  cpu time   24.9402: real time   24.9400
    MIXING:  cpu time    1.1653: real time    1.1653
    --------------------------------------------
      LOOP:  cpu time  299.0152: real time  299.0191

 eigenvalue-minimisations  :   691
 total energy-change (2. order) : 0.1562714E+00  (-0.2038006E-01)
 number of electron     559.9999912 magnetization 
 augmentation part      241.2925197 magnetization 

 Broyden mixing:
  rms(total) = 0.62576E+00    rms(broyden)= 0.62562E+00
  rms(prec ) = 0.71503E+00
  weight for this iteration     100.00

 eigenvalues of (default mixing * dielectric matrix)
  average eigenvalue GAMMA=   0.3226
  2.0305  0.7128  0.7128  0.3922  0.3922  0.1825  0.1465  0.1465  0.1376  0.0904
  0.0904  0.0919  0.0919  0.0760  0.0701  0.0701  0.0506

 Free energy of the ion-electron system (eV)
  ---------------------------------------------------
  alpha Z        PSCENC =        75.25431677
  Ewald energy   TEWEN  =    141069.86806408
  -Hartree energ DENC   =   -185228.27465528
  -exchange      EXHF   =         0.00000000
  -V(xc)+E(xc)   XCENC  =     -1691.15259384
  PAW double counting   =     46616.23539992   -43092.85647784
  entropy T*S    EENTRO =        -0.05486489
  eigenvalues    EBANDS =     -3008.29352753
  atomic energy  EATOM  =     45086.50549395
  Solvation  Ediel_sol  =         0.00000000
  ---------------------------------------------------
  free energy    TOTEN  =      -172.76884466 eV

  energy without entropy =     -172.71397978  energy(sigma->0) =     -172.75512844


--------------------------------------------------------------------------------------------------------




--------------------------------------- Iteration      1(  23)  ---------------------------------------


    POTLOK:  cpu time   13.0120: real time   13.0126
    SETDIJ:  cpu time    0.1214: real time    0.1214
    EDDIAG:  cpu time   67.4584: real time   67.4603
  RMM-DIIS:  cpu time  180.4199: real time  180.4231
    ORTHCH:  cpu time   13.0239: real time   13.0239
       DOS:  cpu time    0.0015: real time    0.0015
    CHARGE:  cpu time   25.1728: real time   25.1729
    MIXING:  cpu time    1.3026: real time    1.3026
    --------------------------------------------
      LOOP:  cpu time  300.5124: real time  300.5183

 eigenvalue-minimisations  :   692
 total energy-change (2. order) : 0.8912971E-01  (-0.2051736E-01)
 number of electron     559.9999903 magnetization 
 augmentation part      241.2548022 magnetization 

 Broyden mixing:
  rms(total) = 0.67746E+00    rms(broyden)= 0.67732E+00
  rms(prec ) = 0.78556E+00
  weight for this iteration     100.00

 eigenvalues of (default mixing * dielectric matrix)
  average eigenvalue GAMMA=   0.3279
[...]
 -0.007  -0.012   0.004   0.004   0.006  -0.006  -0.011   0.003
 -0.011  -0.020   0.006   0.007   0.009  -0.011  -0.019   0.006
 -0.015  -0.005   0.013   0.000   0.022  -0.014  -0.005   0.012
  0.000  -0.023  -0.006  -0.015  -0.000   0.000  -0.022  -0.006
 -0.022   0.000   0.009  -0.005  -0.016  -0.022   0.000   0.008
 -0.017  -0.006   0.015   0.000   0.027  -0.017  -0.006   0.015
  0.000  -0.027  -0.007  -0.018   0.000   0.000  -0.027  -0.007
 -0.027   0.000   0.010  -0.006  -0.019  -0.026   0.000   0.010
 total augmentation occupancy for first ion, spin component:           1
  1.531  -0.029   0.005   0.017   0.024   0.078  -0.008  -0.002   0.035  -0.010   0.092  -0.032   0.012   0.001   0.003  -0.019
 -0.029   1.399   0.028   0.072   0.000  -0.007   0.072   0.011  -0.015  -0.008   0.214  -0.064   0.019   0.001   0.002  -0.006
  0.005   0.028   1.541   0.002   0.002  -0.002   0.013   0.074  -0.012   0.017  -0.052   0.017  -0.003  -0.007  -0.005   0.016
  0.017   0.072   0.002   1.336   0.044   0.033  -0.014  -0.012   0.092  -0.022  -0.079   0.020  -0.001  -0.009  -0.004   0.001
  0.024   0.000   0.002   0.044   1.440  -0.010  -0.008   0.016  -0.022   0.068  -0.095   0.031  -0.002  -0.009  -0.010   0.026
  0.078  -0.007  -0.002   0.033  -0.010   0.217   0.019  -0.002  -0.045   0.004  -0.048   0.002   0.017  -0.010   0.034  -0.004
 -0.008   0.072   0.013  -0.014  -0.008   0.019   0.263  -0.023  -0.003   0.006  -0.109   0.007  -0.001   0.051  -0.010  -0.000
 -0.002   0.011   0.074  -0.012   0.016  -0.002  -0.023   0.215   0.014  -0.020   0.028  -0.001  -0.012   0.009  -0.018   0.003
  0.035  -0.015  -0.012   0.092  -0.022  -0.045  -0.003   0.014   0.261   0.007   0.043  -0.004  -0.009   0.036   0.004   0.000
 -0.010  -0.008   0.017  -0.022   0.068   0.004   0.006  -0.020   0.007   0.259   0.046  -0.002  -0.038   0.002   0.049   0.007
  0.092   0.214  -0.052  -0.079  -0.095  -0.048  -0.109   0.028   0.043   0.046   0.947  -0.140   0.084   0.014   0.064  -0.013
 -0.032  -0.064   0.017   0.020   0.031   0.002   0.007  -0.001  -0.004  -0.002  -0.140   0.023  -0.014  -0.003  -0.010   0.003
  0.012   0.019  -0.003  -0.001  -0.002   0.017  -0.001  -0.012  -0.009  -0.038   0.084  -0.014   0.029  -0.008  -0.004  -0.003
  0.001   0.001  -0.007  -0.009  -0.009  -0.010   0.051   0.009   0.036   0.002   0.014  -0.003  -0.008   0.036   0.005   0.000
  0.003   0.002  -0.005  -0.004  -0.010   0.034  -0.010  -0.018   0.004   0.049   0.064  -0.010  -0.004   0.005   0.035  -0.000
 -0.019  -0.006   0.016   0.001   0.026  -0.004  -0.000   0.003   0.000   0.007  -0.013   0.003  -0.003   0.000  -0.000   0.001
  0.001  -0.028  -0.007  -0.018   0.001   0.001  -0.008  -0.001  -0.006  -0.000  -0.003   0.001   0.000  -0.003  -0.000   0.000
 -0.028   0.001   0.012  -0.005  -0.019  -0.006   0.001   0.003  -0.001  -0.007  -0.008   0.001  -0.000  -0.000  -0.003   0.000


------------------------ aborting loop because EDIFF is reached ----------------------------------------


    CHARGE:  cpu time   26.1168: real time   26.1166
    FORLOC:  cpu time    6.9266: real time    6.9265
    FORNL :  cpu time   66.4059: real time   66.4054
    STRESS:  cpu time  205.4229: real time  205.4213
    FORCOR:  cpu time   22.2582: real time   22.2581
    FORHAR:  cpu time    9.7423: real time    9.7423
    MIXING:  cpu time    3.7951: real time    3.7951
    OFIELD:  cpu time    0.0000: real time    0.0000

  FORCE on cell =-STRESS in cart. coord.  units (eV):
  Direction    XX          YY          ZZ          XY          YZ          ZX
  --------------------------------------------------------------------------------------
  Alpha Z    75.25432    75.25432    75.25432
  Ewald   45869.04789 46593.11007 48607.60394  -126.38735   684.88037  -303.89588
  Hartree 60816.23662 61230.75327 63369.11774   -76.20708   653.59668  -281.53695
  E(xc)   -2908.90828 -2907.05043 -2906.93130     0.00640    -0.16812     0.06863
  Local  ************************************   193.55137 -1337.20194   585.19110
  n-local  -877.72807  -865.57949  -885.24850    -3.49200    -5.43173     2.60400
  augment  4109.18641  4096.01213  4103.63837     2.41362     3.78936    -2.21894
  Kinetic  7834.35073  7805.31745  7810.41253     3.91758     2.60544    -3.17655
  Fock        0.00000     0.00000     0.00000     0.00000     0.00000     0.00000
  -------------------------------------------------------------------------------------
  Total    -107.86555   -89.14608  -101.17690    -6.19745     2.07006    -2.96458
  in kB      -6.40073    -5.28992    -6.00383    -0.36776     0.12284    -0.17592
  external pressure =       -5.90 kB  Pullay stress =        0.00 kB


 VOLUME and BASIS-vectors are now :
 -----------------------------------------------------------------------------
  energy-cutoff  :      400.00
  volume of cell :    27000.00
      direct lattice vectors                 reciprocal lattice vectors
    30.000000000  0.000000000  0.000000000     0.033333333  0.000000000  0.000000000
     0.000000000 30.000000000  0.000000000     0.000000000  0.033333333  0.000000000
     0.000000000  0.000000000 30.000000000     0.000000000  0.000000000  0.033333333

  length of vectors
    30.000000000 30.000000000 30.000000000     0.033333333  0.033333333  0.033333333


 FORCES acting on ions
    electron-ion (+dipol)            ewald-force                    non-local-force                 convergence-correction
 -----------------------------------------------------------------------------------------------
   0.395E+03 0.978E+03 0.424E+03   -.392E+03 -.975E+03 -.423E+03   -.149E+01 -.183E+01 -.216E+00   -.587E-02 0.233E-02 0.562E-02
   -.978E+03 -.393E+03 0.426E+03   0.975E+03 0.391E+03 -.426E+03   0.183E+01 0.149E+01 -.200E+00   -.355E-02 0.171E-02 0.811E-04
   -.396E+03 0.977E+03 0.423E+03   0.394E+03 -.974E+03 -.423E+03   0.149E+01 -.183E+01 -.227E+00   0.237E-02 0.223E-02 0.539E-02
   0.978E+03 -.393E+03 0.429E+03   -.975E+03 0.391E+03 -.429E+03   -.182E+01 0.149E+01 -.213E+00   0.355E-02 0.190E-03 -.878E-03
   -.623E+00 0.590E+03 0.971E+03   0.610E+00 -.589E+03 -.967E+03   0.885E-02 -.297E+00 -.236E+01   -.177E-02 0.480E-02 -.825E-03
   -.638E+01 0.635E+03 -.960E+03   0.645E+01 -.634E+03 0.956E+03   -.589E-01 -.503E+00 0.240E+01   0.646E-03 0.217E-02 0.802E-03
   -.912E+00 0.114E+04 0.685E+01   0.911E+00 -.114E+04 -.685E+01   0.140E-02 -.311E+01 0.502E-02   -.174E-02 0.373E-03 0.472E-02
   0.115E+04 0.412E+01 0.127E+02   -.114E+04 -.410E+01 -.127E+02   -.310E+01 -.110E-01 -.296E-01   0.326E-02 0.141E-03 0.159E-02
   -.114E+04 0.281E+01 0.865E+01   0.114E+04 -.281E+01 -.864E+01   0.310E+01 -.128E-03 -.795E-02   -.391E-02 0.141E-02 0.110E-03
   -.239E+01 -.115E+04 0.181E+02   0.235E+01 0.114E+04 -.180E+02   0.272E-01 0.311E+01 -.481E-01   -.767E-03 -.342E-02 -.307E-02
   -.580E+03 0.581E+03 0.818E+03   0.578E+03 -.579E+03 -.814E+03   0.155E+01 -.156E+01 -.221E+01   0.427E-02 0.481E-02 -.726E-03
   -.598E+03 0.603E+03 -.809E+03   0.596E+03 -.601E+03 0.806E+03   0.162E+01 -.162E+01 0.219E+01   -.924E-03 0.262E-02 0.792E-04
   0.580E+03 -.579E+03 0.821E+03   -.578E+03 0.577E+03 -.818E+03   -.156E+01 0.156E+01 -.220E+01   0.227E-02 -.782E-03 0.245E-02
   0.688E+03 -.647E+03 -.788E+03   -.687E+03 0.645E+03 0.785E+03   -.112E+01 0.131E+01 0.225E+01   0.558E-03 -.892E-03 -.106E-02
   0.580E+03 0.582E+03 0.818E+03   -.577E+03 -.579E+03 -.815E+03   -.155E+01 -.156E+01 -.221E+01   -.236E-02 0.388E-02 0.172E-02
   0.597E+03 0.614E+03 -.808E+03   -.595E+03 -.612E+03 0.805E+03   -.158E+01 -.157E+01 0.220E+01   0.118E-02 -.265E-03 0.149E-03
   -.581E+03 -.579E+03 0.820E+03   0.579E+03 0.577E+03 -.817E+03   0.156E+01 0.156E+01 -.220E+01   0.262E-03 -.104E-02 0.283E-02
   -.643E+03 -.605E+03 -.803E+03   0.641E+03 0.603E+03 0.800E+03   0.151E+01 0.152E+01 0.224E+01   0.918E-04 -.385E-02 -.425E-03
   0.397E+03 0.992E+03 -.407E+03   -.395E+03 -.989E+03 0.406E+03   -.148E+01 -.183E+01 0.239E+00   -.230E-02 0.413E-02 0.177E-02
   -.100E+04 -.393E+03 -.402E+03   0.997E+03 0.391E+03 0.401E+03   0.185E+01 0.150E+01 0.233E+00   -.282E-02 -.172E-02 -.626E-03
   -.325E+03 0.327E+03 0.467E+03   0.326E+03 -.328E+03 -.468E+03   -.381E+00 0.376E+00 0.504E+00   0.147E-02 0.844E-02 0.652E-02
   0.977E+03 0.399E+03 0.427E+03   -.974E+03 -.396E+03 -.426E+03   -.183E+01 -.149E+01 -.202E+00   0.386E-02 0.896E-04 0.103E-02
   -.398E+03 -.977E+03 0.430E+03   0.396E+03 0.974E+03 -.430E+03   0.149E+01 0.182E+01 -.208E+00   -.842E-03 -.336E-02 0.589E-03
   -.400E+03 0.990E+03 -.408E+03   0.398E+03 -.987E+03 0.407E+03   0.150E+01 -.180E+01 0.216E+00   0.178E-02 0.513E-02 0.252E-02
   0.101E+04 -.393E+03 -.390E+03   -.101E+04 0.391E+03 0.389E+03   -.182E+01 0.152E+01 0.254E+00   0.268E-02 0.122E-02 0.171E-02
   -.977E+03 0.398E+03 0.424E+03   0.974E+03 -.395E+03 -.424E+03   0.183E+01 -.149E+01 -.223E+00   -.139E-02 0.428E-02 0.340E-02
   0.396E+03 -.978E+03 0.431E+03   -.393E+03 0.975E+03 -.431E+03   -.149E+01 0.182E+01 -.224E+00   0.295E-02 -.860E-03 0.224E-02
   0.323E+03 0.328E+03 0.469E+03   -.323E+03 -.328E+03 -.469E+03   0.376E+00 0.370E+00 0.527E+00   -.155E-02 0.504E-02 0.543E-02
   -.231E+01 0.655E+03 0.177E+02   0.231E+01 -.656E+03 -.177E+02   0.771E-03 0.701E+00 0.134E-01   -.129E-02 0.615E-02 0.485E-02
   -.590E+03 0.165E+01 0.971E+03   0.589E+03 -.164E+01 -.968E+03   0.305E+00 -.946E-02 -.236E+01   0.849E-03 0.617E-02 0.234E-02
   -.648E+03 0.246E+02 -.957E+03   0.647E+03 -.247E+02 0.954E+03   0.312E+00 0.819E-01 0.241E+01   -.133E-02 -.216E-02 -.121E-02
   0.589E+03 0.186E+01 0.973E+03   -.588E+03 -.187E+01 -.969E+03   -.322E+00 0.454E-02 -.234E+01   0.687E-03 0.143E-02 0.103E-02
   0.691E+03 0.616E+02 -.947E+03   -.691E+03 -.619E+02 0.944E+03   0.763E-01 0.205E+00 0.238E+01   0.127E-02 -.897E-03 -.104E-02
   0.767E+03 0.774E+03 0.142E+02   -.765E+03 -.772E+03 -.142E+02   -.114E+01 -.113E+01 -.235E-01   0.524E-04 0.106E-02 0.229E-02
   -.777E+03 -.767E+03 0.212E+02   0.775E+03 0.765E+03 -.212E+02   0.113E+01 0.117E+01 -.440E-01   -.147E-02 -.348E-02 -.281E-02
   -.769E+03 0.771E+03 0.113E+02   0.767E+03 -.769E+03 -.113E+02   0.114E+01 -.113E+01 0.181E-01   0.163E-02 0.458E-02 0.484E-02
   0.776E+03 -.770E+03 0.298E+02   -.774E+03 0.768E+03 -.297E+02   -.120E+01 0.123E+01 -.617E-01   0.382E-02 -.318E-03 0.922E-04
   -.833E+00 0.203E+01 0.108E+04   0.813E+00 -.200E+01 -.108E+04   0.146E-01 -.227E-01 -.161E+01   0.208E-03 0.466E-02 0.296E-02
   -.150E+03 0.369E+03 -.104E+04   0.150E+03 -.370E+03 0.104E+04   0.456E+01 -.106E+02 0.359E+01   0.227E-02 -.133E-02 -.131E-02
   0.996E+03 0.413E+03 -.400E+03   -.993E+03 -.410E+03 0.399E+03   -.181E+01 -.153E+01 0.222E+00   0.399E-02 -.215E-02 0.125E-02
   -.419E+03 -.101E+04 -.385E+03   0.417E+03 0.101E+04 0.385E+03   0.166E+01 0.189E+01 0.110E+00   -.115E-02 -.324E-02 -.246E-02
   -.348E+03 0.359E+03 -.422E+03   0.348E+03 -.360E+03 0.422E+03   -.317E+00 0.312E+00 -.660E+00   0.214E-02 0.153E-02 0.651E-03
   0.324E+03 -.321E+03 0.474E+03   -.324E+03 0.321E+03 -.475E+03   0.361E+00 -.364E+00 0.521E+00   0.315E-02 0.515E-03 0.289E-02
   0.337E+03 0.373E+03 -.410E+03   -.338E+03 -.374E+03 0.411E+03   0.383E+00 0.497E+00 -.457E+00   0.571E-03 -.544E-03 0.230E-04
   -.991E+03 0.405E+03 -.406E+03   0.988E+03 -.403E+03 0.405E+03   0.181E+01 -.152E+01 0.206E+00   -.483E-02 0.450E-03 0.462E-03
   0.408E+03 -.102E+04 -.375E+03   -.406E+03 0.102E+04 0.375E+03   -.154E+01 0.171E+01 0.333E+00   -.270E-03 -.257E-02 -.150E-02
   -.327E+03 -.321E+03 0.472E+03   0.327E+03 0.321E+03 -.472E+03   -.372E+00 -.352E+00 0.533E+00   0.162E-02 0.202E-02 0.242E-02
   0.655E+03 0.100E+02 0.310E+02   -.655E+03 -.991E+01 -.309E+02   0.660E+00 -.759E-01 -.723E-01   0.497E-02 -.990E-03 0.801E-03
   -.655E+03 0.705E+01 0.219E+02   0.656E+03 -.704E+01 -.219E+02   -.695E+00 -.200E-02 -.212E-01   -.200E-02 0.960E-03 0.758E-03
   -.839E+00 -.588E+03 0.974E+03   0.841E+00 0.587E+03 -.970E+03   -.288E-02 0.320E+00 -.233E+01   0.302E-02 0.680E-03 0.398E-02
   -.106E+03 -.872E+03 -.885E+03   0.106E+03 0.871E+03 0.882E+03   0.954E+00 0.274E+01 0.939E+00   -.822E-03 -.270E-02 -.379E-03
   -.570E+01 0.141E+02 0.440E+02   0.571E+01 -.141E+02 -.440E+02   0.610E-02 -.801E-02 -.192E-01   0.184E-02 0.237E-02 0.683E-03
   0.387E+03 -.329E+03 -.297E+03   -.387E+03 0.329E+03 0.299E+03   0.315E+00 -.306E+00 -.830E+00   0.184E-02 -.236E-03 -.150E-02
   -.392E+03 -.324E+03 -.374E+03   0.393E+03 0.325E+03 0.374E+03   -.849E+00 -.418E+00 -.131E+00   -.618E-06 -.343E-02 -.225E-02
   -.547E+01 -.653E+03 0.422E+02   0.547E+01 0.654E+03 -.421E+02   0.167E-01 -.716E+00 -.482E-01   0.554E-03 -.218E-02 -.272E-02
   0.599E+02 -.901E+02 -.155E+03   -.611E+02 0.899E+02 0.128E+03   -.117E+01 0.520E+01 0.133E+02   0.536E-03 -.277E-03 -.633E-03
   0.142E+03 -.214E+03 -.949E+03   -.157E+03 0.232E+03 0.102E+04   0.112E+02 -.135E+02 -.539E+02   0.686E-03 -.402E-03 -.109E-02
 -----------------------------------------------------------------------------------------------
   -.160E+02 0.167E+02 0.401E+02   0.568E-13 0.512E-12 -.193E-11   0.160E+02 -.168E+02 -.401E+02   0.239E-01 0.445E-01 0.566E-01
 
 
 POSITION                                       TOTAL-FORCE (eV/Angst)
 -----------------------------------------------------------------------------------
     13.37281      9.84801     12.50759         0.698919      1.108680      0.291932
     20.15199     16.62719     12.50759        -1.111772     -0.698816      0.288696
     16.62719      9.84801     12.50759        -0.695736      1.105617      0.291304
      9.84801     16.62719     12.50759         1.114061     -0.703119      0.296145
     15.00000     11.47521     10.20639        -0.005605      0.409460      1.279262
     15.00000     11.47521     19.79360         0.015062      0.309553     -1.296086
     15.00000      8.28283     15.00000        -0.001219      1.516087      0.000257
      8.28283     15.00000     15.00000         1.507506      0.004697      0.009795
     21.71717     15.00000     15.00000        -1.512596     -0.000905      0.003297
     15.00000     21.71717     15.00000        -0.016353     -1.513870      0.024979
     18.35858     11.64142     10.25025        -0.749966      0.753358      1.076202
     18.35858     11.64142     19.74975        -0.764236      0.761630     -1.054823
     11.64142     18.35858     10.25025         0.754552     -0.754855      1.071729
     11.64142     18.35858     19.74975         0.481200     -0.574557     -1.083875
     11.64142     11.64142     10.25025         0.748553      0.757566      1.071702
     11.64142     11.64142     19.74975         0.748527      0.743032     -1.065421
     18.35858     18.35858     10.25025        -0.755011     -0.755565      1.071686
     18.35858     18.35858     19.74975        -0.678095     -0.721965     -1.074338
     13.37281      9.84801     17.49241         0.691843      1.109440     -0.303296
     20.15199     16.62719     17.49241        -1.107552     -0.687752     -0.304113
     16.73751     13.26249     12.54279         0.113567     -0.112312     -0.150702
      9.84801     13.37281     12.50759         1.106770      0.690267      0.275907
     16.62719     20.15199     12.50759        -0.698013     -1.110593      0.290554
     16.62719      9.84801     17.49241        -0.701437      1.113718     -0.295266
      9.84801     16.62719     17.49241         1.072726     -0.720704     -0.321204
     20.15199     13.37281     12.50759        -1.108260      0.697232      0.293044
     13.37281     20.15199     12.50759         0.702007     -1.108422      0.294014
     13.26249     13.26249     12.54279        -0.111331     -0.104952     -0.154760
     15.00000     11.52498     15.00000        -0.000983     -0.229604      0.002379
     18.52479     15.00000     10.20639        -0.412009      0.006960      1.277073
     18.52479     15.00000     19.79360        -0.306899     -0.022771     -1.306259
     11.47521     15.00000     10.20640         0.418477     -0.003980      1.275208
     11.47521     15.00000     19.79360         0.201313     -0.096182     -1.324081
     11.49535     11.49535     15.00000         0.831295      0.826730     -0.000159
     18.50465     18.50465     15.00000        -0.826004     -0.837009      0.000448
     18.50465     11.49535     15.00000        -0.827005      0.825162     -0.012342
     11.49535     18.50465     15.00000         0.838708     -0.859719      0.014262
     15.00000     15.00000     10.04368        -0.005246      0.010441      1.179344
     15.00000     15.00000     19.95633         4.624117    -11.613860     -0.567916
      9.84801     13.37281     17.49241         1.099023      0.700630     -0.298634
     16.62719     20.15199     17.49241        -0.707882     -1.071027     -0.270079
     16.73751     13.26249     17.45721         0.112589     -0.136344      0.167676
     13.26249     16.73751     12.54279        -0.110499      0.109411     -0.152995
     13.26249     13.26249     17.45721        -0.125889     -0.193499      0.102258
     20.15199     13.37281     17.49241        -1.111560      0.707457     -0.288967
     13.37281     20.15199     17.49241         0.709369     -1.025699     -0.385073
     16.73751     16.73751     12.54279         0.111766      0.106020     -0.161601
     11.52498     15.00000     15.00000        -0.240637      0.011815      0.011468
     18.47502     15.00000     15.00000         0.223551      0.000822      0.001600
     15.00000     18.52480     10.20639         0.001709     -0.419943      1.278729
     15.00000     18.52480     19.79360         0.811365      1.611713     -2.191336
     15.00000     15.00000     15.00000         0.015167     -0.010770     -0.034856
     13.26249     16.73751     17.45721         0.259049      0.012401      1.016204
     16.73751     16.73751     17.45721         0.269833      0.102213      0.011700
     15.00000     18.47502     15.00000         0.011578      0.247432     -0.010696
     14.40346     16.47253     19.62769        -2.315975      4.933856    -13.134647
     14.26594     16.81201     20.69456        -3.286434      4.795395     12.974669
 -----------------------------------------------------------------------------------
    total drift:                                0.003302     -0.006658      0.002642


--------------------------------------------------------------------------------------------------------



  FREE ENERGIE OF THE ION-ELECTRON SYSTEM (eV)
  ---------------------------------------------------
  free  energy   TOTEN  =      -172.37313202 eV

  energy  without entropy=     -172.32716548  energy(sigma->0) =     -172.36164038
 


--------------------------------------------------------------------------------------------------------


    POTLOK:  cpu time   14.2205: real time   14.2205


--------------------------------------------------------------------------------------------------------


     LOOP+:  cpu time19051.7229: real time19052.4252
    4ORBIT:  cpu time    0.0000: real time    0.0000

 total amount of memory used by VASP MPI-rank0  5486942. kBytes
=======================================================================

   base      :      30000. kBytes
   nonlr-proj:      17127. kBytes
   fftplans  :     924480. kBytes
   grid      :    1872000. kBytes
   one-center:        886. kBytes
   wavefun   :    2642449. kBytes
 
  
  
 General timing and accounting informations for this job:
 ========================================================
  
                  Total CPU time used (sec):    19126.877
                            User time (sec):    18044.610
                          System time (sec):     1082.268
                         Elapsed time (sec):    19127.631
  
                   Maximum memory used (kb):     7179240.
                   Average memory used (kb):           0.
  
                          Minor page faults:    851108036
                          Major page faults:            0
                 Voluntary context switches:          514
