 vasp.5.4.4.18Apr17-6-g9f103f2a35 (build Sep 03 2018 23:53:05) complex          
  
 executed on             LinuxIFC date 2021.11.26  02:05:29
 running on    1 total cores
 distrk:  each k-point on    1 cores,    1 groups
 distr:  one band on NCORES_PER_BAND=   1 cores,    1 groups


--------------------------------------------------------------------------------------------------------


 INCAR:
 POTCAR:    PAW_PBE Pd 04Jan2005                  
 POTCAR:    PAW_PBE C 08Apr2002                   
 POTCAR:    PAW_PBE O 08Apr2002                   
 POTCAR:    PAW_PBE Pd 04Jan2005                  
   VRHFIN =Pd : s1 d9                                                           
   LEXCH  = PE                                                                  
   EATOM  =   809.7530 eV,   59.5152 Ry                                         
                                                                                
   TITEL  = PAW_PBE Pd 04Jan2005                                                
   LULTRA =        F    use ultrasoft PP ?                                      
   IUNSCR =        1    unscreen: 0-lin 1-nonlin 2-no                           
   RPACOR =    2.000    partial core radius                                     
   POMASS =  106.420; ZVAL   =   10.000    mass and valenz                      
   RCORE  =    2.600    outmost cutoff radius                                   
   RWIGS  =    2.710; RWIGS  =    1.434    wigner-seitz radius (au A)           
   ENMAX  =  250.925; ENMIN  =  188.194 eV                                      
   ICORE  =        3    local potential                                         
   LCOR   =        T    correct aug charges                                     
   LPAW   =        T    paw PP                                                  
   EAUG   =  416.230                                                            
   DEXC   =    0.000                                                            
   RMAX   =    2.653    core radius for proj-oper                               
   RAUG   =    1.300    factor for augmentation sphere                          
   RDEP   =    2.734    radius for radial grids                                 
   RDEPT  =    2.103    core radius for aug-charge                              
                                                                                
   Atomic configuration                                                         
   12 entries                                                                   
     n  l   j            E        occ.                                          
     1  0  0.50    -24164.6631   2.0000                                         
     2  0  0.50     -3530.9218   2.0000                                         
     2  1  1.50     -3165.6822   6.0000                                         
     3  0  0.50      -639.4577   2.0000                                         
     3  1  1.50      -519.4532   6.0000                                         
     3  2  2.50      -328.9757  10.0000                                         
     4  0  0.50       -88.7014   2.0000                                         
     4  1  1.50       -54.4540   6.0000                                         
     4  2  2.50        -6.6878   9.0000                                         
     5  0  0.50        -4.3543   1.0000                                         
     5  1  0.50        -1.3606   0.0000                                         
     4  3  2.50        -1.3606   0.0000                                         
   Description                                                                  
     l       E           TYP  RCUT    TYP  RCUT                                 
     2     -6.6878251     23  2.400                                             
     2     -8.0484077     23  2.400                                             
     0     -4.3542939     23  2.400                                             
     0      4.3406793     23  2.400                                             
     1     -4.0817478     23  2.600                                             
     1     15.8380318     23  2.600                                             
     3     -4.0817478     23  2.400                                             
  local pseudopotential read in
  partial core-charges read in
  partial kinetic energy density read in
  atomic valenz-charges read in
  non local Contribution for L=           2  read in
    real space projection operators read in
  non local Contribution for L=           2  read in
    real space projection operators read in
  non local Contribution for L=           0  read in
    real space projection operators read in
  non local Contribution for L=           0  read in
    real space projection operators read in
  non local Contribution for L=           1  read in
    real space projection operators read in
  non local Contribution for L=           1  read in
    real space projection operators read in
    PAW grid and wavefunctions read in
 
   number of l-projection  operators is LMAX  =           6
   number of lm-projection operators is LMMAX =          18
 
 POTCAR:    PAW_PBE C 08Apr2002                   
   VRHFIN =C: s2p2                                                              
   LEXCH  = PE                                                                  
   EATOM  =   147.1560 eV,   10.8157 Ry                                         
                                                                                
   TITEL  = PAW_PBE C 08Apr2002                                                 
   LULTRA =        F    use ultrasoft PP ?                                      
   IUNSCR =        1    unscreen: 0-lin 1-nonlin 2-no                           
   RPACOR =    1.200    partial core radius                                     
   POMASS =   12.011; ZVAL   =    4.000    mass and valenz                      
   RCORE  =    1.500    outmost cutoff radius                                   
   RWIGS  =    1.630; RWIGS  =    0.863    wigner-seitz radius (au A)           
   ENMAX  =  400.000; ENMIN  =  300.000 eV                                      
   ICORE  =        2    local potential                                         
   LCOR   =        T    correct aug charges                                     
   LPAW   =        T    paw PP                                                  
   EAUG   =  644.873                                                            
   DEXC   =    0.000                                                            
   RMAX   =    1.529    core radius for proj-oper                               
   RAUG   =    1.300    factor for augmentation sphere                          
   RDEP   =    1.501    radius for radial grids                                 
   RDEPT  =    1.300    core radius for aug-charge                              
                                                                                
   Atomic configuration                                                         
    4 entries                                                                   
     n  l   j            E        occ.                                          
     1  0  0.50      -273.3789   2.0000                                         
     2  0  0.50       -13.7508   2.0000                                         
     2  1  0.50        -5.2854   2.0000                                         
     3  2  1.50        -5.4423   0.0000                                         
   Description                                                                  
     l       E           TYP  RCUT    TYP  RCUT                                 
     0    -13.7508458     23  1.200                                             
     0     -8.2022199     23  1.200                                             
     1     -5.2854383     23  1.500                                             
     1     34.0145650     23  1.500                                             
     2     -5.4423304      7  1.500                                             
  local pseudopotential read in
  partial core-charges read in
  partial kinetic energy density read in
  atomic valenz-charges read in
  non local Contribution for L=           0  read in
    real space projection operators read in
  non local Contribution for L=           0  read in
    real space projection operators read in
  non local Contribution for L=           1  read in
    real space projection operators read in
  non local Contribution for L=           1  read in
    real space projection operators read in
    PAW grid and wavefunctions read in
 
   number of l-projection  operators is LMAX  =           4
   number of lm-projection operators is LMMAX =           8
 
 POTCAR:    PAW_PBE O 08Apr2002                   
   VRHFIN =O: s2p4                                                              
   LEXCH  = PE                                                                  
   EATOM  =   432.3788 eV,   31.7789 Ry                                         
                                                                                
   TITEL  = PAW_PBE O 08Apr2002                                                 
   LULTRA =        F    use ultrasoft PP ?                                      
   IUNSCR =        1    unscreen: 0-lin 1-nonlin 2-no                           
   RPACOR =    1.200    partial core radius                                     
   POMASS =   16.000; ZVAL   =    6.000    mass and valenz                      
   RCORE  =    1.520    outmost cutoff radius                                   
   RWIGS  =    1.550; RWIGS  =    0.820    wigner-seitz radius (au A)           
   ENMAX  =  400.000; ENMIN  =  300.000 eV                                      
   ICORE  =        2    local potential                                         
   LCOR   =        T    correct aug charges                                     
   LPAW   =        T    paw PP                                                  
   EAUG   =  605.392                                                            
   DEXC   =    0.000                                                            
   RMAX   =    1.553    core radius for proj-oper                               
   RAUG   =    1.300    factor for augmentation sphere                          
   RDEP   =    1.550    radius for radial grids                                 
   RDEPT  =    1.329    core radius for aug-charge                              
                                                                                
   Atomic configuration                                                         
    4 entries                                                                   
     n  l   j            E        occ.                                          
     1  0  0.50      -514.6923   2.0000                                         
     2  0  0.50       -23.9615   2.0000                                         
     2  1  0.50        -9.0305   4.0000                                         
     3  2  1.50        -9.5241   0.0000                                         
   Description                                                                  
     l       E           TYP  RCUT    TYP  RCUT                                 
     0    -23.9615318     23  1.200                                             
     0     -9.5240782     23  1.200                                             
     1     -9.0304911     23  1.520                                             
     1      8.1634956     23  1.520                                             
     2     -9.5240782      7  1.500                                             
  local pseudopotential read in
  partial core-charges read in
  partial kinetic energy density read in
  kinetic energy density of atom read in
  atomic valenz-charges read in
  non local Contribution for L=           0  read in
    real space projection operators read in
  non local Contribution for L=           0  read in
    real space projection operators read in
  non local Contribution for L=           1  read in
    real space projection operators read in
  non local Contribution for L=           1  read in
    real space projection operators read in
    PAW grid and wavefunctions read in
 
   number of l-projection  operators is LMAX  =           4
   number of lm-projection operators is LMMAX =           8
 
 Optimization of the real space projectors (new method)

 maximal supplied QI-value         = 14.36
 optimisation between [QCUT,QGAM] = [ 10.20, 20.39] = [ 29.12,116.47] Ry 
 Optimized for a Real-space Cutoff    1.51 Angstroem

   l    n(q)    QCUT    max X(q) W(low)/X(q) W(high)/X(q)  e(spline) 
   2      8    10.197    59.108    0.26E-03    0.14E-03    0.96E-07
   2      8    10.197    58.101    0.27E-03    0.14E-03    0.98E-07
   0      9    10.197   102.235    0.54E-04    0.60E-05    0.72E-07
   0      9    10.197    58.388    0.52E-04    0.60E-05    0.68E-07
   1      9    10.197    22.191    0.18E-03    0.25E-03    0.79E-07
   1      9    10.197    15.590    0.15E-03    0.21E-03    0.69E-07
 Optimization of the real space projectors (new method)

 maximal supplied QI-value         = 25.13
 optimisation between [QCUT,QGAM] = [ 10.05, 20.36] = [ 28.30,116.06] Ry 
 Optimized for a Real-space Cutoff    1.30 Angstroem

   l    n(q)    QCUT    max X(q) W(low)/X(q) W(high)/X(q)  e(spline) 
   0      8    10.053   115.676    0.49E-03    0.72E-03    0.18E-06
   0      8    10.053    87.132    0.49E-03    0.71E-03    0.18E-06
   1      7    10.053     4.429    0.32E-03    0.31E-03    0.18E-06
   1      7    10.053     2.733    0.23E-03    0.19E-03    0.20E-06
 Optimization of the real space projectors (new method)

 maximal supplied QI-value         = 24.76
 optimisation between [QCUT,QGAM] = [ 10.15, 20.30] = [ 28.85,115.39] Ry 
 Optimized for a Real-space Cutoff    1.38 Angstroem

   l    n(q)    QCUT    max X(q) W(low)/X(q) W(high)/X(q)  e(spline) 
   0      8    10.150    20.381    0.22E-03    0.32E-03    0.29E-06
   0      8    10.150    15.268    0.23E-03    0.35E-03    0.30E-06
   1      8    10.150     5.964    0.46E-03    0.53E-03    0.21E-06
   1      8    10.150     5.382    0.38E-03    0.45E-03    0.19E-06

 ----------------------------------------------------------------------------- 
|                                                                             |
|  ADVICE TO THIS USER RUNNING 'VASP/VAMP'   (HEAR YOUR MASTER'S VOICE ...):  |
|                                                                             |
|      You enforced a specific xc-type in the INCAR file,                     |
|      a different type was found on the POTCAR file                          |
|          I HOPE YOU KNOW, WHAT YOU ARE  DOING                               |
|                                                                             |
 ----------------------------------------------------------------------------- 

  PAW_PBE Pd 04Jan2005                  :
 energy of atom  1       EATOM= -809.7530
 kinetic energy error for atom=    0.0091 (will be added to EATOM!!)
  PAW_PBE C 08Apr2002                   :
 energy of atom  2       EATOM= -147.1560
 kinetic energy error for atom=    0.0288 (will be added to EATOM!!)
  PAW_PBE O 08Apr2002                   :
 energy of atom  3       EATOM= -432.3788
 kinetic energy error for atom=    0.1156 (will be added to EATOM!!)
 
 
 POSCAR: Pd55PES                                 
  positions in cartesian coordinates
  No initial velocities read in
 exchange correlation table for  LEXCH =        9
   RHO(1)=    0.500       N(1)  =     2000
   RHO(2)=  100.500       N(2)  =     4000
 


--------------------------------------------------------------------------------------------------------


 ion  position               nearest neighbor table
   1  0.446  0.328  0.417-   3 3.25   5 3.25   7 3.36  15 3.36  29 3.42  28 3.42
   2  0.672  0.554  0.417-  26 3.25  30 3.25  17 3.36   9 3.36  47 3.42  49 3.42
   3  0.554  0.328  0.417-   1 3.25   5 3.25   7 3.36  11 3.36  29 3.42  21 3.42
   4  0.328  0.554  0.417-  32 3.25  22 3.25  13 3.36   8 3.36  43 3.42  48 3.42
   5  0.500  0.383  0.340-   1 3.25   3 3.25  11 3.36  15 3.36  21 3.42  28 3.42
   6  0.500  0.383  0.660-  24 3.25  19 3.25  16 3.36  12 3.36  42 3.42  44 3.42
   7  0.500  0.276  0.500-  29 3.24   3 3.36   1 3.36  19 3.36  24 3.36
   8  0.276  0.500  0.500-  48 3.24  22 3.36  40 3.36   4 3.36  25 3.36
   9  0.724  0.500  0.500-  49 3.24  26 3.36  45 3.36   2 3.36  20 3.36
  10  0.500  0.724  0.500-  55 3.24  27 3.36  23 3.36  46 3.36  41 3.36
  11  0.612  0.388  0.342-  21 3.24   5 3.36   3 3.36  30 3.36  26 3.36
  12  0.612  0.388  0.658-  42 3.24  24 3.36  45 3.36   6 3.36  31 3.36
  13  0.388  0.612  0.342-  43 3.24  32 3.36  50 3.36   4 3.36  27 3.36
  14  0.388  0.612  0.658-  53 3.24  25 3.36  33 3.36  51 3.36  46 3.36
  15  0.388  0.388  0.342-  28 3.24   5 3.36   1 3.36  32 3.36  22 3.36
  16  0.388  0.388  0.658-  44 3.24  19 3.36  40 3.36   6 3.36  33 3.36
  17  0.612  0.612  0.342-  56 2.26  57 2.67  47 3.24  30 3.36  50 3.36   2 3.36  23 3.36
  18  0.612  0.612  0.658-  54 3.24  31 3.36  20 3.36  51 3.36  41 3.36
  19  0.446  0.328  0.583-   6 3.25  24 3.25  16 3.36   7 3.36  44 3.42  29 3.42
  20  0.672  0.554  0.583-  31 3.25  45 3.25  18 3.36   9 3.36  54 3.42  49 3.42
  21  0.558  0.442  0.418-  11 3.24   5 3.42   3 3.42  30 3.42  26 3.42
  22  0.328  0.446  0.417-   4 3.25  32 3.25   8 3.36  15 3.36  48 3.42  28 3.42
  23  0.554  0.672  0.417-  56 1.70  57 2.48  27 3.25  50 3.25  10 3.36  17 3.36  55 3.42  47 3.42

  24  0.554  0.328  0.583-   6 3.25  19 3.25  12 3.36   7 3.36  42 3.42  29 3.42
  25  0.328  0.554  0.583-  33 3.25  40 3.25  14 3.36   8 3.36  53 3.42  48 3.42
  26  0.672  0.446  0.417-   2 3.25  30 3.25   9 3.36  11 3.36  49 3.42  21 3.42
  27  0.446  0.672  0.417-  23 3.25  50 3.25  10 3.36  13 3.36  55 3.42  43 3.42
  28  0.442  0.442  0.418-  15 3.24   5 3.42   1 3.42  32 3.42  22 3.42
  29  0.500  0.384  0.500-   7 3.24   3 3.42   1 3.42  24 3.42  19 3.42
  30  0.617  0.500  0.340-   2 3.25  26 3.25  17 3.36  11 3.36  47 3.42  21 3.42
  31  0.617  0.500  0.660-  20 3.25  45 3.25  18 3.36  12 3.36  54 3.42  42 3.42
  32  0.383  0.500  0.340-   4 3.25  22 3.25  13 3.36  15 3.36  43 3.42  28 3.42
  33  0.383  0.500  0.660-  25 3.25  40 3.25  14 3.36  16 3.36  53 3.42  44 3.42
  34  0.383  0.383  0.500-
  35  0.617  0.617  0.500-
  36  0.617  0.383  0.500-
  37  0.383  0.617  0.500-
  38  0.500  0.500  0.335-
  39  0.500  0.500  0.665-
  40  0.328  0.446  0.583-  33 3.25  25 3.25  16 3.36   8 3.36  44 3.42  48 3.42
  41  0.554  0.672  0.583-  46 3.25  51 3.25  10 3.36  18 3.36  54 3.42  55 3.42
  42  0.558  0.442  0.582-  12 3.24   6 3.42  24 3.42  31 3.42  45 3.42
  43  0.442  0.558  0.418-  13 3.24   4 3.42  32 3.42  27 3.42  50 3.42
  44  0.442  0.442  0.582-  16 3.24   6 3.42  19 3.42  33 3.42  40 3.42
  45  0.672  0.446  0.583-  20 3.25  31 3.25   9 3.36  12 3.36  49 3.42  42 3.42
  46  0.446  0.672  0.583-  41 3.25  51 3.25  10 3.36  14 3.36  53 3.42  55 3.42
  47  0.558  0.558  0.418-  17 3.24   2 3.42  30 3.42  23 3.42  50 3.42
  48  0.384  0.500  0.500-   8 3.24   4 3.42  22 3.42  25 3.42  40 3.42
  49  0.616  0.500  0.500-   9 3.24   2 3.42  26 3.42  20 3.42  45 3.42
  50  0.500  0.617  0.340-  27 3.25  23 3.25  13 3.36  17 3.36  43 3.42  47 3.42
  51  0.500  0.617  0.660-  41 3.25  46 3.25  14 3.36  18 3.36  53 3.42  54 3.42
  52  0.500  0.500  0.500-
  53  0.442  0.558  0.582-  14 3.24  25 3.42  33 3.42  51 3.42  46 3.42
  54  0.558  0.558  0.582-  18 3.24  31 3.42  20 3.42  51 3.42  41 3.42
  55  0.500  0.616  0.500-  10 3.24  23 3.42  27 3.42  41 3.42  46 3.42
  56  0.606  0.665  0.395-  57 1.13  23 1.70  17 2.26
  57  0.624  0.693  0.378-  56 1.13  23 2.48  17 2.67
 
  LATTYP: Found a simple cubic cell.
 ALAT       =    30.0000000000
  
  Lattice vectors:
  
 A1 = (  30.0000000000,   0.0000000000,   0.0000000000)
 A2 = (   0.0000000000,  30.0000000000,   0.0000000000)
 A3 = (   0.0000000000,   0.0000000000,  30.0000000000)


Analysis of symmetry for initial positions (statically):
=====================================================================
 Subroutine PRICEL returns:
 Original cell was already a primitive cell.
 

 Routine SETGRP: Setting up the symmetry group for a 
 simple cubic supercell.


 Subroutine GETGRP returns: Found  1 space group operations
 (whereof  1 operations were pure point group operations)
 out of a pool of 48 trial point group operations.


The static configuration has the point symmetry C_1 .


Analysis of symmetry for dynamics (positions and initial velocities):
=====================================================================
 Subroutine PRICEL returns:
 Original cell was already a primitive cell.
 

 Routine SETGRP: Setting up the symmetry group for a 
 simple cubic supercell.


 Subroutine GETGRP returns: Found  1 space group operations
 (whereof  1 operations were pure point group operations)
 out of a pool of 48 trial point group operations.


The dynamic configuration has the point symmetry C_1 .


Analysis of constrained symmetry for selective dynamics:
=====================================================================
 Subroutine PRICEL returns:
 Original cell was already a primitive cell.
 

 Routine SETGRP: Setting up the symmetry group for a 
 simple cubic supercell.


 Subroutine GETGRP returns: Found  1 space group operations
 (whereof  1 operations were pure point group operations)
 out of a pool of 48 trial point group operations.


The constrained configuration has the point symmetry C_1 .


 Subroutine INISYM returns: Found  1 space group operations
 (whereof  1 operations are pure point group operations),
 and found     1 'primitive' translations

 
 
 KPOINTS: K-points                                

Automatic generation of k-mesh.
Space group operators:
 irot       det(A)        alpha          n_x          n_y          n_z        tau_x        tau_y        tau_z
    1     1.000000     0.000000     1.000000     0.000000     0.000000     0.000000     0.000000     0.000000
 
 Subroutine IBZKPT returns following result:
 ===========================================
 
 Found      1 irreducible k-points:
 
 Following reciprocal coordinates:
            Coordinates               Weight
  0.000000  0.000000  0.000000      1.000000
 
 Following cartesian coordinates:
            Coordinates               Weight
  0.000000  0.000000  0.000000      1.000000
 


--------------------------------------------------------------------------------------------------------




 Dimension of arrays:
   k-points           NKPTS =      1   k-points in BZ     NKDIM =      1   number of bands    NBANDS=    336
   number of dos      NEDOS =    301   number of ions     NIONS =     57
   non local maximal  LDIM  =      6   non local SUM 2l+1 LMDIM =     18
   total plane-waves  NPLWV = ******
   max r-space proj   IRMAX =   1847   max aug-charges    IRDMAX=   6262
   dimension x,y,z NGX =   150 NGY =  150 NGZ =  150
   dimension x,y,z NGXF=   300 NGYF=  300 NGZF=  300
   support grid    NGXF=   300 NGYF=  300 NGZF=  300
   ions per type =              55   1   1
   NGX,Y,Z   is equivalent  to a cutoff of   8.31,  8.31,  8.31 a.u.
   NGXF,Y,Z  is equivalent  to a cutoff of  16.62, 16.62, 16.62 a.u.

 SYSTEM =  6_Pd100_top_free_z(O)                   
 POSCAR =  Pd55PES                                 

 Startparameter for this run:
   NWRITE =      2    write-flag & timer
   PREC   = normal    normal or accurate (medium, high low for compatibility)
   ISTART =      0    job   : 0-new  1-cont  2-samecut
   ICHARG =      2    charge: 1-file 2-atom 10-const
   ISPIN  =      1    spin polarized calculation?
   LNONCOLLINEAR =      F non collinear calculations
   LSORBIT =      F    spin-orbit coupling
   INIWAV =      1    electr: 0-lowe 1-rand  2-diag
   LASPH  =      F    aspherical Exc in radial PAW
   METAGGA=      F    non-selfconsistent MetaGGA calc.

 Electronic Relaxation 1
   ENCUT  =  400.0 eV  29.40 Ry    5.42 a.u.  48.92 48.92 48.92*2*pi/ulx,y,z
   ENINI  =  400.0     initial cutoff
   ENAUG  =  644.9 eV  augmentation charge cutoff
   NELM   =    100;   NELMIN=  6; NELMDL= -5     # of ELM steps 
   EDIFF  = 0.1E-03   stopping-criterion for ELM
   LREAL  =      T    real-space projection
   NLSPLINE    = F    spline interpolate recip. space projectors
   LCOMPAT=      F    compatible to vasp.4.4
   GGA_COMPAT  = T    GGA compatible to vasp.4.4-vasp.4.6
   LMAXPAW     = -100 max onsite density
   LMAXMIX     =    2 max onsite mixed and CHGCAR
   VOSKOWN=      0    Vosko Wilk Nusair interpolation
   ROPT   =   -0.00050  -0.00050  -0.00050
 Ionic relaxation
   EDIFFG = -.5E-01   stopping-criterion for IOM
   NSW    =      0    number of steps for IOM
   NBLOCK =      1;   KBLOCK =      1    inner block; outer block 
   IBRION =     -1    ionic relax: 0-MD 1-quasi-New 2-CG
   NFREE  =      1    steps in history (QN), initial steepest desc. (CG)
   ISIF   =      2    stress and relaxation
   IWAVPR =     10    prediction:  0-non 1-charg 2-wave 3-comb
   ISYM   =      2    0-nonsym 1-usesym 2-fastsym
   LCORR  =      T    Harris-Foulkes like correction to forces

   POTIM  = 0.5000    time-step for ionic-motion
   TEIN   =    0.0    initial temperature
   TEBEG  =    0.0;   TEEND  =   0.0 temperature during run
   SMASS  =  -3.00    Nose mass-parameter (am)
   estimated Nose-frequenzy (Omega)   =  0.10E-29 period in steps =****** mass=  -0.206E-25a.u.
   SCALEE = 1.0000    scale energy and forces
   NPACO  =    256;   APACO  = 16.0  distance and # of slots for P.C.
   PSTRESS=    0.0 pullay stress

  Mass of Ions in am
   POMASS = 106.42 12.01 16.00
  Ionic Valenz
   ZVAL   =  10.00  4.00  6.00
  Atomic Wigner-Seitz radii
   RWIGS  =  -1.00 -1.00 -1.00
  virtual crystal weights 
   VCA    =   1.00  1.00  1.00
   NELECT =     560.0000    total number of electrons
   NUPDOWN=      -1.0000    fix difference up-down

 DOS related values:
   EMIN   =  10.00;   EMAX   =-10.00  energy-range for DOS
   EFERMI =   0.00
   ISMEAR =     2;   SIGMA  =   0.20  broadening in eV -4-tet -1-fermi 0-gaus

 Electronic relaxation 2 (details)
   IALGO  =     68    algorithm
   LDIAG  =      T    sub-space diagonalisation (order eigenvalues)
   LSUBROT=      F    optimize rotation matrix (better conditioning)
   TURBO    =      0    0=normal 1=particle mesh
   IRESTART =      0    0=no restart 2=restart with 2 vectors
   NREBOOT  =      0    no. of reboots
   NMIN     =      0    reboot dimension
   EREF     =   0.00    reference energy to select bands
   IMIX   =      4    mixing-type and parameters
     AMIX     =   0.40;   BMIX     =  1.00
     AMIX_MAG =   1.60;   BMIX_MAG =  1.00
     AMIN     =   0.10
     WC   =   100.;   INIMIX=   1;  MIXPRE=   1;  MAXMIX= -45

 Intra band minimization:
   WEIMIN = 0.0000     energy-eigenvalue tresh-hold
   EBREAK =  0.74E-07  absolut break condition
   DEPER  =   0.30     relativ break condition  

   TIME   =   0.40     timestep for ELM

  volume/ion in A,a.u.               =     473.68      3196.58
  Fermi-wavevector in a.u.,A,eV,Ry     =   0.449797  0.849992  2.752691  0.202317
  Thomas-Fermi vector in A             =   1.430086
 
 Write flags
   LWAVE        =      F    write WAVECAR
   LDOWNSAMPLE  =      F    k-point downsampling of WAVECAR
   LCHARG       =      F    write CHGCAR
   LVTOT        =      F    write LOCPOT, total local potential
   LVHAR        =      F    write LOCPOT, Hartree potential only
   LELF         =      F    write electronic localiz. function (ELF)
   LORBIT       =      0    0 simple, 1 ext, 2 COOP (PROOUT), +10 PAW based schemes


 Dipole corrections
   LMONO  =      F    monopole corrections only (constant potential shift)
   LDIPOL =      F    correct potential (dipole corrections)
   IDIPOL =      0    1-x, 2-y, 3-z, 4-all directions 
   EPSILON=  1.0000000 bulk dielectric constant

 Exchange correlation treatment:
   GGA     =    RP    GGA type
   LEXCH   =     9    internal setting for exchange type
   VOSKOWN=      0    Vosko Wilk Nusair interpolation
   LHFCALC =     F    Hartree Fock is set to
   LHFONE  =     F    Hartree Fock one center treatment
   AEXX    =    0.0000 exact exchange contribution

 Linear response parameters
   LEPSILON=     F    determine dielectric tensor
   LRPA    =     F    only Hartree local field effects (RPA)
   LNABLA  =     F    use nabla operator in PAW spheres
   LVEL    =     F    velocity operator in full k-point grid
   LINTERFAST=   F  fast interpolation
   KINTER  =     0    interpolate to denser k-point grid
   CSHIFT  =0.1000    complex shift for real part using Kramers Kronig
   OMEGAMAX=  -1.0    maximum frequency
   DEG_THRESHOLD= 0.2000000E-02 threshold for treating states as degnerate
   RTIME   =   -0.100 relaxation time in fs
  (WPLASMAI=    0.000 imaginary part of plasma frequency in eV, 0.658/RTIME)
   DFIELD  = 0.0000000 0.0000000 0.0000000 field for delta impulse in time
 
 Orbital magnetization related:
   ORBITALMAG=     F  switch on orbital magnetization
   LCHIMAG   =     F  perturbation theory with respect to B field
   DQ        =  0.001000  dq finite difference perturbation B field
   LLRAUG    =     F  two centre corrections for induced B field



--------------------------------------------------------------------------------------------------------


 Static calculation
 charge density and potential will be updated during run
 non-spin polarized calculation
 RMM-DIIS sequential band-by-band and
  variant of blocked Davidson during initial phase
 perform sub-space diagonalisation
    before iterative eigenvector-optimisation
 modified Broyden-mixing scheme, WC =      100.0
 initial mixing is a Kerker type mixing with AMIX =  0.4000 and BMIX =      1.0000
 Hartree-type preconditioning will be used
 using additional bands           56
 real space projection scheme for non local part
 use partial core corrections
 calculate Harris-corrections to forces 
   (improved forces if not selfconsistent)
 use gradient corrections 
 use of overlap-Matrix (Vanderbilt PP)
 Methfessel and Paxton  Order N= 2 SIGMA  =   0.20


--------------------------------------------------------------------------------------------------------


  energy-cutoff  :      400.00
  volume of cell :    27000.00
      direct lattice vectors                 reciprocal lattice vectors
    30.000000000  0.000000000  0.000000000     0.033333333  0.000000000  0.000000000
     0.000000000 30.000000000  0.000000000     0.000000000  0.033333333  0.000000000
     0.000000000  0.000000000 30.000000000     0.000000000  0.000000000  0.033333333

  length of vectors
    30.000000000 30.000000000 30.000000000     0.033333333  0.033333333  0.033333333


 
 k-points in units of 2pi/SCALE and weight: K-points                                
   0.00000000  0.00000000  0.00000000       1.000
 
 k-points in reciprocal lattice and weights: K-points                                
   0.00000000  0.00000000  0.00000000       1.000
 
 position of ions in fractional coordinates (direct lattice) 
   0.44576020  0.32826710  0.41691983
   0.67173288  0.55423978  0.41691983
   0.55423980  0.32826710  0.41691983
   0.32826712  0.55423978  0.41691983
   0.50000000  0.38250690  0.34021317
   0.50000000  0.38250690  0.65978680
   0.50000000  0.27609440  0.50000000
   0.27609443  0.49999998  0.50000000
   0.72390557  0.49999998  0.50000000
   0.50000000  0.72390555  0.50000000
   0.61195280  0.38804720  0.34167483
   0.61195280  0.38804720  0.65832513
   0.38804722  0.61195278  0.34167483
   0.38804722  0.61195278  0.65832513
   0.38804720  0.38804720  0.34167483
   0.38804720  0.38804720  0.65832513
   0.61195278  0.61195278  0.34167483
   0.61195278  0.61195278  0.65832513
   0.44576020  0.32826710  0.58308023
   0.67173288  0.55423978  0.58308023
   0.55791699  0.44208301  0.41809300
   0.32826705  0.44576024  0.41691983
   0.55423973  0.67173293  0.41691983
   0.55423980  0.32826710  0.58308023
   0.32826712  0.55423978  0.58308023
   0.67173295  0.44576024  0.41691983
   0.44576027  0.67173293  0.41691983
   0.44208301  0.44208301  0.41809300
   0.50000000  0.38416601  0.50000000
   0.61749315  0.50000005  0.34021317
   0.61749315  0.50000005  0.65978680
   0.38250685  0.50000005  0.34021317
   0.38250685  0.50000005  0.65978680
   0.38317830  0.38317830  0.50000000
   0.61682172  0.61682172  0.50000000
   0.61682170  0.38317830  0.50000000
   0.38317828  0.61682172  0.50000000
   0.50000000  0.50000000  0.33478917
   0.50000000  0.50000000  0.66521087
   0.32826705  0.44576024  0.58308023
   0.55423973  0.67173293  0.58308023
   0.55791699  0.44208301  0.58190703
   0.44208298  0.55791702  0.41809300
   0.44208301  0.44208301  0.58190703
   0.67173295  0.44576024  0.58308023
   0.44576027  0.67173293  0.58308023
   0.55791702  0.55791702  0.41809300
   0.38416599  0.50000002  0.50000000
   0.61583401  0.50000002  0.50000000
   0.50000000  0.61749319  0.34021317
   0.50000000  0.61749319  0.65978680
   0.50000000  0.50000000  0.50000000
   0.44208298  0.55791702  0.58190703
   0.55791702  0.55791702  0.58190703
   0.50000000  0.61583404  0.50000000
   0.60597797  0.66462887  0.39528477
   0.62392460  0.69250763  0.37755193
 
 position of ions in cartesian coordinates  (Angst):
  13.37280588  9.84801292 12.50759500
  20.15198637 16.62719342 12.50759500
  16.62719412  9.84801292 12.50759500
   9.84801363 16.62719342 12.50759500
  15.00000000 11.47520705 10.20639500
  15.00000000 11.47520705 19.79360400
  15.00000000  8.28283206 15.00000000
   8.28283277 14.99999929 15.00000000
  21.71716723 14.99999929 15.00000000
  15.00000000 21.71716652 14.99999999
  18.35858397 11.64141603 10.25024500
  18.35858397 11.64141603 19.74975399
  11.64141674 18.35858326 10.25024500
  11.64141674 18.35858326 19.74975400
  11.64141603 11.64141603 10.25024500
  11.64141603 11.64141603 19.74975400
  18.35858326 18.35858326 10.25024500
  18.35858326 18.35858326 19.74975400
  13.37280588  9.84801291 17.49240700
  20.15198638 16.62719341 17.49240700
  16.73750985 13.26249015 12.54279000
   9.84801151 13.37280729 12.50759500
  16.62719200 20.15198779 12.50759500
  16.62719412  9.84801292 17.49240700
   9.84801363 16.62719342 17.49240700
  20.15198849 13.37280729 12.50759500
  13.37280800 20.15198779 12.50759500
  13.26249015 13.26249015 12.54279000
  15.00000000 11.52498029 15.00000000
  18.52479437 15.00000140 10.20639500
  18.52479437 15.00000141 19.79360400
  11.47520562 15.00000141 10.20639501
  11.47520563 15.00000141 19.79360400
  11.49534898 11.49534898 15.00000000
  18.50465172 18.50465172 15.00000000
  18.50465102 11.49534898 15.00000000
  11.49534828 18.50465172 15.00000000
  15.00000000 15.00000000 10.04367500
  15.00000000 15.00000000 19.95632599
   9.84801151 13.37280729 17.49240700
  16.62719200 20.15198779 17.49240700
  16.73750985 13.26249015 17.45721100
  13.26248944 16.73751056 12.54279001
  13.26249015 13.26249015 17.45721100
  20.15198849 13.37280729 17.49240699
  13.37280800 20.15198779 17.49240700
  16.73751056 16.73751056 12.54279000
  11.52497959 15.00000071 15.00000000
  18.47502041 15.00000071 15.00000000
  14.99999999 18.52479579 10.20639500
  15.00000000 18.52479578 19.79360400
  15.00000000 15.00000000 15.00000000
  13.26248944 16.73751057 17.45721101
  16.73751056 16.73751057 17.45721100
  15.00000000 18.47502112 15.00000000
  18.17933900 19.93886600 11.85854300
  18.71773800 20.77522900 11.32655800
 


--------------------------------------------------------------------------------------------------------


 k-point  1 :   0.0000 0.0000 0.0000  plane waves:  490521

 maximum and minimum number of plane-waves per node :    490521   490521

 maximum number of plane-waves:    490521
 maximum index in each direction: 
   IXMAX=   48   IYMAX=   48   IZMAX=   48
   IXMIN=  -48   IYMIN=  -48   IZMIN=  -48


 serial   3D FFT for wavefunctions
 parallel 3D FFT for charge:
    minimum data exchange during FFTs selected (reduces bandwidth)


 total amount of memory used by VASP MPI-rank0  5486941. kBytes
=======================================================================

   base      :      30000. kBytes
   nonlr-proj:      17126. kBytes
   fftplans  :     924480. kBytes
   grid      :    1872000. kBytes
   one-center:        886. kBytes
   wavefun   :    2642449. kBytes
 
     INWAV:  cpu time    0.0001: real time    0.0005
 Broyden mixing: mesh for mixing (old mesh)
   NGX = 97   NGY = 97   NGZ = 97
  (NGX  =300   NGY  =300   NGZ  =300)
  gives a total of 912673 points

 initial charge density was supplied:
 charge density of overlapping atoms calculated
 number of electron     560.0000000 magnetization 
 keeping initial charge density in first step


--------------------------------------------------------------------------------------------------------


 Maximum index for non-local projection operator         1763
 Maximum index for augmentation-charges         5898 (set IRDMAX)


--------------------------------------------------------------------------------------------------------


 First call to EWALD:  gamma=   0.059
 Maximum number of real-space cells 3x 3x 3
 Maximum number of reciprocal cells 3x 3x 3

    FEWALD:  cpu time    0.0148: real time    0.0148


--------------------------------------- Iteration      1(   1)  ---------------------------------------


    POTLOK:  cpu time   14.0395: real time   14.0434
    SETDIJ:  cpu time    0.1202: real time    0.1202
     EDDAV:  cpu time  362.1604: real time  362.2491
       DOS:  cpu time    0.0015: real time    0.0015
    --------------------------------------------
      LOOP:  cpu time  376.3216: real time  376.4142

 eigenvalue-minimisations  :   688
 total energy-change (2. order) : 0.4403620E+04  (-0.1005237E+05)
 number of electron     560.0000000 magnetization 
 augmentation part      560.0000000 magnetization 

 Free energy of the ion-electron system (eV)
  ---------------------------------------------------
  alpha Z        PSCENC =        75.25431677
  Ewald energy   TEWEN  =    139127.43856806
  -Hartree energ DENC   =   -182475.08367154
  -exchange      EXHF   =         0.00000000
  -V(xc)+E(xc)   XCENC  =     -1701.77501371
  PAW double counting   =     44873.02882129   -41398.84523641
  entropy T*S    EENTRO =         0.02038078
  eigenvalues    EBANDS =       817.07618100
  atomic energy  EATOM  =     45086.50549395
  Solvation  Ediel_sol  =         0.00000000
  ---------------------------------------------------
  free energy    TOTEN  =      4403.61984019 eV

  energy without entropy =     4403.59945941  energy(sigma->0) =     4403.61474500


--------------------------------------------------------------------------------------------------------




--------------------------------------- Iteration      1(   2)  ---------------------------------------


     EDDAV:  cpu time  573.6759: real time  573.7197
       DOS:  cpu time    0.0014: real time    0.0014
    --------------------------------------------
      LOOP:  cpu time  573.6773: real time  573.7210

 eigenvalue-minimisations  :  1208
 total energy-change (2. order) :-0.2371979E+04  (-0.2130807E+04)
 number of electron     560.0000000 magnetization 
 augmentation part      560.0000000 magnetization 

 Free energy of the ion-electron system (eV)
  ---------------------------------------------------
  alpha Z        PSCENC =        75.25431677
  Ewald energy   TEWEN  =    139127.43856806
  -Hartree energ DENC   =   -182475.08367154
  -exchange      EXHF   =         0.00000000
  -V(xc)+E(xc)   XCENC  =     -1701.77501371
  PAW double counting   =     44873.02882129   -41398.84523641
  entropy T*S    EENTRO =        -0.03627780
  eigenvalues    EBANDS =     -1554.84610151
  atomic energy  EATOM  =     45086.50549395
  Solvation  Ediel_sol  =         0.00000000
  ---------------------------------------------------
  free energy    TOTEN  =      2031.64089909 eV

  energy without entropy =     2031.67717689  energy(sigma->0) =     2031.64996854


--------------------------------------------------------------------------------------------------------




--------------------------------------- Iteration      1(   3)  ---------------------------------------


     EDDAV:  cpu time  491.5528: real time  491.5686
       DOS:  cpu time    0.0012: real time    0.0012
    --------------------------------------------
      LOOP:  cpu time  491.5540: real time  491.5698

 eigenvalue-minimisations  :  1000
 total energy-change (2. order) :-0.1788074E+04  (-0.1678739E+04)
 number of electron     560.0000000 magnetization 
 augmentation part      560.0000000 magnetization 

 Free energy of the ion-electron system (eV)
  ---------------------------------------------------
  alpha Z        PSCENC =        75.25431677
  Ewald energy   TEWEN  =    139127.43856806
  -Hartree energ DENC   =   -182475.08367154
  -exchange      EXHF   =         0.00000000
  -V(xc)+E(xc)   XCENC  =     -1701.77501371
  PAW double counting   =     44873.02882129   -41398.84523641
  entropy T*S    EENTRO =         0.04027635
  eigenvalues    EBANDS =     -3342.99684227
  atomic energy  EATOM  =     45086.50549395
  Solvation  Ediel_sol  =         0.00000000
  ---------------------------------------------------
  free energy    TOTEN  =       243.56671248 eV

  energy without entropy =      243.52643613  energy(sigma->0) =      243.55664339


--------------------------------------------------------------------------------------------------------




--------------------------------------- Iteration      1(   4)  ---------------------------------------


     EDDAV:  cpu time  428.3365: real time  428.3422
       DOS:  cpu time    0.0012: real time    0.0012
    --------------------------------------------
      LOOP:  cpu time  428.3378: real time  428.3434

 eigenvalue-minimisations  :   848
 total energy-change (2. order) :-0.3769016E+03  (-0.3213441E+03)
 number of electron     560.0000000 magnetization 
 augmentation part      560.0000000 magnetization 

 Free energy of the ion-electron system (eV)
  ---------------------------------------------------
  alpha Z        PSCENC =        75.25431677
  Ewald energy   TEWEN  =    139127.43856806
  -Hartree energ DENC   =   -182475.08367154
  -exchange      EXHF   =         0.00000000
  -V(xc)+E(xc)   XCENC  =     -1701.77501371
  PAW double counting   =     44873.02882129   -41398.84523641
  entropy T*S    EENTRO =        -0.01940090
  eigenvalues    EBANDS =     -3719.83876127
  atomic energy  EATOM  =     45086.50549395
  Solvation  Ediel_sol  =         0.00000000
  ---------------------------------------------------
  free energy    TOTEN  =      -133.33488376 eV

  energy without entropy =     -133.31548286  energy(sigma->0) =     -133.33003354


--------------------------------------------------------------------------------------------------------




--------------------------------------- Iteration      1(   5)  ---------------------------------------


     EDDAV:  cpu time  511.4196: real time  511.4275
       DOS:  cpu time    0.0015: real time    0.0015
    CHARGE:  cpu time   25.6505: real time   25.6505
    MIXING:  cpu time    0.4581: real time    0.4582
    --------------------------------------------
      LOOP:  cpu time  537.5298: real time  537.5377

 eigenvalue-minimisations  :  1040
 total energy-change (2. order) :-0.4684008E+02  (-0.3855943E+02)
 number of electron     559.9999874 magnetization 
 augmentation part      244.9653574 magnetization 

 Broyden mixing:
  rms(total) = 0.18976E+01    rms(broyden)= 0.18968E+01
  rms(prec ) = 0.19908E+01
  weight for this iteration     100.00

 Free energy of the ion-electron system (eV)
  ---------------------------------------------------
  alpha Z        PSCENC =        75.25431677
  Ewald energy   TEWEN  =    139127.43856806
  -Hartree energ DENC   =   -182475.08367154
  -exchange      EXHF   =         0.00000000
  -V(xc)+E(xc)   XCENC  =     -1701.77501371
  PAW double counting   =     44873.02882129   -41398.84523641
  entropy T*S    EENTRO =         0.53542360
  eigenvalues    EBANDS =     -3767.23366301
  atomic energy  EATOM  =     45086.50549395
  Solvation  Ediel_sol  =         0.00000000
  ---------------------------------------------------
  free energy    TOTEN  =      -180.17496100 eV

  energy without entropy =     -180.71038461  energy(sigma->0) =     -180.30881691


--------------------------------------------------------------------------------------------------------




--------------------------------------- Iteration      1(   6)  ---------------------------------------


    POTLOK:  cpu time   13.1902: real time   13.1932
    SETDIJ:  cpu time    0.1217: real time    0.1217
    EDDIAG:  cpu time   68.7913: real time   68.7926
  RMM-DIIS:  cpu time  194.4022: real time  194.4204
    ORTHCH:  cpu time   13.7871: real time   13.7870
       DOS:  cpu time    0.0016: real time    0.0015
    CHARGE:  cpu time   26.2225: real time   26.2247
    MIXING:  cpu time    0.4841: real time    0.4841
    --------------------------------------------
      LOOP:  cpu time  317.0006: real time  317.0252

 eigenvalue-minimisations  :   735
 total energy-change (2. order) : 0.9362978E+00  (-0.6494006E+01)
 number of electron     559.9999887 magnetization 
 augmentation part      240.5648192 magnetization 

 Broyden mixing:
  rms(total) = 0.21190E+01    rms(broyden)= 0.21188E+01
  rms(prec ) = 0.24101E+01
  weight for this iteration     100.00

 eigenvalues of (default mixing * dielectric matrix)
  average eigenvalue GAMMA=   0.4610
  0.4610

 Free energy of the ion-electron system (eV)
  ---------------------------------------------------
  alpha Z        PSCENC =        75.25431677
  Ewald energy   TEWEN  =    139127.43856806
  -Hartree energ DENC   =   -182879.82812369
  -exchange      EXHF   =         0.00000000
  -V(xc)+E(xc)   XCENC  =     -1695.26792204
  PAW double counting   =     45708.54392574   -42208.52796007
  entropy T*S    EENTRO =        -0.21537983
  eigenvalues    EBANDS =     -3393.14158214
  atomic energy  EATOM  =     45086.50549395
  Solvation  Ediel_sol  =         0.00000000
  ---------------------------------------------------
  free energy    TOTEN  =      -179.23866325 eV

  energy without entropy =     -179.02328342  energy(sigma->0) =     -179.18481829


--------------------------------------------------------------------------------------------------------




--------------------------------------- Iteration      1(   7)  ---------------------------------------


    POTLOK:  cpu time   13.2462: real time   13.2478
    SETDIJ:  cpu time    0.1223: real time    0.1223
    EDDIAG:  cpu time   68.8080: real time   68.8122
  RMM-DIIS:  cpu time  218.6194: real time  218.6280
    ORTHCH:  cpu time   13.7490: real time   13.7527
       DOS:  cpu time    0.0017: real time    0.0017
    CHARGE:  cpu time   26.4096: real time   26.4135
    MIXING:  cpu time    0.5104: real time    0.5104
    --------------------------------------------
      LOOP:  cpu time  341.4665: real time  341.4885

 eigenvalue-minimisations  :   827
 total energy-change (2. order) :-0.4400800E+01  (-0.2396604E+01)
 number of electron     559.9999856 magnetization 
 augmentation part      240.0762619 magnetization 

 Broyden mixing:
  rms(total) = 0.25575E+01    rms(broyden)= 0.25572E+01
  rms(prec ) = 0.30588E+01
  weight for this iteration     100.00

 eigenvalues of (default mixing * dielectric matrix)
  average eigenvalue GAMMA=   0.4305
  0.6809  0.1800

 Free energy of the ion-electron system (eV)
  ---------------------------------------------------
  alpha Z        PSCENC =        75.25431677
  Ewald energy   TEWEN  =    139127.43856806
  -Hartree energ DENC   =   -182997.47519235
  -exchange      EXHF   =         0.00000000
  -V(xc)+E(xc)   XCENC  =     -1695.60621457
  PAW double counting   =     45827.44492149   -42324.03629784
  entropy T*S    EENTRO =        -0.13559546
  eigenvalues    EBANDS =     -3283.02946325
  atomic energy  EATOM  =     45086.50549395
  Solvation  Ediel_sol  =         0.00000000
  ---------------------------------------------------
  free energy    TOTEN  =      -183.63946321 eV

  energy without entropy =     -183.50386775  energy(sigma->0) =     -183.60556435


--------------------------------------------------------------------------------------------------------




--------------------------------------- Iteration      1(   8)  ---------------------------------------


    POTLOK:  cpu time   13.6252: real time   13.6286
    SETDIJ:  cpu time    0.1276: real time    0.1276
    EDDIAG:  cpu time   69.9084: real time   69.9136
  RMM-DIIS:  cpu time  210.6121: real time  210.6403
    ORTHCH:  cpu time   14.0371: real time   14.0397
       DOS:  cpu time    0.0016: real time    0.0016
    CHARGE:  cpu time   26.5660: real time   26.5681
    MIXING:  cpu time    0.5395: real time    0.5395
    --------------------------------------------
      LOOP:  cpu time  335.4176: real time  335.4590

 eigenvalue-minimisations  :   796
 total energy-change (2. order) :-0.3547099E+01  (-0.1099264E+01)
 number of electron     559.9999854 magnetization 
 augmentation part      239.7372285 magnetization 

 Broyden mixing:
  rms(total) = 0.32849E+01    rms(broyden)= 0.32847E+01
  rms(prec ) = 0.38827E+01
  weight for this iteration     100.00

 eigenvalues of (default mixing * dielectric matrix)
  average eigenvalue GAMMA=   0.3795
  0.8283  0.1801  0.1300

 Free energy of the ion-electron system (eV)
  ---------------------------------------------------
  alpha Z        PSCENC =        75.25431677
  Ewald energy   TEWEN  =    139127.43856806
  -Hartree energ DENC   =   -183024.58120733
  -exchange      EXHF   =         0.00000000
  -V(xc)+E(xc)   XCENC  =     -1695.64523249
  PAW double counting   =     45923.89221164   -42417.84027648
  entropy T*S    EENTRO =        -0.06557930
  eigenvalues    EBANDS =     -3262.14485708
  atomic energy  EATOM  =     45086.50549395
  Solvation  Ediel_sol  =         0.00000000
  ---------------------------------------------------
  free energy    TOTEN  =      -187.18656227 eV

  energy without entropy =     -187.12098297  energy(sigma->0) =     -187.17016745


--------------------------------------------------------------------------------------------------------




--------------------------------------- Iteration      1(   9)  ---------------------------------------


    POTLOK:  cpu time   13.6090: real time   13.6142
    SETDIJ:  cpu time    0.1257: real time    0.1257
    EDDIAG:  cpu time   70.4608: real time   70.4684
  RMM-DIIS:  cpu time  197.8222: real time  197.8489
    ORTHCH:  cpu time   13.7373: real time   13.7394
       DOS:  cpu time    0.0016: real time    0.0016
    CHARGE:  cpu time   26.2187: real time   26.2248
    MIXING:  cpu time    0.5981: real time    0.5981
    --------------------------------------------
      LOOP:  cpu time  322.5732: real time  322.6211

 eigenvalue-minimisations  :   739
 total energy-change (2. order) : 0.3037415E+01  (-0.7547153E+00)
 number of electron     559.9999843 magnetization 
 augmentation part      240.7848523 magnetization 

 Broyden mixing:
  rms(total) = 0.26715E+01    rms(broyden)= 0.26711E+01
  rms(prec ) = 0.30444E+01
  weight for this iteration     100.00

 eigenvalues of (default mixing * dielectric matrix)
  average eigenvalue GAMMA=   0.3590
  0.9702  0.1834  0.1412  0.1412

 Free energy of the ion-electron system (eV)
  ---------------------------------------------------
  alpha Z        PSCENC =        75.25431677
  Ewald energy   TEWEN  =    139127.43856806
  -Hartree energ DENC   =   -183034.25738044
  -exchange      EXHF   =         0.00000000
  -V(xc)+E(xc)   XCENC  =     -1695.69351489
  PAW double counting   =     45989.26468937   -42481.62052080
  entropy T*S    EENTRO =        -0.27306764
  eigenvalues    EBANDS =     -3250.76773157
  atomic energy  EATOM  =     45086.50549395
  Solvation  Ediel_sol  =         0.00000000
  ---------------------------------------------------
  free energy    TOTEN  =      -184.14914720 eV

  energy without entropy =     -183.87607955  energy(sigma->0) =     -184.08088029


--------------------------------------------------------------------------------------------------------




--------------------------------------- Iteration      1(  10)  ---------------------------------------


    POTLOK:  cpu time   13.7150: real time   13.7211
    SETDIJ:  cpu time    0.1273: real time    0.1273
    EDDIAG:  cpu time   70.1324: real time   70.1419
  RMM-DIIS:  cpu time  193.8160: real time  193.8405
    ORTHCH:  cpu time   13.7490: real time   13.7494
       DOS:  cpu time    0.0016: real time    0.0016
    CHARGE:  cpu time   26.1383: real time   26.1407
    MIXING:  cpu time    0.5889: real time    0.5889
    --------------------------------------------
      LOOP:  cpu time  318.2685: real time  318.3115

 eigenvalue-minimisations  :   729
 total energy-change (2. order) : 0.3985333E+01  (-0.5483723E+00)
 number of electron     559.9999873 magnetization 
 augmentation part      241.6401416 magnetization 

 Broyden mixing:
  rms(total) = 0.25207E+01    rms(broyden)= 0.25203E+01
  rms(prec ) = 0.28931E+01
  weight for this iteration     100.00

 eigenvalues of (default mixing * dielectric matrix)
  average eigenvalue GAMMA=   0.3341
  1.0646  0.1971  0.1554  0.1554  0.0978

 Free energy of the ion-electron system (eV)
  ---------------------------------------------------
  alpha Z        PSCENC =        75.25431677
  Ewald energy   TEWEN  =    139127.43856806
  -Hartree energ DENC   =   -183066.58968227
  -exchange      EXHF   =         0.00000000
  -V(xc)+E(xc)   XCENC  =     -1695.58335492
  PAW double counting   =     46058.77655173   -42549.35101955
  entropy T*S    EENTRO =        -0.03624615
  eigenvalues    EBANDS =     -3216.57844148
  atomic energy  EATOM  =     45086.50549395
  Solvation  Ediel_sol  =         0.00000000
  ---------------------------------------------------
  free energy    TOTEN  =      -180.16381386 eV

  energy without entropy =     -180.12756771  energy(sigma->0) =     -180.15475232


--------------------------------------------------------------------------------------------------------




--------------------------------------- Iteration      1(  11)  ---------------------------------------


    POTLOK:  cpu time   13.7826: real time   13.7884
    SETDIJ:  cpu time    0.1275: real time    0.1275
    EDDIAG:  cpu time   69.9845: real time   69.9869
  RMM-DIIS:  cpu time  191.0314: real time  191.0471
    ORTHCH:  cpu time   13.7632: real time   13.7633
       DOS:  cpu time    0.0017: real time    0.0017
    CHARGE:  cpu time   26.1844: real time   26.1848
    MIXING:  cpu time    0.6295: real time    0.6295
    --------------------------------------------
      LOOP:  cpu time  315.5048: real time  315.5292

 eigenvalue-minimisations  :   717
 total energy-change (2. order) : 0.2361699E+01  (-0.3169725E+00)
 number of electron     559.9999887 magnetization 
 augmentation part      241.9005093 magnetization 

 Broyden mixing:
  rms(total) = 0.17239E+01    rms(broyden)= 0.17235E+01
  rms(prec ) = 0.19746E+01
  weight for this iteration     100.00

 eigenvalues of (default mixing * dielectric matrix)
  average eigenvalue GAMMA=   0.3254
  1.1685  0.1991  0.1991  0.1471  0.1471  0.0911

 Free energy of the ion-electron system (eV)
  ---------------------------------------------------
  alpha Z        PSCENC =        75.25431677
  Ewald energy   TEWEN  =    139127.43856806
  -Hartree energ DENC   =   -183084.86288096
  -exchange      EXHF   =         0.00000000
  -V(xc)+E(xc)   XCENC  =     -1695.38073669
  PAW double counting   =     46105.01692848   -42594.06819051
  entropy T*S    EENTRO =        -0.06648642
  eigenvalues    EBANDS =     -3197.63912787
  atomic energy  EATOM  =     45086.50549395
  Solvation  Ediel_sol  =         0.00000000
  ---------------------------------------------------
  free energy    TOTEN  =      -177.80211519 eV

  energy without entropy =     -177.73562876  energy(sigma->0) =     -177.78549358


--------------------------------------------------------------------------------------------------------




--------------------------------------- Iteration      1(  12)  ---------------------------------------


    POTLOK:  cpu time   13.6960: real time   13.7001
    SETDIJ:  cpu time    0.1235: real time    0.1235
    EDDIAG:  cpu time   70.1618: real time   70.1699
  RMM-DIIS:  cpu time  191.4397: real time  191.4493
    ORTHCH:  cpu time   13.6705: real time   13.6717
       DOS:  cpu time    0.0016: real time    0.0016
    CHARGE:  cpu time   26.5966: real time   26.5990
    MIXING:  cpu time    0.7129: real time    0.7129
    --------------------------------------------
      LOOP:  cpu time  316.4027: real time  316.4281

 eigenvalue-minimisations  :   720
 total energy-change (2. order) : 0.3137972E+00  (-0.2625143E+00)
 number of electron     559.9999863 magnetization 
 augmentation part      241.8690617 magnetization 

 Broyden mixing:
  rms(total) = 0.21627E+01    rms(broyden)= 0.21624E+01
  rms(prec ) = 0.26123E+01
  weight for this iteration     100.00

 eigenvalues of (default mixing * dielectric matrix)
  average eigenvalue GAMMA=   0.3131
  1.2385  0.2415  0.2415  0.1862  0.1076  0.0881  0.0881

 Free energy of the ion-electron system (eV)
  ---------------------------------------------------
  alpha Z        PSCENC =        75.25431677
  Ewald energy   TEWEN  =    139127.43856806
  -Hartree energ DENC   =   -183110.67573731
  -exchange      EXHF   =         0.00000000
  -V(xc)+E(xc)   XCENC  =     -1695.03132867
  PAW double counting   =     46157.23086805   -42644.35363182
  entropy T*S    EENTRO =         0.02816824
  eigenvalues    EBANDS =     -3173.88503522
  atomic energy  EATOM  =     45086.50549395
  Solvation  Ediel_sol  =         0.00000000
  ---------------------------------------------------
  free energy    TOTEN  =      -177.48831796 eV

  energy without entropy =     -177.51648619  energy(sigma->0) =     -177.49536002


--------------------------------------------------------------------------------------------------------




--------------------------------------- Iteration      1(  13)  ---------------------------------------


    POTLOK:  cpu time   13.7300: real time   13.7338
    SETDIJ:  cpu time    0.1287: real time    0.1287
    EDDIAG:  cpu time   69.6349: real time   69.6382
  RMM-DIIS:  cpu time  193.3383: real time  193.3568
    ORTHCH:  cpu time   13.7688: real time   13.7691
       DOS:  cpu time    0.0017: real time    0.0017
    CHARGE:  cpu time   26.6828: real time   26.6842
    MIXING:  cpu time    0.6818: real time    0.6818
    --------------------------------------------
      LOOP:  cpu time  317.9670: real time  317.9942

 eigenvalue-minimisations  :   724
 total energy-change (2. order) : 0.1782901E+00  (-0.1479897E+00)
 number of electron     559.9999869 magnetization 
 augmentation part      241.8733155 magnetization 

 Broyden mixing:
  rms(total) = 0.21968E+01    rms(broyden)= 0.21965E+01
  rms(prec ) = 0.25767E+01
  weight for this iteration     100.00

 eigenvalues of (default mixing * dielectric matrix)
  average eigenvalue GAMMA=   0.3250
  1.3919  0.3126  0.3126  0.2145  0.1005  0.1005  0.1095  0.0576

 Free energy of the ion-electron system (eV)
  ---------------------------------------------------
  alpha Z        PSCENC =        75.25431677
  Ewald energy   TEWEN  =    139127.43856806
  -Hartree energ DENC   =   -183128.69249936
  -exchange      EXHF   =         0.00000000
  -V(xc)+E(xc)   XCENC  =     -1694.72056989
  PAW double counting   =     46194.14097482   -42679.77085676
  entropy T*S    EENTRO =         0.01570649
  eigenvalues    EBANDS =     -3157.48116189
  atomic energy  EATOM  =     45086.50549395
  Solvation  Ediel_sol  =         0.00000000
  ---------------------------------------------------
  free energy    TOTEN  =      -177.31002782 eV

  energy without entropy =     -177.32573431  energy(sigma->0) =     -177.31395444


--------------------------------------------------------------------------------------------------------




--------------------------------------- Iteration      1(  14)  ---------------------------------------


    POTLOK:  cpu time   13.7129: real time   13.7177
    SETDIJ:  cpu time    0.1226: real time    0.1226
    EDDIAG:  cpu time   69.6848: real time   69.6939
  RMM-DIIS:  cpu time  191.1901: real time  191.1979
    ORTHCH:  cpu time   13.8811: real time   13.8813
       DOS:  cpu time    0.0016: real time    0.0016
    CHARGE:  cpu time   26.4929: real time   26.4943
    MIXING:  cpu time    0.7366: real time    0.7366
    --------------------------------------------
      LOOP:  cpu time  315.8225: real time  315.8459

 eigenvalue-minimisations  :   719
 total energy-change (2. order) :-0.6147508E+00  (-0.1860274E+00)
 number of electron     559.9999844 magnetization 
 augmentation part      241.3829970 magnetization 

 Broyden mixing:
  rms(total) = 0.24612E+01    rms(broyden)= 0.24610E+01
  rms(prec ) = 0.28207E+01
  weight for this iteration     100.00

 eigenvalues of (default mixing * dielectric matrix)
  average eigenvalue GAMMA=   0.3147
  1.4783  0.4107  0.2484  0.2484  0.1088  0.1088  0.0964  0.0736  0.0584

 Free energy of the ion-electron system (eV)
  ---------------------------------------------------
  alpha Z        PSCENC =        75.25431677
  Ewald energy   TEWEN  =    139127.43856806
  -Hartree energ DENC   =   -183173.59913371
  -exchange      EXHF   =         0.00000000
  -V(xc)+E(xc)   XCENC  =     -1694.03552651
  PAW double counting   =     46269.64316944   -42752.14464493
  entropy T*S    EENTRO =        -0.04029868
  eigenvalues    EBANDS =     -3116.94672304
  atomic energy  EATOM  =     45086.50549395
  Solvation  Ediel_sol  =         0.00000000
  ---------------------------------------------------
  free energy    TOTEN  =      -177.92477865 eV

  energy without entropy =     -177.88447997  energy(sigma->0) =     -177.91470398


--------------------------------------------------------------------------------------------------------




--------------------------------------- Iteration      1(  15)  ---------------------------------------


    POTLOK:  cpu time   13.5260: real time   13.5308
    SETDIJ:  cpu time    0.1223: real time    0.1223
    EDDIAG:  cpu time   69.5617: real time   69.5664
  RMM-DIIS:  cpu time  191.0122: real time  191.0263
    ORTHCH:  cpu time   13.9721: real time   13.9723
       DOS:  cpu time    0.0016: real time    0.0016
    CHARGE:  cpu time   26.3776: real time   26.3809
    MIXING:  cpu time    0.8277: real time    0.8277
    --------------------------------------------
      LOOP:  cpu time  315.4012: real time  315.4284

 eigenvalue-minimisations  :   718
 total energy-change (2. order) : 0.1265529E+01  (-0.1297263E+00)
 number of electron     559.9999862 magnetization 
 augmentation part      241.1827700 magnetization 

 Broyden mixing:
  rms(total) = 0.16296E+01    rms(broyden)= 0.16294E+01
  rms(prec ) = 0.18703E+01
  weight for this iteration     100.00

 eigenvalues of (default mixing * dielectric matrix)
  average eigenvalue GAMMA=   0.3100
  1.5689  0.5129  0.2215  0.2215  0.1210  0.1210  0.0933  0.0933  0.0944  0.0522

 Free energy of the ion-electron system (eV)
  ---------------------------------------------------
  alpha Z        PSCENC =        75.25431677
  Ewald energy   TEWEN  =    139127.43856806
  -Hartree energ DENC   =   -183203.13223597
  -exchange      EXHF   =         0.00000000
  -V(xc)+E(xc)   XCENC  =     -1693.64229645
  PAW double counting   =     46312.48203552   -42793.18100042
  entropy T*S    EENTRO =        -0.06191588
  eigenvalues    EBANDS =     -3088.32221565
  atomic energy  EATOM  =     45086.50549395
  Solvation  Ediel_sol  =         0.00000000
  ---------------------------------------------------
  free energy    TOTEN  =      -176.65925007 eV

  energy without entropy =     -176.59733420  energy(sigma->0) =     -176.64377110


--------------------------------------------------------------------------------------------------------




--------------------------------------- Iteration      1(  16)  ---------------------------------------


    POTLOK:  cpu time   13.4621: real time   13.4667
    SETDIJ:  cpu time    0.1242: real time    0.1242
    EDDIAG:  cpu time   69.2853: real time   69.2914
  RMM-DIIS:  cpu time  188.9984: real time  189.0125
    ORTHCH:  cpu time   13.9397: real time   13.9398
       DOS:  cpu time    0.0017: real time    0.0017
    CHARGE:  cpu time   26.5037: real time   26.5040
    MIXING:  cpu time    0.8659: real time    0.8659
    --------------------------------------------
      LOOP:  cpu time  313.1809: real time  313.2063

 eigenvalue-minimisations  :   711
 total energy-change (2. order) : 0.8570260E+00  (-0.1015391E+00)
 number of electron     559.9999856 magnetization 
 augmentation part      241.1072159 magnetization 

 Broyden mixing:
  rms(total) = 0.14396E+01    rms(broyden)= 0.14393E+01
  rms(prec ) = 0.16340E+01
  weight for this iteration     100.00

 eigenvalues of (default mixing * dielectric matrix)
  average eigenvalue GAMMA=   0.3044
  1.6245  0.5773  0.2163  0.2163  0.1746  0.1028  0.1028  0.1182  0.0819  0.0819
  0.0517

 Free energy of the ion-electron system (eV)
  ---------------------------------------------------
  alpha Z        PSCENC =        75.25431677
  Ewald energy   TEWEN  =    139127.43856806
  -Hartree energ DENC   =   -183226.08676985
  -exchange      EXHF   =         0.00000000
  -V(xc)+E(xc)   XCENC  =     -1693.32614007
  PAW double counting   =     46348.28500126   -42827.46295753
  entropy T*S    EENTRO =        -0.01121796
  eigenvalues    EBANDS =     -3066.39851867
  atomic energy  EATOM  =     45086.50549395
  Solvation  Ediel_sol  =         0.00000000
  ---------------------------------------------------
  free energy    TOTEN  =      -175.80222405 eV

  energy without entropy =     -175.79100609  energy(sigma->0) =     -175.79941956


--------------------------------------------------------------------------------------------------------




--------------------------------------- Iteration      1(  17)  ---------------------------------------


    POTLOK:  cpu time   13.5324: real time   13.5368
    SETDIJ:  cpu time    0.1250: real time    0.1250
    EDDIAG:  cpu time   69.0956: real time   69.1035
  RMM-DIIS:  cpu time  190.2569: real time  190.2705
    ORTHCH:  cpu time   13.9508: real time   13.9522
       DOS:  cpu time    0.0017: real time    0.0017
    CHARGE:  cpu time   26.3438: real time   26.3472
    MIXING:  cpu time    0.8789: real time    0.8789
    --------------------------------------------
      LOOP:  cpu time  314.1851: real time  314.2158

 eigenvalue-minimisations  :   715
 total energy-change (2. order) : 0.1006527E+00  (-0.6463601E-01)
 number of electron     559.9999885 magnetization 
 augmentation part      241.0746679 magnetization 

 Broyden mixing:
  rms(total) = 0.13119E+01    rms(broyden)= 0.13116E+01
  rms(prec ) = 0.15882E+01
  weight for this iteration     100.00

 eigenvalues of (default mixing * dielectric matrix)
  average eigenvalue GAMMA=   0.3026
  1.6477  0.6346  0.2709  0.2709  0.1862  0.1114  0.1114  0.1250  0.0814  0.0814
  0.0595  0.0514

 Free energy of the ion-electron system (eV)
  ---------------------------------------------------
  alpha Z        PSCENC =        75.25431677
  Ewald energy   TEWEN  =    139127.43856806
  -Hartree energ DENC   =   -183235.66600147
  -exchange      EXHF   =         0.00000000
  -V(xc)+E(xc)   XCENC  =     -1693.15622423
  PAW double counting   =     46366.39594721   -42844.72148340
  entropy T*S    EENTRO =         0.02416403
  eigenvalues    EBANDS =     -3057.77635231
  atomic energy  EATOM  =     45086.50549395
  Solvation  Ediel_sol  =         0.00000000
  ---------------------------------------------------
  free energy    TOTEN  =      -175.70157140 eV

  energy without entropy =     -175.72573543  energy(sigma->0) =     -175.70761240


--------------------------------------------------------------------------------------------------------




--------------------------------------- Iteration      1(  18)  ---------------------------------------


    POTLOK:  cpu time   13.6206: real time   13.6246
    SETDIJ:  cpu time    0.1263: real time    0.1263
    EDDIAG:  cpu time   69.0782: real time   69.0862
  RMM-DIIS:  cpu time  189.1591: real time  189.1727
    ORTHCH:  cpu time   13.9135: real time   13.9147
       DOS:  cpu time    0.0018: real time    0.0017
    CHARGE:  cpu time   26.1842: real time   26.1876
    MIXING:  cpu time    0.9704: real time    0.9704
    --------------------------------------------
      LOOP:  cpu time  313.0541: real time  313.0842

 eigenvalue-minimisations  :   712
 total energy-change (2. order) : 0.3570966E+00  (-0.3827953E-01)
 number of electron     559.9999877 magnetization 
 augmentation part      241.0754239 magnetization 

 Broyden mixing:
  rms(total) = 0.10971E+01    rms(broyden)= 0.10968E+01
  rms(prec ) = 0.12391E+01
  weight for this iteration     100.00

 eigenvalues of (default mixing * dielectric matrix)
  average eigenvalue GAMMA=   0.3117
  1.7228  0.7509  0.3455  0.3455  0.1537  0.1199  0.1199  0.1152  0.1152  0.0788
  0.0788  0.0531  0.0531

 Free energy of the ion-electron system (eV)
  ---------------------------------------------------
  alpha Z        PSCENC =        75.25431677
  Ewald energy   TEWEN  =    139127.43856806
  -Hartree energ DENC   =   -183245.41861319
  -exchange      EXHF   =         0.00000000
  -V(xc)+E(xc)   XCENC  =     -1693.07046104
  PAW double counting   =     46374.47412952   -42852.29493952
  entropy T*S    EENTRO =         0.02121412
  eigenvalues    EBANDS =     -3048.25418350
  atomic energy  EATOM  =     45086.50549395
  Solvation  Ediel_sol  =         0.00000000
  ---------------------------------------------------
  free energy    TOTEN  =      -175.34447484 eV

  energy without entropy =     -175.36568896  energy(sigma->0) =     -175.34977837


--------------------------------------------------------------------------------------------------------




--------------------------------------- Iteration      1(  19)  ---------------------------------------


    POTLOK:  cpu time   13.7310: real time   13.7355
    SETDIJ:  cpu time    0.1222: real time    0.1222
    EDDIAG:  cpu time   69.2343: real time   69.2365
  RMM-DIIS:  cpu time  185.3943: real time  185.4100
    ORTHCH:  cpu time   13.8626: real time   13.8637
       DOS:  cpu time    0.0017: real time    0.0017
    CHARGE:  cpu time   26.0181: real time   26.0215
    MIXING:  cpu time    1.0299: real time    1.0299
    --------------------------------------------
      LOOP:  cpu time  309.3941: real time  309.4209

 eigenvalue-minimisations  :   697
 total energy-change (2. order) : 0.1450747E+00  (-0.5676040E-01)
 number of electron     559.9999894 magnetization 
 augmentation part      241.2013802 magnetization 

 Broyden mixing:
  rms(total) = 0.10033E+01    rms(broyden)= 0.10031E+01
  rms(prec ) = 0.11702E+01
  weight for this iteration     100.00

 eigenvalues of (default mixing * dielectric matrix)
  average eigenvalue GAMMA=   0.3184
  1.7988  0.8704  0.3851  0.3851  0.1605  0.1605  0.1107  0.1107  0.1044  0.0965
  0.0965  0.0724  0.0543  0.0512

 Free energy of the ion-electron system (eV)
  ---------------------------------------------------
  alpha Z        PSCENC =        75.25431677
  Ewald energy   TEWEN  =    139127.43856806
  -Hartree energ DENC   =   -183259.22792940
  -exchange      EXHF   =         0.00000000
  -V(xc)+E(xc)   XCENC  =     -1692.90100447
  PAW double counting   =     46389.20564853   -42866.07281461
  entropy T*S    EENTRO =         0.02122951
  eigenvalues    EBANDS =     -3035.42290846
  atomic energy  EATOM  =     45086.50549395
  Solvation  Ediel_sol  =         0.00000000
  ---------------------------------------------------
  free energy    TOTEN  =      -175.19940013 eV

  energy without entropy =     -175.22062964  energy(sigma->0) =     -175.20470751


--------------------------------------------------------------------------------------------------------




--------------------------------------- Iteration      1(  20)  ---------------------------------------


    POTLOK:  cpu time   13.8039: real time   13.8085
    SETDIJ:  cpu time    0.1287: real time    0.1287
    EDDIAG:  cpu time   69.2593: real time   69.2693
  RMM-DIIS:  cpu time  188.8399: real time  188.8558
    ORTHCH:  cpu time   13.9744: real time   13.9766
       DOS:  cpu time    0.0017: real time    0.0017
    CHARGE:  cpu time   26.1551: real time   26.1555
    MIXING:  cpu time    1.1382: real time    1.1382
    --------------------------------------------
      LOOP:  cpu time  313.3013: real time  313.3343

 eigenvalue-minimisations  :   710
 total energy-change (2. order) :-0.7010514E-01  (-0.3936552E-01)
 number of electron     559.9999889 magnetization 
 augmentation part      241.2751285 magnetization 

 Broyden mixing:
  rms(total) = 0.11019E+01    rms(broyden)= 0.11017E+01
  rms(prec ) = 0.12731E+01
  weight for this iteration     100.00

 eigenvalues of (default mixing * dielectric matrix)
  average eigenvalue GAMMA=   0.3204
  1.8605  0.9826  0.4000  0.4000  0.1944  0.1944  0.1132  0.1132  0.1086  0.1086
  0.0796  0.0796  0.0668  0.0506  0.0537

 Free energy of the ion-electron system (eV)
  ---------------------------------------------------
  alpha Z        PSCENC =        75.25431677
  Ewald energy   TEWEN  =    139127.43856806
  -Hartree energ DENC   =   -183272.55824199
  -exchange      EXHF   =         0.00000000
  -V(xc)+E(xc)   XCENC  =     -1692.74098724
  PAW double counting   =     46400.55728414   -42876.54901669
  entropy T*S    EENTRO =         0.01891592
  eigenvalues    EBANDS =     -3023.19583817
  atomic energy  EATOM  =     45086.50549395
  Solvation  Ediel_sol  =         0.00000000
  ---------------------------------------------------
  free energy    TOTEN  =      -175.26950527 eV

  energy without entropy =     -175.28842119  energy(sigma->0) =     -175.27423425


--------------------------------------------------------------------------------------------------------




--------------------------------------- Iteration      1(  21)  ---------------------------------------


    POTLOK:  cpu time   13.7767: real time   13.7805
    SETDIJ:  cpu time    0.1268: real time    0.1268
    EDDIAG:  cpu time   69.7253: real time   69.7275
  RMM-DIIS:  cpu time  188.1763: real time  188.1869
    ORTHCH:  cpu time   13.9740: real time   13.9741
       DOS:  cpu time    0.0017: real time    0.0017
    CHARGE:  cpu time   25.6939: real time   25.6963
    MIXING:  cpu time    1.1348: real time    1.1348
    --------------------------------------------
      LOOP:  cpu time  312.6094: real time  312.6286

 eigenvalue-minimisations  :   706
 total energy-change (2. order) : 0.1714500E+00  (-0.2899382E-01)
 number of electron     559.9999869 magnetization 
 augmentation part      241.2484602 magnetization 

 Broyden mixing:
  rms(total) = 0.10438E+01    rms(broyden)= 0.10436E+01
  rms(prec ) = 0.12088E+01
  weight for this iteration     100.00

 eigenvalues of (default mixing * dielectric matrix)
  average eigenvalue GAMMA=   0.3171
  1.9287  1.0062  0.3982  0.3982  0.2368  0.2368  0.1190  0.1190  0.1115  0.1115
  0.0877  0.0773  0.0773  0.0576  0.0576  0.0498

 Free energy of the ion-electron system (eV)
  ---------------------------------------------------
  alpha Z        PSCENC =        75.25431677
  Ewald energy   TEWEN  =    139127.43856806
  -Hartree energ DENC   =   -183288.64313603
  -exchange      EXHF   =         0.00000000
  -V(xc)+E(xc)   XCENC  =     -1692.57432032
  PAW double counting   =     46410.12474723   -42885.33027617
  entropy T*S    EENTRO =         0.02052374
  eigenvalues    EBANDS =     -3007.89397248
  atomic energy  EATOM  =     45086.50549395
  Solvation  Ediel_sol  =         0.00000000
  ---------------------------------------------------
  free energy    TOTEN  =      -175.09805527 eV

  energy without entropy =     -175.11857900  energy(sigma->0) =     -175.10318620


--------------------------------------------------------------------------------------------------------




--------------------------------------- Iteration      1(  22)  ---------------------------------------


    POTLOK:  cpu time   13.7833: real time   13.7871
    SETDIJ:  cpu time    0.1248: real time    0.1248
    EDDIAG:  cpu time   69.3701: real time   69.3748
  RMM-DIIS:  cpu time  185.0160: real time  185.0268
    ORTHCH:  cpu time   14.0440: real time   14.0442
       DOS:  cpu time    0.0018: real time    0.0017
    CHARGE:  cpu time   25.8119: real time   25.8123
    MIXING:  cpu time    1.1935: real time    1.1935
    --------------------------------------------
      LOOP:  cpu time  309.3454: real time  309.3653

 eigenvalue-minimisations  :   694
 total energy-change (2. order) : 0.2927992E+00  (-0.2004444E-01)
 number of electron     559.9999875 magnetization 
 augmentation part      241.2292349 magnetization 

 Broyden mixing:
  rms(total) = 0.62361E+00    rms(broyden)= 0.62341E+00
  rms(prec ) = 0.70510E+00
  weight for this iteration     100.00

 eigenvalues of (default mixing * dielectric matrix)
  average eigenvalue GAMMA=   0.3193
  2.0261  1.0257  0.3378  0.3378  0.3389  0.3389  0.1615  0.1246  0.1246  0.1076
  0.1076  0.0833  0.0764  0.0764  0.0559  0.0559  0.0496

 Free energy of the ion-electron system (eV)
  ---------------------------------------------------
  alpha Z        PSCENC =        75.25431677
  Ewald energy   TEWEN  =    139127.43856806
  -Hartree energ DENC   =   -183299.84932529
  -exchange      EXHF   =         0.00000000
  -V(xc)+E(xc)   XCENC  =     -1692.40919843
  PAW double counting   =     46418.38017363   -42892.92599880
  entropy T*S    EENTRO =        -0.01335478
  eigenvalues    EBANDS =     -2997.18593118
  atomic energy  EATOM  =     45086.50549395
  Solvation  Ediel_sol  =         0.00000000
  ---------------------------------------------------
  free energy    TOTEN  =      -174.80525607 eV

  energy without entropy =     -174.79190129  energy(sigma->0) =     -174.80191737


--------------------------------------------------------------------------------------------------------




--------------------------------------- Iteration      1(  23)  ---------------------------------------


    POTLOK:  cpu time   13.6582: real time   13.6626
    SETDIJ:  cpu time    0.1225: real time    0.1225
    EDDIAG:  cpu time   69.5654: real time   69.5698
  RMM-DIIS:  cpu time  184.3690: real time  184.3924
    ORTHCH:  cpu time   13.9533: real time   13.9555
       DOS:  cpu time    0.0017: real time    0.0017
    CHARGE:  cpu time   25.7351: real time   25.7375
    MIXING:  cpu time    1.2574: real time    1.2575
    --------------------------------------------
      LOOP:  cpu time  308.6626: real time  308.6995

 eigenvalue-minimisations  :   691
 total energy-change (2. order) : 0.1717250E+00  (-0.1808088E-01)
 number of electron     559.9999878 magnetization 
 augmentation part      241.2128756 magnetization 

 Broyden mixing:
  rms(total) = 0.48678E+00    rms(broyden)= 0.48664E+00
  rms(prec ) = 0.55201E+00
  weight for this iteration     100.00

 eigenvalues of (default mixing * dielectric matrix)
  average eigenvalue GAMMA=   0.3296
[...]
 -0.007  -0.012   0.004   0.004   0.006  -0.006  -0.011   0.004
 -0.011  -0.020   0.007   0.007   0.010  -0.011  -0.019   0.006
 -0.015  -0.005   0.013   0.000   0.022  -0.014  -0.005   0.012
  0.000  -0.023  -0.006  -0.015  -0.000   0.000  -0.022  -0.006
 -0.022   0.000   0.009  -0.005  -0.016  -0.021   0.000   0.008
 -0.017  -0.006   0.015   0.000   0.027  -0.017  -0.006   0.015
  0.000  -0.027  -0.007  -0.018   0.000   0.000  -0.027  -0.007
 -0.027   0.000   0.010  -0.006  -0.019  -0.026   0.000   0.010
 total augmentation occupancy for first ion, spin component:           1
  1.540  -0.030   0.005   0.017   0.024   0.075  -0.008  -0.002   0.035  -0.010   0.096  -0.032   0.012   0.002   0.003  -0.019
 -0.030   1.402   0.027   0.069  -0.001  -0.007   0.070   0.011  -0.014  -0.008   0.215  -0.064   0.019   0.002   0.002  -0.006
  0.005   0.027   1.543   0.001   0.005  -0.002   0.013   0.073  -0.012   0.016  -0.055   0.019  -0.003  -0.006  -0.006   0.016
  0.017   0.069   0.001   1.341   0.046   0.033  -0.013  -0.012   0.090  -0.023  -0.084   0.021  -0.001  -0.008  -0.004   0.001
  0.024  -0.001   0.005   0.046   1.442  -0.010  -0.008   0.015  -0.022   0.066  -0.096   0.032  -0.002  -0.010  -0.009   0.026
  0.075  -0.007  -0.002   0.033  -0.010   0.216   0.019  -0.002  -0.045   0.004  -0.049   0.002   0.017  -0.010   0.034  -0.004
 -0.008   0.070   0.013  -0.013  -0.008   0.019   0.262  -0.023  -0.004   0.006  -0.110   0.008  -0.001   0.051  -0.010  -0.000
 -0.002   0.011   0.073  -0.012   0.015  -0.002  -0.023   0.214   0.014  -0.019   0.027  -0.001  -0.012   0.009  -0.017   0.003
  0.035  -0.014  -0.012   0.090  -0.022  -0.045  -0.004   0.014   0.260   0.007   0.044  -0.004  -0.009   0.036   0.004   0.000
 -0.010  -0.008   0.016  -0.023   0.066   0.004   0.006  -0.019   0.007   0.258   0.046  -0.002  -0.038   0.003   0.049   0.007
  0.096   0.215  -0.055  -0.084  -0.096  -0.049  -0.110   0.027   0.044   0.046   0.953  -0.141   0.084   0.014   0.064  -0.013
 -0.032  -0.064   0.019   0.021   0.032   0.002   0.008  -0.001  -0.004  -0.002  -0.141   0.023  -0.014  -0.003  -0.010   0.003
  0.012   0.019  -0.003  -0.001  -0.002   0.017  -0.001  -0.012  -0.009  -0.038   0.084  -0.014   0.029  -0.008  -0.004  -0.003
  0.002   0.002  -0.006  -0.008  -0.010  -0.010   0.051   0.009   0.036   0.003   0.014  -0.003  -0.008   0.036   0.005   0.000
  0.003   0.002  -0.006  -0.004  -0.009   0.034  -0.010  -0.017   0.004   0.049   0.064  -0.010  -0.004   0.005   0.034  -0.000
 -0.019  -0.006   0.016   0.001   0.026  -0.004  -0.000   0.003   0.000   0.007  -0.013   0.003  -0.003   0.000  -0.000   0.001
  0.001  -0.028  -0.007  -0.018   0.001   0.001  -0.008  -0.001  -0.006  -0.000  -0.003   0.001   0.000  -0.003  -0.000   0.000
 -0.028   0.001   0.012  -0.005  -0.020  -0.006   0.001   0.003  -0.001  -0.007  -0.008   0.001  -0.000  -0.000  -0.003   0.000


------------------------ aborting loop because EDIFF is reached ----------------------------------------


    CHARGE:  cpu time   24.6534: real time   24.6531
    FORLOC:  cpu time    6.7649: real time    6.7648
    FORNL :  cpu time   65.7654: real time   65.7795
    STRESS:  cpu time  205.2696: real time  205.2757
    FORCOR:  cpu time   21.8655: real time   21.8676
    FORHAR:  cpu time    9.5367: real time    9.5369
    MIXING:  cpu time    3.4109: real time    3.4110
    OFIELD:  cpu time    0.0000: real time    0.0000

  FORCE on cell =-STRESS in cart. coord.  units (eV):
  Direction    XX          YY          ZZ          XY          YZ          ZX
  --------------------------------------------------------------------------------------
  Alpha Z    75.25432    75.25432    75.25432
  Ewald   45945.65025 47560.97229 45620.71022  1346.80364 -1194.06019 -1132.19417
  Hartree 60693.77693 62313.45565 60470.74706  1250.90501 -1145.60080  -973.87518
  E(xc)   -2906.34276 -2906.25516 -2906.58269     0.46714     0.06843    -0.54967
  Local  ************************************ -2588.18507  2332.38951  2090.69769
  n-local  -871.89168  -888.02656  -881.14323    -3.43735     3.86626    -2.41523
  augment  4098.80017  4106.79836  4103.89320     0.62383    -1.93352     2.47419
  Kinetic  7806.63452  7813.76073  7814.42209    -3.90141     1.79829     9.36687
  Fock        0.00000     0.00000     0.00000     0.00000     0.00000     0.00000
  -------------------------------------------------------------------------------------
  Total    -101.21206  -107.72119  -110.29494     3.27579    -3.47203    -6.49550
  in kB      -6.00591    -6.39216    -6.54489     0.19439    -0.20603    -0.38544
  external pressure =       -6.31 kB  Pullay stress =        0.00 kB


 VOLUME and BASIS-vectors are now :
 -----------------------------------------------------------------------------
  energy-cutoff  :      400.00
  volume of cell :    27000.00
      direct lattice vectors                 reciprocal lattice vectors
    30.000000000  0.000000000  0.000000000     0.033333333  0.000000000  0.000000000
     0.000000000 30.000000000  0.000000000     0.000000000  0.033333333  0.000000000
     0.000000000  0.000000000 30.000000000     0.000000000  0.000000000  0.033333333

  length of vectors
    30.000000000 30.000000000 30.000000000     0.033333333  0.033333333  0.033333333


 FORCES acting on ions
    electron-ion (+dipol)            ewald-force                    non-local-force                 convergence-correction
 -----------------------------------------------------------------------------------------------
   0.398E+03 0.976E+03 0.415E+03   -.395E+03 -.974E+03 -.414E+03   -.150E+01 -.182E+01 -.221E+00   -.288E-02 0.593E-02 -.525E-03
   -.100E+04 -.325E+03 0.399E+03   0.999E+03 0.322E+03 -.398E+03   0.169E+01 0.166E+01 -.297E+00   -.411E-02 -.518E-03 -.112E-03
   -.392E+03 0.979E+03 0.415E+03   0.389E+03 -.976E+03 -.414E+03   0.152E+01 -.180E+01 -.226E+00   -.598E-02 0.292E-02 0.210E-02
   0.982E+03 -.388E+03 0.414E+03   -.979E+03 0.386E+03 -.414E+03   -.180E+01 0.150E+01 -.227E+00   0.986E-02 -.156E-02 -.124E-01
   0.502E+01 0.597E+03 0.965E+03   -.502E+01 -.597E+03 -.962E+03   0.988E-02 -.304E+00 -.234E+01   -.896E-02 0.745E-02 0.415E-03
   0.216E+01 0.590E+03 -.968E+03   -.214E+01 -.589E+03 0.964E+03   -.794E-02 -.323E+00 0.236E+01   -.427E-02 -.250E-02 -.123E-02
   0.210E+01 0.114E+04 -.208E+01   -.209E+01 -.113E+04 0.207E+01   -.390E-02 -.311E+01 0.614E-02   -.396E-02 0.314E-02 -.251E-02
   0.114E+04 0.380E+01 -.249E+01   -.113E+04 -.381E+01 0.250E+01   -.312E+01 0.144E-02 -.154E-02   0.468E-02 -.142E-02 -.880E-02
   -.114E+04 0.196E+02 -.126E+02   0.114E+04 -.196E+02 0.126E+02   0.312E+01 0.197E-02 0.249E-01   -.109E-02 0.128E-02 -.663E-02
   0.370E+02 -.115E+04 -.368E+02   -.371E+02 0.114E+04 0.367E+02   0.564E-01 0.329E+01 0.108E+00   -.422E-02 -.336E-03 -.154E-01
   -.577E+03 0.593E+03 0.814E+03   0.575E+03 -.591E+03 -.811E+03   0.154E+01 -.157E+01 -.217E+01   -.400E-02 0.685E-03 -.495E-03
   -.577E+03 0.583E+03 -.817E+03   0.575E+03 -.581E+03 0.814E+03   0.156E+01 -.156E+01 0.220E+01   -.545E-02 -.470E-02 0.147E-02
   0.601E+03 -.570E+03 0.816E+03   -.599E+03 0.568E+03 -.813E+03   -.164E+01 0.156E+01 -.218E+01   0.537E-02 -.961E-02 0.548E-02
   0.584E+03 -.575E+03 -.819E+03   -.582E+03 0.573E+03 0.816E+03   -.156E+01 0.156E+01 0.220E+01   -.105E-01 -.386E-02 0.151E-02
   0.583E+03 0.584E+03 0.813E+03   -.581E+03 -.582E+03 -.809E+03   -.156E+01 -.155E+01 -.220E+01   0.169E-02 0.968E-02 0.172E-02
   0.580E+03 0.581E+03 -.815E+03   -.578E+03 -.578E+03 0.811E+03   -.156E+01 -.157E+01 0.219E+01   -.949E-03 -.292E-03 -.312E-02
   -.570E+03 -.388E+03 0.942E+03   0.568E+03 0.387E+03 -.937E+03   0.134E+01 0.233E+00 -.331E+01   -.101E-01 0.399E-03 0.593E-05
   -.577E+03 -.573E+03 -.829E+03   0.575E+03 0.571E+03 0.826E+03   0.156E+01 0.156E+01 0.220E+01   0.848E-02 -.330E-02 -.139E-02
   0.396E+03 0.974E+03 -.419E+03   -.394E+03 -.971E+03 0.418E+03   -.153E+01 -.182E+01 0.224E+00   -.228E-02 0.248E-02 -.277E-02
   -.976E+03 -.380E+03 -.437E+03   0.973E+03 0.378E+03 0.436E+03   0.186E+01 0.149E+01 0.259E+00   0.426E-02 -.233E-02 -.108E-01
   -.315E+03 0.344E+03 0.449E+03   0.315E+03 -.344E+03 -.450E+03   -.379E+00 0.274E+00 0.523E+00   -.993E-02 0.616E-02 0.223E-02
   0.977E+03 0.400E+03 0.415E+03   -.974E+03 -.397E+03 -.414E+03   -.182E+01 -.149E+01 -.232E+00   0.767E-02 0.828E-02 -.690E-02
   -.878E+02 -.961E+03 0.272E+03   0.901E+02 0.957E+03 -.272E+03   -.850E+01 0.256E+01 0.316E+01   -.104E-01 -.640E-02 -.887E-02
   -.392E+03 0.976E+03 -.420E+03   0.390E+03 -.973E+03 0.419E+03   0.151E+01 -.183E+01 0.228E+00   -.490E-02 0.253E-02 -.382E-02
   0.977E+03 -.390E+03 -.421E+03   -.974E+03 0.388E+03 0.420E+03   -.182E+01 0.152E+01 0.221E+00   -.400E-02 -.867E-02 -.625E-02
   -.976E+03 0.418E+03 0.412E+03   0.973E+03 -.415E+03 -.412E+03   0.182E+01 -.156E+01 -.229E+00   -.186E-02 0.118E-02 0.353E-02
   0.444E+03 -.968E+03 0.407E+03   -.442E+03 0.965E+03 -.406E+03   -.172E+01 0.187E+01 -.292E+00   -.130E-02 -.102E-01 -.115E-01
   0.330E+03 0.333E+03 0.451E+03   -.331E+03 -.334E+03 -.451E+03   0.378E+00 0.380E+00 0.514E+00   -.311E-02 0.901E-02 -.690E-02
   0.434E+01 0.648E+03 -.428E+01   -.434E+01 -.649E+03 0.429E+01   -.358E-02 0.744E+00 -.774E-02   -.392E-02 0.370E-02 -.436E-02
   -.586E+03 0.430E+02 0.975E+03   0.585E+03 -.432E+02 -.971E+03   0.367E+00 -.857E-02 -.234E+01   -.900E-02 0.476E-02 0.149E-02
   -.586E+03 0.722E+01 -.974E+03   0.585E+03 -.720E+01 0.970E+03   0.310E+00 -.332E-02 0.235E+01   -.103E-02 -.820E-02 -.881E-03
   0.598E+03 0.976E+01 0.966E+03   -.597E+03 -.977E+01 -.962E+03   -.322E+00 -.491E-03 -.233E+01   0.444E-02 0.788E-02 0.466E-02
   0.590E+03 0.370E+01 -.969E+03   -.589E+03 -.368E+01 0.965E+03   -.331E+00 -.250E-02 0.236E+01   -.518E-02 -.119E-01 -.622E-03
   0.764E+03 0.765E+03 -.263E+01   -.762E+03 -.763E+03 0.261E+01   -.114E+01 -.116E+01 0.181E-01   0.120E-02 0.244E-02 -.447E-02
   -.761E+03 -.716E+03 -.816E+02   0.760E+03 0.714E+03 0.818E+02   0.104E+01 0.120E+01 -.233E+00   -.218E-02 -.617E-02 -.123E-01
   -.759E+03 0.772E+03 -.517E+01   0.757E+03 -.770E+03 0.519E+01   0.115E+01 -.114E+01 -.118E-01   -.476E-02 0.135E-02 -.451E-02
   0.777E+03 -.754E+03 -.895E+01   -.775E+03 0.752E+03 0.898E+01   -.119E+01 0.113E+01 -.538E-02   0.343E-03 -.476E-02 -.218E-01
   0.166E+02 0.256E+02 0.108E+04   -.166E+02 -.256E+02 -.107E+04   -.310E-01 -.985E-02 -.164E+01   -.135E-01 0.735E-02 0.327E-02
   0.376E+01 0.572E+01 -.108E+04   -.377E+01 -.572E+01 0.107E+04   0.986E-02 0.111E-01 0.161E+01   -.413E-02 -.145E-01 -.226E-02
   0.975E+03 0.398E+03 -.419E+03   -.972E+03 -.395E+03 0.419E+03   -.182E+01 -.152E+01 0.234E+00   0.638E-03 -.503E-02 -.262E-02
   -.383E+03 -.969E+03 -.449E+03   0.381E+03 0.966E+03 0.449E+03   0.150E+01 0.184E+01 0.236E+00   0.486E-03 0.554E-02 -.155E-01
   -.318E+03 0.331E+03 -.461E+03   0.318E+03 -.332E+03 0.462E+03   -.361E+00 0.379E+00 -.529E+00   -.688E-02 -.308E-02 -.102E-01
   0.347E+03 -.301E+03 0.447E+03   -.348E+03 0.302E+03 -.448E+03   0.325E+00 -.414E+00 0.540E+00   -.347E-02 -.108E-02 -.152E-01
   0.326E+03 0.328E+03 -.458E+03   -.326E+03 -.328E+03 0.459E+03   0.352E+00 0.348E+00 -.518E+00   -.238E-02 -.594E-02 -.635E-02
   -.973E+03 0.404E+03 -.425E+03   0.970E+03 -.402E+03 0.424E+03   0.181E+01 -.150E+01 0.212E+00   -.351E-02 -.790E-03 -.798E-02
   0.408E+03 -.969E+03 -.432E+03   -.406E+03 0.966E+03 0.431E+03   -.149E+01 0.184E+01 0.227E+00   -.610E-02 0.585E-02 -.143E-01
   -.286E+03 -.247E+03 0.434E+03   0.286E+03 0.247E+03 -.434E+03   -.147E+00 0.180E+00 0.409E+00   -.136E-01 -.269E-03 -.564E-02
   0.648E+03 0.818E+01 -.528E+01   -.649E+03 -.821E+01 0.532E+01   0.742E+00 0.237E-01 -.180E-01   0.166E-02 -.299E-02 -.161E-01
   -.638E+03 0.284E+02 -.182E+02   0.639E+03 -.284E+02 0.182E+02   -.712E+00 -.102E-01 -.313E-02   -.697E-02 -.130E-02 -.838E-02
   0.663E+02 -.550E+03 0.990E+03   -.668E+02 0.549E+03 -.987E+03   0.312E+00 0.458E+00 -.221E+01   -.104E-01 -.640E-02 0.383E-02
   0.604E+01 -.582E+03 -.977E+03   -.601E+01 0.582E+03 0.973E+03   -.126E-01 0.306E+00 0.236E+01   -.465E-02 -.329E-02 0.880E-03
   0.124E+02 0.190E+02 -.122E+02   -.123E+02 -.190E+02 0.122E+02   -.124E-01 -.191E-01 0.127E-01   -.200E-02 -.200E-02 -.134E-01
   0.331E+03 -.313E+03 -.464E+03   -.331E+03 0.313E+03 0.465E+03   0.369E+00 -.370E+00 -.526E+00   -.209E-02 -.126E-01 -.152E-01
   -.314E+03 -.307E+03 -.474E+03   0.314E+03 0.307E+03 0.475E+03   -.393E+00 -.377E+00 -.494E+00   -.856E-03 -.143E-01 -.195E-01
   0.340E+02 -.619E+03 -.336E+02   -.341E+02 0.620E+03 0.337E+02   0.101E+00 -.806E+00 -.586E-02   -.426E-02 -.690E-02 -.230E-01
   -.245E+03 -.181E+03 0.779E+02   0.239E+03 0.165E+03 -.698E+02   0.645E+01 0.103E+02 -.799E+01   -.300E-02 -.167E-02 -.224E-02
   -.479E+03 -.677E+03 0.364E+03   0.512E+03 0.727E+03 -.395E+03   -.270E+02 -.434E+02 0.274E+02   -.313E-02 -.207E-02 -.200E-02
 -----------------------------------------------------------------------------------------------
   0.308E+02 0.330E+02 -.213E+02   0.568E-12 -.682E-12 -.227E-11   -.307E+02 -.329E+02 0.216E+02   -.170E+00 -.711E-01 -.307E+00
 
 
 POSITION                                       TOTAL-FORCE (eV/Angst)
 -----------------------------------------------------------------------------------
     13.37281      9.84801     12.50759         0.701681      1.105955      0.288721
     20.15199     16.62719     12.50759        -1.051800     -0.805033      0.328968
     16.62719      9.84801     12.50759        -0.715005      1.095142      0.296240
      9.84801     16.62719     12.50759         1.106246     -0.709419      0.297293
     15.00000     11.47521     10.20639        -0.003338      0.415394      1.285118
     15.00000     11.47521     19.79360         0.007643      0.417901     -1.277388
     15.00000      8.28283     15.00000         0.002582      1.514240     -0.004547
      8.28283     15.00000     15.00000         1.515003     -0.000268      0.000289
     21.71717     15.00000     15.00000        -1.517344     -0.001173     -0.005881
     15.00000     21.71717     15.00000        -0.050014     -1.475585      0.029657
     18.35858     11.64142     10.25025        -0.753605      0.754438      1.053917
     18.35858     11.64142     19.74975        -0.753415      0.753387     -1.068819
     11.64142     18.35858     10.25025         0.793467     -0.753732      1.044598
     11.64142     18.35858     19.74975         0.753758     -0.754286     -1.070514
     11.64142     11.64142     10.25025         0.757882      0.754729      1.072669
     11.64142     11.64142     19.74975         0.753587      0.761423     -1.063006
     18.35858     18.35858     10.25025        -0.712182     -0.466345      1.576435
     18.35858     18.35858     19.74975        -0.755917     -0.756240     -1.072206
     13.37281      9.84801     17.49241         0.713171      1.098253     -0.295708
     20.15199     16.62719     17.49241        -1.106602     -0.702271     -0.288440
     16.73751     13.26249     12.54279         0.105289     -0.098372     -0.152977
      9.84801     13.37281     12.50759         1.108750      0.699822      0.294042
     16.62719     20.15199     12.50759        -6.205727     -1.068950      3.172184
     16.62719      9.84801     17.49241        -0.702104      1.100558     -0.290417
      9.84801     16.62719     17.49241         1.104236     -0.707722     -0.288588
     20.15199     13.37281     12.50759        -1.097862      0.730876      0.287045
     13.37281     20.15199     12.50759         0.627619     -1.088347      0.318375
     13.26249     13.26249     12.54279        -0.108567     -0.111467     -0.160210
     15.00000     11.52498     15.00000         0.000603     -0.224518     -0.003177
     18.52479     15.00000     10.20639        -0.390074     -0.114014      1.296328
     18.52479     15.00000     19.79360        -0.417368      0.004357     -1.278568
     11.47521     15.00000     10.20640         0.418142     -0.002541      1.282022
     11.47521     15.00000     19.79360         0.418728      0.008815     -1.278633
     11.49535     11.49535     15.00000         0.825681      0.832590     -0.010143
     18.50465     18.50465     15.00000        -0.784370     -0.803366      0.008602
     18.50465     11.49535     15.00000        -0.830782      0.833240      0.003714
     11.49535     18.50465     15.00000         0.838625     -0.824790     -0.002061
     15.00000     15.00000     10.04368        -0.004911     -0.016596      1.182711
     15.00000     15.00000     19.95633        -0.000912     -0.004825     -1.172413
      9.84801     13.37281     17.49241         1.098887      0.709586     -0.300977
     16.62719     20.15199     17.49241        -0.708336     -1.114937     -0.271862
     16.73751     13.26249     17.45721         0.099935     -0.100945      0.155424
     13.26249     16.73751     12.54279        -0.107446      0.114538     -0.149993
     13.26249     13.26249     17.45721        -0.107915     -0.106707      0.158434
     20.15199     13.37281     17.49241        -1.104973      0.703217     -0.288396
     13.37281     20.15199     17.49241         0.700346     -1.103084     -0.295863
     16.73751     16.73751     12.54279         0.034159     -0.067870     -0.099635
     11.52498     15.00000     15.00000        -0.229597     -0.008805      0.005523
     18.47502     15.00000     15.00000         0.230812     -0.017160     -0.000496
     15.00000     18.52480     10.20639        -0.188921     -0.415605      1.232864
     15.00000     18.52480     19.79360         0.007524     -0.413671     -1.281988
     15.00000     15.00000     15.00000         0.004839      0.008264     -0.020665
     13.26249     16.73751     17.45721        -0.117202      0.095022      0.166337
     16.73751     16.73751     17.45721         0.110065      0.111372      0.155804
     15.00000     18.47502     15.00000        -0.054310      0.213541      0.035449
     18.17934     19.93887     11.85854         0.452059     -6.112099      0.109832
     18.71774     20.77523     11.32656         5.289278      6.114083     -3.645028
 -----------------------------------------------------------------------------------
    total drift:                               -0.004636      0.004106      0.009340


--------------------------------------------------------------------------------------------------------



  FREE ENERGIE OF THE ION-ELECTRON SYSTEM (eV)
  ---------------------------------------------------
  free  energy   TOTEN  =      -174.42829001 eV

  energy  without entropy=     -174.38461231  energy(sigma->0) =     -174.41737059
 


--------------------------------------------------------------------------------------------------------


    POTLOK:  cpu time   13.8475: real time   13.8481


--------------------------------------------------------------------------------------------------------


     LOOP+:  cpu time18531.4484: real time18532.8111
    4ORBIT:  cpu time    0.0000: real time    0.0000

 total amount of memory used by VASP MPI-rank0  5486941. kBytes
=======================================================================

   base      :      30000. kBytes
   nonlr-proj:      17126. kBytes
   fftplans  :     924480. kBytes
   grid      :    1872000. kBytes
   one-center:        886. kBytes
   wavefun   :    2642449. kBytes
 
  
  
 General timing and accounting informations for this job:
 ========================================================
  
                  Total CPU time used (sec):    18605.125
                            User time (sec):    17579.603
                          System time (sec):     1025.522
                         Elapsed time (sec):    18606.615
  
                   Maximum memory used (kb):     7178420.
                   Average memory used (kb):           0.
  
                          Minor page faults:    827598041
                          Major page faults:            0
                 Voluntary context switches:          640
