  57  57   0   0
  0.4736842E+03  0.3000000E-08  0.3000000E-08  0.3000000E-08  0.5000000E-15
  1.000000000000000E-004
  CAR 
 6_Pd100_top_free_z(O)                   
      1.39356829    -30.91609851  301     -4.14509780      1.00000000
    -30.916  0.0000E+00  0.0000E+00
    -30.808  0.0000E+00  0.0000E+00
    -30.701  0.0000E+00  0.0000E+00
    -30.593  0.4320E-27  0.4653E-28
    -30.485  0.2195E-23  0.2364E-24
    -30.378  0.6146E-20  0.6622E-21
    -30.270  0.9455E-17  0.1019E-17
    -30.162  0.7963E-14  0.8586E-15
    -30.055  0.3659E-11  0.3949E-12
    -29.947  0.9085E-09  0.9824E-10
    -29.839  0.1207E-06  0.1310E-07
    -29.731  0.8448E-05  0.9229E-06
    -29.624  0.3026E-03  0.3351E-04
    -29.516  0.5239E-02  0.5977E-03
    -29.408  0.3769E-01  0.4657E-02
    -29.301  0.4210E-01  0.9191E-02
    -29.193 -0.4640E+00 -0.4078E-01
    -29.085 -0.4869E+00 -0.9322E-01
    -28.978  0.4539E+01  0.3956E+00
    -28.870  0.9974E+01  0.1470E+01
    -28.762  0.5599E+01  0.2073E+01
    -28.654 -0.1664E+00  0.2055E+01
    -28.547 -0.5790E+00  0.1993E+01
    -28.439  0.1625E-01  0.1994E+01
    -28.331  0.4532E-01  0.1999E+01
    -28.224  0.7333E-02  0.2000E+01
    -28.116  0.4730E-03  0.2000E+01
    -28.008  0.1456E-04  0.2000E+01
    -27.901  0.2281E-06  0.2000E+01
    -27.793  0.1877E-08  0.2000E+01
    -27.685  0.8249E-11  0.2000E+01
    -27.577  0.1856E-13  0.2000E+01
    -27.470  0.0000E+00  0.2000E+01
    -27.362  0.0000E+00  0.2000E+01
    -27.254  0.0000E+00  0.2000E+01
    -27.147  0.0000E+00  0.2000E+01
    -27.039  0.0000E+00  0.2000E+01
    -26.931  0.0000E+00  0.2000E+01
    -26.824  0.0000E+00  0.2000E+01
    -26.716  0.0000E+00  0.2000E+01
    -26.608  0.0000E+00  0.2000E+01
    -26.500  0.0000E+00  0.2000E+01
    -26.393  0.0000E+00  0.2000E+01
    -26.285  0.0000E+00  0.2000E+01
    -26.177  0.0000E+00  0.2000E+01
    -26.070  0.0000E+00  0.2000E+01
    -25.962  0.0000E+00  0.2000E+01
    -25.854  0.0000E+00  0.2000E+01
    -25.747  0.0000E+00  0.2000E+01
    -25.639  0.0000E+00  0.2000E+01
    -25.531  0.0000E+00  0.2000E+01
    -25.423  0.0000E+00  0.2000E+01
    -25.316  0.0000E+00  0.2000E+01
    -25.208  0.0000E+00  0.2000E+01
    -25.100  0.0000E+00  0.2000E+01
    -24.993  0.0000E+00  0.2000E+01
    -24.885  0.0000E+00  0.2000E+01
    -24.777  0.0000E+00  0.2000E+01
    -24.670  0.0000E+00  0.2000E+01
    -24.562  0.0000E+00  0.2000E+01
    -24.454  0.0000E+00  0.2000E+01
    -24.346  0.0000E+00  0.2000E+01
    -24.239  0.0000E+00  0.2000E+01
    -24.131  0.0000E+00  0.2000E+01
    -24.023  0.0000E+00  0.2000E+01
    -23.916  0.0000E+00  0.2000E+01
    -23.808  0.0000E+00  0.2000E+01
    -23.700  0.0000E+00  0.2000E+01
    -23.593  0.0000E+00  0.2000E+01
    -23.485  0.0000E+00  0.2000E+01
    -23.377  0.0000E+00  0.2000E+01
    -23.269  0.0000E+00  0.2000E+01
    -23.162  0.0000E+00  0.2000E+01
    -23.054  0.0000E+00  0.2000E+01
    -22.946  0.0000E+00  0.2000E+01
    -22.839  0.0000E+00  0.2000E+01
    -22.731  0.0000E+00  0.2000E+01
    -22.623  0.0000E+00  0.2000E+01
    -22.516  0.0000E+00  0.2000E+01
    -22.408  0.0000E+00  0.2000E+01
    -22.300  0.0000E+00  0.2000E+01
    -22.192  0.0000E+00  0.2000E+01
    -22.085  0.0000E+00  0.2000E+01
    -21.977  0.0000E+00  0.2000E+01
    -21.869  0.0000E+00  0.2000E+01
    -21.762  0.0000E+00  0.2000E+01
    -21.654  0.0000E+00  0.2000E+01
    -21.546  0.0000E+00  0.2000E+01
    -21.439  0.0000E+00  0.2000E+01
    -21.331  0.0000E+00  0.2000E+01
    -21.223  0.0000E+00  0.2000E+01
    -21.115  0.0000E+00  0.2000E+01
    -21.008  0.0000E+00  0.2000E+01
    -20.900  0.0000E+00  0.2000E+01
    -20.792  0.0000E+00  0.2000E+01
    -20.685  0.0000E+00  0.2000E+01
    -20.577  0.0000E+00  0.2000E+01
    -20.469  0.0000E+00  0.2000E+01
    -20.362  0.0000E+00  0.2000E+01
    -20.254  0.0000E+00  0.2000E+01
    -20.146  0.0000E+00  0.2000E+01
    -20.039  0.0000E+00  0.2000E+01
    -19.931  0.0000E+00  0.2000E+01
    -19.823  0.0000E+00  0.2000E+01
    -19.715  0.0000E+00  0.2000E+01
    -19.608  0.0000E+00  0.2000E+01
    -19.500  0.0000E+00  0.2000E+01
    -19.392  0.0000E+00  0.2000E+01
    -19.285  0.0000E+00  0.2000E+01
    -19.177  0.0000E+00  0.2000E+01
    -19.069  0.0000E+00  0.2000E+01
    -18.962  0.0000E+00  0.2000E+01
    -18.854  0.0000E+00  0.2000E+01
    -18.746  0.0000E+00  0.2000E+01
    -18.638  0.0000E+00  0.2000E+01
    -18.531  0.0000E+00  0.2000E+01
    -18.423  0.0000E+00  0.2000E+01
    -18.315  0.0000E+00  0.2000E+01
    -18.208  0.0000E+00  0.2000E+01
    -18.100  0.0000E+00  0.2000E+01
    -17.992  0.0000E+00  0.2000E+01
    -17.885  0.0000E+00  0.2000E+01
    -17.777  0.0000E+00  0.2000E+01
    -17.669  0.0000E+00  0.2000E+01
    -17.561  0.0000E+00  0.2000E+01
    -17.454  0.0000E+00  0.2000E+01
    -17.346  0.0000E+00  0.2000E+01
    -17.238  0.0000E+00  0.2000E+01
    -17.131  0.0000E+00  0.2000E+01
    -17.023  0.0000E+00  0.2000E+01
    -16.915  0.0000E+00  0.2000E+01
    -16.808  0.0000E+00  0.2000E+01
    -16.700  0.0000E+00  0.2000E+01
    -16.592  0.0000E+00  0.2000E+01
    -16.484  0.0000E+00  0.2000E+01
    -16.377  0.0000E+00  0.2000E+01
    -16.269  0.0000E+00  0.2000E+01
    -16.161  0.0000E+00  0.2000E+01
    -16.054  0.0000E+00  0.2000E+01
    -15.946  0.0000E+00  0.2000E+01
    -15.838  0.0000E+00  0.2000E+01
    -15.731  0.0000E+00  0.2000E+01
    -15.623  0.0000E+00  0.2000E+01
    -15.515  0.0000E+00  0.2000E+01
    -15.407  0.0000E+00  0.2000E+01
    -15.300  0.0000E+00  0.2000E+01
    -15.192  0.1103E-27  0.2000E+01
    -15.084  0.6142E-24  0.2000E+01
    -14.977  0.1885E-20  0.2000E+01
    -14.869  0.3181E-17  0.2000E+01
    -14.761  0.2940E-14  0.2000E+01
    -14.654  0.1484E-11  0.2000E+01
    -14.546  0.4051E-09  0.2000E+01
    -14.438  0.5931E-07  0.2000E+01
    -14.330  0.4587E-05  0.2000E+01
    -14.223  0.1826E-03  0.2000E+01
    -14.115  0.3557E-02  0.2000E+01
    -14.007  0.2987E-01  0.2004E+01
    -13.900  0.5791E-01  0.2010E+01
    -13.792 -0.3407E+00  0.1973E+01
    -13.684 -0.7035E+00  0.1897E+01
    -13.577  0.3414E+01  0.2265E+01
    -13.469  0.9694E+01  0.3309E+01
    -13.361  0.6739E+01  0.4035E+01
    -13.253  0.3337E+00  0.4071E+01
    -13.146 -0.6942E+00  0.3996E+01
    -13.038 -0.2742E-01  0.3993E+01
    -12.930  0.5346E-01  0.3999E+01
    -12.823  0.1038E-01  0.4000E+01
    -12.715  0.7583E-03  0.4000E+01
    -12.607  0.2601E-04  0.4000E+01
    -12.500  0.4511E-06  0.4000E+01
    -12.392  0.4117E-08  0.4000E+01
    -12.284  0.5507E-08  0.4000E+01
    -12.176  0.6254E-06  0.4000E+01
    -12.069  0.3749E-04  0.4000E+01
    -11.961  0.1145E-02  0.4000E+01
    -11.853  0.1666E-01  0.4002E+01
    -11.746  0.9499E-01  0.4012E+01
    -11.638  0.2112E-02  0.4012E+01
    -11.530 -0.1216E+01  0.3881E+01
    -11.423  0.3327E-02  0.3882E+01
    -11.315  0.1182E+02  0.5154E+01
    -11.207  0.1968E+02  0.7274E+01
    -11.100  0.8473E+01  0.8187E+01
    -10.992 -0.1042E+01  0.8074E+01
    -10.884 -0.8616E+00  0.7982E+01
    -10.776  0.8824E-01  0.7991E+01
    -10.669  0.7130E-01  0.7999E+01
    -10.561  0.9778E-02  0.8000E+01
    -10.453  0.5771E-03  0.8000E+01
    -10.346  0.4730E-03  0.8000E+01
    -10.238  0.7150E-02  0.8001E+01
    -10.130  0.4472E-01  0.8006E+01
    -10.023  0.1869E-01  0.8008E+01
     -9.915 -0.5702E+00  0.7946E+01
     -9.807 -0.1956E+00  0.7925E+01
     -9.699  0.5518E+01  0.8519E+01
     -9.592  0.9983E+01  0.9595E+01
     -9.484  0.4620E+01  0.1009E+02
     -9.376 -0.4666E+00  0.1004E+02
     -9.269 -0.4729E+00  0.9991E+01
     -9.161  0.4053E-01  0.9995E+01
     -9.053  0.3827E-01  0.9999E+01
     -8.946  0.5379E-02  0.1000E+02
     -8.838  0.3133E-03  0.1000E+02
     -8.730  0.8814E-05  0.1000E+02
     -8.622  0.1269E-06  0.1000E+02
     -8.515  0.9611E-09  0.1000E+02
     -8.407  0.3899E-11  0.1000E+02
     -8.299  0.8247E-14  0.1000E+02
     -8.192  0.8291E-23  0.1000E+02
     -8.084  0.2107E-19  0.1000E+02
     -7.976  0.2940E-16  0.1000E+02
     -7.869  0.2244E-13  0.1000E+02
     -7.761  0.9341E-11  0.1000E+02
     -7.653  0.2097E-08  0.1000E+02
     -7.545  0.2514E-06  0.1000E+02
     -7.438  0.1582E-04  0.1000E+02
     -7.330  0.5061E-03  0.1000E+02
     -7.222  0.7713E-02  0.1000E+02
     -7.115  0.4650E-01  0.1001E+02
     -7.007  0.1112E-01  0.1001E+02
     -6.899 -0.5962E+00  0.9943E+01
     -6.792 -0.1029E+00  0.9932E+01
     -6.684  0.5797E+01  0.1056E+02
     -6.576  0.1012E+02  0.1165E+02
     -6.468  0.4258E+01  0.1210E+02
     -6.361 -0.2611E+01  0.1182E+02
     -6.253  0.1250E+01  0.1196E+02
     -6.145  0.2109E+02  0.1423E+02
     -6.038  0.2680E+02  0.1711E+02
     -5.930  0.9633E+01  0.1815E+02
     -5.822  0.1830E+02  0.2012E+02
     -5.715  0.5795E+02  0.2636E+02
     -5.607  0.1363E+03  0.4104E+02
     -5.499  0.2585E+03  0.6888E+02
     -5.391  0.3055E+03  0.1018E+03
     -5.284  0.2382E+03  0.1274E+03
     -5.176  0.2124E+03  0.1503E+03
     -5.068  0.2912E+03  0.1817E+03
     -4.961  0.3633E+03  0.2208E+03
     -4.853  0.3302E+03  0.2564E+03
     -4.745  0.3000E+03  0.2887E+03
     -4.638  0.3759E+03  0.3292E+03
     -4.530  0.4261E+03  0.3750E+03
     -4.422  0.4219E+03  0.4205E+03
     -4.314  0.5041E+03  0.4748E+03
     -4.207  0.5534E+03  0.5344E+03
     -4.099  0.3496E+03  0.5720E+03
     -3.991  0.8405E+02  0.5811E+03
     -3.884  0.6131E+01  0.5817E+03
     -3.776  0.2899E+02  0.5849E+03
     -3.668  0.2384E+02  0.5874E+03
     -3.561  0.1274E+02  0.5888E+03
     -3.453  0.2531E+02  0.5915E+03
     -3.345  0.2084E+02  0.5938E+03
     -3.237 -0.6127E+00  0.5937E+03
     -3.130  0.9849E+01  0.5948E+03
     -3.022  0.5121E+02  0.6003E+03
     -2.914  0.6057E+02  0.6068E+03
     -2.807  0.2773E+02  0.6098E+03
     -2.699  0.1678E+01  0.6100E+03
     -2.591  0.6222E+01  0.6106E+03
     -2.484  0.2534E+02  0.6134E+03
     -2.376  0.2776E+02  0.6164E+03
     -2.268  0.1931E+02  0.6184E+03
     -2.160  0.2029E+02  0.6206E+03
     -2.053  0.3194E+02  0.6241E+03
     -1.945  0.3831E+02  0.6282E+03
     -1.837  0.3767E+02  0.6323E+03
     -1.730  0.3717E+02  0.6363E+03
     -1.622  0.3869E+02  0.6404E+03
     -1.514  0.3750E+02  0.6445E+03
     -1.407  0.2818E+02  0.6475E+03
     -1.299  0.2263E+02  0.6499E+03
     -1.191  0.2490E+02  0.6526E+03
     -1.084  0.2510E+02  0.6553E+03
     -0.976  0.3910E+02  0.6595E+03
     -0.868  0.5566E+02  0.6655E+03
     -0.760  0.3693E+02  0.6695E+03
     -0.653  0.1252E+02  0.6708E+03
     -0.545  0.7433E+01  0.6716E+03
     -0.437  0.3793E+01  0.6721E+03
     -0.330 -0.2581E+00  0.6720E+03
     -0.222 -0.3638E+00  0.6720E+03
     -0.114  0.5478E-01  0.6720E+03
     -0.007  0.3841E-01  0.6720E+03
      0.101  0.5259E-02  0.6720E+03
      0.209  0.3029E-03  0.6720E+03
      0.317  0.8450E-05  0.6720E+03
      0.424  0.1207E-06  0.6720E+03
      0.532  0.9085E-09  0.6720E+03
      0.640  0.3660E-11  0.6720E+03
      0.747  0.8247E-14  0.6720E+03
      0.855  0.0000E+00  0.6720E+03
      0.963  0.0000E+00  0.6720E+03
      1.070  0.0000E+00  0.6720E+03
      1.178  0.0000E+00  0.6720E+03
      1.286  0.0000E+00  0.6720E+03
      1.394  0.0000E+00  0.6720E+03
