   57   57    1    1
  0.4736842E+03  0.3000000E-08  0.3000000E-08  0.3000000E-08  0.5000000E-15
  1.000000000000000E-004
  CAR 
 6_Pd100_top_free_z(O)                   
    560      1    336
 
  0.0000000E+00  0.0000000E+00  0.0000000E+00  0.1000000E+01
    1      -28.098837   1.000000
    2      -13.610112   1.000000
    3      -11.431884   1.000000
    4      -10.990841   1.000000
    5      -10.653778   1.000000
    6       -6.773825   1.000000
    7       -6.732928   1.000000
    8       -6.618430   1.000000
    9       -6.202234   1.000000
   10       -6.137823   1.000000
   11       -6.128309   1.000000
   12       -5.905918   1.000000
   13       -5.894656   1.000000
   14       -5.883285   1.000000
   15       -5.806654   1.000000
   16       -5.788648   1.000000
   17       -5.767583   1.000000
   18       -5.739075   1.000000
   19       -5.692469   1.000000
   20       -5.685346   1.000000
   21       -5.680466   1.000000
   22       -5.679361   1.000000
   23       -5.609957   1.000000
   24       -5.603516   1.000000
   25       -5.596912   1.000000
   26       -5.594061   1.000000
   27       -5.593614   1.000000
   28       -5.579482   1.000000
   29       -5.546029   1.000000
   30       -5.536984   1.000000
   31       -5.530016   1.000000
   32       -5.526742   1.000000
   33       -5.526011   1.000000
   34       -5.520359   1.000000
   35       -5.513937   1.000000
   36       -5.510499   1.000000
   37       -5.506162   1.000000
   38       -5.501233   1.000000
   39       -5.497456   1.000000
   40       -5.493408   1.000000
   41       -5.477758   1.000000
   42       -5.471873   1.000000
   43       -5.471289   1.000000
   44       -5.466747   1.000000
   45       -5.463692   1.000000
   46       -5.459644   1.000000
   47       -5.453856   1.000000
   48       -5.447808   1.000000
   49       -5.433168   1.000000
   50       -5.425853   1.000000
   51       -5.421277   1.000000
   52       -5.408490   1.000000
   53       -5.404852   1.000000
   54       -5.400751   1.000000
   55       -5.395464   1.000000
   56       -5.391989   1.000000
   57       -5.386341   1.000000
   58       -5.373913   1.000000
   59       -5.372380   1.000000
   60       -5.340802   1.000000
   61       -5.329574   1.000000
   62       -5.322070   1.000000
   63       -5.312624   1.000000
   64       -5.311722   1.000000
   65       -5.309048   1.000000
   66       -5.306560   1.000000
   67       -5.303531   1.000000
   68       -5.298892   1.000000
   69       -5.286762   1.000000
   70       -5.279425   1.000000
   71       -5.258162   1.000000
   72       -5.229446   1.000000
   73       -5.200485   1.000000
   74       -5.189231   1.000000
   75       -5.180240   1.000000
   76       -5.179762   1.000000
   77       -5.178905   1.000000
   78       -5.176540   1.000000
   79       -5.173445   1.000000
   80       -5.170108   1.000000
   81       -5.154911   1.000000
   82       -5.147735   1.000000
   83       -5.145062   1.000000
   84       -5.140003   1.000000
   85       -5.126378   1.000000
   86       -5.119872   1.000000
   87       -5.113623   1.000000
   88       -5.100752   1.000000
   89       -5.096536   1.000000
   90       -5.092549   1.000000
   91       -5.080582   1.000000
   92       -5.063285   1.000000
   93       -5.061208   1.000000
   94       -5.051205   1.000000
   95       -5.048537   1.000000
   96       -5.047169   1.000000
   97       -5.043884   1.000000
   98       -5.038949   1.000000
   99       -5.029403   1.000000
  100       -5.024183   1.000000
  101       -5.022083   1.000000
  102       -5.015649   1.000000
  103       -5.013020   1.000000
  104       -5.008917   1.000000
  105       -5.008366   1.000000
  106       -5.001020   1.000000
  107       -5.000121   1.000000
  108       -4.993970   1.000000
  109       -4.989738   1.000000
  110       -4.988047   1.000000
  111       -4.977349   1.000000
  112       -4.975031   1.000000
  113       -4.968144   1.000000
  114       -4.965300   1.000000
  115       -4.963263   1.000000
  116       -4.953214   0.999999
  117       -4.949211   0.999999
  118       -4.949023   0.999999
  119       -4.934501   0.999999
  120       -4.923969   0.999998
  121       -4.917902   0.999998
  122       -4.914902   0.999998
  123       -4.909702   0.999998
  124       -4.907720   0.999997
  125       -4.899480   0.999997
  126       -4.897777   0.999996
  127       -4.893904   0.999996
  128       -4.882187   0.999994
  129       -4.872928   0.999992
  130       -4.865539   0.999990
  131       -4.848663   0.999983
  132       -4.841132   0.999978
  133       -4.834456   0.999974
  134       -4.830837   0.999971
  135       -4.829594   0.999970
  136       -4.826110   0.999967
  137       -4.817571   0.999957
  138       -4.810685   0.999948
  139       -4.804543   0.999939
  140       -4.793384   0.999917
  141       -4.787865   0.999904
  142       -4.769012   0.999845
  143       -4.758433   0.999799
  144       -4.748480   0.999744
  145       -4.736315   0.999661
  146       -4.734334   0.999645
  147       -4.731734   0.999624
  148       -4.731087   0.999618
  149       -4.729161   0.999602
  150       -4.707241   0.999362
  151       -4.702841   0.999301
  152       -4.701120   0.999277
  153       -4.689582   0.999091
  154       -4.683039   0.998970
  155       -4.677183   0.998852
  156       -4.675097   0.998808
  157       -4.669773   0.998688
  158       -4.667722   0.998640
  159       -4.666899   0.998621
  160       -4.662013   0.998499
  161       -4.656855   0.998364
  162       -4.651388   0.998211
  163       -4.650446   0.998184
  164       -4.645983   0.998051
  165       -4.645155   0.998026
  166       -4.641121   0.997900
  167       -4.637885   0.997796
  168       -4.633537   0.997652
  169       -4.630355   0.997544
  170       -4.628447   0.997478
  171       -4.623808   0.997314
  172       -4.618990   0.997140
  173       -4.609650   0.996793
  174       -4.594149   0.996213
  175       -4.592345   0.996147
  176       -4.591066   0.996100
  177       -4.587355   0.995968
  178       -4.584280   0.995861
  179       -4.581361   0.995763
  180       -4.572337   0.995486
  181       -4.565912   0.995321
  182       -4.563161   0.995260
  183       -4.553792   0.995109
  184       -4.551343   0.995086
  185       -4.548717   0.995071
  186       -4.547480   0.995067
  187       -4.545478   0.995065
  188       -4.543814   0.995068
  189       -4.541572   0.995080
  190       -4.538810   0.995106
  191       -4.514897   0.996000
  192       -4.512794   0.996148
  193       -4.512013   0.996206
  194       -4.503784   0.996932
  195       -4.500911   0.997237
  196       -4.498931   0.997464
  197       -4.486410   0.999234
  198       -4.479465   1.000482
  199       -4.477748   1.000822
  200       -4.472442   1.001953
  201       -4.469859   1.002548
  202       -4.462284   1.004466
  203       -4.461511   1.004676
  204       -4.460950   1.004830
  205       -4.457005   1.005957
  206       -4.453226   1.007102
  207       -4.450277   1.008042
  208       -4.443159   1.010469
  209       -4.440110   1.011578
  210       -4.434092   1.013880
  211       -4.426552   1.016966
  212       -4.416150   1.021543
  213       -4.411604   1.023638
  214       -4.407505   1.025564
  215       -4.406370   1.026102
  216       -4.402856   1.027779
  217       -4.398733   1.029760
  218       -4.395642   1.031249
  219       -4.394272   1.031908
  220       -4.392069   1.032966
  221       -4.388738   1.034557
  222       -4.383735   1.036912
  223       -4.356397   1.047852
  224       -4.348957   1.049817
  225       -4.347370   1.050155
  226       -4.342075   1.051047
  227       -4.336026   1.051576
  228       -4.331748   1.051595
  229       -4.329236   1.051458
  230       -4.328548   1.051400
  231       -4.325063   1.050967
  232       -4.323558   1.050706
  233       -4.322551   1.050506
  234       -4.320228   1.049962
  235       -4.318555   1.049498
  236       -4.314357   1.048057
  237       -4.314101   1.047956
  238       -4.309561   1.045898
  239       -4.309149   1.045685
  240       -4.305107   1.043372
  241       -4.298011   1.038238
  242       -4.294467   1.035133
  243       -4.293982   1.034678
  244       -4.292576   1.033322
  245       -4.286476   1.026721
  246       -4.285822   1.025943
  247       -4.278980   1.016953
  248       -4.278645   1.016472
  249       -4.275481   1.011739
  250       -4.274168   1.009671
  251       -4.262598   0.988768
  252       -4.259086   0.981444
  253       -4.256307   0.975316
  254       -4.249105   0.958060
  255       -4.247862   0.954878
  256       -4.244978   0.947267
  257       -4.244033   0.944704
  258       -4.242734   0.941122
  259       -4.237499   0.926026
  260       -4.237056   0.924700
  261       -4.234667   0.917419
  262       -4.231345   0.906929
  263       -4.228730   0.898376
  264       -4.228439   0.897407
  265       -4.227085   0.892863
  266       -4.215805   0.852348
  267       -4.214584   0.847684
  268       -4.212408   0.839248
  269       -4.210689   0.832462
  270       -4.210036   0.829862
  271       -4.207587   0.819971
  272       -4.194345   0.763152
  273       -4.191089   0.748382
  274       -4.187821   0.733264
  275       -4.182983   0.710388
  276       -4.177591   0.684247
  277       -4.173765   0.665322
  278       -4.164086   0.616295
  279       -4.163242   0.611955
  280       -4.161541   0.603174
  281       -4.160530   0.597945
  282       -4.148323   0.534010
  283       -4.147615   0.530277
  284       -4.125698   0.414806
  285       -4.123812   0.404999
  286       -4.119773   0.384137
  287       -4.113050   0.349909
  288       -4.101922   0.295036
  289       -3.983804  -0.039797
  290       -3.947238  -0.051553
  291       -3.905111  -0.039233
  292       -3.824704  -0.005358
  293       -3.814526  -0.002693
  294       -3.756369   0.004632
  295       -3.496679   0.000097
  296       -3.486970   0.000075
  297       -3.264990   0.000000
  298       -3.063561   0.000000
  299       -3.057243   0.000000
  300       -3.038929   0.000000
  301       -3.027115   0.000000
  302       -3.009373   0.000000
  303       -3.005487   0.000000
  304       -2.933352   0.000000
  305       -2.805574   0.000000
  306       -2.557059   0.000000
  307       -2.513554   0.000000
  308       -2.467547   0.000000
  309       -2.203509   0.000000
  310       -2.140932   0.000000
  311       -2.112816   0.000000
  312       -2.074114   0.000000
  313       -1.973237   0.000000
  314       -1.944364   0.000000
  315       -1.915580   0.000000
  316       -1.846426   0.000000
  317       -1.829666   0.000000
  318       -1.760756   0.000000
  319       -1.698612   0.000000
  320       -1.633769   0.000000
  321       -1.577945   0.000000
  322       -1.553534   0.000000
  323       -1.486105   0.000000
  324       -1.391522   0.000000
  325       -1.287018   0.000000
  326       -1.089459   0.000000
  327       -1.022704   0.000000
  328       -0.999275   0.000000
  329       -0.967861   0.000000
  330       -0.945425   0.000000
  331       -0.928604   0.000000
  332       -0.922111   0.000000
  333       -0.876518   0.000000
  334       -0.835692   0.000000
  335       -0.808651   0.000000
  336       -0.733097   0.000000
