       N       E                     dE             d eps       ncg     rms          rms(c)
DAV:   1     0.439222622901E+04    0.43922E+04   -0.10053E+05   688   0.815E+02
DAV:   2     0.200856729536E+04   -0.23837E+04   -0.21437E+04  1224   0.106E+02
DAV:   3     0.234385945129E+03   -0.17742E+04   -0.16713E+04   984   0.920E+01
DAV:   4    -0.136338950077E+03   -0.37072E+03   -0.31699E+03   832   0.437E+01
DAV:   5    -0.180791633268E+03   -0.44453E+02   -0.36617E+02  1024   0.145E+01    0.181E+01
RMM:   6    -0.180702786024E+03    0.88847E-01   -0.68382E+01   722   0.937E+00    0.245E+01
RMM:   7    -0.183411288638E+03   -0.27085E+01   -0.22174E+01   845   0.505E+00    0.256E+01
RMM:   8    -0.186987096553E+03   -0.35758E+01   -0.88083E+00   792   0.385E+00    0.311E+01
RMM:   9    -0.185105373584E+03    0.18817E+01   -0.69745E+00   745   0.360E+00    0.281E+01
RMM:  10    -0.182504985995E+03    0.26004E+01   -0.56853E+00   729   0.348E+00    0.279E+01
RMM:  11    -0.179179282284E+03    0.33257E+01   -0.32935E+00   733   0.253E+00    0.182E+01
RMM:  12    -0.178182017257E+03    0.99727E+00   -0.35969E+00   708   0.279E+00    0.183E+01
RMM:  13    -0.177912130180E+03    0.26989E+00   -0.20971E+00   722   0.211E+00    0.166E+01
RMM:  14    -0.178949039079E+03   -0.10369E+01   -0.20822E+00   719   0.215E+00    0.274E+01
RMM:  15    -0.177015615663E+03    0.19334E+01   -0.16017E+00   717   0.186E+00    0.135E+01
RMM:  16    -0.176033222885E+03    0.98239E+00   -0.99028E-01   701   0.151E+00    0.993E+00
RMM:  17    -0.175821778559E+03    0.21144E+00   -0.50287E-01   715   0.107E+00    0.911E+00
RMM:  18    -0.175861577358E+03   -0.39799E-01   -0.39553E-01   703   0.956E-01    0.102E+01
RMM:  19    -0.175842547719E+03    0.19030E-01   -0.31536E-01   711   0.875E-01    0.101E+01
RMM:  20    -0.175570008086E+03    0.27254E+00   -0.30913E-01   707   0.872E-01    0.732E+00
RMM:  21    -0.175473715005E+03    0.96293E-01   -0.22543E-01   698   0.749E-01    0.802E+00
RMM:  22    -0.175379291893E+03    0.94423E-01   -0.17199E-01   693   0.656E-01    0.689E+00
RMM:  23    -0.175304343755E+03    0.74948E-01   -0.17231E-01   696   0.640E-01    0.570E+00
RMM:  24    -0.175205729577E+03    0.98614E-01   -0.11251E-01   699   0.524E-01    0.390E+00
RMM:  25    -0.175174687351E+03    0.31042E-01   -0.61411E-02   699   0.388E-01    0.346E+00
RMM:  26    -0.175148469456E+03    0.26218E-01   -0.59344E-02   696   0.372E-01    0.293E+00
RMM:  27    -0.175128465364E+03    0.20004E-01   -0.44992E-02   695   0.338E-01    0.253E+00
RMM:  28    -0.175122968320E+03    0.54970E-02   -0.34903E-02   693   0.303E-01    0.252E+00
RMM:  29    -0.175094428727E+03    0.28540E-01   -0.21104E-02   693   0.249E-01    0.139E+00
RMM:  30    -0.175092323221E+03    0.21055E-02   -0.11163E-02   694   0.172E-01    0.136E+00
RMM:  31    -0.175084976020E+03    0.73472E-02   -0.67328E-03   697   0.135E-01    0.966E-01
RMM:  32    -0.175082318882E+03    0.26571E-02   -0.37400E-03   688   0.102E-01    0.821E-01
RMM:  33    -0.175081920164E+03    0.39872E-03   -0.31733E-03   694   0.917E-02    0.778E-01
RMM:  34    -0.175081234398E+03    0.68577E-03   -0.22645E-03   688   0.787E-02    0.691E-01
RMM:  35    -0.175081760197E+03   -0.52580E-03   -0.19756E-03   690   0.723E-02    0.645E-01
RMM:  36    -0.175081741858E+03    0.18340E-04   -0.15382E-03   685   0.612E-02    0.437E-01
RMM:  37    -0.175083739500E+03   -0.19976E-02   -0.11442E-03   685   0.538E-02    0.447E-01
RMM:  38    -0.175085723661E+03   -0.19842E-02   -0.97728E-04   685   0.470E-02    0.288E-01
RMM:  39    -0.175087920007E+03   -0.21963E-02   -0.65392E-04   635   0.386E-02    0.294E-01
RMM:  40    -0.175090584034E+03   -0.26640E-02   -0.54919E-04   569   0.350E-02    0.237E-01
RMM:  41    -0.175091929164E+03   -0.13451E-02   -0.28467E-04   432   0.269E-02    0.180E-01
RMM:  42    -0.175094638510E+03   -0.27093E-02   -0.38659E-04   483   0.284E-02    0.197E-01
RMM:  43    -0.175096831266E+03   -0.21928E-02   -0.32472E-04   440   0.258E-02    0.108E-01
RMM:  44    -0.175098409040E+03   -0.15778E-02   -0.23510E-04   422   0.211E-02    0.128E-01
RMM:  45    -0.175101380254E+03   -0.29712E-02   -0.51074E-04   523   0.250E-02    0.104E-01
RMM:  46    -0.175102088079E+03   -0.70782E-03   -0.14387E-04   421   0.159E-02    0.616E-02
RMM:  47    -0.175103504453E+03   -0.14164E-02   -0.12074E-04   406   0.133E-02    0.587E-02
RMM:  48    -0.175104288276E+03   -0.78382E-03   -0.76345E-05   406   0.104E-02    0.321E-02
RMM:  49    -0.175104881639E+03   -0.59336E-03   -0.44049E-05   397   0.772E-03    0.412E-02
RMM:  50    -0.175105995004E+03   -0.11134E-02   -0.48140E-05   402   0.781E-03    0.246E-02
RMM:  51    -0.175106247776E+03   -0.25277E-03   -0.16595E-05   284   0.511E-03    0.251E-02
RMM:  52    -0.175106866152E+03   -0.61838E-03   -0.16691E-05   282   0.510E-03    0.229E-02
RMM:  53    -0.175107214888E+03   -0.34874E-03   -0.10822E-05   244   0.458E-03    0.172E-02
RMM:  54    -0.175107583365E+03   -0.36848E-03   -0.14696E-05   264   0.448E-03    0.970E-03
RMM:  55    -0.175107852968E+03   -0.26960E-03   -0.76760E-06   180   0.410E-03    0.127E-02
RMM:  56    -0.175108064317E+03   -0.21135E-03   -0.91981E-06   186   0.407E-03    0.781E-03
RMM:  57    -0.175108193506E+03   -0.12919E-03   -0.10469E-05   201   0.394E-03    0.707E-03
RMM:  58    -0.175108352900E+03   -0.15939E-03   -0.88536E-06   177   0.383E-03    0.516E-03
RMM:  59    -0.175108423534E+03   -0.70633E-04   -0.55393E-06   142   0.352E-03
   1 F= -.17510842E+03 E0= -.17509787E+03  d E =-.422074E-01
