  57  57   0   0
  0.4736842E+03  0.3000000E-08  0.3000000E-08  0.3000000E-08  0.5000000E-15
  1.000000000000000E-004
  CAR 
 6_Pd100_top_free_z(O)                   
      1.19807191    -30.14740163  301     -4.15442594      1.00000000
    -30.147  0.0000E+00  0.0000E+00
    -30.043  0.0000E+00  0.0000E+00
    -29.938  0.0000E+00  0.0000E+00
    -29.834  0.2015E-27  0.2105E-28
    -29.729  0.8429E-24  0.8809E-25
    -29.625  0.2013E-20  0.2104E-21
    -29.520  0.2737E-17  0.2862E-18
    -29.416  0.2112E-14  0.2210E-15
    -29.312  0.9231E-12  0.9667E-13
    -29.207  0.2262E-09  0.2373E-10
    -29.103  0.3087E-07  0.3249E-08
    -28.998  0.2316E-05  0.2453E-06
    -28.894  0.9349E-04  0.1001E-04
    -28.789  0.1949E-02  0.2137E-03
    -28.685  0.1916E-01  0.2216E-02
    -28.580  0.6393E-01  0.8896E-02
    -28.476 -0.1327E+00 -0.4968E-02
    -28.371 -0.8076E+00 -0.8935E-01
    -28.267  0.1127E+01  0.2835E-01
    -28.162  0.7809E+01  0.8442E+00
    -28.058  0.9295E+01  0.1815E+01
    -27.953  0.2754E+01  0.2103E+01
    -27.849 -0.7687E+00  0.2023E+01
    -27.744 -0.3129E+00  0.1990E+01
    -27.640  0.5917E-01  0.1996E+01
    -27.535  0.3099E-01  0.2000E+01
    -27.431  0.4044E-02  0.2000E+01
    -27.326  0.2368E-03  0.2000E+01
    -27.222  0.7035E-05  0.2000E+01
    -27.117  0.1114E-06  0.2000E+01
    -27.013  0.9654E-09  0.2000E+01
    -26.908  0.4643E-11  0.2000E+01
    -26.804  0.1275E-13  0.2000E+01
    -26.699  0.0000E+00  0.2000E+01
    -26.595  0.0000E+00  0.2000E+01
    -26.490  0.0000E+00  0.2000E+01
    -26.386  0.0000E+00  0.2000E+01
    -26.281  0.0000E+00  0.2000E+01
    -26.177  0.0000E+00  0.2000E+01
    -26.072  0.0000E+00  0.2000E+01
    -25.968  0.0000E+00  0.2000E+01
    -25.864  0.0000E+00  0.2000E+01
    -25.759  0.0000E+00  0.2000E+01
    -25.655  0.0000E+00  0.2000E+01
    -25.550  0.0000E+00  0.2000E+01
    -25.446  0.0000E+00  0.2000E+01
    -25.341  0.0000E+00  0.2000E+01
    -25.237  0.0000E+00  0.2000E+01
    -25.132  0.0000E+00  0.2000E+01
    -25.028  0.0000E+00  0.2000E+01
    -24.923  0.0000E+00  0.2000E+01
    -24.819  0.0000E+00  0.2000E+01
    -24.714  0.0000E+00  0.2000E+01
    -24.610  0.0000E+00  0.2000E+01
    -24.505  0.0000E+00  0.2000E+01
    -24.401  0.0000E+00  0.2000E+01
    -24.296  0.0000E+00  0.2000E+01
    -24.192  0.0000E+00  0.2000E+01
    -24.087  0.0000E+00  0.2000E+01
    -23.983  0.0000E+00  0.2000E+01
    -23.878  0.0000E+00  0.2000E+01
    -23.774  0.0000E+00  0.2000E+01
    -23.669  0.0000E+00  0.2000E+01
    -23.565  0.0000E+00  0.2000E+01
    -23.460  0.0000E+00  0.2000E+01
    -23.356  0.0000E+00  0.2000E+01
    -23.251  0.0000E+00  0.2000E+01
    -23.147  0.0000E+00  0.2000E+01
    -23.042  0.0000E+00  0.2000E+01
    -22.938  0.0000E+00  0.2000E+01
    -22.833  0.0000E+00  0.2000E+01
    -22.729  0.0000E+00  0.2000E+01
    -22.624  0.0000E+00  0.2000E+01
    -22.520  0.0000E+00  0.2000E+01
    -22.416  0.0000E+00  0.2000E+01
    -22.311  0.0000E+00  0.2000E+01
    -22.207  0.0000E+00  0.2000E+01
    -22.102  0.0000E+00  0.2000E+01
    -21.998  0.0000E+00  0.2000E+01
    -21.893  0.0000E+00  0.2000E+01
    -21.789  0.0000E+00  0.2000E+01
    -21.684  0.0000E+00  0.2000E+01
    -21.580  0.0000E+00  0.2000E+01
    -21.475  0.0000E+00  0.2000E+01
    -21.371  0.0000E+00  0.2000E+01
    -21.266  0.0000E+00  0.2000E+01
    -21.162  0.0000E+00  0.2000E+01
    -21.057  0.0000E+00  0.2000E+01
    -20.953  0.0000E+00  0.2000E+01
    -20.848  0.0000E+00  0.2000E+01
    -20.744  0.0000E+00  0.2000E+01
    -20.639  0.0000E+00  0.2000E+01
    -20.535  0.0000E+00  0.2000E+01
    -20.430  0.0000E+00  0.2000E+01
    -20.326  0.0000E+00  0.2000E+01
    -20.221  0.0000E+00  0.2000E+01
    -20.117  0.0000E+00  0.2000E+01
    -20.012  0.0000E+00  0.2000E+01
    -19.908  0.0000E+00  0.2000E+01
    -19.803  0.0000E+00  0.2000E+01
    -19.699  0.0000E+00  0.2000E+01
    -19.594  0.0000E+00  0.2000E+01
    -19.490  0.0000E+00  0.2000E+01
    -19.385  0.0000E+00  0.2000E+01
    -19.281  0.0000E+00  0.2000E+01
    -19.176  0.0000E+00  0.2000E+01
    -19.072  0.0000E+00  0.2000E+01
    -18.968  0.0000E+00  0.2000E+01
    -18.863  0.0000E+00  0.2000E+01
    -18.759  0.0000E+00  0.2000E+01
    -18.654  0.0000E+00  0.2000E+01
    -18.550  0.0000E+00  0.2000E+01
    -18.445  0.0000E+00  0.2000E+01
    -18.341  0.0000E+00  0.2000E+01
    -18.236  0.0000E+00  0.2000E+01
    -18.132  0.0000E+00  0.2000E+01
    -18.027  0.0000E+00  0.2000E+01
    -17.923  0.0000E+00  0.2000E+01
    -17.818  0.0000E+00  0.2000E+01
    -17.714  0.0000E+00  0.2000E+01
    -17.609  0.0000E+00  0.2000E+01
    -17.505  0.0000E+00  0.2000E+01
    -17.400  0.0000E+00  0.2000E+01
    -17.296  0.0000E+00  0.2000E+01
    -17.191  0.0000E+00  0.2000E+01
    -17.087  0.0000E+00  0.2000E+01
    -16.982  0.0000E+00  0.2000E+01
    -16.878  0.0000E+00  0.2000E+01
    -16.773  0.0000E+00  0.2000E+01
    -16.669  0.0000E+00  0.2000E+01
    -16.564  0.0000E+00  0.2000E+01
    -16.460  0.0000E+00  0.2000E+01
    -16.355  0.0000E+00  0.2000E+01
    -16.251  0.0000E+00  0.2000E+01
    -16.146  0.0000E+00  0.2000E+01
    -16.042  0.0000E+00  0.2000E+01
    -15.937  0.0000E+00  0.2000E+01
    -15.833  0.0000E+00  0.2000E+01
    -15.728  0.0000E+00  0.2000E+01
    -15.624  0.0000E+00  0.2000E+01
    -15.520  0.0000E+00  0.2000E+01
    -15.415  0.0000E+00  0.2000E+01
    -15.311  0.0000E+00  0.2000E+01
    -15.206  0.0000E+00  0.2000E+01
    -15.102  0.1989E-27  0.2000E+01
    -14.997  0.8326E-24  0.2000E+01
    -14.893  0.1990E-20  0.2000E+01
    -14.788  0.2708E-17  0.2000E+01
    -14.684  0.2092E-14  0.2000E+01
    -14.579  0.9150E-12  0.2000E+01
    -14.475  0.2244E-09  0.2000E+01
    -14.370  0.3065E-07  0.2000E+01
    -14.266  0.2302E-05  0.2000E+01
    -14.161  0.9301E-04  0.2000E+01
    -14.057  0.1941E-02  0.2000E+01
    -13.952  0.1911E-01  0.2002E+01
    -13.848  0.6391E-01  0.2009E+01
    -13.743 -0.1319E+00  0.1995E+01
    -13.639 -0.8072E+00  0.1911E+01
    -13.534  0.1119E+01  0.2028E+01
    -13.430  0.7799E+01  0.2843E+01
    -13.325  0.9301E+01  0.3814E+01
    -13.221  0.2764E+01  0.4103E+01
    -13.116 -0.7677E+00  0.4023E+01
    -13.012 -0.3140E+00  0.3990E+01
    -12.907  0.5908E-01  0.3996E+01
    -12.803  0.3107E-01  0.4000E+01
    -12.698  0.4059E-02  0.4000E+01
    -12.594  0.2379E-03  0.4000E+01
    -12.489  0.7076E-05  0.4000E+01
    -12.385  0.1122E-06  0.4000E+01
    -12.280  0.6721E-08  0.4000E+01
    -12.176  0.5347E-06  0.4000E+01
    -12.072  0.2699E-04  0.4000E+01
    -11.967  0.7166E-03  0.4000E+01
    -11.863  0.9363E-02  0.4001E+01
    -11.758  0.4976E-01  0.4006E+01
    -11.654  0.5292E-02  0.4007E+01
    -11.549 -0.5971E+00  0.3944E+01
    -11.445 -0.2012E+00  0.3923E+01
    -11.340  0.5342E+01  0.4482E+01
    -11.236  0.1010E+02  0.5537E+01
    -11.131  0.5010E+01  0.6060E+01
    -11.027 -0.1023E+01  0.5953E+01
    -10.922  0.1722E+01  0.6133E+01
    -10.818  0.9043E+01  0.7078E+01
    -10.713  0.8295E+01  0.7945E+01
    -10.609  0.9070E+00  0.8040E+01
    -10.504 -0.1045E+01  0.7930E+01
    -10.400  0.5087E+01  0.8462E+01
    -10.295  0.1010E+02  0.9517E+01
    -10.191  0.5349E+01  0.1008E+02
    -10.086 -0.1976E+00  0.1006E+02
     -9.982 -0.5986E+00  0.9993E+01
     -9.877  0.4826E-02  0.9994E+01
     -9.773  0.4985E-01  0.9999E+01
     -9.668  0.9400E-02  0.1000E+02
     -9.564  0.7205E-03  0.1000E+02
     -9.459  0.2717E-04  0.1000E+02
     -9.355  0.5388E-06  0.1000E+02
     -9.250  0.5799E-08  0.1000E+02
     -9.146  0.3449E-10  0.1000E+02
     -9.041  0.1148E-12  0.1000E+02
     -8.937  0.0000E+00  0.1000E+02
     -8.832  0.0000E+00  0.1000E+02
     -8.728  0.0000E+00  0.1000E+02
     -8.624  0.0000E+00  0.1000E+02
     -8.519  0.0000E+00  0.1000E+02
     -8.415  0.0000E+00  0.1000E+02
     -8.310  0.1240E-25  0.1000E+02
     -8.206  0.3967E-22  0.1000E+02
     -8.101  0.7248E-19  0.1000E+02
     -7.997  0.7543E-16  0.1000E+02
     -7.892  0.4456E-13  0.1000E+02
     -7.788  0.1492E-10  0.1000E+02
     -7.683  0.2802E-08  0.1000E+02
     -7.579  0.2934E-06  0.1000E+02
     -7.474  0.1688E-04  0.1000E+02
     -7.370  0.5209E-03  0.1000E+02
     -7.265  0.8218E-02  0.1000E+02
     -7.161  0.5865E-01  0.1001E+02
     -7.056  0.1037E+00  0.1002E+02
     -6.952 -0.5463E+00  0.9961E+01
     -6.847 -0.1264E+01  0.9829E+01
     -6.743  0.4774E+01  0.1033E+02
     -6.638  0.1665E+02  0.1207E+02
     -6.534  0.1818E+02  0.1397E+02
     -6.429  0.1090E+02  0.1511E+02
     -6.325  0.6334E+01  0.1577E+02
     -6.220  0.1444E+02  0.1728E+02
     -6.116  0.2645E+02  0.2004E+02
     -6.011  0.1903E+02  0.2203E+02
     -5.907  0.1768E+02  0.2388E+02
     -5.802  0.4184E+02  0.2825E+02
     -5.698  0.7927E+02  0.3653E+02
     -5.593  0.1552E+03  0.5274E+02
     -5.489  0.2608E+03  0.7999E+02
     -5.384  0.2876E+03  0.1100E+03
     -5.280  0.2282E+03  0.1339E+03
     -5.176  0.2175E+03  0.1566E+03
     -5.071  0.2971E+03  0.1877E+03
     -4.967  0.3598E+03  0.2252E+03
     -4.862  0.3228E+03  0.2590E+03
     -4.758  0.2927E+03  0.2896E+03
     -4.653  0.3690E+03  0.3281E+03
     -4.549  0.4282E+03  0.3729E+03
     -4.444  0.4225E+03  0.4170E+03
     -4.340  0.4885E+03  0.4680E+03
     -4.235  0.5521E+03  0.5257E+03
     -4.131  0.3926E+03  0.5667E+03
     -4.026  0.1278E+03  0.5801E+03
     -3.922  0.1479E+02  0.5816E+03
     -3.817  0.2474E+02  0.5842E+03
     -3.713  0.2687E+02  0.5870E+03
     -3.608  0.1217E+02  0.5883E+03
     -3.504  0.1714E+02  0.5901E+03
     -3.399  0.2389E+02  0.5926E+03
     -3.295  0.9874E+01  0.5936E+03
     -3.190  0.1523E+01  0.5938E+03
     -3.086  0.3194E+02  0.5971E+03
     -2.981  0.6501E+02  0.6039E+03
     -2.877  0.4789E+02  0.6089E+03
     -2.772  0.1152E+02  0.6101E+03
     -2.668 -0.9116E+00  0.6100E+03
     -2.563  0.1229E+02  0.6113E+03
     -2.459  0.2468E+02  0.6139E+03
     -2.354  0.1883E+02  0.6159E+03
     -2.250  0.1500E+02  0.6174E+03
     -2.145  0.2686E+02  0.6202E+03
     -2.041  0.3922E+02  0.6243E+03
     -1.936  0.4241E+02  0.6288E+03
     -1.832  0.3671E+02  0.6326E+03
     -1.728  0.3240E+02  0.6360E+03
     -1.623  0.3861E+02  0.6400E+03
     -1.519  0.3538E+02  0.6437E+03
     -1.414  0.2256E+02  0.6461E+03
     -1.310  0.1768E+02  0.6479E+03
     -1.205  0.1555E+02  0.6495E+03
     -1.101  0.2304E+02  0.6519E+03
     -0.996  0.5192E+02  0.6574E+03
     -0.892  0.7131E+02  0.6648E+03
     -0.787  0.5339E+02  0.6704E+03
     -0.683  0.1833E+02  0.6723E+03
     -0.578 -0.1231E+01  0.6722E+03
     -0.474 -0.2082E+01  0.6720E+03
     -0.369  0.5837E-01  0.6720E+03
     -0.265  0.2250E+00  0.6720E+03
     -0.160  0.4767E-01  0.6720E+03
     -0.056  0.4197E-02  0.6720E+03
      0.049  0.1834E-03  0.6720E+03
      0.153  0.4238E-05  0.6720E+03
      0.258  0.5334E-07  0.6720E+03
      0.362  0.3723E-09  0.6720E+03
      0.467  0.1456E-11  0.6720E+03
      0.571  0.2125E-14  0.6720E+03
      0.676  0.0000E+00  0.6720E+03
      0.780  0.0000E+00  0.6720E+03
      0.885  0.0000E+00  0.6720E+03
      0.989  0.0000E+00  0.6720E+03
      1.094  0.0000E+00  0.6720E+03
      1.198  0.0000E+00  0.6720E+03
