       N       E                     dE             d eps       ncg     rms          rms(c)
DAV:   1     0.438044510601E+04    0.43804E+04   -0.10049E+05   688   0.815E+02
DAV:   2     0.202723197016E+04   -0.23532E+04   -0.21128E+04  1216   0.105E+02
DAV:   3     0.235479930245E+03   -0.17918E+04   -0.16818E+04  1008   0.919E+01
DAV:   4    -0.132851503322E+03   -0.36833E+03   -0.31073E+03   824   0.437E+01
DAV:   5    -0.178302979138E+03   -0.45451E+02   -0.37479E+02  1048   0.145E+01    0.138E+01
RMM:   6    -0.178258986093E+03    0.43993E-01   -0.53326E+01   727   0.859E+00    0.221E+01
RMM:   7    -0.180574260824E+03   -0.23153E+01   -0.18625E+01   851   0.464E+00    0.232E+01
RMM:   8    -0.182601633010E+03   -0.20274E+01   -0.58455E+00   806   0.311E+00    0.243E+01
RMM:   9    -0.181545191818E+03    0.10564E+01   -0.51926E+00   726   0.321E+00    0.275E+01
RMM:  10    -0.179169627953E+03    0.23756E+01   -0.28673E+00   739   0.238E+00    0.187E+01
RMM:  11    -0.177043439944E+03    0.21262E+01   -0.20237E+00   721   0.215E+00    0.179E+01
RMM:  12    -0.175834192175E+03    0.12092E+01   -0.92562E-01   725   0.142E+00    0.141E+01
RMM:  13    -0.175669066218E+03    0.16513E+00   -0.73236E-01   728   0.126E+00    0.139E+01
RMM:  14    -0.175887524556E+03   -0.21846E+00   -0.10067E+00   715   0.147E+00    0.183E+01
RMM:  15    -0.175467882483E+03    0.41964E+00   -0.11257E+00   716   0.155E+00    0.172E+01
RMM:  16    -0.175853391624E+03   -0.38551E+00   -0.83503E-01   724   0.133E+00    0.210E+01
RMM:  17    -0.175178037554E+03    0.67535E+00   -0.58102E-01   714   0.113E+00    0.170E+01
RMM:  18    -0.174605467153E+03    0.57257E+00   -0.50312E-01   716   0.106E+00    0.107E+01
RMM:  19    -0.174790042542E+03   -0.18458E+00   -0.31410E-01   720   0.849E-01    0.153E+01
RMM:  20    -0.174607501205E+03    0.18254E+00   -0.31568E-01   725   0.863E-01    0.130E+01
RMM:  21    -0.174423540558E+03    0.18396E+00   -0.27059E-01   717   0.798E-01    0.109E+01
RMM:  22    -0.174295229267E+03    0.12831E+00   -0.24230E-01   717   0.741E-01    0.755E+00
RMM:  23    -0.174234836286E+03    0.60393E-01   -0.19803E-01   713   0.677E-01    0.800E+00
RMM:  24    -0.174090909600E+03    0.14393E+00   -0.15141E-01   712   0.611E-01    0.611E+00
RMM:  25    -0.173990699697E+03    0.10021E+00   -0.10010E-01   713   0.499E-01    0.450E+00
RMM:  26    -0.173933066774E+03    0.57633E-01   -0.66918E-02   713   0.405E-01    0.349E+00
RMM:  27    -0.173882469722E+03    0.50597E-01   -0.42199E-02   713   0.322E-01    0.240E+00
RMM:  28    -0.173874279958E+03    0.81898E-02   -0.33427E-02   712   0.289E-01    0.255E+00
RMM:  29    -0.173886948076E+03   -0.12668E-01   -0.29209E-02   708   0.265E-01    0.308E+00
RMM:  30    -0.173854835875E+03    0.32112E-01   -0.18870E-02   707   0.231E-01    0.196E+00
RMM:  31    -0.173836563594E+03    0.18272E-01   -0.14592E-02   705   0.200E-01    0.124E+00
RMM:  32    -0.173838378572E+03   -0.18150E-02   -0.12478E-02   705   0.172E-01    0.149E+00
RMM:  33    -0.173828360890E+03    0.10018E-01   -0.73291E-03   705   0.144E-01    0.961E-01
RMM:  34    -0.173825681901E+03    0.26790E-02   -0.39823E-03   705   0.104E-01    0.637E-01
RMM:  35    -0.173827079237E+03   -0.13973E-02   -0.28734E-03   701   0.847E-02    0.766E-01
RMM:  36    -0.173825328802E+03    0.17504E-02   -0.19240E-03   702   0.728E-02    0.412E-01
RMM:  37    -0.173826195930E+03   -0.86713E-03   -0.13098E-03   698   0.588E-02    0.421E-01
RMM:  38    -0.173828362797E+03   -0.21669E-02   -0.14621E-03   692   0.587E-02    0.449E-01
RMM:  39    -0.173830273547E+03   -0.19108E-02   -0.10044E-03   693   0.502E-02    0.501E-01
RMM:  40    -0.173833029191E+03   -0.27556E-02   -0.10365E-03   686   0.498E-02    0.338E-01
RMM:  41    -0.173834905754E+03   -0.18766E-02   -0.61430E-04   630   0.401E-02    0.354E-01
RMM:  42    -0.173836332816E+03   -0.14271E-02   -0.41499E-04   505   0.331E-02    0.252E-01
RMM:  43    -0.173838373394E+03   -0.20406E-02   -0.36996E-04   467   0.311E-02    0.187E-01
RMM:  44    -0.173840229114E+03   -0.18557E-02   -0.27962E-04   432   0.257E-02    0.226E-01
RMM:  45    -0.173843053120E+03   -0.28240E-02   -0.39720E-04   482   0.271E-02    0.113E-01
RMM:  46    -0.173844225677E+03   -0.11726E-02   -0.17204E-04   424   0.183E-02    0.109E-01
RMM:  47    -0.173846356818E+03   -0.21311E-02   -0.24295E-04   430   0.196E-02    0.130E-01
RMM:  48    -0.173847416883E+03   -0.10601E-02   -0.13302E-04   418   0.159E-02    0.876E-02
RMM:  49    -0.173848939231E+03   -0.15223E-02   -0.15479E-04   418   0.155E-02    0.106E-01
RMM:  50    -0.173850270523E+03   -0.13313E-02   -0.14213E-04   414   0.143E-02    0.517E-02
RMM:  51    -0.173850646328E+03   -0.37580E-03   -0.59662E-05   410   0.939E-03    0.416E-02
RMM:  52    -0.173851683901E+03   -0.10376E-02   -0.58526E-05   407   0.830E-03    0.348E-02
RMM:  53    -0.173851984017E+03   -0.30012E-03   -0.28627E-05   371   0.613E-03    0.193E-02
RMM:  54    -0.173852485391E+03   -0.50137E-03   -0.19850E-05   324   0.532E-03    0.272E-02
RMM:  55    -0.173852820632E+03   -0.33524E-03   -0.87323E-06   206   0.447E-03    0.138E-02
RMM:  56    -0.173853089948E+03   -0.26932E-03   -0.89620E-06   251   0.463E-03    0.230E-02
RMM:  57    -0.173853508408E+03   -0.41846E-03   -0.12129E-05   256   0.455E-03    0.141E-02
RMM:  58    -0.173853640169E+03   -0.13176E-03   -0.26383E-06   133   0.357E-03    0.118E-02
RMM:  59    -0.173853917772E+03   -0.27760E-03   -0.84047E-06   197   0.404E-03    0.102E-02
RMM:  60    -0.173854005121E+03   -0.87349E-04   -0.27537E-06   121   0.342E-03
   1 F= -.17385401E+03 E0= -.17382620E+03  d E =-.111238E+00
