  57  57   0   0
  0.4736842E+03  0.3000000E-08  0.3000000E-08  0.3000000E-08  0.5000000E-15
  1.000000000000000E-004
  CAR 
 6_Pd100_top_free_z(O)                   
      1.30557553    -30.62097886  301     -4.16184159      1.00000000
    -30.621  0.0000E+00  0.0000E+00
    -30.515  0.0000E+00  0.0000E+00
    -30.408  0.0000E+00  0.0000E+00
    -30.302  0.3192E-27  0.3397E-28
    -30.195  0.1502E-23  0.1599E-24
    -30.089  0.3950E-20  0.4205E-21
    -29.982  0.5790E-17  0.6167E-18
    -29.876  0.4714E-14  0.5023E-15
    -29.770  0.2125E-11  0.2267E-12
    -29.663  0.5256E-09  0.5616E-10
    -29.557  0.7069E-07  0.7579E-08
    -29.450  0.5095E-05  0.5498E-06
    -29.344  0.1918E-03  0.2096E-04
    -29.237  0.3588E-02  0.4028E-03
    -29.131  0.2952E-01  0.3544E-02
    -29.025  0.5944E-01  0.9870E-02
    -28.918 -0.3171E+00 -0.2388E-01
    -28.812 -0.7457E+00 -0.1032E+00
    -28.705  0.3034E+01  0.2197E+00
    -28.599  0.9500E+01  0.1231E+01
    -28.493  0.7290E+01  0.2007E+01
    -28.386  0.6919E+00  0.2080E+01
    -28.280 -0.7573E+00  0.2000E+01
    -28.173 -0.7038E-01  0.1992E+01
    -28.067  0.5923E-01  0.1998E+01
    -27.960  0.1384E-01  0.2000E+01
    -27.854  0.1168E-02  0.2000E+01
    -27.748  0.4636E-04  0.2000E+01
    -27.641  0.9374E-06  0.2000E+01
    -27.535  0.1002E-07  0.2000E+01
    -27.428  0.5785E-10  0.2000E+01
    -27.322  0.1815E-12  0.2000E+01
    -27.215  0.0000E+00  0.2000E+01
    -27.109  0.0000E+00  0.2000E+01
    -27.003  0.0000E+00  0.2000E+01
    -26.896  0.0000E+00  0.2000E+01
    -26.790  0.0000E+00  0.2000E+01
    -26.683  0.0000E+00  0.2000E+01
    -26.577  0.0000E+00  0.2000E+01
    -26.471  0.0000E+00  0.2000E+01
    -26.364  0.0000E+00  0.2000E+01
    -26.258  0.0000E+00  0.2000E+01
    -26.151  0.0000E+00  0.2000E+01
    -26.045  0.0000E+00  0.2000E+01
    -25.938  0.0000E+00  0.2000E+01
    -25.832  0.0000E+00  0.2000E+01
    -25.726  0.0000E+00  0.2000E+01
    -25.619  0.0000E+00  0.2000E+01
    -25.513  0.0000E+00  0.2000E+01
    -25.406  0.0000E+00  0.2000E+01
    -25.300  0.0000E+00  0.2000E+01
    -25.193  0.0000E+00  0.2000E+01
    -25.087  0.0000E+00  0.2000E+01
    -24.981  0.0000E+00  0.2000E+01
    -24.874  0.0000E+00  0.2000E+01
    -24.768  0.0000E+00  0.2000E+01
    -24.661  0.0000E+00  0.2000E+01
    -24.555  0.0000E+00  0.2000E+01
    -24.449  0.0000E+00  0.2000E+01
    -24.342  0.0000E+00  0.2000E+01
    -24.236  0.0000E+00  0.2000E+01
    -24.129  0.0000E+00  0.2000E+01
    -24.023  0.0000E+00  0.2000E+01
    -23.916  0.0000E+00  0.2000E+01
    -23.810  0.0000E+00  0.2000E+01
    -23.704  0.0000E+00  0.2000E+01
    -23.597  0.0000E+00  0.2000E+01
    -23.491  0.0000E+00  0.2000E+01
    -23.384  0.0000E+00  0.2000E+01
    -23.278  0.0000E+00  0.2000E+01
    -23.171  0.0000E+00  0.2000E+01
    -23.065  0.0000E+00  0.2000E+01
    -22.959  0.0000E+00  0.2000E+01
    -22.852  0.0000E+00  0.2000E+01
    -22.746  0.0000E+00  0.2000E+01
    -22.639  0.0000E+00  0.2000E+01
    -22.533  0.0000E+00  0.2000E+01
    -22.426  0.0000E+00  0.2000E+01
    -22.320  0.0000E+00  0.2000E+01
    -22.214  0.0000E+00  0.2000E+01
    -22.107  0.0000E+00  0.2000E+01
    -22.001  0.0000E+00  0.2000E+01
    -21.894  0.0000E+00  0.2000E+01
    -21.788  0.0000E+00  0.2000E+01
    -21.682  0.0000E+00  0.2000E+01
    -21.575  0.0000E+00  0.2000E+01
    -21.469  0.0000E+00  0.2000E+01
    -21.362  0.0000E+00  0.2000E+01
    -21.256  0.0000E+00  0.2000E+01
    -21.149  0.0000E+00  0.2000E+01
    -21.043  0.0000E+00  0.2000E+01
    -20.937  0.0000E+00  0.2000E+01
    -20.830  0.0000E+00  0.2000E+01
    -20.724  0.0000E+00  0.2000E+01
    -20.617  0.0000E+00  0.2000E+01
    -20.511  0.0000E+00  0.2000E+01
    -20.404  0.0000E+00  0.2000E+01
    -20.298  0.0000E+00  0.2000E+01
    -20.192  0.0000E+00  0.2000E+01
    -20.085  0.0000E+00  0.2000E+01
    -19.979  0.0000E+00  0.2000E+01
    -19.872  0.0000E+00  0.2000E+01
    -19.766  0.0000E+00  0.2000E+01
    -19.660  0.0000E+00  0.2000E+01
    -19.553  0.0000E+00  0.2000E+01
    -19.447  0.0000E+00  0.2000E+01
    -19.340  0.0000E+00  0.2000E+01
    -19.234  0.0000E+00  0.2000E+01
    -19.127  0.0000E+00  0.2000E+01
    -19.021  0.0000E+00  0.2000E+01
    -18.915  0.0000E+00  0.2000E+01
    -18.808  0.0000E+00  0.2000E+01
    -18.702  0.0000E+00  0.2000E+01
    -18.595  0.0000E+00  0.2000E+01
    -18.489  0.0000E+00  0.2000E+01
    -18.382  0.0000E+00  0.2000E+01
    -18.276  0.0000E+00  0.2000E+01
    -18.170  0.0000E+00  0.2000E+01
    -18.063  0.0000E+00  0.2000E+01
    -17.957  0.0000E+00  0.2000E+01
    -17.850  0.0000E+00  0.2000E+01
    -17.744  0.0000E+00  0.2000E+01
    -17.638  0.0000E+00  0.2000E+01
    -17.531  0.0000E+00  0.2000E+01
    -17.425  0.0000E+00  0.2000E+01
    -17.318  0.0000E+00  0.2000E+01
    -17.212  0.0000E+00  0.2000E+01
    -17.105  0.0000E+00  0.2000E+01
    -16.999  0.0000E+00  0.2000E+01
    -16.893  0.0000E+00  0.2000E+01
    -16.786  0.0000E+00  0.2000E+01
    -16.680  0.0000E+00  0.2000E+01
    -16.573  0.0000E+00  0.2000E+01
    -16.467  0.0000E+00  0.2000E+01
    -16.360  0.0000E+00  0.2000E+01
    -16.254  0.0000E+00  0.2000E+01
    -16.148  0.0000E+00  0.2000E+01
    -16.041  0.0000E+00  0.2000E+01
    -15.935  0.0000E+00  0.2000E+01
    -15.828  0.0000E+00  0.2000E+01
    -15.722  0.0000E+00  0.2000E+01
    -15.615  0.0000E+00  0.2000E+01
    -15.509  0.0000E+00  0.2000E+01
    -15.403  0.0000E+00  0.2000E+01
    -15.296  0.0000E+00  0.2000E+01
    -15.190  0.0000E+00  0.2000E+01
    -15.083  0.8411E-27  0.2000E+01
    -14.977  0.3710E-23  0.2000E+01
    -14.871  0.9145E-20  0.2000E+01
    -14.764  0.1256E-16  0.2000E+01
    -14.658  0.9575E-14  0.2000E+01
    -14.551  0.4040E-11  0.2000E+01
    -14.445  0.9342E-09  0.2000E+01
    -14.338  0.1173E-06  0.2000E+01
    -14.232  0.7879E-05  0.2000E+01
    -14.126  0.2753E-03  0.2000E+01
    -14.019  0.4741E-02  0.2001E+01
    -13.913  0.3502E-01  0.2004E+01
    -13.806  0.5036E-01  0.2010E+01
    -13.700 -0.4033E+00  0.1967E+01
    -13.593 -0.6292E+00  0.1900E+01
    -13.487  0.3813E+01  0.2306E+01
    -13.381  0.9816E+01  0.3350E+01
    -13.274  0.6507E+01  0.4043E+01
    -13.168  0.2502E+00  0.4069E+01
    -13.061 -0.6893E+00  0.3996E+01
    -12.955 -0.2769E-01  0.3993E+01
    -12.849  0.5425E-01  0.3999E+01
    -12.742  0.1097E-01  0.4000E+01
    -12.636  0.8454E-03  0.4000E+01
    -12.529  0.3103E-04  0.4000E+01
    -12.423  0.5838E-06  0.4000E+01
    -12.316  0.5827E-08  0.4000E+01
    -12.210  0.6140E-09  0.4000E+01
    -12.104  0.7754E-07  0.4000E+01
    -11.997  0.5537E-05  0.4000E+01
    -11.891  0.2072E-03  0.4000E+01
    -11.784  0.3885E-02  0.4000E+01
    -11.678  0.3284E-01  0.4004E+01
    -11.571  0.8094E-01  0.4013E+01
    -11.465 -0.2675E+00  0.3984E+01
    -11.359 -0.9388E+00  0.3884E+01
    -11.252  0.2352E+01  0.4134E+01
    -11.146  0.1161E+02  0.5370E+01
    -11.039  0.1600E+02  0.7072E+01
    -10.933  0.8910E+01  0.8021E+01
    -10.827  0.7631E+00  0.8102E+01
    -10.720 -0.1131E+01  0.7981E+01
    -10.614 -0.8844E+00  0.7887E+01
    -10.507  0.2549E+01  0.8159E+01
    -10.401  0.9188E+01  0.9136E+01
    -10.294  0.7853E+01  0.9972E+01
    -10.188  0.1087E+01  0.1009E+02
    -10.082 -0.7950E+00  0.1000E+02
     -9.975 -0.1099E+00  0.9991E+01
     -9.869  0.6217E-01  0.9998E+01
     -9.762  0.1641E-01  0.1000E+02
     -9.656  0.1488E-02  0.1000E+02
     -9.549  0.6269E-04  0.1000E+02
     -9.443  0.1340E-05  0.1000E+02
     -9.337  0.1512E-07  0.1000E+02
     -9.230  0.9189E-10  0.1000E+02
     -9.124  0.3046E-12  0.1000E+02
     -9.017  0.0000E+00  0.1000E+02
     -8.911  0.0000E+00  0.1000E+02
     -8.805  0.0000E+00  0.1000E+02
     -8.698  0.0000E+00  0.1000E+02
     -8.592  0.0000E+00  0.1000E+02
     -8.485  0.0000E+00  0.1000E+02
     -8.379  0.0000E+00  0.1000E+02
     -8.272  0.7620E-25  0.1000E+02
     -8.166  0.2472E-21  0.1000E+02
     -8.060  0.4475E-18  0.1000E+02
     -7.953  0.4506E-15  0.1000E+02
     -7.847  0.2512E-12  0.1000E+02
     -7.740  0.7731E-10  0.1000E+02
     -7.634  0.1297E-07  0.1000E+02
     -7.527  0.1173E-05  0.1000E+02
     -7.421  0.5602E-04  0.1000E+02
     -7.315  0.1360E-02  0.1000E+02
     -7.208  0.1541E-01  0.1000E+02
     -7.102  0.6118E-01  0.1001E+02
     -6.995 -0.9439E-01  0.9998E+01
     -6.889 -0.7820E+00  0.9915E+01
     -6.782  0.9452E+00  0.1002E+02
     -6.676  0.7741E+01  0.1084E+02
     -6.570  0.9531E+01  0.1185E+02
     -6.463  0.1883E+01  0.1205E+02
     -6.357 -0.3534E+01  0.1168E+02
     -6.250  0.7457E+01  0.1247E+02
     -6.144  0.3508E+02  0.1620E+02
     -6.038  0.3951E+02  0.2041E+02
     -5.931  0.1852E+02  0.2238E+02
     -5.825  0.2564E+02  0.2511E+02
     -5.718  0.6845E+02  0.3239E+02
     -5.612  0.1506E+03  0.4842E+02
     -5.505  0.2606E+03  0.7615E+02
     -5.399  0.2899E+03  0.1070E+03
     -5.293  0.2246E+03  0.1309E+03
     -5.186  0.2115E+03  0.1534E+03
     -5.080  0.2974E+03  0.1851E+03
     -4.973  0.3631E+03  0.2237E+03
     -4.867  0.3201E+03  0.2578E+03
     -4.760  0.2863E+03  0.2882E+03
     -4.654  0.3687E+03  0.3275E+03
     -4.548  0.4319E+03  0.3734E+03
     -4.441  0.4284E+03  0.4190E+03
     -4.335  0.5033E+03  0.4726E+03
     -4.228  0.5569E+03  0.5319E+03
     -4.122  0.3661E+03  0.5708E+03
     -4.016  0.9451E+02  0.5809E+03
     -3.909  0.2791E+01  0.5812E+03
     -3.803  0.2839E+02  0.5842E+03
     -3.696  0.2878E+02  0.5873E+03
     -3.590  0.1222E+02  0.5886E+03
     -3.483  0.1914E+02  0.5906E+03
     -3.377  0.2214E+02  0.5930E+03
     -3.271  0.6064E+01  0.5936E+03
     -3.164  0.7370E+01  0.5944E+03
     -3.058  0.4339E+02  0.5990E+03
     -2.951  0.5942E+02  0.6053E+03
     -2.845  0.3259E+02  0.6088E+03
     -2.738  0.8004E+01  0.6097E+03
     -2.632  0.9709E+01  0.6107E+03
     -2.526  0.2612E+02  0.6135E+03
     -2.419  0.2372E+02  0.6160E+03
     -2.313  0.9219E+01  0.6170E+03
     -2.206  0.1069E+02  0.6181E+03
     -2.100  0.3171E+02  0.6215E+03
     -1.994  0.4757E+02  0.6266E+03
     -1.887  0.3747E+02  0.6305E+03
     -1.781  0.2846E+02  0.6336E+03
     -1.674  0.4572E+02  0.6384E+03
     -1.568  0.5105E+02  0.6439E+03
     -1.461  0.2400E+02  0.6464E+03
     -1.355  0.1010E+02  0.6475E+03
     -1.249  0.1900E+02  0.6495E+03
     -1.142  0.2699E+02  0.6524E+03
     -1.036  0.3941E+02  0.6566E+03
     -0.929  0.6055E+02  0.6630E+03
     -0.823  0.5257E+02  0.6686E+03
     -0.716  0.2326E+02  0.6711E+03
     -0.610  0.7644E+01  0.6719E+03
     -0.504  0.1462E+01  0.6721E+03
     -0.397 -0.6251E+00  0.6720E+03
     -0.291 -0.1433E+00  0.6720E+03
     -0.184  0.9428E-01  0.6720E+03
     -0.078  0.3255E-01  0.6720E+03
      0.029  0.3720E-02  0.6720E+03
      0.135  0.1948E-03  0.6720E+03
      0.241  0.5131E-05  0.6720E+03
      0.348  0.7094E-07  0.6720E+03
      0.454  0.5265E-09  0.6720E+03
      0.561  0.2128E-11  0.6720E+03
      0.667  0.4173E-14  0.6720E+03
      0.773  0.0000E+00  0.6720E+03
      0.880  0.0000E+00  0.6720E+03
      0.986  0.0000E+00  0.6720E+03
      1.093  0.0000E+00  0.6720E+03
      1.199  0.0000E+00  0.6720E+03
      1.306  0.0000E+00  0.6720E+03
