  57  57   0   0
  0.4736842E+03  0.3000000E-08  0.3000000E-08  0.3000000E-08  0.5000000E-15
  1.000000000000000E-004
  CAR 
 6_Pd100_top_free_z(O)                   
      1.21565094    -30.22438499  301     -4.17369593      1.00000000
    -30.224  0.0000E+00  0.0000E+00
    -30.120  0.0000E+00  0.0000E+00
    -30.015  0.0000E+00  0.0000E+00
    -29.910  0.2172E-27  0.2276E-28
    -29.805  0.9261E-24  0.9708E-25
    -29.700  0.2247E-20  0.2356E-21
    -29.596  0.3093E-17  0.3244E-18
    -29.491  0.2409E-14  0.2527E-15
    -29.386  0.1058E-11  0.1111E-12
    -29.281  0.2597E-09  0.2733E-10
    -29.176  0.3538E-07  0.3735E-08
    -29.072  0.2638E-05  0.2802E-06
    -28.967  0.1053E-03  0.1132E-04
    -28.862  0.2159E-02  0.2376E-03
    -28.757  0.2065E-01  0.2402E-02
    -28.652  0.6449E-01  0.9161E-02
    -28.548 -0.1585E+00 -0.7452E-02
    -28.443 -0.8183E+00 -0.9321E-01
    -28.338  0.1396E+01  0.5311E-01
    -28.233  0.8149E+01  0.9071E+00
    -28.128  0.9039E+01  0.1854E+01
    -28.024  0.2362E+01  0.2102E+01
    -27.919 -0.8015E+00  0.2018E+01
    -27.814 -0.2647E+00  0.1990E+01
    -27.709  0.6251E-01  0.1997E+01
    -27.604  0.2758E-01  0.2000E+01
    -27.500  0.3341E-02  0.2000E+01
    -27.395  0.1835E-03  0.2000E+01
    -27.290  0.5122E-05  0.2000E+01
    -27.185  0.7613E-07  0.2000E+01
    -27.080  0.6177E-09  0.2000E+01
    -26.976  0.2776E-11  0.2000E+01
    -26.871  0.6356E-14  0.2000E+01
    -26.766  0.0000E+00  0.2000E+01
    -26.661  0.0000E+00  0.2000E+01
    -26.556  0.0000E+00  0.2000E+01
    -26.452  0.0000E+00  0.2000E+01
    -26.347  0.0000E+00  0.2000E+01
    -26.242  0.0000E+00  0.2000E+01
    -26.137  0.0000E+00  0.2000E+01
    -26.032  0.0000E+00  0.2000E+01
    -25.928  0.0000E+00  0.2000E+01
    -25.823  0.0000E+00  0.2000E+01
    -25.718  0.0000E+00  0.2000E+01
    -25.613  0.0000E+00  0.2000E+01
    -25.508  0.0000E+00  0.2000E+01
    -25.404  0.0000E+00  0.2000E+01
    -25.299  0.0000E+00  0.2000E+01
    -25.194  0.0000E+00  0.2000E+01
    -25.089  0.0000E+00  0.2000E+01
    -24.984  0.0000E+00  0.2000E+01
    -24.880  0.0000E+00  0.2000E+01
    -24.775  0.0000E+00  0.2000E+01
    -24.670  0.0000E+00  0.2000E+01
    -24.565  0.0000E+00  0.2000E+01
    -24.460  0.0000E+00  0.2000E+01
    -24.356  0.0000E+00  0.2000E+01
    -24.251  0.0000E+00  0.2000E+01
    -24.146  0.0000E+00  0.2000E+01
    -24.041  0.0000E+00  0.2000E+01
    -23.936  0.0000E+00  0.2000E+01
    -23.832  0.0000E+00  0.2000E+01
    -23.727  0.0000E+00  0.2000E+01
    -23.622  0.0000E+00  0.2000E+01
    -23.517  0.0000E+00  0.2000E+01
    -23.412  0.0000E+00  0.2000E+01
    -23.308  0.0000E+00  0.2000E+01
    -23.203  0.0000E+00  0.2000E+01
    -23.098  0.0000E+00  0.2000E+01
    -22.993  0.0000E+00  0.2000E+01
    -22.888  0.0000E+00  0.2000E+01
    -22.784  0.0000E+00  0.2000E+01
    -22.679  0.0000E+00  0.2000E+01
    -22.574  0.0000E+00  0.2000E+01
    -22.469  0.0000E+00  0.2000E+01
    -22.364  0.0000E+00  0.2000E+01
    -22.260  0.0000E+00  0.2000E+01
    -22.155  0.0000E+00  0.2000E+01
    -22.050  0.0000E+00  0.2000E+01
    -21.945  0.0000E+00  0.2000E+01
    -21.840  0.0000E+00  0.2000E+01
    -21.736  0.0000E+00  0.2000E+01
    -21.631  0.0000E+00  0.2000E+01
    -21.526  0.0000E+00  0.2000E+01
    -21.421  0.0000E+00  0.2000E+01
    -21.316  0.0000E+00  0.2000E+01
    -21.212  0.0000E+00  0.2000E+01
    -21.107  0.0000E+00  0.2000E+01
    -21.002  0.0000E+00  0.2000E+01
    -20.897  0.0000E+00  0.2000E+01
    -20.792  0.0000E+00  0.2000E+01
    -20.688  0.0000E+00  0.2000E+01
    -20.583  0.0000E+00  0.2000E+01
    -20.478  0.0000E+00  0.2000E+01
    -20.373  0.0000E+00  0.2000E+01
    -20.268  0.0000E+00  0.2000E+01
    -20.164  0.0000E+00  0.2000E+01
    -20.059  0.0000E+00  0.2000E+01
    -19.954  0.0000E+00  0.2000E+01
    -19.849  0.0000E+00  0.2000E+01
    -19.744  0.0000E+00  0.2000E+01
    -19.640  0.0000E+00  0.2000E+01
    -19.535  0.0000E+00  0.2000E+01
    -19.430  0.0000E+00  0.2000E+01
    -19.325  0.0000E+00  0.2000E+01
    -19.220  0.0000E+00  0.2000E+01
    -19.116  0.0000E+00  0.2000E+01
    -19.011  0.0000E+00  0.2000E+01
    -18.906  0.0000E+00  0.2000E+01
    -18.801  0.0000E+00  0.2000E+01
    -18.696  0.0000E+00  0.2000E+01
    -18.592  0.0000E+00  0.2000E+01
    -18.487  0.0000E+00  0.2000E+01
    -18.382  0.0000E+00  0.2000E+01
    -18.277  0.0000E+00  0.2000E+01
    -18.172  0.0000E+00  0.2000E+01
    -18.068  0.0000E+00  0.2000E+01
    -17.963  0.0000E+00  0.2000E+01
    -17.858  0.0000E+00  0.2000E+01
    -17.753  0.0000E+00  0.2000E+01
    -17.648  0.0000E+00  0.2000E+01
    -17.544  0.0000E+00  0.2000E+01
    -17.439  0.0000E+00  0.2000E+01
    -17.334  0.0000E+00  0.2000E+01
    -17.229  0.0000E+00  0.2000E+01
    -17.124  0.0000E+00  0.2000E+01
    -17.020  0.0000E+00  0.2000E+01
    -16.915  0.0000E+00  0.2000E+01
    -16.810  0.0000E+00  0.2000E+01
    -16.705  0.0000E+00  0.2000E+01
    -16.600  0.0000E+00  0.2000E+01
    -16.496  0.0000E+00  0.2000E+01
    -16.391  0.0000E+00  0.2000E+01
    -16.286  0.0000E+00  0.2000E+01
    -16.181  0.0000E+00  0.2000E+01
    -16.076  0.0000E+00  0.2000E+01
    -15.972  0.0000E+00  0.2000E+01
    -15.867  0.0000E+00  0.2000E+01
    -15.762  0.0000E+00  0.2000E+01
    -15.657  0.0000E+00  0.2000E+01
    -15.552  0.0000E+00  0.2000E+01
    -15.448  0.0000E+00  0.2000E+01
    -15.343  0.0000E+00  0.2000E+01
    -15.238  0.0000E+00  0.2000E+01
    -15.133  0.1428E-27  0.2000E+01
    -15.028  0.6259E-24  0.2000E+01
    -14.924  0.1561E-20  0.2000E+01
    -14.819  0.2209E-17  0.2000E+01
    -14.714  0.1768E-14  0.2000E+01
    -14.609  0.7980E-12  0.2000E+01
    -14.504  0.2016E-09  0.2000E+01
    -14.400  0.2827E-07  0.2000E+01
    -14.295  0.2171E-05  0.2000E+01
    -14.190  0.8942E-04  0.2000E+01
    -14.085  0.1896E-02  0.2000E+01
    -13.980  0.1890E-01  0.2002E+01
    -13.876  0.6380E-01  0.2009E+01
    -13.771 -0.1320E+00  0.1995E+01
    -13.666 -0.8074E+00  0.1910E+01
    -13.561  0.1149E+01  0.2031E+01
    -13.456  0.7852E+01  0.2854E+01
    -13.352  0.9250E+01  0.3823E+01
    -13.247  0.2669E+01  0.4103E+01
    -13.142 -0.7778E+00  0.4021E+01
    -13.037 -0.2991E+00  0.3990E+01
    -12.932  0.6035E-01  0.3996E+01
    -12.828  0.2981E-01  0.4000E+01
    -12.723  0.3774E-02  0.4000E+01
    -12.618  0.2146E-03  0.4000E+01
    -12.513  0.6182E-05  0.4000E+01
    -12.408  0.9468E-07  0.4000E+01
    -12.304  0.1594E-08  0.4000E+01
    -12.199  0.9601E-07  0.4000E+01
    -12.094  0.6257E-05  0.4000E+01
    -11.989  0.2168E-03  0.4000E+01
    -11.884  0.3804E-02  0.4000E+01
    -11.780  0.2995E-01  0.4004E+01
    -11.675  0.6019E-01  0.4010E+01
    -11.570 -0.3012E+00  0.3978E+01
    -11.465 -0.7731E+00  0.3897E+01
    -11.360  0.2714E+01  0.4182E+01
    -11.256  0.9328E+01  0.5159E+01
    -11.151  0.7621E+01  0.5958E+01
    -11.046  0.3438E+00  0.5994E+01
    -10.941  0.1176E+01  0.6117E+01
    -10.836  0.8241E+01  0.6981E+01
    -10.732  0.7858E+01  0.7804E+01
    -10.627  0.4580E+01  0.8284E+01
    -10.522  0.8491E+01  0.9174E+01
    -10.417  0.7556E+01  0.9966E+01
    -10.312  0.1140E+01  0.1009E+02
    -10.208 -0.7793E+00  0.1000E+02
    -10.103 -0.1215E+00  0.9991E+01
     -9.998  0.6364E-01  0.9998E+01
     -9.893  0.1838E-01  0.1000E+02
     -9.788  0.1821E-02  0.1000E+02
     -9.684  0.8498E-04  0.1000E+02
     -9.579  0.2044E-05  0.1000E+02
     -9.474  0.2637E-07  0.1000E+02
     -9.369  0.1864E-09  0.1000E+02
     -9.264  0.7310E-12  0.1000E+02
     -9.160  0.2119E-14  0.1000E+02
     -9.055  0.0000E+00  0.1000E+02
     -8.950  0.0000E+00  0.1000E+02
     -8.845  0.0000E+00  0.1000E+02
     -8.740  0.0000E+00  0.1000E+02
     -8.636  0.0000E+00  0.1000E+02
     -8.531  0.0000E+00  0.1000E+02
     -8.426  0.0000E+00  0.1000E+02
     -8.321  0.6606E-26  0.1000E+02
     -8.216  0.2249E-22  0.1000E+02
     -8.112  0.4350E-19  0.1000E+02
     -8.007  0.4771E-16  0.1000E+02
     -7.902  0.2955E-13  0.1000E+02
     -7.797  0.1032E-10  0.1000E+02
     -7.692  0.2008E-08  0.1000E+02
     -7.588  0.2166E-06  0.1000E+02
     -7.483  0.1275E-04  0.1000E+02
     -7.378  0.4014E-03  0.1000E+02
     -7.273  0.6473E-02  0.1000E+02
     -7.168  0.4849E-01  0.1001E+02
     -7.064  0.1119E+00  0.1002E+02
     -6.959 -0.3330E+00  0.9983E+01
     -6.854 -0.1324E+01  0.9844E+01
     -6.749  0.2544E+01  0.1011E+02
     -6.644  0.1652E+02  0.1184E+02
     -6.540  0.2581E+02  0.1455E+02
     -6.435  0.1332E+02  0.1594E+02
     -6.330  0.1555E+00  0.1596E+02
     -6.225  0.1287E+02  0.1731E+02
     -6.120  0.2819E+02  0.2026E+02
     -6.016  0.1793E+02  0.2214E+02
     -5.911  0.1387E+02  0.2360E+02
     -5.806  0.3911E+02  0.2769E+02
     -5.701  0.8550E+02  0.3665E+02
     -5.596  0.1741E+03  0.5490E+02
     -5.492  0.2816E+03  0.8441E+02
     -5.387  0.2922E+03  0.1150E+03
     -5.282  0.2232E+03  0.1384E+03
     -5.177  0.2199E+03  0.1615E+03
     -5.072  0.3044E+03  0.1934E+03
     -4.968  0.3659E+03  0.2317E+03
     -4.863  0.3292E+03  0.2662E+03
     -4.758  0.3019E+03  0.2979E+03
     -4.653  0.3676E+03  0.3364E+03
     -4.548  0.4130E+03  0.3797E+03
     -4.444  0.4211E+03  0.4238E+03
     -4.339  0.5100E+03  0.4773E+03
     -4.234  0.5524E+03  0.5351E+03
     -4.129  0.3486E+03  0.5717E+03
     -4.024  0.8930E+02  0.5810E+03
     -3.920  0.6445E+01  0.5817E+03
     -3.815  0.2302E+02  0.5841E+03
     -3.710  0.2343E+02  0.5866E+03
     -3.605  0.1767E+02  0.5884E+03
     -3.500  0.2724E+02  0.5913E+03
     -3.396  0.2303E+02  0.5937E+03
     -3.291  0.1047E+01  0.5938E+03
     -3.186  0.2361E+01  0.5941E+03
     -3.081  0.4074E+02  0.5983E+03
     -2.976  0.6179E+02  0.6048E+03
     -2.872  0.3220E+02  0.6082E+03
     -2.767  0.5819E+01  0.6088E+03
     -2.662  0.1018E+02  0.6099E+03
     -2.557  0.2516E+02  0.6125E+03
     -2.452  0.2840E+02  0.6155E+03
     -2.348  0.1593E+02  0.6171E+03
     -2.243  0.1104E+02  0.6183E+03
     -2.138  0.2377E+02  0.6208E+03
     -2.033  0.3655E+02  0.6246E+03
     -1.928  0.4027E+02  0.6288E+03
     -1.824  0.3977E+02  0.6330E+03
     -1.719  0.3895E+02  0.6371E+03
     -1.614  0.3755E+02  0.6410E+03
     -1.509  0.2609E+02  0.6438E+03
     -1.404  0.1898E+02  0.6457E+03
     -1.300  0.2807E+02  0.6487E+03
     -1.195  0.2896E+02  0.6517E+03
     -1.090  0.2670E+02  0.6545E+03
     -0.985  0.5023E+02  0.6598E+03
     -0.880  0.6629E+02  0.6667E+03
     -0.776  0.4223E+02  0.6712E+03
     -0.671  0.1056E+02  0.6723E+03
     -0.566 -0.1614E+01  0.6721E+03
     -0.461 -0.1197E+01  0.6720E+03
     -0.356  0.1155E+00  0.6720E+03
     -0.252  0.1530E+00  0.6720E+03
     -0.147  0.3128E-01  0.6720E+03
     -0.042  0.2783E-02  0.6720E+03
      0.063  0.1247E-03  0.6720E+03
      0.168  0.2964E-05  0.6720E+03
      0.272  0.3842E-07  0.6720E+03
      0.377  0.2756E-09  0.6720E+03
      0.482  0.1104E-11  0.6720E+03
      0.587  0.2119E-14  0.6720E+03
      0.692  0.0000E+00  0.6720E+03
      0.796  0.0000E+00  0.6720E+03
      0.901  0.0000E+00  0.6720E+03
      1.006  0.0000E+00  0.6720E+03
      1.111  0.0000E+00  0.6720E+03
      1.216  0.0000E+00  0.6720E+03
