  57  57   0   0
  0.4736842E+03  0.3000000E-08  0.3000000E-08  0.3000000E-08  0.5000000E-15
  1.000000000000000E-004
  CAR 
 6_Pd100_top_free_z(O)                   
      1.24827234    -30.29372334  301     -4.14539583      1.00000000
    -30.294  0.0000E+00  0.0000E+00
    -30.189  0.0000E+00  0.0000E+00
    -30.083  0.0000E+00  0.0000E+00
    -29.978  0.2355E-27  0.2476E-28
    -29.873  0.1025E-23  0.1078E-24
    -29.768  0.2530E-20  0.2661E-21
    -29.663  0.3529E-17  0.3713E-18
    -29.558  0.2774E-14  0.2920E-15
    -29.453  0.1225E-11  0.1291E-12
    -29.347  0.3013E-09  0.3181E-10
    -29.242  0.4095E-07  0.4337E-08
    -29.137  0.3033E-05  0.3232E-06
    -29.032  0.1196E-03  0.1290E-04
    -28.927  0.2408E-02  0.2660E-03
    -28.822  0.2235E-01  0.2616E-02
    -28.717  0.6462E-01  0.9410E-02
    -28.611 -0.1883E+00 -0.1039E-01
    -28.506 -0.8220E+00 -0.9681E-01
    -28.401  0.1706E+01  0.8255E-01
    -28.296  0.8491E+01  0.9752E+00
    -28.191  0.8729E+01  0.1893E+01
    -28.086  0.1962E+01  0.2099E+01
    -27.981 -0.8190E+00  0.2013E+01
    -27.876 -0.2162E+00  0.1990E+01
    -27.770  0.6429E-01  0.1997E+01
    -27.665  0.2416E-01  0.2000E+01
    -27.560  0.2706E-02  0.2000E+01
    -27.455  0.1388E-03  0.2000E+01
    -27.350  0.3621E-05  0.2000E+01
    -27.245  0.5025E-07  0.2000E+01
    -27.140  0.3798E-09  0.2000E+01
    -27.034  0.1586E-11  0.2000E+01
    -26.929  0.4224E-14  0.2000E+01
    -26.824  0.0000E+00  0.2000E+01
    -26.719  0.0000E+00  0.2000E+01
    -26.614  0.0000E+00  0.2000E+01
    -26.509  0.0000E+00  0.2000E+01
    -26.404  0.0000E+00  0.2000E+01
    -26.298  0.0000E+00  0.2000E+01
    -26.193  0.0000E+00  0.2000E+01
    -26.088  0.0000E+00  0.2000E+01
    -25.983  0.0000E+00  0.2000E+01
    -25.878  0.0000E+00  0.2000E+01
    -25.773  0.0000E+00  0.2000E+01
    -25.668  0.0000E+00  0.2000E+01
    -25.562  0.0000E+00  0.2000E+01
    -25.457  0.0000E+00  0.2000E+01
    -25.352  0.0000E+00  0.2000E+01
    -25.247  0.0000E+00  0.2000E+01
    -25.142  0.0000E+00  0.2000E+01
    -25.037  0.0000E+00  0.2000E+01
    -24.932  0.0000E+00  0.2000E+01
    -24.826  0.0000E+00  0.2000E+01
    -24.721  0.0000E+00  0.2000E+01
    -24.616  0.0000E+00  0.2000E+01
    -24.511  0.0000E+00  0.2000E+01
    -24.406  0.0000E+00  0.2000E+01
    -24.301  0.0000E+00  0.2000E+01
    -24.196  0.0000E+00  0.2000E+01
    -24.090  0.0000E+00  0.2000E+01
    -23.985  0.0000E+00  0.2000E+01
    -23.880  0.0000E+00  0.2000E+01
    -23.775  0.0000E+00  0.2000E+01
    -23.670  0.0000E+00  0.2000E+01
    -23.565  0.0000E+00  0.2000E+01
    -23.460  0.0000E+00  0.2000E+01
    -23.354  0.0000E+00  0.2000E+01
    -23.249  0.0000E+00  0.2000E+01
    -23.144  0.0000E+00  0.2000E+01
    -23.039  0.0000E+00  0.2000E+01
    -22.934  0.0000E+00  0.2000E+01
    -22.829  0.0000E+00  0.2000E+01
    -22.724  0.0000E+00  0.2000E+01
    -22.619  0.0000E+00  0.2000E+01
    -22.513  0.0000E+00  0.2000E+01
    -22.408  0.0000E+00  0.2000E+01
    -22.303  0.0000E+00  0.2000E+01
    -22.198  0.0000E+00  0.2000E+01
    -22.093  0.0000E+00  0.2000E+01
    -21.988  0.0000E+00  0.2000E+01
    -21.883  0.0000E+00  0.2000E+01
    -21.777  0.0000E+00  0.2000E+01
    -21.672  0.0000E+00  0.2000E+01
    -21.567  0.0000E+00  0.2000E+01
    -21.462  0.0000E+00  0.2000E+01
    -21.357  0.0000E+00  0.2000E+01
    -21.252  0.0000E+00  0.2000E+01
    -21.147  0.0000E+00  0.2000E+01
    -21.041  0.0000E+00  0.2000E+01
    -20.936  0.0000E+00  0.2000E+01
    -20.831  0.0000E+00  0.2000E+01
    -20.726  0.0000E+00  0.2000E+01
    -20.621  0.0000E+00  0.2000E+01
    -20.516  0.0000E+00  0.2000E+01
    -20.411  0.0000E+00  0.2000E+01
    -20.305  0.0000E+00  0.2000E+01
    -20.200  0.0000E+00  0.2000E+01
    -20.095  0.0000E+00  0.2000E+01
    -19.990  0.0000E+00  0.2000E+01
    -19.885  0.0000E+00  0.2000E+01
    -19.780  0.0000E+00  0.2000E+01
    -19.675  0.0000E+00  0.2000E+01
    -19.569  0.0000E+00  0.2000E+01
    -19.464  0.0000E+00  0.2000E+01
    -19.359  0.0000E+00  0.2000E+01
    -19.254  0.0000E+00  0.2000E+01
    -19.149  0.0000E+00  0.2000E+01
    -19.044  0.0000E+00  0.2000E+01
    -18.939  0.0000E+00  0.2000E+01
    -18.833  0.0000E+00  0.2000E+01
    -18.728  0.0000E+00  0.2000E+01
    -18.623  0.0000E+00  0.2000E+01
    -18.518  0.0000E+00  0.2000E+01
    -18.413  0.0000E+00  0.2000E+01
    -18.308  0.0000E+00  0.2000E+01
    -18.203  0.0000E+00  0.2000E+01
    -18.097  0.0000E+00  0.2000E+01
    -17.992  0.0000E+00  0.2000E+01
    -17.887  0.0000E+00  0.2000E+01
    -17.782  0.0000E+00  0.2000E+01
    -17.677  0.0000E+00  0.2000E+01
    -17.572  0.0000E+00  0.2000E+01
    -17.467  0.0000E+00  0.2000E+01
    -17.362  0.0000E+00  0.2000E+01
    -17.256  0.0000E+00  0.2000E+01
    -17.151  0.0000E+00  0.2000E+01
    -17.046  0.0000E+00  0.2000E+01
    -16.941  0.0000E+00  0.2000E+01
    -16.836  0.0000E+00  0.2000E+01
    -16.731  0.0000E+00  0.2000E+01
    -16.626  0.0000E+00  0.2000E+01
    -16.520  0.0000E+00  0.2000E+01
    -16.415  0.0000E+00  0.2000E+01
    -16.310  0.0000E+00  0.2000E+01
    -16.205  0.0000E+00  0.2000E+01
    -16.100  0.0000E+00  0.2000E+01
    -15.995  0.0000E+00  0.2000E+01
    -15.890  0.0000E+00  0.2000E+01
    -15.784  0.0000E+00  0.2000E+01
    -15.679  0.0000E+00  0.2000E+01
    -15.574  0.0000E+00  0.2000E+01
    -15.469  0.0000E+00  0.2000E+01
    -15.364  0.0000E+00  0.2000E+01
    -15.259  0.0000E+00  0.2000E+01
    -15.154  0.0000E+00  0.2000E+01
    -15.048  0.0000E+00  0.2000E+01
    -14.943  0.1089E-26  0.2000E+01
    -14.838  0.4286E-23  0.2000E+01
    -14.733  0.9559E-20  0.2000E+01
    -14.628  0.1205E-16  0.2000E+01
    -14.523  0.8546E-14  0.2000E+01
    -14.418  0.3405E-11  0.2000E+01
    -14.312  0.7540E-09  0.2000E+01
    -14.207  0.9208E-07  0.2000E+01
    -14.102  0.6110E-05  0.2000E+01
    -13.997  0.2147E-03  0.2000E+01
    -13.892  0.3804E-02  0.2000E+01
    -13.787  0.3010E-01  0.2004E+01
    -13.682  0.5976E-01  0.2010E+01
    -13.576 -0.3082E+00  0.1977E+01
    -13.471 -0.7669E+00  0.1897E+01
    -13.366  0.2793E+01  0.2191E+01
    -13.261  0.9336E+01  0.3172E+01
    -13.156  0.7690E+01  0.3981E+01
    -13.051  0.1012E+01  0.4087E+01
    -12.946 -0.7965E+00  0.4003E+01
    -12.840 -0.1141E+00  0.3991E+01
    -12.735  0.6291E-01  0.3998E+01
    -12.630  0.1749E-01  0.4000E+01
    -12.525  0.1682E-02  0.4000E+01
    -12.420  0.7611E-04  0.4000E+01
    -12.315  0.1771E-05  0.4000E+01
    -12.210  0.3129E-07  0.4000E+01
    -12.105  0.8331E-06  0.4000E+01
    -11.999  0.4022E-04  0.4000E+01
    -11.894  0.1008E-02  0.4000E+01
    -11.789  0.1217E-01  0.4001E+01
    -11.684  0.5642E-01  0.4007E+01
    -11.579 -0.3134E-01  0.4004E+01
    -11.474 -0.6655E+00  0.3934E+01
    -11.369  0.3041E+00  0.3966E+01
    -11.263  0.6062E+01  0.4603E+01
    -11.158  0.9184E+01  0.5569E+01
    -11.053  0.7458E+01  0.6353E+01
    -10.948  0.9079E+01  0.7308E+01
    -10.843  0.6640E+01  0.8006E+01
    -10.738  0.6515E+00  0.8074E+01
    -10.633 -0.7082E+00  0.8000E+01
    -10.527 -0.1893E-01  0.7998E+01
    -10.422  0.7467E-01  0.8006E+01
    -10.317 -0.5572E+00  0.7947E+01
    -10.212 -0.2650E+00  0.7919E+01
    -10.107  0.5169E+01  0.8463E+01
    -10.002  0.1003E+02  0.9517E+01
     -9.897  0.5325E+01  0.1008E+02
     -9.791 -0.2135E+00  0.1005E+02
     -9.686 -0.5886E+00  0.9993E+01
     -9.581  0.9237E-02  0.9994E+01
     -9.476  0.4852E-01  0.9999E+01
     -9.371  0.8790E-02  0.1000E+02
     -9.266  0.6467E-03  0.1000E+02
     -9.161  0.2329E-04  0.1000E+02
     -9.055  0.4381E-06  0.1000E+02
     -8.950  0.4446E-08  0.1000E+02
     -8.845  0.2476E-10  0.1000E+02
     -8.740  0.7603E-13  0.1000E+02
     -8.635  0.0000E+00  0.1000E+02
     -8.530  0.0000E+00  0.1000E+02
     -8.425  0.0000E+00  0.1000E+02
     -8.319  0.8274E-27  0.1000E+02
     -8.214  0.3316E-23  0.1000E+02
     -8.109  0.7532E-20  0.1000E+02
     -8.004  0.9667E-17  0.1000E+02
     -7.899  0.6987E-14  0.1000E+02
     -7.794  0.2836E-11  0.1000E+02
     -7.689  0.6400E-09  0.1000E+02
     -7.583  0.7968E-07  0.1000E+02
     -7.478  0.5393E-05  0.1000E+02
     -7.373  0.1935E-03  0.1000E+02
     -7.268  0.3509E-02  0.1000E+02
     -7.163  0.2860E-01  0.1000E+02
     -7.058  0.6140E-01  0.1001E+02
     -6.953 -0.2847E+00  0.9980E+01
     -6.848 -0.7802E+00  0.9898E+01
     -6.742  0.2635E+01  0.1017E+02
     -6.637  0.9366E+01  0.1116E+02
     -6.532  0.7688E+01  0.1197E+02
     -6.427 -0.5895E+00  0.1191E+02
     -6.322  0.5633E+00  0.1197E+02
     -6.217  0.1938E+02  0.1400E+02
     -6.112  0.3747E+02  0.1794E+02
     -6.006  0.2783E+02  0.2087E+02
     -5.901  0.1308E+02  0.2224E+02
     -5.796  0.3032E+02  0.2543E+02
     -5.691  0.7740E+02  0.3357E+02
     -5.586  0.1633E+03  0.5074E+02
     -5.481  0.2682E+03  0.7894E+02
     -5.376  0.2889E+03  0.1093E+03
     -5.270  0.2289E+03  0.1334E+03
     -5.165  0.2210E+03  0.1566E+03
     -5.060  0.3015E+03  0.1883E+03
     -4.955  0.3607E+03  0.2262E+03
     -4.850  0.3243E+03  0.2603E+03
     -4.745  0.3027E+03  0.2922E+03
     -4.640  0.3753E+03  0.3316E+03
     -4.534  0.4221E+03  0.3760E+03
     -4.429  0.4166E+03  0.4198E+03
     -4.324  0.4912E+03  0.4715E+03
     -4.219  0.5500E+03  0.5293E+03
     -4.114  0.3739E+03  0.5686E+03
     -4.009  0.1117E+03  0.5803E+03
     -3.904  0.1299E+02  0.5817E+03
     -3.798  0.2483E+02  0.5843E+03
     -3.693  0.2496E+02  0.5869E+03
     -3.588  0.1357E+02  0.5884E+03
     -3.483  0.1946E+02  0.5904E+03
     -3.378  0.2274E+02  0.5928E+03
     -3.273  0.7491E+01  0.5936E+03
     -3.168  0.4091E+01  0.5940E+03
     -3.062  0.3900E+02  0.5981E+03
     -2.957  0.6404E+02  0.6049E+03
     -2.852  0.3912E+02  0.6090E+03
     -2.747  0.8625E+01  0.6099E+03
     -2.642  0.3730E+01  0.6103E+03
     -2.537  0.1640E+02  0.6120E+03
     -2.432  0.2265E+02  0.6144E+03
     -2.326  0.1647E+02  0.6161E+03
     -2.221  0.1642E+02  0.6178E+03
     -2.116  0.3013E+02  0.6210E+03
     -2.011  0.4210E+02  0.6254E+03
     -1.906  0.4249E+02  0.6299E+03
     -1.801  0.3674E+02  0.6338E+03
     -1.696  0.3481E+02  0.6374E+03
     -1.591  0.3664E+02  0.6413E+03
     -1.485  0.2978E+02  0.6444E+03
     -1.380  0.2241E+02  0.6468E+03
     -1.275  0.1948E+02  0.6488E+03
     -1.170  0.1597E+02  0.6505E+03
     -1.065  0.3021E+02  0.6537E+03
     -0.960  0.6023E+02  0.6600E+03
     -0.855  0.6577E+02  0.6669E+03
     -0.749  0.3920E+02  0.6710E+03
     -0.644  0.1116E+02  0.6722E+03
     -0.539 -0.9273E+00  0.6721E+03
     -0.434 -0.1228E+01  0.6720E+03
     -0.329  0.6556E-01  0.6720E+03
     -0.224  0.1526E+00  0.6720E+03
     -0.119  0.3316E-01  0.6720E+03
     -0.013  0.3043E-02  0.6720E+03
      0.092  0.1390E-03  0.6720E+03
      0.197  0.3352E-05  0.6720E+03
      0.302  0.4383E-07  0.6720E+03
      0.407  0.3158E-09  0.6720E+03
      0.512  0.1265E-11  0.6720E+03
      0.617  0.2112E-14  0.6720E+03
      0.723  0.0000E+00  0.6720E+03
      0.828  0.0000E+00  0.6720E+03
      0.933  0.0000E+00  0.6720E+03
      1.038  0.0000E+00  0.6720E+03
      1.143  0.0000E+00  0.6720E+03
      1.248  0.0000E+00  0.6720E+03
