   57   57    1    1
  0.4736842E+03  0.3000000E-08  0.3000000E-08  0.3000000E-08  0.5000000E-15
  1.000000000000000E-004
  CAR 
 6_Pd100_top_free_z(O)                   
    560      1    336
 
  0.0000000E+00  0.0000000E+00  0.0000000E+00  0.1000000E+01
    1      -28.130783   1.000000
    2      -13.373768   1.000000
    3      -11.278500   1.000000
    4      -10.790761   1.000000
    5      -10.261441   1.000000
    6       -6.672499   1.000000
    7       -6.522098   1.000000
    8       -6.372793   1.000000
    9       -6.176526   1.000000
   10       -6.137055   1.000000
   11       -6.125368   1.000000
   12       -5.919241   1.000000
   13       -5.846978   1.000000
   14       -5.829890   1.000000
   15       -5.810909   1.000000
   16       -5.753408   1.000000
   17       -5.738896   1.000000
   18       -5.700535   1.000000
   19       -5.694616   1.000000
   20       -5.688252   1.000000
   21       -5.680028   1.000000
   22       -5.637755   1.000000
   23       -5.620366   1.000000
   24       -5.607351   1.000000
   25       -5.603259   1.000000
   26       -5.591886   1.000000
   27       -5.578232   1.000000
   28       -5.575391   1.000000
   29       -5.555985   1.000000
   30       -5.552274   1.000000
   31       -5.546579   1.000000
   32       -5.531968   1.000000
   33       -5.523953   1.000000
   34       -5.523931   1.000000
   35       -5.519183   1.000000
   36       -5.518092   1.000000
   37       -5.512994   1.000000
   38       -5.498004   1.000000
   39       -5.494039   1.000000
   40       -5.484915   1.000000
   41       -5.478739   1.000000
   42       -5.476150   1.000000
   43       -5.472076   1.000000
   44       -5.470056   1.000000
   45       -5.468753   1.000000
   46       -5.459712   1.000000
   47       -5.442693   1.000000
   48       -5.435124   1.000000
   49       -5.434655   1.000000
   50       -5.430713   1.000000
   51       -5.427832   1.000000
   52       -5.418354   1.000000
   53       -5.410092   1.000000
   54       -5.409894   1.000000
   55       -5.401244   1.000000
   56       -5.392995   1.000000
   57       -5.378645   1.000000
   58       -5.354165   1.000000
   59       -5.345710   1.000000
   60       -5.335366   1.000000
   61       -5.331722   1.000000
   62       -5.331408   1.000000
   63       -5.323251   1.000000
   64       -5.320505   1.000000
   65       -5.307039   1.000000
   66       -5.304698   1.000000
   67       -5.299629   1.000000
   68       -5.289261   1.000000
   69       -5.253373   1.000000
   70       -5.247904   1.000000
   71       -5.234327   1.000000
   72       -5.219564   1.000000
   73       -5.205310   1.000000
   74       -5.204269   1.000000
   75       -5.202490   1.000000
   76       -5.185599   1.000000
   77       -5.184951   1.000000
   78       -5.181358   1.000000
   79       -5.175314   1.000000
   80       -5.171635   1.000000
   81       -5.168437   1.000000
   82       -5.146038   1.000000
   83       -5.135308   1.000000
   84       -5.132057   1.000000
   85       -5.129397   1.000000
   86       -5.120714   1.000000
   87       -5.115020   1.000000
   88       -5.105431   1.000000
   89       -5.093136   1.000000
   90       -5.082941   1.000000
   91       -5.080328   1.000000
   92       -5.064695   1.000000
   93       -5.059085   1.000000
   94       -5.058667   1.000000
   95       -5.056119   1.000000
   96       -5.054259   1.000000
   97       -5.052967   1.000000
   98       -5.044792   1.000000
   99       -5.042106   1.000000
  100       -5.035071   1.000000
  101       -5.028586   1.000000
  102       -5.025706   1.000000
  103       -5.015791   1.000000
  104       -5.012824   1.000000
  105       -5.007792   1.000000
  106       -5.005755   1.000000
  107       -5.000739   1.000000
  108       -4.998219   1.000000
  109       -4.995473   1.000000
  110       -4.985207   1.000000
  111       -4.981825   1.000000
  112       -4.977449   1.000000
  113       -4.970369   1.000000
  114       -4.968068   1.000000
  115       -4.963089   0.999999
  116       -4.961218   0.999999
  117       -4.949412   0.999999
  118       -4.943438   0.999999
  119       -4.937772   0.999999
  120       -4.932561   0.999998
  121       -4.923145   0.999998
  122       -4.918155   0.999997
  123       -4.914583   0.999997
  124       -4.912138   0.999997
  125       -4.906754   0.999996
  126       -4.904876   0.999996
  127       -4.887173   0.999993
  128       -4.882041   0.999992
  129       -4.871707   0.999988
  130       -4.858466   0.999982
  131       -4.849517   0.999977
  132       -4.844597   0.999974
  133       -4.843310   0.999973
  134       -4.841006   0.999971
  135       -4.838067   0.999968
  136       -4.833921   0.999964
  137       -4.818241   0.999944
  138       -4.806105   0.999922
  139       -4.802513   0.999914
  140       -4.788157   0.999875
  141       -4.787817   0.999874
  142       -4.774922   0.999826
  143       -4.765069   0.999779
  144       -4.760987   0.999756
  145       -4.747525   0.999666
  146       -4.741705   0.999619
  147       -4.735808   0.999566
  148       -4.735576   0.999564
  149       -4.723737   0.999437
  150       -4.707671   0.999217
  151       -4.700369   0.999096
  152       -4.695945   0.999016
  153       -4.693911   0.998977
  154       -4.689270   0.998885
  155       -4.686353   0.998824
  156       -4.680833   0.998701
  157       -4.677364   0.998619
  158       -4.676551   0.998599
  159       -4.673810   0.998532
  160       -4.667267   0.998361
  161       -4.663162   0.998247
  162       -4.658498   0.998111
  163       -4.652928   0.997941
  164       -4.652211   0.997918
  165       -4.651208   0.997887
  166       -4.649345   0.997827
  167       -4.648098   0.997786
  168       -4.645507   0.997701
  169       -4.639442   0.997494
  170       -4.635883   0.997369
  171       -4.620101   0.996790
  172       -4.617291   0.996684
  173       -4.614846   0.996592
  174       -4.608377   0.996350
  175       -4.602319   0.996127
  176       -4.600698   0.996068
  177       -4.599454   0.996024
  178       -4.596247   0.995911
  179       -4.595247   0.995877
  180       -4.592448   0.995782
  181       -4.583054   0.995492
  182       -4.572259   0.995231
  183       -4.571394   0.995214
  184       -4.565139   0.995118
  185       -4.560440   0.995077
  186       -4.559283   0.995071
  187       -4.557413   0.995066
  188       -4.553409   0.995072
  189       -4.553010   0.995074
  190       -4.544630   0.995182
  191       -4.536064   0.995437
  192       -4.526969   0.995900
  193       -4.519271   0.996468
  194       -4.514882   0.996874
  195       -4.507072   0.997756
  196       -4.504230   0.998131
  197       -4.502551   0.998366
  198       -4.494734   0.999607
  199       -4.489153   1.000646
  200       -4.479122   1.002849
  201       -4.478193   1.003075
  202       -4.469822   1.005293
  203       -4.466541   1.006249
  204       -4.460892   1.008011
  205       -4.460225   1.008229
  206       -4.458274   1.008877
  207       -4.453620   1.010491
  208       -4.449270   1.012086
  209       -4.444356   1.013982
  210       -4.443218   1.014435
  211       -4.437921   1.016609
  212       -4.425905   1.021893
  213       -4.421865   1.023760
  214       -4.418940   1.025132
  215       -4.414722   1.027136
  216       -4.411274   1.028788
  217       -4.408880   1.029941
  218       -4.407336   1.030684
  219       -4.403150   1.032698
  220       -4.398656   1.034844
  221       -4.390210   1.038770
  222       -4.384267   1.041392
  223       -4.376005   1.044737
  224       -4.368486   1.047366
  225       -4.359105   1.049899
  226       -4.350066   1.051336
  227       -4.342195   1.051593
  228       -4.341445   1.051563
  229       -4.339941   1.051471
  230       -4.337532   1.051238
  231       -4.336933   1.051163
  232       -4.336562   1.051112
  233       -4.333358   1.050565
  234       -4.329134   1.049515
  235       -4.326173   1.048545
  236       -4.325959   1.048467
  237       -4.325219   1.048189
  238       -4.323488   1.047489
  239       -4.320906   1.046309
  240       -4.315452   1.043260
  241       -4.312479   1.041266
  242       -4.304794   1.034951
  243       -4.302073   1.032294
  244       -4.298067   1.027964
  245       -4.293873   1.022877
  246       -4.291682   1.019989
  247       -4.288127   1.014955
  248       -4.287761   1.014411
  249       -4.282473   1.006042
  250       -4.280337   1.002379
  251       -4.271367   0.985170
  252       -4.268930   0.979975
  253       -4.267714   0.977300
  254       -4.262081   0.964164
  255       -4.260354   0.959892
  256       -4.257762   0.953265
  257       -4.252963   0.940306
  258       -4.251865   0.937215
  259       -4.248045   0.926098
  260       -4.247232   0.923661
  261       -4.246002   0.919921
  262       -4.242864   0.910123
  263       -4.239399   0.898861
  264       -4.238700   0.896536
  265       -4.237673   0.893085
  266       -4.228240   0.859545
  267       -4.227906   0.858296
  268       -4.225408   0.848842
  269       -4.224492   0.845322
  270       -4.220634   0.830165
  271       -4.217752   0.818513
  272       -4.212540   0.796741
  273       -4.205215   0.764714
  274       -4.194962   0.717340
  275       -4.188865   0.687930
  276       -4.188305   0.685186
  277       -4.180069   0.644147
  278       -4.176639   0.626706
  279       -4.175935   0.623102
  280       -4.171779   0.601706
  281       -4.167428   0.579090
  282       -4.160833   0.544493
  283       -4.145209   0.461956
  284       -4.131723   0.391488
  285       -4.130723   0.386338
  286       -4.130355   0.384446
  287       -4.121282   0.338420
  288       -4.113175   0.298564
  289       -4.039961   0.029210
  290       -3.970908  -0.050674
  291       -3.910622  -0.036940
  292       -3.832449  -0.004584
  293       -3.819497  -0.001435
  294       -3.756727   0.004878
  295       -3.506651   0.000096
  296       -3.493331   0.000067
  297       -3.364751   0.000001
  298       -3.065327   0.000000
  299       -3.064264   0.000000
  300       -3.040605   0.000000
  301       -3.035039   0.000000
  302       -3.030365   0.000000
  303       -2.989119   0.000000
  304       -2.938415   0.000000
  305       -2.866135   0.000000
  306       -2.534974   0.000000
  307       -2.525678   0.000000
  308       -2.444496   0.000000
  309       -2.242256   0.000000
  310       -2.140462   0.000000
  311       -2.121018   0.000000
  312       -2.116605   0.000000
  313       -1.987180   0.000000
  314       -1.979118   0.000000
  315       -1.957049   0.000000
  316       -1.868868   0.000000
  317       -1.844188   0.000000
  318       -1.744131   0.000000
  319       -1.658878   0.000000
  320       -1.643739   0.000000
  321       -1.608220   0.000000
  322       -1.562683   0.000000
  323       -1.466388   0.000000
  324       -1.370412   0.000000
  325       -1.256249   0.000000
  326       -1.107910   0.000000
  327       -1.051349   0.000000
  328       -1.008662   0.000000
  329       -0.988258   0.000000
  330       -0.963732   0.000000
  331       -0.953018   0.000000
  332       -0.935819   0.000000
  333       -0.903015   0.000000
  334       -0.836316   0.000000
  335       -0.809812   0.000000
  336       -0.785648   0.000000
