  57  57   0   0
  0.4736842E+03  0.3000000E-08  0.3000000E-08  0.3000000E-08  0.5000000E-15
  1.000000000000000E-004
  CAR 
 6_Pd100_top_free_z(O)                   
      1.33677520    -30.45943307  301     -4.15685484      1.00000000
    -30.459  0.0000E+00  0.0000E+00
    -30.353  0.0000E+00  0.0000E+00
    -30.247  0.0000E+00  0.0000E+00
    -30.141  0.2879E-27  0.3052E-28
    -30.035  0.1320E-23  0.1399E-24
    -29.929  0.3397E-20  0.3602E-21
    -29.824  0.4897E-17  0.5194E-18
    -29.718  0.3940E-14  0.4181E-15
    -29.612  0.1764E-11  0.1874E-12
    -29.506  0.4356E-09  0.4636E-10
    -29.400  0.5881E-07  0.6279E-08
    -29.294  0.4278E-05  0.4597E-06
    -29.188  0.1637E-03  0.1781E-04
    -29.082  0.3141E-02  0.3507E-03
    -28.976  0.2696E-01  0.3208E-02
    -28.870  0.6234E-01  0.9815E-02
    -28.764 -0.2708E+00 -0.1889E-01
    -28.658 -0.7895E+00 -0.1026E+00
    -28.552  0.2558E+01  0.1686E+00
    -28.446  0.9213E+01  0.1145E+01
    -28.340  0.7818E+01  0.1974E+01
    -28.234  0.1078E+01  0.2088E+01
    -28.128 -0.7967E+00  0.2003E+01
    -28.022 -0.1130E+00  0.1991E+01
    -27.916  0.6252E-01  0.1998E+01
    -27.810  0.1688E-01  0.2000E+01
    -27.704  0.1565E-02  0.2000E+01
    -27.598  0.6773E-04  0.2000E+01
    -27.492  0.1493E-05  0.2000E+01
    -27.386  0.1745E-07  0.2000E+01
    -27.280  0.1104E-09  0.2000E+01
    -27.174  0.3834E-12  0.2000E+01
    -27.068  0.0000E+00  0.2000E+01
    -26.962  0.0000E+00  0.2000E+01
    -26.856  0.0000E+00  0.2000E+01
    -26.750  0.0000E+00  0.2000E+01
    -26.644  0.0000E+00  0.2000E+01
    -26.538  0.0000E+00  0.2000E+01
    -26.432  0.0000E+00  0.2000E+01
    -26.326  0.0000E+00  0.2000E+01
    -26.220  0.0000E+00  0.2000E+01
    -26.114  0.0000E+00  0.2000E+01
    -26.008  0.0000E+00  0.2000E+01
    -25.902  0.0000E+00  0.2000E+01
    -25.796  0.0000E+00  0.2000E+01
    -25.690  0.0000E+00  0.2000E+01
    -25.584  0.0000E+00  0.2000E+01
    -25.478  0.0000E+00  0.2000E+01
    -25.372  0.0000E+00  0.2000E+01
    -25.266  0.0000E+00  0.2000E+01
    -25.160  0.0000E+00  0.2000E+01
    -25.054  0.0000E+00  0.2000E+01
    -24.948  0.0000E+00  0.2000E+01
    -24.842  0.0000E+00  0.2000E+01
    -24.736  0.0000E+00  0.2000E+01
    -24.630  0.0000E+00  0.2000E+01
    -24.524  0.0000E+00  0.2000E+01
    -24.418  0.0000E+00  0.2000E+01
    -24.312  0.0000E+00  0.2000E+01
    -24.206  0.0000E+00  0.2000E+01
    -24.100  0.0000E+00  0.2000E+01
    -23.994  0.0000E+00  0.2000E+01
    -23.888  0.0000E+00  0.2000E+01
    -23.782  0.0000E+00  0.2000E+01
    -23.676  0.0000E+00  0.2000E+01
    -23.570  0.0000E+00  0.2000E+01
    -23.464  0.0000E+00  0.2000E+01
    -23.358  0.0000E+00  0.2000E+01
    -23.252  0.0000E+00  0.2000E+01
    -23.146  0.0000E+00  0.2000E+01
    -23.040  0.0000E+00  0.2000E+01
    -22.934  0.0000E+00  0.2000E+01
    -22.828  0.0000E+00  0.2000E+01
    -22.722  0.0000E+00  0.2000E+01
    -22.616  0.0000E+00  0.2000E+01
    -22.510  0.0000E+00  0.2000E+01
    -22.404  0.0000E+00  0.2000E+01
    -22.298  0.0000E+00  0.2000E+01
    -22.192  0.0000E+00  0.2000E+01
    -22.086  0.0000E+00  0.2000E+01
    -21.980  0.0000E+00  0.2000E+01
    -21.874  0.0000E+00  0.2000E+01
    -21.768  0.0000E+00  0.2000E+01
    -21.662  0.0000E+00  0.2000E+01
    -21.556  0.0000E+00  0.2000E+01
    -21.451  0.0000E+00  0.2000E+01
    -21.345  0.0000E+00  0.2000E+01
    -21.239  0.0000E+00  0.2000E+01
    -21.133  0.0000E+00  0.2000E+01
    -21.027  0.0000E+00  0.2000E+01
    -20.921  0.0000E+00  0.2000E+01
    -20.815  0.0000E+00  0.2000E+01
    -20.709  0.0000E+00  0.2000E+01
    -20.603  0.0000E+00  0.2000E+01
    -20.497  0.0000E+00  0.2000E+01
    -20.391  0.0000E+00  0.2000E+01
    -20.285  0.0000E+00  0.2000E+01
    -20.179  0.0000E+00  0.2000E+01
    -20.073  0.0000E+00  0.2000E+01
    -19.967  0.0000E+00  0.2000E+01
    -19.861  0.0000E+00  0.2000E+01
    -19.755  0.0000E+00  0.2000E+01
    -19.649  0.0000E+00  0.2000E+01
    -19.543  0.0000E+00  0.2000E+01
    -19.437  0.0000E+00  0.2000E+01
    -19.331  0.0000E+00  0.2000E+01
    -19.225  0.0000E+00  0.2000E+01
    -19.119  0.0000E+00  0.2000E+01
    -19.013  0.0000E+00  0.2000E+01
    -18.907  0.0000E+00  0.2000E+01
    -18.801  0.0000E+00  0.2000E+01
    -18.695  0.0000E+00  0.2000E+01
    -18.589  0.0000E+00  0.2000E+01
    -18.483  0.0000E+00  0.2000E+01
    -18.377  0.0000E+00  0.2000E+01
    -18.271  0.0000E+00  0.2000E+01
    -18.165  0.0000E+00  0.2000E+01
    -18.059  0.0000E+00  0.2000E+01
    -17.953  0.0000E+00  0.2000E+01
    -17.847  0.0000E+00  0.2000E+01
    -17.741  0.0000E+00  0.2000E+01
    -17.635  0.0000E+00  0.2000E+01
    -17.529  0.0000E+00  0.2000E+01
    -17.423  0.0000E+00  0.2000E+01
    -17.317  0.0000E+00  0.2000E+01
    -17.211  0.0000E+00  0.2000E+01
    -17.105  0.0000E+00  0.2000E+01
    -16.999  0.0000E+00  0.2000E+01
    -16.893  0.0000E+00  0.2000E+01
    -16.787  0.0000E+00  0.2000E+01
    -16.681  0.0000E+00  0.2000E+01
    -16.575  0.0000E+00  0.2000E+01
    -16.469  0.0000E+00  0.2000E+01
    -16.363  0.0000E+00  0.2000E+01
    -16.257  0.0000E+00  0.2000E+01
    -16.151  0.0000E+00  0.2000E+01
    -16.045  0.0000E+00  0.2000E+01
    -15.939  0.0000E+00  0.2000E+01
    -15.833  0.0000E+00  0.2000E+01
    -15.727  0.0000E+00  0.2000E+01
    -15.621  0.0000E+00  0.2000E+01
    -15.515  0.0000E+00  0.2000E+01
    -15.409  0.0000E+00  0.2000E+01
    -15.303  0.0000E+00  0.2000E+01
    -15.197  0.0000E+00  0.2000E+01
    -15.091  0.0000E+00  0.2000E+01
    -14.985  0.9314E-26  0.2000E+01
    -14.879  0.3382E-22  0.2000E+01
    -14.773  0.6890E-19  0.2000E+01
    -14.667  0.7850E-16  0.2000E+01
    -14.561  0.4984E-13  0.2000E+01
    -14.455  0.1757E-10  0.2000E+01
    -14.349  0.3404E-08  0.2000E+01
    -14.243  0.3587E-06  0.2000E+01
    -14.137  0.2020E-04  0.2000E+01
    -14.031  0.5894E-03  0.2000E+01
    -13.925  0.8345E-02  0.2001E+01
    -13.819  0.4764E-01  0.2006E+01
    -13.713  0.1084E-01  0.2007E+01
    -13.607 -0.5880E+00  0.1945E+01
    -13.501 -0.1892E+00  0.1925E+01
    -13.395  0.5441E+01  0.2501E+01
    -13.289  0.1002E+02  0.3563E+01
    -13.183  0.4934E+01  0.4086E+01
    -13.078 -0.3547E+00  0.4048E+01
    -12.972 -0.5335E+00  0.3992E+01
    -12.866  0.2576E-01  0.3995E+01
    -12.760  0.4397E-01  0.3999E+01
    -12.654  0.7148E-02  0.4000E+01
    -12.548  0.4790E-03  0.4000E+01
    -12.442  0.1568E-04  0.4000E+01
    -12.336  0.2665E-06  0.4000E+01
    -12.230  0.2434E-08  0.4000E+01
    -12.124  0.1756E-08  0.4000E+01
    -12.018  0.1995E-06  0.4000E+01
    -11.912  0.1225E-04  0.4000E+01
    -11.806  0.3918E-03  0.4000E+01
    -11.700  0.6183E-02  0.4001E+01
    -11.594  0.4169E-01  0.4005E+01
    -11.488  0.5188E-01  0.4011E+01
    -11.382 -0.4201E+00  0.3966E+01
    -11.276 -0.5634E+00  0.3906E+01
    -11.170  0.3684E+01  0.4297E+01
    -11.064  0.1068E+02  0.5429E+01
    -10.958  0.1326E+02  0.6834E+01
    -10.852  0.9563E+01  0.7848E+01
    -10.746  0.2030E+01  0.8063E+01
    -10.640 -0.1366E+01  0.7918E+01
    -10.534  0.3560E+01  0.8296E+01
    -10.428  0.9887E+01  0.9344E+01
    -10.322  0.6573E+01  0.1004E+02
    -10.216  0.2832E+00  0.1007E+02
    -10.110 -0.6981E+00  0.9996E+01
    -10.004 -0.3326E-01  0.9993E+01
     -9.898  0.5528E-01  0.9999E+01
     -9.792  0.1156E-01  0.1000E+02
     -9.686  0.9188E-03  0.1000E+02
     -9.580  0.3489E-04  0.1000E+02
     -9.474  0.6817E-06  0.1000E+02
     -9.368  0.7093E-08  0.1000E+02
     -9.262  0.4007E-10  0.1000E+02
     -9.156  0.1236E-12  0.1000E+02
     -9.050  0.0000E+00  0.1000E+02
     -8.944  0.0000E+00  0.1000E+02
     -8.838  0.0000E+00  0.1000E+02
     -8.732  0.0000E+00  0.1000E+02
     -8.626  0.0000E+00  0.1000E+02
     -8.520  0.0000E+00  0.1000E+02
     -8.414  0.0000E+00  0.1000E+02
     -8.308  0.4000E-26  0.1000E+02
     -8.202  0.1538E-22  0.1000E+02
     -8.096  0.3318E-19  0.1000E+02
     -7.990  0.4006E-16  0.1000E+02
     -7.884  0.2696E-13  0.1000E+02
     -7.778  0.1008E-10  0.1000E+02
     -7.672  0.2073E-08  0.1000E+02
     -7.566  0.2322E-06  0.1000E+02
     -7.460  0.1393E-04  0.1000E+02
     -7.354  0.4349E-03  0.1000E+02
     -7.248  0.6647E-02  0.1000E+02
     -7.142  0.4228E-01  0.1001E+02
     -7.036  0.3166E-01  0.1001E+02
     -6.930 -0.5075E+00  0.9955E+01
     -6.824 -0.4123E+00  0.9911E+01
     -6.718  0.4774E+01  0.1042E+02
     -6.612  0.1019E+02  0.1150E+02
     -6.506  0.5229E+01  0.1205E+02
     -6.400 -0.2478E+01  0.1179E+02
     -6.294  0.3293E+01  0.1214E+02
     -6.188  0.2909E+02  0.1522E+02
     -6.082  0.4298E+02  0.1978E+02
     -5.976  0.2164E+02  0.2207E+02
     -5.870  0.1347E+02  0.2350E+02
     -5.764  0.4336E+02  0.2809E+02
     -5.658  0.1054E+03  0.3927E+02
     -5.552  0.2123E+03  0.6177E+02
     -5.446  0.2951E+03  0.9305E+02
     -5.340  0.2641E+03  0.1210E+03
     -5.234  0.2076E+03  0.1430E+03
     -5.128  0.2463E+03  0.1692E+03
     -5.022  0.3377E+03  0.2049E+03
     -4.916  0.3517E+03  0.2422E+03
     -4.810  0.2983E+03  0.2738E+03
     -4.705  0.3281E+03  0.3086E+03
     -4.599  0.4129E+03  0.3524E+03
     -4.493  0.4224E+03  0.3971E+03
     -4.387  0.4448E+03  0.4443E+03
     -4.281  0.5426E+03  0.5018E+03
     -4.175  0.4908E+03  0.5538E+03
     -4.069  0.2265E+03  0.5778E+03
     -3.963  0.3247E+02  0.5813E+03
     -3.857  0.1356E+02  0.5827E+03
     -3.751  0.2961E+02  0.5858E+03
     -3.645  0.1780E+02  0.5877E+03
     -3.539  0.1576E+02  0.5894E+03
     -3.433  0.2571E+02  0.5921E+03
     -3.327  0.1511E+02  0.5937E+03
     -3.221 -0.6359E+00  0.5937E+03
     -3.115  0.2029E+02  0.5958E+03
     -3.009  0.5871E+02  0.6020E+03
     -2.903  0.5405E+02  0.6078E+03
     -2.797  0.1984E+02  0.6099E+03
     -2.691  0.1088E+01  0.6100E+03
     -2.585  0.7809E+01  0.6108E+03
     -2.479  0.2345E+02  0.6133E+03
     -2.373  0.2516E+02  0.6160E+03
     -2.267  0.1673E+02  0.6177E+03
     -2.161  0.2261E+02  0.6201E+03
     -2.055  0.3875E+02  0.6242E+03
     -1.949  0.3933E+02  0.6284E+03
     -1.843  0.3444E+02  0.6321E+03
     -1.737  0.3707E+02  0.6360E+03
     -1.631  0.3940E+02  0.6402E+03
     -1.525  0.3053E+02  0.6434E+03
     -1.419  0.2093E+02  0.6456E+03
     -1.313  0.2354E+02  0.6481E+03
     -1.207  0.2673E+02  0.6509E+03
     -1.101  0.2670E+02  0.6538E+03
     -0.995  0.4558E+02  0.6586E+03
     -0.889  0.6192E+02  0.6652E+03
     -0.783  0.4057E+02  0.6695E+03
     -0.677  0.1584E+02  0.6711E+03
     -0.571  0.7121E+01  0.6719E+03
     -0.465  0.1658E+01  0.6721E+03
     -0.359 -0.6155E+00  0.6720E+03
     -0.253 -0.1468E+00  0.6720E+03
     -0.147  0.8369E-01  0.6720E+03
     -0.041  0.2861E-01  0.6720E+03
      0.065  0.3205E-02  0.6720E+03
      0.171  0.1650E-03  0.6720E+03
      0.277  0.4293E-05  0.6720E+03
      0.383  0.5889E-07  0.6720E+03
      0.489  0.4359E-09  0.6720E+03
      0.595  0.1764E-11  0.6720E+03
      0.701  0.4190E-14  0.6720E+03
      0.807  0.0000E+00  0.6720E+03
      0.913  0.0000E+00  0.6720E+03
      1.019  0.0000E+00  0.6720E+03
      1.125  0.0000E+00  0.6720E+03
      1.231  0.0000E+00  0.6720E+03
      1.337  0.0000E+00  0.6720E+03
