<?xml version="1.0" encoding="ISO-8859-1"?>
<modeling>
 <generator>
  <i name="program" type="string">vasp </i>
  <i name="version" type="string">5.4.4.18Apr17-6-g9f103f2a35  </i>
  <i name="subversion" type="string">(build Sep 03 2018 23:53:05) complex            parallel </i>
  <i name="platform" type="string">LinuxIFC </i>
  <i name="date" type="string">2021 11 27 </i>
  <i name="time" type="string">11:32:53 </i>
 </generator>
 <incar>
  <i type="string" name="SYSTEM"> 6_Pd100_top_free_z(O)</i>
  <i type="int" name="ISTART">     0</i>
  <i type="string" name="PREC">normal   			! encut=max(enmax), ngx,y,z</i>
  <i type="string" name="ALGO"> Fast     			! Mix RMM-DIIS and Dav</i>
  <i type="logical" name="ADDGRID"> F  </i>
  <i type="int" name="ISPIN">     1</i>
  <i type="int" name="ICHARG">     2</i>
  <i type="int" name="NELM">   100</i>
  <i type="int" name="NELMIN">     6</i>
  <i type="int" name="IBRION">     2</i>
  <i name="EDIFF">      0.00010000</i>
  <i name="EDIFFG">     -0.05000000</i>
  <i type="int" name="NSW">     0</i>
  <i type="int" name="ISIF">     2</i>
  <i type="int" name="ISYM">     2</i>
  <i name="ENCUT">    400.00000000</i>
  <i type="string" name="LREAL"> Auto     			! Auto or A projection done</i>
  <i type="int" name="ISMEAR">     2</i>
  <i name="SIGMA">      0.20000000</i>
  <i type="logical" name="LWAVE"> F  </i>
  <i type="logical" name="LCHARG"> F  </i>
  <v type="int" name="KPOINT_BSE">    -1     0     0     0</v>
  <i type="int" name="MAXMEM"> 10000</i>
  <i type="int" name="NELM">   100</i>
  <i type="string" name="GGA"> RP         			! Revised PBE</i>
 </incar>
 <structure name="primitive_cell" >
  <crystal>
   <varray name="basis" >
    <v>      30.00000000       0.00000000       0.00000000 </v>
    <v>       0.00000000      30.00000000       0.00000000 </v>
    <v>       0.00000000       0.00000000      30.00000000 </v>
   </varray>
   <i name="volume">  27000.00000000 </i>
   <varray name="rec_basis" >
    <v>       0.03333333       0.00000000       0.00000000 </v>
    <v>       0.00000000       0.03333333       0.00000000 </v>
    <v>       0.00000000       0.00000000       0.03333333 </v>
   </varray>
  </crystal>
  <varray name="positions" >
   <v>       0.44576020       0.32826710       0.41691983 </v>
   <v>      -0.44576020       0.32826710       0.41691983 </v>
   <v>      -0.50000000       0.38250690       0.34021317 </v>
   <v>      -0.50000000       0.27609440      -0.50000000 </v>
   <v>       0.38804720       0.38804720       0.34167483 </v>
   <v>      -0.50000000       0.38416601      -0.50000000 </v>
   <v>       0.44208300       0.44208300       0.41809300 </v>
   <v>       0.38317830       0.38317830      -0.50000000 </v>
   <v>      -0.44208300       0.44208300       0.41809300 </v>
   <v>       0.44576020       0.32826710      -0.41691977 </v>
   <v>       0.32826705       0.44576024       0.41691983 </v>
   <v>      -0.38804720       0.38804720       0.34167483 </v>
   <v>      -0.38317830       0.38317830      -0.50000000 </v>
   <v>      -0.50000000      -0.50000000       0.33478917 </v>
   <v>      -0.50000000      -0.50000000      -0.50000000 </v>
   <v>      -0.44576020       0.32826710      -0.41691977 </v>
   <v>       0.38250685      -0.49999995       0.34021317 </v>
   <v>       0.44208300       0.44208300      -0.41809297 </v>
   <v>       0.38416599      -0.49999998      -0.50000000 </v>
   <v>      -0.44208300       0.44208300      -0.41809297 </v>
   <v>       0.44208298      -0.44208298       0.41809300 </v>
   <v>       0.32826705       0.44576024      -0.41691977 </v>
   <v>      -0.50000000       0.38250690      -0.34021320 </v>
   <v>       0.32826712      -0.44576022       0.41691983 </v>
   <v>      -0.38250685      -0.49999995       0.34021317 </v>
   <v>      -0.32826705       0.44576024       0.41691983 </v>
   <v>       0.27609443       0.49999998      -0.50000000 </v>
   <v>       0.38804720       0.38804720      -0.34167487 </v>
   <v>      -0.38416599      -0.49999998      -0.50000000 </v>
   <v>      -0.44208298      -0.44208298       0.41809300 </v>
   <v>       0.44208298      -0.44208298      -0.41809297 </v>
   <v>      -0.38804720       0.38804720      -0.34167487 </v>
   <v>       0.38804722      -0.38804722       0.34167483 </v>
   <v>       0.38250685      -0.49999995      -0.34021320 </v>
   <v>       0.32826712      -0.44576022      -0.41691977 </v>
   <v>      -0.32826705       0.44576024      -0.41691977 </v>
   <v>       0.50000000      -0.38250681       0.34021317 </v>
   <v>      -0.50000000      -0.38416596      -0.50000000 </v>
   <v>      -0.44208298      -0.44208298      -0.41809297 </v>
   <v>      -0.50000000      -0.50000000      -0.33478913 </v>
   <v>       0.38317828      -0.38317828      -0.50000000 </v>
   <v>       0.47134683       0.45210327      -0.29796460 </v>
   <v>      -0.32826712      -0.44576022       0.41691983 </v>
   <v>      -0.27609443       0.49999998      -0.50000000 </v>
   <v>      -0.38804722      -0.38804722       0.34167483 </v>
   <v>       0.46620683       0.44351123      -0.26172210 </v>
   <v>      -0.38250685      -0.49999995      -0.34021320 </v>
   <v>       0.44576027      -0.32826707       0.41691983 </v>
   <v>      -0.38317828      -0.38317828      -0.50000000 </v>
   <v>      -0.32826712      -0.44576022      -0.41691977 </v>
   <v>      -0.44576027      -0.32826707       0.41691983 </v>
   <v>       0.38804722      -0.38804722      -0.34167487 </v>
   <v>      -0.50000000      -0.38250681      -0.34021320 </v>
   <v>       0.44576027      -0.32826707      -0.41691977 </v>
   <v>      -0.44576027      -0.32826707      -0.41691977 </v>
   <v>      -0.50000000      -0.27609445       0.50000000 </v>
   <v>      -0.38804722      -0.38804722      -0.34167487 </v>
  </varray>
 </structure>
 <varray name="primitive_index" >
  <v type="int" >        1 </v>
  <v type="int" >        3 </v>
  <v type="int" >        5 </v>
  <v type="int" >        7 </v>
  <v type="int" >       15 </v>
  <v type="int" >       29 </v>
  <v type="int" >       28 </v>
  <v type="int" >       34 </v>
  <v type="int" >       21 </v>
  <v type="int" >       19 </v>
  <v type="int" >       22 </v>
  <v type="int" >       11 </v>
  <v type="int" >       36 </v>
  <v type="int" >       38 </v>
  <v type="int" >       52 </v>
  <v type="int" >       24 </v>
  <v type="int" >       32 </v>
  <v type="int" >       44 </v>
  <v type="int" >       48 </v>
  <v type="int" >       42 </v>
  <v type="int" >       43 </v>
  <v type="int" >       40 </v>
  <v type="int" >        6 </v>
  <v type="int" >        4 </v>
  <v type="int" >       30 </v>
  <v type="int" >       26 </v>
  <v type="int" >        8 </v>
  <v type="int" >       16 </v>
  <v type="int" >       49 </v>
  <v type="int" >       47 </v>
  <v type="int" >       53 </v>
  <v type="int" >       12 </v>
  <v type="int" >       13 </v>
  <v type="int" >       33 </v>
  <v type="int" >       25 </v>
  <v type="int" >       45 </v>
  <v type="int" >       50 </v>
  <v type="int" >       55 </v>
  <v type="int" >       54 </v>
  <v type="int" >       39 </v>
  <v type="int" >       37 </v>
  <v type="int" >       56 </v>
  <v type="int" >        2 </v>
  <v type="int" >        9 </v>
  <v type="int" >       17 </v>
  <v type="int" >       57 </v>
  <v type="int" >       31 </v>
  <v type="int" >       27 </v>
  <v type="int" >       35 </v>
  <v type="int" >       20 </v>
  <v type="int" >       23 </v>
  <v type="int" >       14 </v>
  <v type="int" >       51 </v>
  <v type="int" >       46 </v>
  <v type="int" >       41 </v>
  <v type="int" >       10 </v>
  <v type="int" >       18 </v>
 </varray>
 <kpoints>
  <generation param="Monkhorst-Pack">
   <v type="int" name="divisions">       1        1        1 </v>
   <v name="usershift">      0.00000000       0.00000000       0.00000000 </v>
   <v name="genvec1">      1.00000000       0.00000000       0.00000000 </v>
   <v name="genvec2">      0.00000000       1.00000000       0.00000000 </v>
   <v name="genvec3">      0.00000000       0.00000000       1.00000000 </v>
   <v name="shift">      0.00000000       0.00000000       0.00000000 </v>
  </generation>
  <varray name="kpointlist" >
   <v>       0.00000000       0.00000000       0.00000000 </v>
  </varray>
  <varray name="weights" >
   <v>       1.00000000 </v>
  </varray>
 </kpoints>
 <parameters>
  <separator name="general" >
   <i type="string" name="SYSTEM">6_Pd100_top_free_z(O)</i>
   <i type="logical" name="LCOMPAT"> F  </i>
  </separator>
  <separator name="electronic" >
   <i type="string" name="PREC">normal</i>
   <i name="ENMAX">    400.00000000</i>
   <i name="ENAUG">    644.87300000</i>
   <i name="EDIFF">      0.00010000</i>
   <i type="int" name="IALGO">    68</i>
   <i type="int" name="IWAVPR">    10</i>
   <i type="int" name="NBANDS">   336</i>
   <i name="NELECT">    560.00000000</i>
   <i type="int" name="TURBO">     0</i>
   <i type="int" name="IRESTART">     0</i>
   <i type="int" name="NREBOOT">     0</i>
   <i type="int" name="NMIN">     0</i>
   <i name="EREF">      0.00000000</i>
   <separator name="electronic smearing" >
    <i type="int" name="ISMEAR">     2</i>
    <i name="SIGMA">      0.20000000</i>
    <i name="KSPACING">      0.50000000</i>
    <i type="logical" name="KGAMMA"> T  </i>
   </separator>
   <separator name="electronic projectors" >
    <i type="logical" name="LREAL"> T  </i>
    <v name="ROPT">     -0.00050000     -0.00050000     -0.00050000</v>
    <i type="int" name="LMAXPAW">  -100</i>
    <i type="int" name="LMAXMIX">     2</i>
    <i type="logical" name="NLSPLINE"> F  </i>
   </separator>
   <separator name="electronic startup" >
    <i type="int" name="ISTART">     0</i>
    <i type="int" name="ICHARG">     2</i>
    <i type="int" name="INIWAV">     1</i>
   </separator>
   <separator name="electronic spin" >
    <i type="int" name="ISPIN">     1</i>
    <i type="logical" name="LNONCOLLINEAR"> F  </i>
    <v name="MAGMOM">      1.00000000      1.00000000      1.00000000      1.00000000      1.00000000      1.00000000      1.00000000      1.00000000      1.00000000      1.00000000      1.00000000      1.00000000      1.00000000      1.00000000      1.00000000      1.00000000      1.00000000      1.00000000      1.00000000      1.00000000
      1.00000000      1.00000000      1.00000000      1.00000000      1.00000000      1.00000000      1.00000000      1.00000000      1.00000000      1.00000000      1.00000000      1.00000000      1.00000000      1.00000000      1.00000000      1.00000000      1.00000000      1.00000000      1.00000000      1.00000000
      1.00000000      1.00000000      1.00000000      1.00000000      1.00000000      1.00000000      1.00000000      1.00000000      1.00000000      1.00000000      1.00000000      1.00000000      1.00000000      1.00000000      1.00000000      1.00000000      1.00000000</v>
    <i name="NUPDOWN">     -1.00000000</i>
    <i type="logical" name="LSORBIT"> F  </i>
    <v name="SAXIS">      0.00000000      0.00000000      1.00000000</v>
    <i type="logical" name="LSPIRAL"> F  </i>
    <v name="QSPIRAL">      0.00000000      0.00000000      0.00000000</v>
    <i type="logical" name="LZEROZ"> F  </i>
   </separator>
   <separator name="electronic exchange-correlation" >
    <i type="logical" name="LASPH"> F  </i>
    <i type="logical" name="LMETAGGA"> F  </i>
   </separator>
   <separator name="electronic convergence" >
    <i type="int" name="NELM">   100</i>
    <i type="int" name="NELMDL">    -5</i>
    <i type="int" name="NELMIN">     6</i>
    <i name="ENINI">    400.00000000</i>
    <separator name="electronic convergence detail" >
     <i type="logical" name="LDIAG"> T  </i>
     <i type="logical" name="LSUBROT"> F  </i>
     <i name="WEIMIN">      0.00000000</i>
     <i name="EBREAK">      0.00000007</i>
     <i name="DEPER">      0.30000000</i>
     <i type="int" name="NRMM">     4</i>
     <i name="TIME">      0.40000000</i>
    </separator>
   </separator>
   <separator name="electronic mixer" >
    <i name="AMIX">      0.40000000</i>
    <i name="BMIX">      1.00000000</i>
    <i name="AMIN">      0.10000000</i>
    <i name="AMIX_MAG">      1.60000000</i>
    <i name="BMIX_MAG">      1.00000000</i>
    <separator name="electronic mixer details" >
     <i type="int" name="IMIX">     4</i>
     <i type="logical" name="MIXFIRST"> F  </i>
     <i type="int" name="MAXMIX">   -45</i>
     <i name="WC">    100.00000000</i>
     <i type="int" name="INIMIX">     1</i>
     <i type="int" name="MIXPRE">     1</i>
     <i type="int" name="MREMOVE">     5</i>
    </separator>
   </separator>
   <separator name="electronic dipolcorrection" >
    <i type="logical" name="LDIPOL"> F  </i>
    <i type="logical" name="LMONO"> F  </i>
    <i type="int" name="IDIPOL">     0</i>
    <i name="EPSILON">      1.00000000</i>
    <v name="DIPOL">   -100.00000000   -100.00000000   -100.00000000</v>
    <i name="EFIELD">      0.00000000</i>
   </separator>
  </separator>
  <separator name="grids" >
   <i type="int" name="NGX">   150</i>
   <i type="int" name="NGY">   150</i>
   <i type="int" name="NGZ">   150</i>
   <i type="int" name="NGXF">   300</i>
   <i type="int" name="NGYF">   300</i>
   <i type="int" name="NGZF">   300</i>
   <i type="logical" name="ADDGRID"> F  </i>
  </separator>
  <separator name="ionic" >
   <i type="int" name="NSW">     0</i>
   <i type="int" name="IBRION">    -1</i>
   <i type="int" name="MDALGO">     0</i>
   <i type="int" name="ISIF">     2</i>
   <i name="PSTRESS">      0.00000000</i>
   <i name="EDIFFG">     -0.05000000</i>
   <i type="int" name="NFREE">     1</i>
   <i name="POTIM">      0.50000000</i>
   <i name="SMASS">     -3.00000000</i>
   <i name="SCALEE">      1.00000000</i>
  </separator>
  <separator name="ionic md" >
   <i name="TEBEG">      0.00010000</i>
   <i name="TEEND">      0.00010000</i>
   <i type="int" name="NBLOCK">     1</i>
   <i type="int" name="KBLOCK">     1</i>
   <i type="int" name="NPACO">   256</i>
   <i name="APACO">     16.00000000</i>
  </separator>
  <separator name="symmetry" >
   <i type="int" name="ISYM">     2</i>
   <i name="SYMPREC">      0.00001000</i>
  </separator>
  <separator name="dos" >
   <i type="int" name="LORBIT">     0</i>
   <v name="RWIGS">     -1.00000000     -1.00000000     -1.00000000</v>
   <i type="int" name="NEDOS">   301</i>
   <i name="EMIN">     10.00000000</i>
   <i name="EMAX">    -10.00000000</i>
   <i name="EFERMI">      0.00000000</i>
  </separator>
  <separator name="writing" >
   <i type="int" name="NWRITE">     2</i>
   <i type="logical" name="LWAVE"> F  </i>
   <i type="logical" name="LDOWNSAMPLE"> F  </i>
   <i type="logical" name="LCHARG"> F  </i>
   <i type="logical" name="LPARD"> F  </i>
   <i type="logical" name="LVTOT"> F  </i>
   <i type="logical" name="LVHAR"> F  </i>
   <i type="logical" name="LELF"> F  </i>
   <i type="logical" name="LOPTICS"> F  </i>
   <v name="STM">      0.00000000      0.00000000      0.00000000      0.00000000      0.00000000      0.00000000      0.00000000</v>
  </separator>
  <separator name="performance" >
   <i type="int" name="NPAR">     1</i>
   <i type="int" name="NSIM">     4</i>
   <i type="int" name="NBLK">    -1</i>
   <i type="logical" name="LPLANE"> T  </i>
   <i type="logical" name="LSCALAPACK"> T  </i>
   <i type="logical" name="LSCAAWARE"> F  </i>
   <i type="logical" name="LSCALU"> F  </i>
   <i type="logical" name="LASYNC"> F  </i>
   <i type="logical" name="LORBITALREAL"> F  </i>
  </separator>
  <separator name="miscellaneous" >
   <i type="int" name="IDIOT">     3</i>
   <i type="int" name="ISPECIAL">     0</i>
   <i type="logical" name="LMUSIC"> F  </i>
   <v name="POMASS">    106.42000000     12.01100000     16.00000000</v>
   <v name="DARWINR">      0.00000000      0.00000000      0.00000000</v>
   <v name="DARWINV">      1.00000000      1.00000000      1.00000000</v>
   <i type="logical" name="LCORR"> T  </i>
  </separator>
  <i type="logical" name="GGA_COMPAT"> T  </i>
  <i type="logical" name="LBERRY"> F  </i>
  <i type="int" name="ICORELEVEL">     0</i>
  <i type="logical" name="LDAU"> F  </i>
  <i type="int" name="I_CONSTRAINED_M">     0</i>
  <separator name="electronic exchange-correlation" >
   <i type="string" name="GGA">RP</i>
   <i type="int" name="VOSKOWN">     0</i>
   <i type="logical" name="LHFCALC"> F  </i>
   <i type="string" name="PRECFOCK"></i>
   <i type="logical" name="LSYMGRAD"> F  </i>
   <i type="logical" name="LHFONE"> F  </i>
   <i type="logical" name="LRHFCALC"> F  </i>
   <i type="logical" name="LTHOMAS"> F  </i>
   <i type="logical" name="LMODELHF"> F  </i>
   <i name="ENCUT4O">     -1.00000000</i>
   <i type="int" name="EXXOEP">     0</i>
   <i type="int" name="FOURORBIT">     0</i>
   <i name="AEXX">      0.00000000</i>
   <i name="HFALPHA">      0.00000000</i>
   <i name="MCALPHA">      0.00000000</i>
   <i name="ALDAX">      1.00000000</i>
   <i name="AGGAX">      1.00000000</i>
   <i name="ALDAC">      1.00000000</i>
   <i name="AGGAC">      1.00000000</i>
   <i type="int" name="NKREDX">     1</i>
   <i type="int" name="NKREDY">     1</i>
   <i type="int" name="NKREDZ">     1</i>
   <i type="logical" name="SHIFTRED"> F  </i>
   <i type="logical" name="ODDONLY"> F  </i>
   <i type="logical" name="EVENONLY"> F  </i>
   <i type="int" name="LMAXFOCK">     0</i>
   <i type="int" name="NMAXFOCKAE">     0</i>
   <i type="logical" name="LFOCKAEDFT"> F  </i>
   <i name="HFSCREEN">      0.00000000</i>
   <i name="HFSCREENC">      0.00000000</i>
   <i type="int" name="NBANDSGWLOW">     0</i>
  </separator>
  <separator name="vdW DFT" >
   <i type="logical" name="LUSE_VDW"> F  </i>
   <i name="Zab_VDW">     -0.84910000</i>
   <i name="PARAM1">      0.12340000</i>
   <i name="PARAM2">      1.00000000</i>
   <i name="PARAM3">      0.00000000</i>
  </separator>
  <separator name="model GW" >
   <i type="int" name="MODEL_GW">     0</i>
   <i name="MODEL_EPS0">    284.21052632</i>
   <i name="MODEL_ALPHA">      1.00000000</i>
  </separator>
  <separator name="linear response parameters" >
   <i type="logical" name="LEPSILON"> F  </i>
   <i type="logical" name="LRPA"> F  </i>
   <i type="logical" name="LNABLA"> F  </i>
   <i type="logical" name="LVEL"> F  </i>
   <i type="int" name="KINTER">     0</i>
   <i name="CSHIFT">      0.10000000</i>
   <i name="OMEGAMAX">     -1.00000000</i>
   <i name="DEG_THRESHOLD">      0.00200000</i>
   <i name="RTIME">     -0.10000000</i>
   <i name="WPLASMAI">      0.00000000</i>
   <v name="DFIELD">      0.00000000      0.00000000      0.00000000</v>
   <v name="WPLASMA">      0.00000000      0.00000000      0.00000000      0.00000000      0.00000000      0.00000000      0.00000000      0.00000000      0.00000000</v>
  </separator>
  <separator name="orbital magnetization" >
   <i type="logical" name="NUCIND"> F  </i>
   <v name="MAGPOS">      0.00000000      0.00000000      0.00000000</v>
   <i type="logical" name="LNICSALL"> T  </i>
   <i type="logical" name="ORBITALMAG"> F  </i>
   <i type="logical" name="LMAGBLOCH"> F  </i>
   <i type="logical" name="LCHIMAG"> F  </i>
   <i type="logical" name="LGAUGE"> T  </i>
   <i type="int" name="MAGATOM">     0</i>
   <v name="MAGDIPOL">      0.00000000      0.00000000      0.00000000</v>
   <v name="AVECCONST">      0.00000000      0.00000000      0.00000000</v>
  </separator>
  <separator name="response functions" >
   <i type="logical" name="LADDER"> F  </i>
   <i type="logical" name="LRPAFORCE"> F  </i>
   <i type="logical" name="LFXC"> F  </i>
   <i type="logical" name="LHARTREE"> T  </i>
   <i type="int" name="IBSE">     0</i>
   <v type="int" name="KPOINT">    -1     0     0     0</v>
   <i type="logical" name="LTCTE"> F  </i>
   <i type="logical" name="LTETE"> F  </i>
   <i type="logical" name="LTRIPLET"> F  </i>
   <i type="logical" name="LFXCEPS"> F  </i>
   <i type="logical" name="LFXHEG"> F  </i>
   <i type="int" name="NATURALO">     2</i>
   <i type="logical" name="L2ORDER"> F  </i>
   <i type="logical" name="LMP2LT"> F  </i>
   <i type="logical" name="LUSEW"> F  </i>
   <i name="ENCUTGW">     -2.00000000</i>
   <i name="ENCUTGWSOFT">     -2.00000000</i>
   <i name="ENCUTLF">     -1.00000000</i>
   <i type="int" name="LMAXMP2">    -1</i>
   <i name="SCISSOR">      0.00000000</i>
   <i type="int" name="NOMEGA">     0</i>
   <i type="int" name="NOMEGAR">     0</i>
   <i type="int" name="NBANDSGW">    -1</i>
   <i type="int" name="NBANDSO">    -1</i>
   <i type="int" name="NBANDSV">    -1</i>
   <i type="int" name="NELM">   100</i>
   <i type="int" name="NELMHF">     1</i>
   <i type="int" name="DIM">     3</i>
   <i type="int" name="ANTIRES">     0</i>
   <i name="OMEGAMAX">    -30.00000000</i>
   <i name="OMEGAMIN">    -30.00000000</i>
   <i name="OMEGATL">   -200.00000000</i>
   <i type="int" name="OMEGAGRID">   140</i>
   <i name="CSHIFT">     -0.10000000</i>
   <i type="logical" name="SELFENERGY"> F  </i>
   <i type="logical" name="LSPECTRAL"> F  </i>
   <i type="logical" name="LSPECTRALGW"> F  </i>
   <i type="logical" name="LSINGLES"> F  </i>
   <i type="logical" name="LFERMIGW"> F  </i>
   <i type="logical" name="ODDONLYGW"> F  </i>
   <i type="logical" name="EVENONLYGW"> F  </i>
   <i type="int" name="NKREDLFX">     1</i>
   <i type="int" name="NKREDLFY">     1</i>
   <i type="int" name="NKREDLFZ">     1</i>
   <i type="int" name="MAXMEM"> 10000</i>
   <i type="int" name="TELESCOPE">     0</i>
   <i type="int" name="TAUPAR">     1</i>
   <i type="int" name="OMEGAPAR">    -1</i>
   <i name="LAMBDA">      1.00000000</i>
  </separator>
  <separator name="External order field" >
   <i name="OFIELD_KAPPA">      0.00000000</i>
   <v name="OFIELD_K">      0.00000000      0.00000000      0.00000000</v>
   <i name="OFIELD_Q6_NEAR">      0.00000000</i>
   <i name="OFIELD_Q6_FAR">      0.00000000</i>
   <i name="OFIELD_A">      0.00000000</i>
  </separator>
 </parameters>
 <atominfo>
  <atoms>      57 </atoms>
  <types>       3 </types>
  <array name="atoms" >
   <dimension dim="1">ion</dimension>
   <field type="string">element</field>
   <field type="int">atomtype</field>
   <set>
    <rc><c>Pd</c><c>   1</c></rc>
    <rc><c>Pd</c><c>   1</c></rc>
    <rc><c>Pd</c><c>   1</c></rc>
    <rc><c>Pd</c><c>   1</c></rc>
    <rc><c>Pd</c><c>   1</c></rc>
    <rc><c>Pd</c><c>   1</c></rc>
    <rc><c>Pd</c><c>   1</c></rc>
    <rc><c>Pd</c><c>   1</c></rc>
    <rc><c>Pd</c><c>   1</c></rc>
    <rc><c>Pd</c><c>   1</c></rc>
    <rc><c>Pd</c><c>   1</c></rc>
    <rc><c>Pd</c><c>   1</c></rc>
    <rc><c>Pd</c><c>   1</c></rc>
    <rc><c>Pd</c><c>   1</c></rc>
    <rc><c>Pd</c><c>   1</c></rc>
    <rc><c>Pd</c><c>   1</c></rc>
    <rc><c>Pd</c><c>   1</c></rc>
    <rc><c>Pd</c><c>   1</c></rc>
    <rc><c>Pd</c><c>   1</c></rc>
    <rc><c>Pd</c><c>   1</c></rc>
    <rc><c>Pd</c><c>   1</c></rc>
    <rc><c>Pd</c><c>   1</c></rc>
    <rc><c>Pd</c><c>   1</c></rc>
    <rc><c>Pd</c><c>   1</c></rc>
    <rc><c>Pd</c><c>   1</c></rc>
    <rc><c>Pd</c><c>   1</c></rc>
    <rc><c>Pd</c><c>   1</c></rc>
    <rc><c>Pd</c><c>   1</c></rc>
    <rc><c>Pd</c><c>   1</c></rc>
    <rc><c>Pd</c><c>   1</c></rc>
    <rc><c>Pd</c><c>   1</c></rc>
    <rc><c>Pd</c><c>   1</c></rc>
    <rc><c>Pd</c><c>   1</c></rc>
    <rc><c>Pd</c><c>   1</c></rc>
    <rc><c>Pd</c><c>   1</c></rc>
    <rc><c>Pd</c><c>   1</c></rc>
    <rc><c>Pd</c><c>   1</c></rc>
    <rc><c>Pd</c><c>   1</c></rc>
    <rc><c>Pd</c><c>   1</c></rc>
    <rc><c>Pd</c><c>   1</c></rc>
    <rc><c>Pd</c><c>   1</c></rc>
    <rc><c>Pd</c><c>   1</c></rc>
    <rc><c>Pd</c><c>   1</c></rc>
    <rc><c>Pd</c><c>   1</c></rc>
    <rc><c>Pd</c><c>   1</c></rc>
    <rc><c>Pd</c><c>   1</c></rc>
    <rc><c>Pd</c><c>   1</c></rc>
    <rc><c>Pd</c><c>   1</c></rc>
    <rc><c>Pd</c><c>   1</c></rc>
    <rc><c>Pd</c><c>   1</c></rc>
    <rc><c>Pd</c><c>   1</c></rc>
    <rc><c>Pd</c><c>   1</c></rc>
    <rc><c>Pd</c><c>   1</c></rc>
    <rc><c>Pd</c><c>   1</c></rc>
    <rc><c>Pd</c><c>   1</c></rc>
    <rc><c>C </c><c>   2</c></rc>
    <rc><c>O </c><c>   3</c></rc>
   </set>
  </array>
  <array name="atomtypes" >
   <dimension dim="1">type</dimension>
   <field type="int">atomspertype</field>
   <field type="string">element</field>
   <field>mass</field>
   <field>valence</field>
   <field type="string">pseudopotential</field>
   <set>
    <rc><c>  55</c><c>Pd</c><c>    106.42000000</c><c>     10.00000000</c><c>  PAW_PBE Pd 04Jan2005                  </c></rc>
    <rc><c>   1</c><c>C </c><c>     12.01100000</c><c>      4.00000000</c><c>  PAW_PBE C 08Apr2002                   </c></rc>
    <rc><c>   1</c><c>O </c><c>     16.00000000</c><c>      6.00000000</c><c>  PAW_PBE O 08Apr2002                   </c></rc>
   </set>
  </array>
 </atominfo>
 <structure name="initialpos" >
  <crystal>
   <varray name="basis" >
    <v>      30.00000000       0.00000000       0.00000000 </v>
    <v>       0.00000000      30.00000000       0.00000000 </v>
    <v>       0.00000000       0.00000000      30.00000000 </v>
   </varray>
   <i name="volume">  27000.00000000 </i>
   <varray name="rec_basis" >
    <v>       0.03333333       0.00000000       0.00000000 </v>
    <v>       0.00000000       0.03333333       0.00000000 </v>
    <v>       0.00000000       0.00000000       0.03333333 </v>
   </varray>
  </crystal>
  <varray name="positions" >
   <v>       0.44576020       0.32826710       0.41691983 </v>
   <v>       0.67173288       0.55423978       0.41691983 </v>
   <v>       0.55423980       0.32826710       0.41691983 </v>
   <v>       0.32826712       0.55423978       0.41691983 </v>
   <v>       0.50000000       0.38250690       0.34021317 </v>
   <v>       0.50000000       0.38250690       0.65978680 </v>
   <v>       0.50000000       0.27609440       0.50000000 </v>
   <v>       0.27609443       0.49999998       0.50000000 </v>
   <v>       0.72390557       0.49999998       0.50000000 </v>
   <v>       0.50000000       0.72390555       0.50000000 </v>
   <v>       0.61195280       0.38804720       0.34167483 </v>
   <v>       0.61195280       0.38804720       0.65832513 </v>
   <v>       0.38804722       0.61195278       0.34167483 </v>
   <v>       0.38804722       0.61195278       0.65832513 </v>
   <v>       0.38804720       0.38804720       0.34167483 </v>
   <v>       0.38804720       0.38804720       0.65832513 </v>
   <v>       0.61195278       0.61195278       0.34167483 </v>
   <v>       0.61195278       0.61195278       0.65832513 </v>
   <v>       0.44576020       0.32826710       0.58308023 </v>
   <v>       0.67173288       0.55423978       0.58308023 </v>
   <v>       0.55791699       0.44208301       0.41809300 </v>
   <v>       0.32826705       0.44576024       0.41691983 </v>
   <v>       0.55423973       0.67173293       0.41691983 </v>
   <v>       0.55423980       0.32826710       0.58308023 </v>
   <v>       0.32826712       0.55423978       0.58308023 </v>
   <v>       0.67173295       0.44576024       0.41691983 </v>
   <v>       0.44576027       0.67173293       0.41691983 </v>
   <v>       0.44208301       0.44208301       0.41809300 </v>
   <v>       0.50000000       0.38416601       0.50000000 </v>
   <v>       0.61749315       0.50000005       0.34021317 </v>
   <v>       0.61749315       0.50000005       0.65978680 </v>
   <v>       0.38250685       0.50000005       0.34021317 </v>
   <v>       0.38250685       0.50000005       0.65978680 </v>
   <v>       0.38317830       0.38317830       0.50000000 </v>
   <v>       0.61682172       0.61682172       0.50000000 </v>
   <v>       0.61682170       0.38317830       0.50000000 </v>
   <v>       0.38317828       0.61682172       0.50000000 </v>
   <v>       0.50000000       0.50000000       0.33478917 </v>
   <v>       0.50000000       0.50000000       0.66521087 </v>
   <v>       0.32826705       0.44576024       0.58308023 </v>
   <v>       0.55423973       0.67173293       0.58308023 </v>
   <v>       0.55791699       0.44208301       0.58190703 </v>
   <v>       0.44208298       0.55791702       0.41809300 </v>
   <v>       0.44208301       0.44208301       0.58190703 </v>
   <v>       0.67173295       0.44576024       0.58308023 </v>
   <v>       0.44576027       0.67173293       0.58308023 </v>
   <v>       0.55791702       0.55791702       0.41809300 </v>
   <v>       0.38416599       0.50000002       0.50000000 </v>
   <v>       0.61583401       0.50000002       0.50000000 </v>
   <v>       0.50000000       0.61749319       0.34021317 </v>
   <v>       0.50000000       0.61749319       0.65978680 </v>
   <v>       0.50000000       0.50000000       0.50000000 </v>
   <v>       0.44208298       0.55791702       0.58190703 </v>
   <v>       0.55791702       0.55791702       0.58190703 </v>
   <v>       0.50000000       0.61583404       0.50000000 </v>
   <v>       0.47134683       0.45210327       0.70203540 </v>
   <v>       0.46620683       0.44351123       0.73827790 </v>
  </varray>
  <varray name="selective"  type="logical" >
   <v type="logical" >  F  F  F </v>
   <v type="logical" >  F  F  F </v>
   <v type="logical" >  F  F  F </v>
   <v type="logical" >  F  F  F </v>
   <v type="logical" >  F  F  F </v>
   <v type="logical" >  F  F  F </v>
   <v type="logical" >  F  F  F </v>
   <v type="logical" >  F  F  F </v>
   <v type="logical" >  F  F  F </v>
   <v type="logical" >  F  F  F </v>
   <v type="logical" >  F  F  F </v>
   <v type="logical" >  F  F  F </v>
   <v type="logical" >  F  F  F </v>
   <v type="logical" >  F  F  F </v>
   <v type="logical" >  F  F  F </v>
   <v type="logical" >  F  F  F </v>
   <v type="logical" >  F  F  F </v>
   <v type="logical" >  F  F  F </v>
   <v type="logical" >  F  F  F </v>
   <v type="logical" >  F  F  F </v>
   <v type="logical" >  F  F  F </v>
   <v type="logical" >  F  F  F </v>
   <v type="logical" >  F  F  F </v>
   <v type="logical" >  F  F  F </v>
   <v type="logical" >  F  F  F </v>
   <v type="logical" >  F  F  F </v>
   <v type="logical" >  F  F  F </v>
   <v type="logical" >  F  F  F </v>
   <v type="logical" >  F  F  F </v>
   <v type="logical" >  F  F  F </v>
   <v type="logical" >  F  F  F </v>
   <v type="logical" >  F  F  F </v>
   <v type="logical" >  F  F  F </v>
   <v type="logical" >  F  F  F </v>
   <v type="logical" >  F  F  F </v>
   <v type="logical" >  F  F  F </v>
   <v type="logical" >  F  F  F </v>
   <v type="logical" >  F  F  F </v>
   <v type="logical" >  F  F  F </v>
   <v type="logical" >  F  F  F </v>
   <v type="logical" >  F  F  F </v>
   <v type="logical" >  F  F  F </v>
   <v type="logical" >  F  F  F </v>
   <v type="logical" >  F  F  F </v>
   <v type="logical" >  F  F  F </v>
   <v type="logical" >  F  F  F </v>
   <v type="logical" >  F  F  F </v>
   <v type="logical" >  F  F  F </v>
   <v type="logical" >  F  F  F </v>
   <v type="logical" >  F  F  F </v>
   <v type="logical" >  F  F  F </v>
   <v type="logical" >  F  F  F </v>
   <v type="logical" >  F  F  F </v>
   <v type="logical" >  F  F  F </v>
   <v type="logical" >  F  F  F </v>
   <v type="logical" >  F  F  F </v>
   <v type="logical" >  F  F  F </v>
  </varray>
  <nose>
   <v>      -3.00000000       0.00000000       0.00010000       0.00010000 </v>
  </nose>
 </structure>
 <calculation>
  <scstep>
   <time name="dav">  382.62  382.70</time>
   <time name="total">  397.30  397.39</time>
   <energy>
    <i name="alphaZ">     75.25431677 </i>
    <i name="ewald"> 139303.38227724 </i>
    <i name="hartreedc">-182663.40055002 </i>
    <i name="XCdc">  -1702.76829889 </i>
    <i name="pawpsdc">  44873.02882129 </i>
    <i name="pawaedc"> -41398.84523641 </i>
    <i name="eentropy">     -0.00492130 </i>
    <i name="bandstr">    821.01427092 </i>
    <i name="atom">  45086.50549395 </i>
    <i name="e_fr_energy">   4394.16617356 </i>
    <i name="e_wo_entrp">   4394.17109486 </i>
    <i name="e_0_energy">   4394.16740388 </i>
   </energy>
  </scstep>
  <scstep>
   <time name="dav">  619.83  619.86</time>
   <time name="total">  619.83  619.86</time>
   <energy>
    <i name="e_fr_energy">   2011.00395793 </i>
    <i name="e_wo_entrp">   2011.03202082 </i>
    <i name="e_0_energy">   2011.01097365 </i>
   </energy>
  </scstep>
  <scstep>
   <time name="dav">  526.62  526.62</time>
   <time name="total">  526.62  526.62</time>
   <energy>
    <i name="e_fr_energy">    229.33944899 </i>
    <i name="e_wo_entrp">    229.35893545 </i>
    <i name="e_0_energy">    229.34432061 </i>
   </energy>
  </scstep>
  <scstep>
   <time name="dav">  445.50  445.51</time>
   <time name="total">  445.50  445.51</time>
   <energy>
    <i name="e_fr_energy">   -134.55249333 </i>
    <i name="e_wo_entrp">   -134.54705781 </i>
    <i name="e_0_energy">   -134.55113445 </i>
   </energy>
  </scstep>
  <scstep>
   <time name="dav">  547.86  547.87</time>
   <time name="total">  575.32  575.33</time>
   <energy>
    <i name="e_fr_energy">   -179.97420917 </i>
    <i name="e_wo_entrp">   -180.42582636 </i>
    <i name="e_0_energy">   -180.08711347 </i>
   </energy>
  </scstep>
  <scstep>
   <time name="diag">   71.51   71.51</time>
   <time name="diis">  200.95  200.96</time>
   <time name="orth">   13.92   13.92</time>
   <time name="total">  327.28  327.30</time>
   <energy>
    <i name="e_fr_energy">   -179.82661210 </i>
    <i name="e_wo_entrp">   -179.73071137 </i>
    <i name="e_0_energy">   -179.80263692 </i>
   </energy>
  </scstep>
  <scstep>
   <time name="diag">   70.86   70.87</time>
   <time name="diis">  236.17  236.18</time>
   <time name="orth">   13.75   13.75</time>
   <time name="total">  362.00  362.02</time>
   <energy>
    <i name="e_fr_energy">   -182.96491426 </i>
    <i name="e_wo_entrp">   -182.82918073 </i>
    <i name="e_0_energy">   -182.93098088 </i>
   </energy>
  </scstep>
  <scstep>
   <time name="diag">   72.50   72.50</time>
   <time name="diis">  217.37  217.38</time>
   <time name="orth">   14.10   14.10</time>
   <time name="total">  345.92  345.93</time>
   <energy>
    <i name="e_fr_energy">   -184.06326376 </i>
    <i name="e_wo_entrp">   -183.92340189 </i>
    <i name="e_0_energy">   -184.02829829 </i>
   </energy>
  </scstep>
  <scstep>
   <time name="diag">   71.63   71.64</time>
   <time name="diis">  203.18  203.20</time>
   <time name="orth">   14.25   14.25</time>
   <time name="total">  331.51  331.53</time>
   <energy>
    <i name="e_fr_energy">   -183.09608796 </i>
    <i name="e_wo_entrp">   -182.92978611 </i>
    <i name="e_0_energy">   -183.05451250 </i>
   </energy>
  </scstep>
  <scstep>
   <time name="diag">   71.30   71.30</time>
   <time name="diis">  202.80  202.81</time>
   <time name="orth">   14.04   14.04</time>
   <time name="total">  330.44  330.46</time>
   <energy>
    <i name="e_fr_energy">   -180.51165738 </i>
    <i name="e_wo_entrp">   -180.60422991 </i>
    <i name="e_0_energy">   -180.53480051 </i>
   </energy>
  </scstep>
  <scstep>
   <time name="diag">   72.12   72.13</time>
   <time name="diis">  202.51  202.51</time>
   <time name="orth">   14.44   14.44</time>
   <time name="total">  331.77  331.78</time>
   <energy>
    <i name="e_fr_energy">   -179.09177665 </i>
    <i name="e_wo_entrp">   -179.02784109 </i>
    <i name="e_0_energy">   -179.07579276 </i>
   </energy>
  </scstep>
  <scstep>
   <time name="diag">   71.60   71.60</time>
   <time name="diis">  199.11  199.11</time>
   <time name="orth">   14.29   14.29</time>
   <time name="total">  327.71  327.71</time>
   <energy>
    <i name="e_fr_energy">   -177.66373882 </i>
    <i name="e_wo_entrp">   -177.62091181 </i>
    <i name="e_0_energy">   -177.65303207 </i>
   </energy>
  </scstep>
  <scstep>
   <time name="diag">   69.86   69.86</time>
   <time name="diis">  198.69  198.70</time>
   <time name="orth">   14.06   14.06</time>
   <time name="total">  324.00  324.00</time>
   <energy>
    <i name="e_fr_energy">   -177.14568893 </i>
    <i name="e_wo_entrp">   -177.07465999 </i>
    <i name="e_0_energy">   -177.12793169 </i>
   </energy>
  </scstep>
  <scstep>
   <time name="diag">   69.39   69.39</time>
   <time name="diis">  198.50  198.50</time>
   <time name="orth">   14.21   14.21</time>
   <time name="total">  323.05  323.05</time>
   <energy>
    <i name="e_fr_energy">   -177.11860931 </i>
    <i name="e_wo_entrp">   -177.10863343 </i>
    <i name="e_0_energy">   -177.11611534 </i>
   </energy>
  </scstep>
  <scstep>
   <time name="diag">   68.85   68.85</time>
   <time name="diis">  196.39  196.40</time>
   <time name="orth">   14.03   14.03</time>
   <time name="total">  320.23  320.24</time>
   <energy>
    <i name="e_fr_energy">   -176.53162628 </i>
    <i name="e_wo_entrp">   -176.48294857 </i>
    <i name="e_0_energy">   -176.51945685 </i>
   </energy>
  </scstep>
  <scstep>
   <time name="diag">   69.47   69.47</time>
   <time name="diis">  194.25  194.25</time>
   <time name="orth">   14.16   14.16</time>
   <time name="total">  319.28  319.28</time>
   <energy>
    <i name="e_fr_energy">   -176.06055069 </i>
    <i name="e_wo_entrp">   -176.04241094 </i>
    <i name="e_0_energy">   -176.05601576 </i>
   </energy>
  </scstep>
  <scstep>
   <time name="diag">   69.06   69.06</time>
   <time name="diis">  191.90  191.90</time>
   <time name="orth">   14.04   14.04</time>
   <time name="total">  316.08  316.08</time>
   <energy>
    <i name="e_fr_energy">   -176.05789919 </i>
    <i name="e_wo_entrp">   -176.10842508 </i>
    <i name="e_0_energy">   -176.07053066 </i>
   </energy>
  </scstep>
  <scstep>
   <time name="diag">   68.64   68.64</time>
   <time name="diis">  192.26  192.26</time>
   <time name="orth">   13.69   13.69</time>
   <time name="total">  315.09  315.08</time>
   <energy>
    <i name="e_fr_energy">   -176.07372431 </i>
    <i name="e_wo_entrp">   -176.05352101 </i>
    <i name="e_0_energy">   -176.06867349 </i>
   </energy>
  </scstep>
  <scstep>
   <time name="diag">   68.49   68.49</time>
   <time name="diis">  190.83  190.84</time>
   <time name="orth">   14.28   14.28</time>
   <time name="total">  314.55  314.55</time>
   <energy>
    <i name="e_fr_energy">   -176.00648868 </i>
    <i name="e_wo_entrp">   -176.04843123 </i>
    <i name="e_0_energy">   -176.01697432 </i>
   </energy>
  </scstep>
  <scstep>
   <time name="diag">   68.57   68.57</time>
   <time name="diis">  192.60  192.60</time>
   <time name="orth">   13.98   13.98</time>
   <time name="total">  316.05  316.06</time>
   <energy>
    <i name="e_fr_energy">   -175.88296709 </i>
    <i name="e_wo_entrp">   -175.90637353 </i>
    <i name="e_0_energy">   -175.88881870 </i>
   </energy>
  </scstep>
  <scstep>
   <time name="diag">   68.58   68.58</time>
   <time name="diis">  190.33  190.32</time>
   <time name="orth">   13.86   13.86</time>
   <time name="total">  314.57  314.57</time>
   <energy>
    <i name="e_fr_energy">   -175.62884787 </i>
    <i name="e_wo_entrp">   -175.62960254 </i>
    <i name="e_0_energy">   -175.62903654 </i>
   </energy>
  </scstep>
  <scstep>
   <time name="diag">   68.57   68.57</time>
   <time name="diis">  189.09  189.09</time>
   <time name="orth">   14.09   14.09</time>
   <time name="total">  313.12  313.13</time>
   <energy>
    <i name="e_fr_energy">   -175.50799522 </i>
    <i name="e_wo_entrp">   -175.50426013 </i>
    <i name="e_0_energy">   -175.50706145 </i>
   </energy>
  </scstep>
  <scstep>
   <time name="diag">   67.90   67.90</time>
   <time name="diis">  188.83  188.83</time>
   <time name="orth">   14.00   14.00</time>
   <time name="total">  311.41  311.42</time>
   <energy>
    <i name="e_fr_energy">   -175.40452547 </i>
    <i name="e_wo_entrp">   -175.40310790 </i>
    <i name="e_0_energy">   -175.40417108 </i>
   </energy>
  </scstep>
  <scstep>
   <time name="diag">   68.20   68.20</time>
   <time name="diis">  188.31  188.31</time>
   <time name="orth">   14.12   14.12</time>
   <time name="total">  311.91  311.91</time>
   <energy>
    <i name="e_fr_energy">   -175.25087427 </i>
    <i name="e_wo_entrp">   -175.21827963 </i>
    <i name="e_0_energy">   -175.24272561 </i>
   </energy>
  </scstep>
  <scstep>
   <time name="diag">   68.54   68.54</time>
   <time name="diis">  188.46  188.47</time>
   <time name="orth">   13.81   13.81</time>
   <time name="total">  311.92  311.93</time>
   <energy>
    <i name="e_fr_energy">   -175.21557459 </i>
    <i name="e_wo_entrp">   -175.20586052 </i>
    <i name="e_0_energy">   -175.21314608 </i>
   </energy>
  </scstep>
  <scstep>
   <time name="diag">   68.54   68.54</time>
   <time name="diis">  188.04  188.04</time>
   <time name="orth">   13.94   13.93</time>
   <time name="total">  312.09  312.09</time>
   <energy>
    <i name="e_fr_energy">   -175.14102042 </i>
    <i name="e_wo_entrp">   -175.11671204 </i>
    <i name="e_0_energy">   -175.13494333 </i>
   </energy>
  </scstep>
  <scstep>
   <time name="diag">   68.37   68.37</time>
   <time name="diis">  190.07  190.07</time>
   <time name="orth">   14.04   14.04</time>
   <time name="total">  314.10  314.10</time>
   <energy>
    <i name="e_fr_energy">   -175.11583677 </i>
    <i name="e_wo_entrp">   -175.08824436 </i>
    <i name="e_0_energy">   -175.10893866 </i>
   </energy>
  </scstep>
  <scstep>
   <time name="diag">   68.09   68.10</time>
   <time name="diis">  190.10  190.10</time>
   <time name="orth">   13.67   13.67</time>
   <time name="total">  313.72  313.72</time>
   <energy>
    <i name="e_fr_energy">   -175.11191723 </i>
    <i name="e_wo_entrp">   -175.07932266 </i>
    <i name="e_0_energy">   -175.10376859 </i>
   </energy>
  </scstep>
  <scstep>
   <time name="diag">   69.05   69.05</time>
   <time name="diis">  188.29  188.29</time>
   <time name="orth">   13.79   13.79</time>
   <time name="total">  312.79  312.79</time>
   <energy>
    <i name="e_fr_energy">   -175.08220200 </i>
    <i name="e_wo_entrp">   -175.04895041 </i>
    <i name="e_0_energy">   -175.07388910 </i>
   </energy>
  </scstep>
  <scstep>
   <time name="diag">   69.66   69.66</time>
   <time name="diis">  187.18  187.18</time>
   <time name="orth">   13.60   13.60</time>
   <time name="total">  312.54  312.54</time>
   <energy>
    <i name="e_fr_energy">   -175.07458935 </i>
    <i name="e_wo_entrp">   -175.04311921 </i>
    <i name="e_0_energy">   -175.06672181 </i>
   </energy>
  </scstep>
  <scstep>
   <time name="diag">   69.74   69.74</time>
   <time name="diis">  187.86  187.85</time>
   <time name="orth">   13.81   13.81</time>
   <time name="total">  313.65  313.65</time>
   <energy>
    <i name="e_fr_energy">   -175.06990884 </i>
    <i name="e_wo_entrp">   -175.03660969 </i>
    <i name="e_0_energy">   -175.06158405 </i>
   </energy>
  </scstep>
  <scstep>
   <time name="diag">   69.80   69.80</time>
   <time name="diis">  186.51  186.51</time>
   <time name="orth">   14.12   14.12</time>
   <time name="total">  312.91  312.91</time>
   <energy>
    <i name="e_fr_energy">   -175.06697985 </i>
    <i name="e_wo_entrp">   -175.03446588 </i>
    <i name="e_0_energy">   -175.05885135 </i>
   </energy>
  </scstep>
  <scstep>
   <time name="diag">   69.90   69.90</time>
   <time name="diis">  188.76  188.76</time>
   <time name="orth">   13.76   13.76</time>
   <time name="total">  315.14  315.14</time>
   <energy>
    <i name="e_fr_energy">   -175.06450543 </i>
    <i name="e_wo_entrp">   -175.03298505 </i>
    <i name="e_0_energy">   -175.05662533 </i>
   </energy>
  </scstep>
  <scstep>
   <time name="diag">   71.19   71.19</time>
   <time name="diis">  187.84  187.84</time>
   <time name="orth">   13.61   13.61</time>
   <time name="total">  315.33  315.34</time>
   <energy>
    <i name="e_fr_energy">   -175.06331890 </i>
    <i name="e_wo_entrp">   -175.02469178 </i>
    <i name="e_0_energy">   -175.05366212 </i>
   </energy>
  </scstep>
  <scstep>
   <time name="diag">   71.76   71.76</time>
   <time name="diis">  186.87  186.88</time>
   <time name="orth">   13.92   13.92</time>
   <time name="total">  315.88  315.89</time>
   <energy>
    <i name="e_fr_energy">   -175.06337045 </i>
    <i name="e_wo_entrp">   -175.02754328 </i>
    <i name="e_0_energy">   -175.05441366 </i>
   </energy>
  </scstep>
  <scstep>
   <time name="diag">   71.17   71.17</time>
   <time name="diis">  187.90  187.90</time>
   <time name="orth">   14.11   14.11</time>
   <time name="total">  315.96  315.96</time>
   <energy>
    <i name="e_fr_energy">   -175.06376960 </i>
    <i name="e_wo_entrp">   -175.02965762 </i>
    <i name="e_0_energy">   -175.05524160 </i>
   </energy>
  </scstep>
  <scstep>
   <time name="diag">   70.44   70.44</time>
   <time name="diis">  190.22  190.21</time>
   <time name="orth">   13.72   13.72</time>
   <time name="total">  317.46  317.46</time>
   <energy>
    <i name="e_fr_energy">   -175.06525475 </i>
    <i name="e_wo_entrp">   -175.03362171 </i>
    <i name="e_0_energy">   -175.05734649 </i>
   </energy>
  </scstep>
  <scstep>
   <time name="diag">   71.59   71.59</time>
   <time name="diis">  190.55  190.55</time>
   <time name="orth">   13.49   13.49</time>
   <time name="total">  318.86  318.86</time>
   <energy>
    <i name="e_fr_energy">   -175.06795164 </i>
    <i name="e_wo_entrp">   -175.03700415 </i>
    <i name="e_0_energy">   -175.06021477 </i>
   </energy>
  </scstep>
  <scstep>
   <time name="diag">   72.04   72.04</time>
   <time name="diis">  188.38  188.41</time>
   <time name="orth">   13.52   13.52</time>
   <time name="total">  317.54  317.58</time>
   <energy>
    <i name="e_fr_energy">   -175.07047032 </i>
    <i name="e_wo_entrp">   -175.03671934 </i>
    <i name="e_0_energy">   -175.06203257 </i>
   </energy>
  </scstep>
  <scstep>
   <time name="diag">   70.78   70.79</time>
   <time name="diis">  135.59  135.60</time>
   <time name="orth">   13.85   13.85</time>
   <time name="total">  263.49  263.51</time>
   <energy>
    <i name="e_fr_energy">   -175.07185266 </i>
    <i name="e_wo_entrp">   -175.03892688 </i>
    <i name="e_0_energy">   -175.06362122 </i>
   </energy>
  </scstep>
  <scstep>
   <time name="diag">   69.37   69.38</time>
   <time name="diis">  163.96  163.97</time>
   <time name="orth">   14.16   14.16</time>
   <time name="total">  290.65  290.67</time>
   <energy>
    <i name="e_fr_energy">   -175.07542494 </i>
    <i name="e_wo_entrp">   -175.04126616 </i>
    <i name="e_0_energy">   -175.06688525 </i>
   </energy>
  </scstep>
  <scstep>
   <time name="diag">   69.14   69.14</time>
   <time name="diis">  143.09  143.10</time>
   <time name="orth">   14.09   14.09</time>
   <time name="total">  270.83  270.85</time>
   <energy>
    <i name="e_fr_energy">   -175.07776884 </i>
    <i name="e_wo_entrp">   -175.04447116 </i>
    <i name="e_0_energy">   -175.06944442 </i>
   </energy>
  </scstep>
  <scstep>
   <time name="diag">   69.72   69.73</time>
   <time name="diis">  126.89  126.90</time>
   <time name="orth">   14.01   14.01</time>
   <time name="total">  255.75  255.77</time>
   <energy>
    <i name="e_fr_energy">   -175.07960758 </i>
    <i name="e_wo_entrp">   -175.04693843 </i>
    <i name="e_0_energy">   -175.07144029 </i>
   </energy>
  </scstep>
  <scstep>
   <time name="diag">   70.44   70.45</time>
   <time name="diis">  144.75  144.76</time>
   <time name="orth">   13.77   13.77</time>
   <time name="total">  273.37  273.39</time>
   <energy>
    <i name="e_fr_energy">   -175.08218766 </i>
    <i name="e_wo_entrp">   -175.04941103 </i>
    <i name="e_0_energy">   -175.07399350 </i>
   </energy>
  </scstep>
  <scstep>
   <time name="diag">   71.56   71.56</time>
   <time name="diis">  124.14  124.15</time>
   <time name="orth">   13.72   13.72</time>
   <time name="total">  253.20  253.21</time>
   <energy>
    <i name="e_fr_energy">   -175.08332774 </i>
    <i name="e_wo_entrp">   -175.05043138 </i>
    <i name="e_0_energy">   -175.07510365 </i>
   </energy>
  </scstep>
  <scstep>
   <time name="diag">   70.13   70.13</time>
   <time name="diis">  123.68  123.68</time>
   <time name="orth">   13.50   13.50</time>
   <time name="total">  251.25  251.25</time>
   <energy>
    <i name="e_fr_energy">   -175.08484017 </i>
    <i name="e_wo_entrp">   -175.05160472 </i>
    <i name="e_0_energy">   -175.07653130 </i>
   </energy>
  </scstep>
  <scstep>
   <time name="diag">   69.59   69.59</time>
   <time name="diis">  122.53  122.53</time>
   <time name="orth">   13.78   13.78</time>
   <time name="total">  250.34  250.34</time>
   <energy>
    <i name="e_fr_energy">   -175.08601251 </i>
    <i name="e_wo_entrp">   -175.05322264 </i>
    <i name="e_0_energy">   -175.07781504 </i>
   </energy>
  </scstep>
  <scstep>
   <time name="diag">   69.61   69.61</time>
   <time name="diis">  119.74  119.74</time>
   <time name="orth">   14.12   14.12</time>
   <time name="total">  249.44  249.44</time>
   <energy>
    <i name="e_fr_energy">   -175.08655972 </i>
    <i name="e_wo_entrp">   -175.05374932 </i>
    <i name="e_0_energy">   -175.07835712 </i>
   </energy>
  </scstep>
  <scstep>
   <time name="diag">   70.54   70.54</time>
   <time name="diis">  119.75  119.74</time>
   <time name="orth">   13.44   13.44</time>
   <time name="total">  249.14  249.14</time>
   <energy>
    <i name="e_fr_energy">   -175.08756212 </i>
    <i name="e_wo_entrp">   -175.05507084 </i>
    <i name="e_0_energy">   -175.07943930 </i>
   </energy>
  </scstep>
  <scstep>
   <time name="diag">   70.88   70.88</time>
   <time name="diis">  116.53  116.53</time>
   <time name="orth">   13.40   13.40</time>
   <time name="total">  245.08  245.08</time>
   <energy>
    <i name="e_fr_energy">   -175.08799740 </i>
    <i name="e_wo_entrp">   -175.05533744 </i>
    <i name="e_0_energy">   -175.07983241 </i>
   </energy>
  </scstep>
  <scstep>
   <time name="diag">   69.13   69.13</time>
   <time name="diis">  117.99  117.98</time>
   <time name="orth">   13.74   13.74</time>
   <time name="total">  244.89  244.88</time>
   <energy>
    <i name="e_fr_energy">   -175.08860058 </i>
    <i name="e_wo_entrp">   -175.05602945 </i>
    <i name="e_0_energy">   -175.08045780 </i>
   </energy>
  </scstep>
  <scstep>
   <time name="diag">   69.14   69.14</time>
   <time name="diis">  104.70  104.70</time>
   <time name="orth">   14.07   14.07</time>
   <time name="total">  232.71  232.71</time>
   <energy>
    <i name="e_fr_energy">   -175.08904827 </i>
    <i name="e_wo_entrp">   -175.05634769 </i>
    <i name="e_0_energy">   -175.08087313 </i>
   </energy>
  </scstep>
  <scstep>
   <time name="diag">   70.89   70.89</time>
   <time name="diis">   97.54   97.54</time>
   <time name="orth">   13.49   13.49</time>
   <time name="total">  226.93  226.93</time>
   <energy>
    <i name="e_fr_energy">   -175.08943585 </i>
    <i name="e_wo_entrp">   -175.05680800 </i>
    <i name="e_0_energy">   -175.08127889 </i>
   </energy>
  </scstep>
  <scstep>
   <time name="diag">   71.34   71.33</time>
   <time name="diis">   96.18   96.18</time>
   <time name="orth">   13.56   13.56</time>
   <time name="total">  225.89  225.89</time>
   <energy>
    <i name="e_fr_energy">   -175.08977061 </i>
    <i name="e_wo_entrp">   -175.05713362 </i>
    <i name="e_0_energy">   -175.08161136 </i>
   </energy>
  </scstep>
  <scstep>
   <time name="diag">   69.32   69.33</time>
   <time name="diis">  101.06  101.06</time>
   <time name="orth">   13.91   13.91</time>
   <time name="total">  229.14  229.14</time>
   <energy>
    <i name="e_fr_energy">   -175.09027078 </i>
    <i name="e_wo_entrp">   -175.05759644 </i>
    <i name="e_0_energy">   -175.08210219 </i>
   </energy>
  </scstep>
  <scstep>
   <time name="diag">   69.55   69.55</time>
   <time name="diis">   78.76   78.75</time>
   <time name="orth">   13.76   13.76</time>
   <time name="total">  176.62  176.63</time>
   <energy>
    <i name="alphaZ">     75.25431677 </i>
    <i name="ewald"> 139303.38227724 </i>
    <i name="hartreedc">-183666.70458518 </i>
    <i name="XCdc">  -1692.02935305 </i>
    <i name="pawpsdc">  46157.47821426 </i>
    <i name="pawaedc"> -42627.66627587 </i>
    <i name="eentropy">     -0.03265164 </i>
    <i name="bandstr">  -2811.27780280 </i>
    <i name="atom">  45086.50549395 </i>
    <i name="e_fr_energy">   -175.09036630 </i>
    <i name="e_wo_entrp">   -175.05771466 </i>
    <i name="e_0_energy">   -175.08220339 </i>
   </energy>
  </scstep>
  <structure>
   <crystal>
    <varray name="basis" >
     <v>      30.00000000       0.00000000       0.00000000 </v>
     <v>       0.00000000      30.00000000       0.00000000 </v>
     <v>       0.00000000       0.00000000      30.00000000 </v>
    </varray>
    <i name="volume">  27000.00000000 </i>
    <varray name="rec_basis" >
     <v>       0.03333333       0.00000000       0.00000000 </v>
     <v>       0.00000000       0.03333333       0.00000000 </v>
     <v>       0.00000000       0.00000000       0.03333333 </v>
    </varray>
   </crystal>
   <varray name="positions" >
    <v>       0.44576020       0.32826710       0.41691983 </v>
    <v>       0.67173288       0.55423978       0.41691983 </v>
    <v>       0.55423980       0.32826710       0.41691983 </v>
    <v>       0.32826712       0.55423978       0.41691983 </v>
    <v>       0.50000000       0.38250690       0.34021317 </v>
    <v>       0.50000000       0.38250690       0.65978680 </v>
    <v>       0.50000000       0.27609440       0.50000000 </v>
    <v>       0.27609443       0.49999998       0.50000000 </v>
    <v>       0.72390557       0.49999998       0.50000000 </v>
    <v>       0.50000000       0.72390555       0.50000000 </v>
    <v>       0.61195280       0.38804720       0.34167483 </v>
    <v>       0.61195280       0.38804720       0.65832513 </v>
    <v>       0.38804722       0.61195278       0.34167483 </v>
    <v>       0.38804722       0.61195278       0.65832513 </v>
    <v>       0.38804720       0.38804720       0.34167483 </v>
    <v>       0.38804720       0.38804720       0.65832513 </v>
    <v>       0.61195278       0.61195278       0.34167483 </v>
    <v>       0.61195278       0.61195278       0.65832513 </v>
    <v>       0.44576020       0.32826710       0.58308023 </v>
    <v>       0.67173288       0.55423978       0.58308023 </v>
    <v>       0.55791699       0.44208301       0.41809300 </v>
    <v>       0.32826705       0.44576024       0.41691983 </v>
    <v>       0.55423973       0.67173293       0.41691983 </v>
    <v>       0.55423980       0.32826710       0.58308023 </v>
    <v>       0.32826712       0.55423978       0.58308023 </v>
    <v>       0.67173295       0.44576024       0.41691983 </v>
    <v>       0.44576027       0.67173293       0.41691983 </v>
    <v>       0.44208301       0.44208301       0.41809300 </v>
    <v>       0.50000000       0.38416601       0.50000000 </v>
    <v>       0.61749315       0.50000005       0.34021317 </v>
    <v>       0.61749315       0.50000005       0.65978680 </v>
    <v>       0.38250685       0.50000005       0.34021317 </v>
    <v>       0.38250685       0.50000005       0.65978680 </v>
    <v>       0.38317830       0.38317830       0.50000000 </v>
    <v>       0.61682172       0.61682172       0.50000000 </v>
    <v>       0.61682170       0.38317830       0.50000000 </v>
    <v>       0.38317828       0.61682172       0.50000000 </v>
    <v>       0.50000000       0.50000000       0.33478917 </v>
    <v>       0.50000000       0.50000000       0.66521087 </v>
    <v>       0.32826705       0.44576024       0.58308023 </v>
    <v>       0.55423973       0.67173293       0.58308023 </v>
    <v>       0.55791699       0.44208301       0.58190703 </v>
    <v>       0.44208298       0.55791702       0.41809300 </v>
    <v>       0.44208301       0.44208301       0.58190703 </v>
    <v>       0.67173295       0.44576024       0.58308023 </v>
    <v>       0.44576027       0.67173293       0.58308023 </v>
    <v>       0.55791702       0.55791702       0.41809300 </v>
    <v>       0.38416599       0.50000002       0.50000000 </v>
    <v>       0.61583401       0.50000002       0.50000000 </v>
    <v>       0.50000000       0.61749319       0.34021317 </v>
    <v>       0.50000000       0.61749319       0.65978680 </v>
    <v>       0.50000000       0.50000000       0.50000000 </v>
    <v>       0.44208298       0.55791702       0.58190703 </v>
    <v>       0.55791702       0.55791702       0.58190703 </v>
    <v>       0.50000000       0.61583404       0.50000000 </v>
    <v>       0.47134683       0.45210327       0.70203540 </v>
    <v>       0.46620683       0.44351123       0.73827790 </v>
   </varray>
  </structure>
  <varray name="forces" >
   <v>       0.69876949       1.11427195       0.29058521 </v>
   <v>      -1.10963416      -0.69631458       0.29006821 </v>
   <v>      -0.69708814       1.11546581       0.28292754 </v>
   <v>       1.11294040      -0.69636529       0.28251250 </v>
   <v>      -0.00131105       0.41356653       1.27799485 </v>
   <v>      -0.23933391       1.03005882      -1.00336872 </v>
   <v>      -0.01375838       1.50646485       0.02800450 </v>
   <v>       1.50459583      -0.01035123       0.01758654 </v>
   <v>      -1.50982106      -0.00805447       0.00633422 </v>
   <v>      -0.00480941      -1.51184072       0.00395202 </v>
   <v>      -0.75447786       0.75031402       1.07280616 </v>
   <v>      -0.72754982       0.73322067      -1.06865238 </v>
   <v>       0.74945751      -0.75439602       1.07382650 </v>
   <v>       0.74671472      -0.74801813      -1.07102225 </v>
   <v>       0.75513935       0.75406613       1.07167132 </v>
   <v>       0.71050575       0.72312750      -1.05971656 </v>
   <v>      -0.74882072      -0.75139094       1.07599562 </v>
   <v>      -0.75641943      -0.75799331      -1.06717260 </v>
   <v>       0.70380406       1.06484073      -0.34819658 </v>
   <v>      -1.11394872      -0.70126697      -0.28621148 </v>
   <v>       0.11404633      -0.11096910      -0.15566630 </v>
   <v>       1.11316799       0.69878039       0.29062427 </v>
   <v>      -0.69679798      -1.10851142       0.29049301 </v>
   <v>      -0.69429435       1.08043929      -0.31316518 </v>
   <v>       1.10385473      -0.70496943      -0.28985216 </v>
   <v>      -1.10921956       0.69905476       0.28885640 </v>
   <v>       0.69830203      -1.10787472       0.28774796 </v>
   <v>      -0.11435990      -0.11280144      -0.15500972 </v>
   <v>      -0.00292540      -0.22558815       0.00224076 </v>
   <v>      -0.40550301      -0.00488354       1.28041408 </v>
   <v>      -0.35951315       0.02638214      -1.30778303 </v>
   <v>       0.41172912      -0.00223390       1.27832204 </v>
   <v>       0.43504177       0.00850771      -1.28457164 </v>
   <v>       0.83522949       0.83803127       0.01159437 </v>
   <v>      -0.81860183      -0.81548456      -0.02034685 </v>
   <v>      -0.82643581       0.83410224       0.00548797 </v>
   <v>       0.82923514      -0.82383278      -0.00324313 </v>
   <v>      -0.00757629      -0.01351385       1.18241752 </v>
   <v>      -0.61748073      -0.83574078      -0.56323043 </v>
   <v>       1.08842311       0.70824570      -0.31978194 </v>
   <v>      -0.69638168      -1.11562739      -0.28988891 </v>
   <v>       0.17891923      -0.14163465       0.10114566 </v>
   <v>      -0.11270416       0.11349624      -0.15174012 </v>
   <v>      -0.17122078      -0.14459929       0.03191465 </v>
   <v>      -1.10599338       0.70114697      -0.29753937 </v>
   <v>       0.69737497      -1.10951875      -0.29380148 </v>
   <v>       0.11546572       0.11416077      -0.14791840 </v>
   <v>      -0.22292179      -0.00331675       0.00098870 </v>
   <v>       0.22074524       0.00504239      -0.00384054 </v>
   <v>      -0.00447184      -0.40242487       1.28153185 </v>
   <v>       0.01645053      -0.38890616      -1.30150532 </v>
   <v>      -0.00448664      -0.00396768      -0.00087350 </v>
   <v>      -0.13631450       0.16870838       0.11782231 </v>
   <v>       0.10797367       0.11766134       0.16649116 </v>
   <v>       0.00425534       0.21718031      -0.00097647 </v>
   <v>       1.91399645       1.55487471      -5.82456163 </v>
   <v>      -1.08196254      -1.27882076       5.23727880 </v>
  </varray>
  <varray name="stress" >
   <v>      -6.73687073      -0.00037770      -0.00804467 </v>
   <v>      -0.00037768      -6.83710979      -0.06693697 </v>
   <v>      -0.00804464      -0.06693699      -6.42779083 </v>
  </varray>
  <energy>
   <i name="e_fr_energy">   -175.09036630 </i>
   <i name="e_wo_entrp">   -175.08220339 </i>
   <i name="e_0_energy">     -0.03265164 </i>
  </energy>
  <time name="totalsc">17993.9517994.43</time>
  <eigenvalues>
   <array>
    <dimension dim="1">band</dimension>
    <dimension dim="2">kpoint</dimension>
    <dimension dim="3">spin</dimension>
    <field>eigene</field>
    <field>occ</field>
    <set>
     <set comment="spin 1">
      <set comment="kpoint 1">
       <r>  -28.3897    1.0000 </r>
       <r>  -13.2586    1.0000 </r>
       <r>  -11.0833    1.0000 </r>
       <r>  -10.9245    1.0000 </r>
       <r>  -10.2328    1.0000 </r>
       <r>   -6.6426    1.0000 </r>
       <r>   -6.1688    1.0000 </r>
       <r>   -6.1281    1.0000 </r>
       <r>   -6.1249    1.0000 </r>
       <r>   -5.9926    1.0000 </r>
       <r>   -5.9549    1.0000 </r>
       <r>   -5.8142    1.0000 </r>
       <r>   -5.8064    1.0000 </r>
       <r>   -5.7901    1.0000 </r>
       <r>   -5.7410    1.0000 </r>
       <r>   -5.6881    1.0000 </r>
       <r>   -5.6856    1.0000 </r>
       <r>   -5.6819    1.0000 </r>
       <r>   -5.6792    1.0000 </r>
       <r>   -5.6480    1.0000 </r>
       <r>   -5.6278    1.0000 </r>
       <r>   -5.6050    1.0000 </r>
       <r>   -5.5989    1.0000 </r>
       <r>   -5.5935    1.0000 </r>
       <r>   -5.5907    1.0000 </r>
       <r>   -5.5756    1.0000 </r>
       <r>   -5.5494    1.0000 </r>
       <r>   -5.5428    1.0000 </r>
       <r>   -5.5346    1.0000 </r>
       <r>   -5.5296    1.0000 </r>
       <r>   -5.5230    1.0000 </r>
       <r>   -5.5193    1.0000 </r>
       <r>   -5.5176    1.0000 </r>
       <r>   -5.5136    1.0000 </r>
       <r>   -5.5090    1.0000 </r>
       <r>   -5.5078    1.0000 </r>
       <r>   -5.4946    1.0000 </r>
       <r>   -5.4851    1.0000 </r>
       <r>   -5.4791    1.0000 </r>
       <r>   -5.4739    1.0000 </r>
       <r>   -5.4694    1.0000 </r>
       <r>   -5.4664    1.0000 </r>
       <r>   -5.4659    1.0000 </r>
       <r>   -5.4635    1.0000 </r>
       <r>   -5.4616    1.0000 </r>
       <r>   -5.4501    1.0000 </r>
       <r>   -5.4401    1.0000 </r>
       <r>   -5.4348    1.0000 </r>
       <r>   -5.4263    1.0000 </r>
       <r>   -5.4230    1.0000 </r>
       <r>   -5.4202    1.0000 </r>
       <r>   -5.4060    1.0000 </r>
       <r>   -5.4001    1.0000 </r>
       <r>   -5.3950    1.0000 </r>
       <r>   -5.3906    1.0000 </r>
       <r>   -5.3720    1.0000 </r>
       <r>   -5.3621    1.0000 </r>
       <r>   -5.3476    1.0000 </r>
       <r>   -5.3364    1.0000 </r>
       <r>   -5.3244    1.0000 </r>
       <r>   -5.3180    1.0000 </r>
       <r>   -5.3108    1.0000 </r>
       <r>   -5.3100    1.0000 </r>
       <r>   -5.3095    1.0000 </r>
       <r>   -5.3044    1.0000 </r>
       <r>   -5.2984    1.0000 </r>
       <r>   -5.2913    1.0000 </r>
       <r>   -5.2854    1.0000 </r>
       <r>   -5.2677    1.0000 </r>
       <r>   -5.2454    1.0000 </r>
       <r>   -5.2353    1.0000 </r>
       <r>   -5.1945    1.0000 </r>
       <r>   -5.1864    1.0000 </r>
       <r>   -5.1795    1.0000 </r>
       <r>   -5.1754    1.0000 </r>
       <r>   -5.1744    1.0000 </r>
       <r>   -5.1725    1.0000 </r>
       <r>   -5.1707    1.0000 </r>
       <r>   -5.1686    1.0000 </r>
       <r>   -5.1520    1.0000 </r>
       <r>   -5.1443    1.0000 </r>
       <r>   -5.1366    1.0000 </r>
       <r>   -5.1300    1.0000 </r>
       <r>   -5.1226    1.0000 </r>
       <r>   -5.1148    1.0000 </r>
       <r>   -5.1139    1.0000 </r>
       <r>   -5.1063    1.0000 </r>
       <r>   -5.0947    1.0000 </r>
       <r>   -5.0886    1.0000 </r>
       <r>   -5.0734    1.0000 </r>
       <r>   -5.0619    1.0000 </r>
       <r>   -5.0572    1.0000 </r>
       <r>   -5.0533    1.0000 </r>
       <r>   -5.0471    1.0000 </r>
       <r>   -5.0454    1.0000 </r>
       <r>   -5.0447    1.0000 </r>
       <r>   -5.0426    1.0000 </r>
       <r>   -5.0365    1.0000 </r>
       <r>   -5.0254    1.0000 </r>
       <r>   -5.0193    1.0000 </r>
       <r>   -5.0131    1.0000 </r>
       <r>   -5.0105    1.0000 </r>
       <r>   -5.0080    1.0000 </r>
       <r>   -5.0012    1.0000 </r>
       <r>   -4.9992    1.0000 </r>
       <r>   -4.9962    1.0000 </r>
       <r>   -4.9936    1.0000 </r>
       <r>   -4.9887    1.0000 </r>
       <r>   -4.9810    1.0000 </r>
       <r>   -4.9766    1.0000 </r>
       <r>   -4.9757    1.0000 </r>
       <r>   -4.9736    1.0000 </r>
       <r>   -4.9656    1.0000 </r>
       <r>   -4.9594    1.0000 </r>
       <r>   -4.9517    1.0000 </r>
       <r>   -4.9502    1.0000 </r>
       <r>   -4.9464    1.0000 </r>
       <r>   -4.9387    1.0000 </r>
       <r>   -4.9289    1.0000 </r>
       <r>   -4.9180    1.0000 </r>
       <r>   -4.9154    1.0000 </r>
       <r>   -4.9100    1.0000 </r>
       <r>   -4.9088    1.0000 </r>
       <r>   -4.8991    1.0000 </r>
       <r>   -4.8974    1.0000 </r>
       <r>   -4.8946    1.0000 </r>
       <r>   -4.8864    1.0000 </r>
       <r>   -4.8663    1.0000 </r>
       <r>   -4.8605    1.0000 </r>
       <r>   -4.8561    1.0000 </r>
       <r>   -4.8415    1.0000 </r>
       <r>   -4.8369    1.0000 </r>
       <r>   -4.8333    1.0000 </r>
       <r>   -4.8277    1.0000 </r>
       <r>   -4.8267    1.0000 </r>
       <r>   -4.8244    1.0000 </r>
       <r>   -4.8096    0.9999 </r>
       <r>   -4.8030    0.9999 </r>
       <r>   -4.7978    0.9999 </r>
       <r>   -4.7877    0.9999 </r>
       <r>   -4.7757    0.9999 </r>
       <r>   -4.7646    0.9998 </r>
       <r>   -4.7581    0.9998 </r>
       <r>   -4.7432    0.9997 </r>
       <r>   -4.7330    0.9996 </r>
       <r>   -4.7321    0.9996 </r>
       <r>   -4.7307    0.9996 </r>
       <r>   -4.7193    0.9995 </r>
       <r>   -4.7149    0.9995 </r>
       <r>   -4.7031    0.9993 </r>
       <r>   -4.6995    0.9993 </r>
       <r>   -4.6960    0.9992 </r>
       <r>   -4.6823    0.9990 </r>
       <r>   -4.6770    0.9989 </r>
       <r>   -4.6727    0.9988 </r>
       <r>   -4.6717    0.9988 </r>
       <r>   -4.6680    0.9987 </r>
       <r>   -4.6667    0.9986 </r>
       <r>   -4.6659    0.9986 </r>
       <r>   -4.6576    0.9984 </r>
       <r>   -4.6559    0.9984 </r>
       <r>   -4.6502    0.9982 </r>
       <r>   -4.6469    0.9981 </r>
       <r>   -4.6461    0.9981 </r>
       <r>   -4.6441    0.9980 </r>
       <r>   -4.6400    0.9979 </r>
       <r>   -4.6372    0.9978 </r>
       <r>   -4.6318    0.9976 </r>
       <r>   -4.6286    0.9975 </r>
       <r>   -4.6249    0.9974 </r>
       <r>   -4.6185    0.9972 </r>
       <r>   -4.6177    0.9971 </r>
       <r>   -4.6089    0.9968 </r>
       <r>   -4.5922    0.9962 </r>
       <r>   -4.5904    0.9961 </r>
       <r>   -4.5893    0.9961 </r>
       <r>   -4.5873    0.9960 </r>
       <r>   -4.5852    0.9959 </r>
       <r>   -4.5801    0.9958 </r>
       <r>   -4.5689    0.9954 </r>
       <r>   -4.5613    0.9952 </r>
       <r>   -4.5588    0.9952 </r>
       <r>   -4.5525    0.9951 </r>
       <r>   -4.5504    0.9951 </r>
       <r>   -4.5474    0.9951 </r>
       <r>   -4.5459    0.9951 </r>
       <r>   -4.5452    0.9951 </r>
       <r>   -4.5434    0.9951 </r>
       <r>   -4.5409    0.9951 </r>
       <r>   -4.5385    0.9951 </r>
       <r>   -4.5110    0.9962 </r>
       <r>   -4.5061    0.9966 </r>
       <r>   -4.5031    0.9969 </r>
       <r>   -4.4980    0.9974 </r>
       <r>   -4.4975    0.9975 </r>
       <r>   -4.4859    0.9991 </r>
       <r>   -4.4835    0.9995 </r>
       <r>   -4.4770    1.0007 </r>
       <r>   -4.4745    1.0012 </r>
       <r>   -4.4689    1.0025 </r>
       <r>   -4.4637    1.0038 </r>
       <r>   -4.4623    1.0041 </r>
       <r>   -4.4594    1.0049 </r>
       <r>   -4.4570    1.0056 </r>
       <r>   -4.4528    1.0069 </r>
       <r>   -4.4497    1.0078 </r>
       <r>   -4.4475    1.0086 </r>
       <r>   -4.4424    1.0103 </r>
       <r>   -4.4385    1.0117 </r>
       <r>   -4.4328    1.0139 </r>
       <r>   -4.4249    1.0171 </r>
       <r>   -4.4143    1.0218 </r>
       <r>   -4.4082    1.0247 </r>
       <r>   -4.4037    1.0268 </r>
       <r>   -4.4022    1.0275 </r>
       <r>   -4.3979    1.0296 </r>
       <r>   -4.3964    1.0303 </r>
       <r>   -4.3939    1.0315 </r>
       <r>   -4.3930    1.0320 </r>
       <r>   -4.3890    1.0338 </r>
       <r>   -4.3815    1.0374 </r>
       <r>   -4.3779    1.0390 </r>
       <r>   -4.3587    1.0467 </r>
       <r>   -4.3467    1.0500 </r>
       <r>   -4.3446    1.0505 </r>
       <r>   -4.3396    1.0512 </r>
       <r>   -4.3322    1.0516 </r>
       <r>   -4.3304    1.0516 </r>
       <r>   -4.3286    1.0515 </r>
       <r>   -4.3274    1.0514 </r>
       <r>   -4.3257    1.0512 </r>
       <r>   -4.3225    1.0507 </r>
       <r>   -4.3213    1.0505 </r>
       <r>   -4.3187    1.0499 </r>
       <r>   -4.3169    1.0494 </r>
       <r>   -4.3137    1.0483 </r>
       <r>   -4.3131    1.0480 </r>
       <r>   -4.3093    1.0464 </r>
       <r>   -4.3081    1.0458 </r>
       <r>   -4.3023    1.0423 </r>
       <r>   -4.2975    1.0388 </r>
       <r>   -4.2927    1.0346 </r>
       <r>   -4.2909    1.0328 </r>
       <r>   -4.2900    1.0320 </r>
       <r>   -4.2872    1.0289 </r>
       <r>   -4.2843    1.0256 </r>
       <r>   -4.2779    1.0172 </r>
       <r>   -4.2756    1.0137 </r>
       <r>   -4.2746    1.0122 </r>
       <r>   -4.2735    1.0105 </r>
       <r>   -4.2600    0.9860 </r>
       <r>   -4.2562    0.9778 </r>
       <r>   -4.2525    0.9693 </r>
       <r>   -4.2489    0.9605 </r>
       <r>   -4.2459    0.9529 </r>
       <r>   -4.2430    0.9453 </r>
       <r>   -4.2427    0.9444 </r>
       <r>   -4.2415    0.9412 </r>
       <r>   -4.2371    0.9284 </r>
       <r>   -4.2362    0.9256 </r>
       <r>   -4.2323    0.9137 </r>
       <r>   -4.2305    0.9080 </r>
       <r>   -4.2281    0.9003 </r>
       <r>   -4.2276    0.8986 </r>
       <r>   -4.2260    0.8932 </r>
       <r>   -4.2149    0.8534 </r>
       <r>   -4.2140    0.8501 </r>
       <r>   -4.2112    0.8394 </r>
       <r>   -4.2102    0.8352 </r>
       <r>   -4.2082    0.8272 </r>
       <r>   -4.2065    0.8205 </r>
       <r>   -4.1928    0.7615 </r>
       <r>   -4.1904    0.7507 </r>
       <r>   -4.1866    0.7331 </r>
       <r>   -4.1816    0.7094 </r>
       <r>   -4.1761    0.6830 </r>
       <r>   -4.1723    0.6641 </r>
       <r>   -4.1627    0.6155 </r>
       <r>   -4.1622    0.6128 </r>
       <r>   -4.1608    0.6058 </r>
       <r>   -4.1598    0.6003 </r>
       <r>   -4.1468    0.5326 </r>
       <r>   -4.1413    0.5035 </r>
       <r>   -4.1239    0.4117 </r>
       <r>   -4.1219    0.4013 </r>
       <r>   -4.1187    0.3848 </r>
       <r>   -4.1115    0.3483 </r>
       <r>   -4.1013    0.2978 </r>
       <r>   -3.9978   -0.0246 </r>
       <r>   -3.9662   -0.0488 </r>
       <r>   -3.9000   -0.0375 </r>
       <r>   -3.8213   -0.0047 </r>
       <r>   -3.8150   -0.0031 </r>
       <r>   -3.7671    0.0040 </r>
       <r>   -3.4928    0.0001 </r>
       <r>   -3.4876    0.0001 </r>
       <r>   -3.3184    0.0000 </r>
       <r>   -3.0617    0.0000 </r>
       <r>   -3.0535    0.0000 </r>
       <r>   -3.0343    0.0000 </r>
       <r>   -3.0220    0.0000 </r>
       <r>   -3.0073    0.0000 </r>
       <r>   -3.0031    0.0000 </r>
       <r>   -2.9337    0.0000 </r>
       <r>   -2.8179    0.0000 </r>
       <r>   -2.5869    0.0000 </r>
       <r>   -2.5126    0.0000 </r>
       <r>   -2.4937    0.0000 </r>
       <r>   -2.2139    0.0000 </r>
       <r>   -2.1293    0.0000 </r>
       <r>   -2.1107    0.0000 </r>
       <r>   -2.0967    0.0000 </r>
       <r>   -2.0015    0.0000 </r>
       <r>   -1.9392    0.0000 </r>
       <r>   -1.9337    0.0000 </r>
       <r>   -1.8476    0.0000 </r>
       <r>   -1.8440    0.0000 </r>
       <r>   -1.7616    0.0000 </r>
       <r>   -1.7171    0.0000 </r>
       <r>   -1.6406    0.0000 </r>
       <r>   -1.6084    0.0000 </r>
       <r>   -1.5582    0.0000 </r>
       <r>   -1.5061    0.0000 </r>
       <r>   -1.4422    0.0000 </r>
       <r>   -1.3298    0.0000 </r>
       <r>   -1.1013    0.0000 </r>
       <r>   -1.0255    0.0000 </r>
       <r>   -0.9870    0.0000 </r>
       <r>   -0.9818    0.0000 </r>
       <r>   -0.9509    0.0000 </r>
       <r>   -0.9361    0.0000 </r>
       <r>   -0.9247    0.0000 </r>
       <r>   -0.8978    0.0000 </r>
       <r>   -0.8520    0.0000 </r>
       <r>   -0.7905    0.0000 </r>
       <r>   -0.7669    0.0000 </r>
      </set>
     </set>
    </set>
   </array>
  </eigenvalues>
  <separator name="orbital magnetization" >
   <v name="MAGDIPOLOUT">      0.00000000      0.00000000      0.00000000</v>
  </separator>
  <dos>
   <i name="efermi">     -4.14067476 </i>
   <total>
    <array>
     <dimension dim="1">gridpoints</dimension>
     <dimension dim="2">spin</dimension>
     <field>energy</field>
     <field>total</field>
     <field>integrated</field>
     <set>
      <set comment="spin 1">
       <r>   -30.3897     0.0000     0.0000 </r>
       <r>   -30.2842     0.0000     0.0000 </r>
       <r>   -30.1788     0.0000     0.0000 </r>
       <r>   -30.0734     0.0000     0.0000 </r>
       <r>   -29.9680     0.0000     0.0000 </r>
       <r>   -29.8626     0.0000     0.0000 </r>
       <r>   -29.7572     0.0000     0.0000 </r>
       <r>   -29.6518     0.0000     0.0000 </r>
       <r>   -29.5464     0.0000     0.0000 </r>
       <r>   -29.4410     0.0000     0.0000 </r>
       <r>   -29.3356     0.0000     0.0000 </r>
       <r>   -29.2302     0.0000     0.0000 </r>
       <r>   -29.1247     0.0001     0.0000 </r>
       <r>   -29.0193     0.0026     0.0003 </r>
       <r>   -28.9139     0.0238     0.0028 </r>
       <r>   -28.8085     0.0643     0.0096 </r>
       <r>   -28.7031    -0.2133    -0.0129 </r>
       <r>   -28.5977    -0.8185    -0.0992 </r>
       <r>   -28.4923     1.9650     0.1079 </r>
       <r>   -28.3869     8.7414     1.0294 </r>
       <r>   -28.2815     8.4587     1.9210 </r>
       <r>   -28.1761     1.6626     2.0963 </r>
       <r>   -28.0707    -0.8212     2.0097 </r>
       <r>   -27.9652    -0.1806     1.9907 </r>
       <r>   -27.8598     0.0646     1.9975 </r>
       <r>   -27.7544     0.0216     1.9997 </r>
       <r>   -27.6490     0.0023     2.0000 </r>
       <r>   -27.5436     0.0001     2.0000 </r>
       <r>   -27.4382     0.0000     2.0000 </r>
       <r>   -27.3328     0.0000     2.0000 </r>
       <r>   -27.2274     0.0000     2.0000 </r>
       <r>   -27.1220     0.0000     2.0000 </r>
       <r>   -27.0166     0.0000     2.0000 </r>
       <r>   -26.9112     0.0000     2.0000 </r>
       <r>   -26.8057     0.0000     2.0000 </r>
       <r>   -26.7003     0.0000     2.0000 </r>
       <r>   -26.5949     0.0000     2.0000 </r>
       <r>   -26.4895     0.0000     2.0000 </r>
       <r>   -26.3841     0.0000     2.0000 </r>
       <r>   -26.2787     0.0000     2.0000 </r>
       <r>   -26.1733     0.0000     2.0000 </r>
       <r>   -26.0679     0.0000     2.0000 </r>
       <r>   -25.9625     0.0000     2.0000 </r>
       <r>   -25.8571     0.0000     2.0000 </r>
       <r>   -25.7516     0.0000     2.0000 </r>
       <r>   -25.6462     0.0000     2.0000 </r>
       <r>   -25.5408     0.0000     2.0000 </r>
       <r>   -25.4354     0.0000     2.0000 </r>
       <r>   -25.3300     0.0000     2.0000 </r>
       <r>   -25.2246     0.0000     2.0000 </r>
       <r>   -25.1192     0.0000     2.0000 </r>
       <r>   -25.0138     0.0000     2.0000 </r>
       <r>   -24.9084     0.0000     2.0000 </r>
       <r>   -24.8030     0.0000     2.0000 </r>
       <r>   -24.6976     0.0000     2.0000 </r>
       <r>   -24.5921     0.0000     2.0000 </r>
       <r>   -24.4867     0.0000     2.0000 </r>
       <r>   -24.3813     0.0000     2.0000 </r>
       <r>   -24.2759     0.0000     2.0000 </r>
       <r>   -24.1705     0.0000     2.0000 </r>
       <r>   -24.0651     0.0000     2.0000 </r>
       <r>   -23.9597     0.0000     2.0000 </r>
       <r>   -23.8543     0.0000     2.0000 </r>
       <r>   -23.7489     0.0000     2.0000 </r>
       <r>   -23.6435     0.0000     2.0000 </r>
       <r>   -23.5381     0.0000     2.0000 </r>
       <r>   -23.4326     0.0000     2.0000 </r>
       <r>   -23.3272     0.0000     2.0000 </r>
       <r>   -23.2218     0.0000     2.0000 </r>
       <r>   -23.1164     0.0000     2.0000 </r>
       <r>   -23.0110     0.0000     2.0000 </r>
       <r>   -22.9056     0.0000     2.0000 </r>
       <r>   -22.8002     0.0000     2.0000 </r>
       <r>   -22.6948     0.0000     2.0000 </r>
       <r>   -22.5894     0.0000     2.0000 </r>
       <r>   -22.4840     0.0000     2.0000 </r>
       <r>   -22.3786     0.0000     2.0000 </r>
       <r>   -22.2731     0.0000     2.0000 </r>
       <r>   -22.1677     0.0000     2.0000 </r>
       <r>   -22.0623     0.0000     2.0000 </r>
       <r>   -21.9569     0.0000     2.0000 </r>
       <r>   -21.8515     0.0000     2.0000 </r>
       <r>   -21.7461     0.0000     2.0000 </r>
       <r>   -21.6407     0.0000     2.0000 </r>
       <r>   -21.5353     0.0000     2.0000 </r>
       <r>   -21.4299     0.0000     2.0000 </r>
       <r>   -21.3245     0.0000     2.0000 </r>
       <r>   -21.2190     0.0000     2.0000 </r>
       <r>   -21.1136     0.0000     2.0000 </r>
       <r>   -21.0082     0.0000     2.0000 </r>
       <r>   -20.9028     0.0000     2.0000 </r>
       <r>   -20.7974     0.0000     2.0000 </r>
       <r>   -20.6920     0.0000     2.0000 </r>
       <r>   -20.5866     0.0000     2.0000 </r>
       <r>   -20.4812     0.0000     2.0000 </r>
       <r>   -20.3758     0.0000     2.0000 </r>
       <r>   -20.2704     0.0000     2.0000 </r>
       <r>   -20.1650     0.0000     2.0000 </r>
       <r>   -20.0595     0.0000     2.0000 </r>
       <r>   -19.9541     0.0000     2.0000 </r>
       <r>   -19.8487     0.0000     2.0000 </r>
       <r>   -19.7433     0.0000     2.0000 </r>
       <r>   -19.6379     0.0000     2.0000 </r>
       <r>   -19.5325     0.0000     2.0000 </r>
       <r>   -19.4271     0.0000     2.0000 </r>
       <r>   -19.3217     0.0000     2.0000 </r>
       <r>   -19.2163     0.0000     2.0000 </r>
       <r>   -19.1109     0.0000     2.0000 </r>
       <r>   -19.0055     0.0000     2.0000 </r>
       <r>   -18.9000     0.0000     2.0000 </r>
       <r>   -18.7946     0.0000     2.0000 </r>
       <r>   -18.6892     0.0000     2.0000 </r>
       <r>   -18.5838     0.0000     2.0000 </r>
       <r>   -18.4784     0.0000     2.0000 </r>
       <r>   -18.3730     0.0000     2.0000 </r>
       <r>   -18.2676     0.0000     2.0000 </r>
       <r>   -18.1622     0.0000     2.0000 </r>
       <r>   -18.0568     0.0000     2.0000 </r>
       <r>   -17.9514     0.0000     2.0000 </r>
       <r>   -17.8460     0.0000     2.0000 </r>
       <r>   -17.7405     0.0000     2.0000 </r>
       <r>   -17.6351     0.0000     2.0000 </r>
       <r>   -17.5297     0.0000     2.0000 </r>
       <r>   -17.4243     0.0000     2.0000 </r>
       <r>   -17.3189     0.0000     2.0000 </r>
       <r>   -17.2135     0.0000     2.0000 </r>
       <r>   -17.1081     0.0000     2.0000 </r>
       <r>   -17.0027     0.0000     2.0000 </r>
       <r>   -16.8973     0.0000     2.0000 </r>
       <r>   -16.7919     0.0000     2.0000 </r>
       <r>   -16.6864     0.0000     2.0000 </r>
       <r>   -16.5810     0.0000     2.0000 </r>
       <r>   -16.4756     0.0000     2.0000 </r>
       <r>   -16.3702     0.0000     2.0000 </r>
       <r>   -16.2648     0.0000     2.0000 </r>
       <r>   -16.1594     0.0000     2.0000 </r>
       <r>   -16.0540     0.0000     2.0000 </r>
       <r>   -15.9486     0.0000     2.0000 </r>
       <r>   -15.8432     0.0000     2.0000 </r>
       <r>   -15.7378     0.0000     2.0000 </r>
       <r>   -15.6324     0.0000     2.0000 </r>
       <r>   -15.5269     0.0000     2.0000 </r>
       <r>   -15.4215     0.0000     2.0000 </r>
       <r>   -15.3161     0.0000     2.0000 </r>
       <r>   -15.2107     0.0000     2.0000 </r>
       <r>   -15.1053     0.0000     2.0000 </r>
       <r>   -14.9999     0.0000     2.0000 </r>
       <r>   -14.8945     0.0000     2.0000 </r>
       <r>   -14.7891     0.0000     2.0000 </r>
       <r>   -14.6837     0.0000     2.0000 </r>
       <r>   -14.5783     0.0000     2.0000 </r>
       <r>   -14.4729     0.0000     2.0000 </r>
       <r>   -14.3674     0.0000     2.0000 </r>
       <r>   -14.2620     0.0000     2.0000 </r>
       <r>   -14.1566     0.0000     2.0000 </r>
       <r>   -14.0512     0.0000     2.0000 </r>
       <r>   -13.9458     0.0006     2.0001 </r>
       <r>   -13.8404     0.0080     2.0009 </r>
       <r>   -13.7350     0.0462     2.0058 </r>
       <r>   -13.6296     0.0184     2.0077 </r>
       <r>   -13.5242    -0.5588     1.9488 </r>
       <r>   -13.4188    -0.2983     1.9174 </r>
       <r>   -13.3134     5.0854     2.4534 </r>
       <r>   -13.2079    10.0258     3.5102 </r>
       <r>   -13.1025     5.3713     4.0764 </r>
       <r>   -12.9971    -0.2027     4.0551 </r>
       <r>   -12.8917    -0.5893     3.9929 </r>
       <r>   -12.7863     0.0095     3.9939 </r>
       <r>   -12.6809     0.0483     3.9990 </r>
       <r>   -12.5755     0.0087     3.9999 </r>
       <r>   -12.4701     0.0006     4.0000 </r>
       <r>   -12.3647     0.0000     4.0000 </r>
       <r>   -12.2593     0.0000     4.0000 </r>
       <r>   -12.1538     0.0000     4.0000 </r>
       <r>   -12.0484     0.0000     4.0000 </r>
       <r>   -11.9430     0.0000     4.0000 </r>
       <r>   -11.8376     0.0001     4.0000 </r>
       <r>   -11.7322     0.0016     4.0002 </r>
       <r>   -11.6268     0.0174     4.0020 </r>
       <r>   -11.5214     0.0683     4.0092 </r>
       <r>   -11.4160    -0.0711     4.0017 </r>
       <r>   -11.3106    -0.7499     3.9227 </r>
       <r>   -11.2052     0.5503     3.9807 </r>
       <r>   -11.0998     7.1006     4.7292 </r>
       <r>   -10.9943    13.3601     6.1374 </r>
       <r>   -10.8889    12.6424     7.4700 </r>
       <r>   -10.7835     5.6736     8.0681 </r>
       <r>   -10.6781    -0.0029     8.0678 </r>
       <r>   -10.5727    -0.7124     7.9927 </r>
       <r>   -10.4673    -0.7662     7.9119 </r>
       <r>   -10.3619     0.7375     7.9897 </r>
       <r>   -10.2565     7.2283     8.7516 </r>
       <r>   -10.1511     9.5803     9.7615 </r>
       <r>   -10.0457     3.2389    10.1029 </r>
       <r>    -9.9403    -0.7148    10.0275 </r>
       <r>    -9.8348    -0.3542     9.9902 </r>
       <r>    -9.7294     0.0556     9.9961 </r>
       <r>    -9.6240     0.0328     9.9995 </r>
       <r>    -9.5186     0.0043    10.0000 </r>
       <r>    -9.4132     0.0003    10.0000 </r>
       <r>    -9.3078     0.0000    10.0000 </r>
       <r>    -9.2024     0.0000    10.0000 </r>
       <r>    -9.0970     0.0000    10.0000 </r>
       <r>    -8.9916     0.0000    10.0000 </r>
       <r>    -8.8862     0.0000    10.0000 </r>
       <r>    -8.7808     0.0000    10.0000 </r>
       <r>    -8.6753     0.0000    10.0000 </r>
       <r>    -8.5699     0.0000    10.0000 </r>
       <r>    -8.4645     0.0000    10.0000 </r>
       <r>    -8.3591     0.0000    10.0000 </r>
       <r>    -8.2537     0.0000    10.0000 </r>
       <r>    -8.1483     0.0000    10.0000 </r>
       <r>    -8.0429     0.0000    10.0000 </r>
       <r>    -7.9375     0.0000    10.0000 </r>
       <r>    -7.8321     0.0000    10.0000 </r>
       <r>    -7.7267     0.0000    10.0000 </r>
       <r>    -7.6212     0.0000    10.0000 </r>
       <r>    -7.5158     0.0000    10.0000 </r>
       <r>    -7.4104     0.0000    10.0000 </r>
       <r>    -7.3050     0.0011    10.0001 </r>
       <r>    -7.1996     0.0132    10.0015 </r>
       <r>    -7.0942     0.0580    10.0076 </r>
       <r>    -6.9888    -0.0526    10.0021 </r>
       <r>    -6.8834    -0.7290     9.9252 </r>
       <r>    -6.7780     0.4428     9.9719 </r>
       <r>    -6.6726     6.8713    10.6962 </r>
       <r>    -6.5672     9.9430    11.7443 </r>
       <r>    -6.4617     3.1909    12.0806 </r>
       <r>    -6.3563    -2.8245    11.7829 </r>
       <r>    -6.2509     3.8880    12.1928 </r>
       <r>    -6.1455    24.0149    14.7241 </r>
       <r>    -6.0401    32.9447    18.1968 </r>
       <r>    -5.9347    24.9166    20.8233 </r>
       <r>    -5.8293    27.3000    23.7009 </r>
       <r>    -5.7239    55.9946    29.6033 </r>
       <r>    -5.6185   126.3303    42.9197 </r>
       <r>    -5.5131   241.0792    68.3317 </r>
       <r>    -5.4077   302.3827   100.2056 </r>
       <r>    -5.3022   250.4492   126.6053 </r>
       <r>    -5.1968   206.0728   148.3273 </r>
       <r>    -5.0914   267.6776   176.5430 </r>
       <r>    -4.9860   357.3409   214.2101 </r>
       <r>    -4.8806   345.9820   250.6798 </r>
       <r>    -4.7752   290.4987   281.3011 </r>
       <r>    -4.6698   335.4938   316.6652 </r>
       <r>    -4.5644   411.2928   360.0193 </r>
       <r>    -4.4590   420.3018   404.3230 </r>
       <r>    -4.3536   466.6506   453.5124 </r>
       <r>    -4.2482   552.2192   511.7214 </r>
       <r>    -4.1427   451.7904   559.3443 </r>
       <r>    -4.0373   181.4887   578.4749 </r>
       <r>    -3.9319    26.5085   581.2692 </r>
       <r>    -3.8265    24.5951   583.8617 </r>
       <r>    -3.7211    29.7831   587.0011 </r>
       <r>    -3.6157    11.6684   588.2311 </r>
       <r>    -3.5103    12.7589   589.5760 </r>
       <r>    -3.4049    21.0429   591.7941 </r>
       <r>    -3.2995    12.5055   593.1123 </r>
       <r>    -3.1941     4.1091   593.5455 </r>
       <r>    -3.0886    28.6775   596.5683 </r>
       <r>    -2.9832    63.0457   603.2139 </r>
       <r>    -2.8778    48.0420   608.2780 </r>
       <r>    -2.7724    13.4923   609.7002 </r>
       <r>    -2.6670     4.5496   610.1798 </r>
       <r>    -2.5616    18.7237   612.1534 </r>
       <r>    -2.4562    25.9186   614.8855 </r>
       <r>    -2.3508    10.3332   615.9747 </r>
       <r>    -2.2454     6.5644   616.6667 </r>
       <r>    -2.1400    27.4450   619.5596 </r>
       <r>    -2.0346    41.7140   623.9567 </r>
       <r>    -1.9291    42.3639   628.4222 </r>
       <r>    -1.8237    41.1740   632.7623 </r>
       <r>    -1.7183    37.8323   636.7502 </r>
       <r>    -1.6129    38.1792   640.7747 </r>
       <r>    -1.5075    38.4405   644.8266 </r>
       <r>    -1.4021    29.0482   647.8886 </r>
       <r>    -1.2967    14.4140   649.4080 </r>
       <r>    -1.1913     3.5842   649.7858 </r>
       <r>    -1.0859    15.7538   651.4464 </r>
       <r>    -0.9805    54.7273   657.2151 </r>
       <r>    -0.8751    74.9282   665.1133 </r>
       <r>    -0.7696    50.9263   670.4814 </r>
       <r>    -0.6642    16.4214   672.2123 </r>
       <r>    -0.5588    -0.5209   672.1574 </r>
       <r>    -0.4534    -1.7396   671.9740 </r>
       <r>    -0.3480    -0.0044   671.9736 </r>
       <r>    -0.2426     0.1993   671.9946 </r>
       <r>    -0.1372     0.0467   671.9995 </r>
       <r>    -0.0318     0.0044   672.0000 </r>
       <r>     0.0736     0.0002   672.0000 </r>
       <r>     0.1790     0.0000   672.0000 </r>
       <r>     0.2844     0.0000   672.0000 </r>
       <r>     0.3899     0.0000   672.0000 </r>
       <r>     0.4953     0.0000   672.0000 </r>
       <r>     0.6007     0.0000   672.0000 </r>
       <r>     0.7061     0.0000   672.0000 </r>
       <r>     0.8115     0.0000   672.0000 </r>
       <r>     0.9169     0.0000   672.0000 </r>
       <r>     1.0223     0.0000   672.0000 </r>
       <r>     1.1277     0.0000   672.0000 </r>
       <r>     1.2331     0.0000   672.0000 </r>
      </set>
     </set>
    </array>
   </total>
  </dos>
 </calculation>
 <structure name="finalpos" >
  <crystal>
   <varray name="basis" >
    <v>      30.00000000       0.00000000       0.00000000 </v>
    <v>       0.00000000      30.00000000       0.00000000 </v>
    <v>       0.00000000       0.00000000      30.00000000 </v>
   </varray>
   <i name="volume">  27000.00000000 </i>
   <varray name="rec_basis" >
    <v>       0.03333333       0.00000000       0.00000000 </v>
    <v>       0.00000000       0.03333333       0.00000000 </v>
    <v>       0.00000000       0.00000000       0.03333333 </v>
   </varray>
  </crystal>
  <varray name="positions" >
   <v>       0.44576020       0.32826710       0.41691983 </v>
   <v>       0.67173288       0.55423978       0.41691983 </v>
   <v>       0.55423980       0.32826710       0.41691983 </v>
   <v>       0.32826712       0.55423978       0.41691983 </v>
   <v>       0.50000000       0.38250690       0.34021317 </v>
   <v>       0.50000000       0.38250690       0.65978680 </v>
   <v>       0.50000000       0.27609440       0.50000000 </v>
   <v>       0.27609443       0.49999998       0.50000000 </v>
   <v>       0.72390557       0.49999998       0.50000000 </v>
   <v>       0.50000000       0.72390555       0.50000000 </v>
   <v>       0.61195280       0.38804720       0.34167483 </v>
   <v>       0.61195280       0.38804720       0.65832513 </v>
   <v>       0.38804722       0.61195278       0.34167483 </v>
   <v>       0.38804722       0.61195278       0.65832513 </v>
   <v>       0.38804720       0.38804720       0.34167483 </v>
   <v>       0.38804720       0.38804720       0.65832513 </v>
   <v>       0.61195278       0.61195278       0.34167483 </v>
   <v>       0.61195278       0.61195278       0.65832513 </v>
   <v>       0.44576020       0.32826710       0.58308023 </v>
   <v>       0.67173288       0.55423978       0.58308023 </v>
   <v>       0.55791699       0.44208301       0.41809300 </v>
   <v>       0.32826705       0.44576024       0.41691983 </v>
   <v>       0.55423973       0.67173293       0.41691983 </v>
   <v>       0.55423980       0.32826710       0.58308023 </v>
   <v>       0.32826712       0.55423978       0.58308023 </v>
   <v>       0.67173295       0.44576024       0.41691983 </v>
   <v>       0.44576027       0.67173293       0.41691983 </v>
   <v>       0.44208301       0.44208301       0.41809300 </v>
   <v>       0.50000000       0.38416601       0.50000000 </v>
   <v>       0.61749315       0.50000005       0.34021317 </v>
   <v>       0.61749315       0.50000005       0.65978680 </v>
   <v>       0.38250685       0.50000005       0.34021317 </v>
   <v>       0.38250685       0.50000005       0.65978680 </v>
   <v>       0.38317830       0.38317830       0.50000000 </v>
   <v>       0.61682172       0.61682172       0.50000000 </v>
   <v>       0.61682170       0.38317830       0.50000000 </v>
   <v>       0.38317828       0.61682172       0.50000000 </v>
   <v>       0.50000000       0.50000000       0.33478917 </v>
   <v>       0.50000000       0.50000000       0.66521087 </v>
   <v>       0.32826705       0.44576024       0.58308023 </v>
   <v>       0.55423973       0.67173293       0.58308023 </v>
   <v>       0.55791699       0.44208301       0.58190703 </v>
   <v>       0.44208298       0.55791702       0.41809300 </v>
   <v>       0.44208301       0.44208301       0.58190703 </v>
   <v>       0.67173295       0.44576024       0.58308023 </v>
   <v>       0.44576027       0.67173293       0.58308023 </v>
   <v>       0.55791702       0.55791702       0.41809300 </v>
   <v>       0.38416599       0.50000002       0.50000000 </v>
   <v>       0.61583401       0.50000002       0.50000000 </v>
   <v>       0.50000000       0.61749319       0.34021317 </v>
   <v>       0.50000000       0.61749319       0.65978680 </v>
   <v>       0.50000000       0.50000000       0.50000000 </v>
   <v>       0.44208298       0.55791702       0.58190703 </v>
   <v>       0.55791702       0.55791702       0.58190703 </v>
   <v>       0.50000000       0.61583404       0.50000000 </v>
   <v>       0.47134683       0.45210327       0.70203540 </v>
   <v>       0.46620683       0.44351123       0.73827790 </v>
  </varray>
  <varray name="selective"  type="logical" >
   <v type="logical" >  F  F  F </v>
   <v type="logical" >  F  F  F </v>
   <v type="logical" >  F  F  F </v>
   <v type="logical" >  F  F  F </v>
   <v type="logical" >  F  F  F </v>
   <v type="logical" >  F  F  F </v>
   <v type="logical" >  F  F  F </v>
   <v type="logical" >  F  F  F </v>
   <v type="logical" >  F  F  F </v>
   <v type="logical" >  F  F  F </v>
   <v type="logical" >  F  F  F </v>
   <v type="logical" >  F  F  F </v>
   <v type="logical" >  F  F  F </v>
   <v type="logical" >  F  F  F </v>
   <v type="logical" >  F  F  F </v>
   <v type="logical" >  F  F  F </v>
   <v type="logical" >  F  F  F </v>
   <v type="logical" >  F  F  F </v>
   <v type="logical" >  F  F  F </v>
   <v type="logical" >  F  F  F </v>
   <v type="logical" >  F  F  F </v>
   <v type="logical" >  F  F  F </v>
   <v type="logical" >  F  F  F </v>
   <v type="logical" >  F  F  F </v>
   <v type="logical" >  F  F  F </v>
   <v type="logical" >  F  F  F </v>
   <v type="logical" >  F  F  F </v>
   <v type="logical" >  F  F  F </v>
   <v type="logical" >  F  F  F </v>
   <v type="logical" >  F  F  F </v>
   <v type="logical" >  F  F  F </v>
   <v type="logical" >  F  F  F </v>
   <v type="logical" >  F  F  F </v>
   <v type="logical" >  F  F  F </v>
   <v type="logical" >  F  F  F </v>
   <v type="logical" >  F  F  F </v>
   <v type="logical" >  F  F  F </v>
   <v type="logical" >  F  F  F </v>
   <v type="logical" >  F  F  F </v>
   <v type="logical" >  F  F  F </v>
   <v type="logical" >  F  F  F </v>
   <v type="logical" >  F  F  F </v>
   <v type="logical" >  F  F  F </v>
   <v type="logical" >  F  F  F </v>
   <v type="logical" >  F  F  F </v>
   <v type="logical" >  F  F  F </v>
   <v type="logical" >  F  F  F </v>
   <v type="logical" >  F  F  F </v>
   <v type="logical" >  F  F  F </v>
   <v type="logical" >  F  F  F </v>
   <v type="logical" >  F  F  F </v>
   <v type="logical" >  F  F  F </v>
   <v type="logical" >  F  F  F </v>
   <v type="logical" >  F  F  F </v>
   <v type="logical" >  F  F  F </v>
   <v type="logical" >  F  F  F </v>
   <v type="logical" >  F  F  F </v>
  </varray>
  <nose>
   <v>      -3.00000000       0.00000000       0.00010000       0.00010000 </v>
  </nose>
 </structure>
</modeling>
