  57  57   0   0
  0.4736842E+03  0.3000000E-08  0.3000000E-08  0.3000000E-08  0.5000000E-15
  1.000000000000000E-004
  CAR 
 6_Pd100_top_free_z(O)                   
      1.33922942    -30.73248913  301     -4.12278741      1.00000000
    -30.732  0.0000E+00  0.0000E+00
    -30.626  0.0000E+00  0.0000E+00
    -30.519  0.0000E+00  0.0000E+00
    -30.412  0.3580E-27  0.3827E-28
    -30.305  0.1734E-23  0.1855E-24
    -30.198  0.4672E-20  0.4996E-21
    -30.091  0.6975E-17  0.7462E-18
    -29.984  0.5753E-14  0.6157E-15
    -29.877  0.2613E-11  0.2799E-12
    -29.770  0.6472E-09  0.6947E-10
    -29.663  0.8667E-07  0.9335E-08
    -29.557  0.6179E-05  0.6699E-06
    -29.450  0.2283E-03  0.2508E-04
    -29.343  0.4151E-02  0.4688E-03
    -29.236  0.3252E-01  0.3945E-02
    -29.129  0.5454E-01  0.9776E-02
    -29.022 -0.3713E+00 -0.2992E-01
    -28.915 -0.6719E+00 -0.1017E+00
    -28.808  0.3589E+01  0.2819E+00
    -28.701  0.9748E+01  0.1324E+01
    -28.594  0.6668E+01  0.2037E+01
    -28.487  0.3186E+00  0.2071E+01
    -28.381 -0.6980E+00  0.1996E+01
    -28.274 -0.3104E-01  0.1993E+01
    -28.167  0.5444E-01  0.1999E+01
    -28.060  0.1098E-01  0.2000E+01
    -27.953  0.8359E-03  0.2000E+01
    -27.846  0.3012E-04  0.2000E+01
    -27.739  0.5531E-06  0.2000E+01
    -27.632  0.5356E-08  0.2000E+01
    -27.525  0.2789E-10  0.2000E+01
    -27.418  0.7893E-13  0.2000E+01
    -27.312  0.0000E+00  0.2000E+01
    -27.205  0.0000E+00  0.2000E+01
    -27.098  0.0000E+00  0.2000E+01
    -26.991  0.0000E+00  0.2000E+01
    -26.884  0.0000E+00  0.2000E+01
    -26.777  0.0000E+00  0.2000E+01
    -26.670  0.0000E+00  0.2000E+01
    -26.563  0.0000E+00  0.2000E+01
    -26.456  0.0000E+00  0.2000E+01
    -26.349  0.0000E+00  0.2000E+01
    -26.242  0.0000E+00  0.2000E+01
    -26.136  0.0000E+00  0.2000E+01
    -26.029  0.0000E+00  0.2000E+01
    -25.922  0.0000E+00  0.2000E+01
    -25.815  0.0000E+00  0.2000E+01
    -25.708  0.0000E+00  0.2000E+01
    -25.601  0.0000E+00  0.2000E+01
    -25.494  0.0000E+00  0.2000E+01
    -25.387  0.0000E+00  0.2000E+01
    -25.280  0.0000E+00  0.2000E+01
    -25.173  0.0000E+00  0.2000E+01
    -25.066  0.0000E+00  0.2000E+01
    -24.960  0.0000E+00  0.2000E+01
    -24.853  0.0000E+00  0.2000E+01
    -24.746  0.0000E+00  0.2000E+01
    -24.639  0.0000E+00  0.2000E+01
    -24.532  0.0000E+00  0.2000E+01
    -24.425  0.0000E+00  0.2000E+01
    -24.318  0.0000E+00  0.2000E+01
    -24.211  0.0000E+00  0.2000E+01
    -24.104  0.0000E+00  0.2000E+01
    -23.997  0.0000E+00  0.2000E+01
    -23.891  0.0000E+00  0.2000E+01
    -23.784  0.0000E+00  0.2000E+01
    -23.677  0.0000E+00  0.2000E+01
    -23.570  0.0000E+00  0.2000E+01
    -23.463  0.0000E+00  0.2000E+01
    -23.356  0.0000E+00  0.2000E+01
    -23.249  0.0000E+00  0.2000E+01
    -23.142  0.0000E+00  0.2000E+01
    -23.035  0.0000E+00  0.2000E+01
    -22.928  0.0000E+00  0.2000E+01
    -22.821  0.0000E+00  0.2000E+01
    -22.715  0.0000E+00  0.2000E+01
    -22.608  0.0000E+00  0.2000E+01
    -22.501  0.0000E+00  0.2000E+01
    -22.394  0.0000E+00  0.2000E+01
    -22.287  0.0000E+00  0.2000E+01
    -22.180  0.0000E+00  0.2000E+01
    -22.073  0.0000E+00  0.2000E+01
    -21.966  0.0000E+00  0.2000E+01
    -21.859  0.0000E+00  0.2000E+01
    -21.752  0.0000E+00  0.2000E+01
    -21.646  0.0000E+00  0.2000E+01
    -21.539  0.0000E+00  0.2000E+01
    -21.432  0.0000E+00  0.2000E+01
    -21.325  0.0000E+00  0.2000E+01
    -21.218  0.0000E+00  0.2000E+01
    -21.111  0.0000E+00  0.2000E+01
    -21.004  0.0000E+00  0.2000E+01
    -20.897  0.0000E+00  0.2000E+01
    -20.790  0.0000E+00  0.2000E+01
    -20.683  0.0000E+00  0.2000E+01
    -20.576  0.0000E+00  0.2000E+01
    -20.470  0.0000E+00  0.2000E+01
    -20.363  0.0000E+00  0.2000E+01
    -20.256  0.0000E+00  0.2000E+01
    -20.149  0.0000E+00  0.2000E+01
    -20.042  0.0000E+00  0.2000E+01
    -19.935  0.0000E+00  0.2000E+01
    -19.828  0.0000E+00  0.2000E+01
    -19.721  0.0000E+00  0.2000E+01
    -19.614  0.0000E+00  0.2000E+01
    -19.507  0.0000E+00  0.2000E+01
    -19.400  0.0000E+00  0.2000E+01
    -19.294  0.0000E+00  0.2000E+01
    -19.187  0.0000E+00  0.2000E+01
    -19.080  0.0000E+00  0.2000E+01
    -18.973  0.0000E+00  0.2000E+01
    -18.866  0.0000E+00  0.2000E+01
    -18.759  0.0000E+00  0.2000E+01
    -18.652  0.0000E+00  0.2000E+01
    -18.545  0.0000E+00  0.2000E+01
    -18.438  0.0000E+00  0.2000E+01
    -18.331  0.0000E+00  0.2000E+01
    -18.225  0.0000E+00  0.2000E+01
    -18.118  0.0000E+00  0.2000E+01
    -18.011  0.0000E+00  0.2000E+01
    -17.904  0.0000E+00  0.2000E+01
    -17.797  0.0000E+00  0.2000E+01
    -17.690  0.0000E+00  0.2000E+01
    -17.583  0.0000E+00  0.2000E+01
    -17.476  0.0000E+00  0.2000E+01
    -17.369  0.0000E+00  0.2000E+01
    -17.262  0.0000E+00  0.2000E+01
    -17.155  0.0000E+00  0.2000E+01
    -17.049  0.0000E+00  0.2000E+01
    -16.942  0.0000E+00  0.2000E+01
    -16.835  0.0000E+00  0.2000E+01
    -16.728  0.0000E+00  0.2000E+01
    -16.621  0.0000E+00  0.2000E+01
    -16.514  0.0000E+00  0.2000E+01
    -16.407  0.0000E+00  0.2000E+01
    -16.300  0.0000E+00  0.2000E+01
    -16.193  0.0000E+00  0.2000E+01
    -16.086  0.0000E+00  0.2000E+01
    -15.979  0.0000E+00  0.2000E+01
    -15.873  0.0000E+00  0.2000E+01
    -15.766  0.0000E+00  0.2000E+01
    -15.659  0.0000E+00  0.2000E+01
    -15.552  0.5773E-27  0.2000E+01
    -15.445  0.2709E-23  0.2000E+01
    -15.338  0.7066E-20  0.2000E+01
    -15.231  0.1021E-16  0.2000E+01
    -15.124  0.8155E-14  0.2000E+01
    -15.017  0.3585E-11  0.2000E+01
    -14.910  0.8589E-09  0.2000E+01
    -14.804  0.1112E-06  0.2000E+01
    -14.697  0.7654E-05  0.2000E+01
    -14.590  0.2726E-03  0.2000E+01
    -14.483  0.4755E-02  0.2001E+01
    -14.376  0.3529E-01  0.2004E+01
    -14.269  0.4913E-01  0.2010E+01
    -14.162 -0.4147E+00  0.1965E+01
    -14.055 -0.6014E+00  0.1901E+01
    -13.948  0.3982E+01  0.2327E+01
    -13.841  0.9868E+01  0.3382E+01
    -13.734  0.6271E+01  0.4052E+01
    -13.628  0.1252E+00  0.4065E+01
    -13.521 -0.6597E+00  0.3995E+01
    -13.414 -0.1319E-01  0.3993E+01
    -13.307  0.5170E-01  0.3999E+01
    -13.200  0.9750E-02  0.4000E+01
    -13.093  0.7103E-03  0.4000E+01
    -12.986  0.2540E-04  0.4000E+01
    -12.879  0.3989E-04  0.4000E+01
    -12.772  0.1039E-02  0.4000E+01
    -12.665  0.1285E-01  0.4001E+01
    -12.559  0.5786E-01  0.4008E+01
    -12.452 -0.5889E-01  0.4001E+01
    -12.345 -0.7405E+00  0.3922E+01
    -12.238  0.6434E+00  0.3991E+01
    -12.131  0.7250E+01  0.4766E+01
    -12.024  0.9211E+01  0.5751E+01
    -11.917  0.2331E+01  0.6000E+01
    -11.810  0.2363E+01  0.6253E+01
    -11.703  0.9232E+01  0.7240E+01
    -11.596  0.7214E+01  0.8011E+01
    -11.489  0.6209E+00  0.8077E+01
    -11.383 -0.7367E+00  0.7999E+01
    -11.276 -0.4566E-01  0.7994E+01
    -11.169  0.1123E+00  0.8006E+01
    -11.062 -0.1998E-01  0.8004E+01
    -10.955 -0.7001E+00  0.7929E+01
    -10.848  0.3362E+00  0.7965E+01
    -10.741  0.6702E+01  0.8681E+01
    -10.634  0.9736E+01  0.9722E+01
    -10.527  0.3555E+01  0.1010E+02
    -10.420 -0.6772E+00  0.1003E+02
    -10.313 -0.3676E+00  0.9990E+01
    -10.207  0.5495E-01  0.9996E+01
    -10.100  0.3228E-01  0.1000E+02
     -9.993  0.4102E-02  0.1000E+02
     -9.886  0.2248E-03  0.1000E+02
     -9.779  0.6065E-05  0.1000E+02
     -9.672  0.8482E-07  0.1000E+02
     -9.565  0.6316E-09  0.1000E+02
     -9.458  0.2540E-11  0.1000E+02
     -9.351  0.6231E-14  0.1000E+02
     -9.244  0.0000E+00  0.1000E+02
     -9.138  0.0000E+00  0.1000E+02
     -9.031  0.0000E+00  0.1000E+02
     -8.924  0.0000E+00  0.1000E+02
     -8.817  0.0000E+00  0.1000E+02
     -8.710  0.0000E+00  0.1000E+02
     -8.603  0.0000E+00  0.1000E+02
     -8.496  0.6895E-25  0.1000E+02
     -8.389  0.2333E-21  0.1000E+02
     -8.282  0.4382E-18  0.1000E+02
     -8.175  0.4552E-15  0.1000E+02
     -8.068  0.2605E-12  0.1000E+02
     -7.962  0.8184E-10  0.1000E+02
     -7.855  0.1394E-07  0.1000E+02
     -7.748  0.1272E-05  0.1000E+02
     -7.641  0.6095E-04  0.1000E+02
     -7.534  0.1474E-02  0.1000E+02
     -7.427  0.1650E-01  0.1000E+02
     -7.320  0.6395E-01  0.1001E+02
     -7.213 -0.9594E-01  0.9999E+01
     -7.106 -0.7242E+00  0.9921E+01
     -6.999  0.1095E+01  0.1004E+02
     -6.893  0.7147E+01  0.1080E+02
     -6.786  0.9770E+01  0.1185E+02
     -6.679  0.1092E+02  0.1301E+02
     -6.572  0.1487E+02  0.1460E+02
     -6.465  0.1143E+02  0.1583E+02
     -6.358  0.9155E+00  0.1592E+02
     -6.251  0.1365E+00  0.1594E+02
     -6.144  0.1842E+02  0.1791E+02
     -6.037  0.3051E+02  0.2117E+02
     -5.930  0.2528E+02  0.2387E+02
     -5.823  0.3558E+02  0.2768E+02
     -5.717  0.6333E+02  0.3445E+02
     -5.610  0.1151E+03  0.4675E+02
     -5.503  0.2188E+03  0.7015E+02
     -5.396  0.2921E+03  0.1014E+03
     -5.289  0.2554E+03  0.1287E+03
     -5.182  0.2123E+03  0.1514E+03
     -5.075  0.2644E+03  0.1796E+03
     -4.968  0.3486E+03  0.2169E+03
     -4.861  0.3422E+03  0.2535E+03
     -4.754  0.2871E+03  0.2842E+03
     -4.647  0.3309E+03  0.3196E+03
     -4.541  0.4124E+03  0.3636E+03
     -4.434  0.4248E+03  0.4091E+03
     -4.327  0.4705E+03  0.4593E+03
     -4.220  0.5465E+03  0.5178E+03
     -4.113  0.4223E+03  0.5629E+03
     -4.006  0.1495E+03  0.5789E+03
     -3.899  0.1924E+02  0.5810E+03
     -3.792  0.2639E+02  0.5838E+03
     -3.685  0.2756E+02  0.5867E+03
     -3.578  0.1441E+02  0.5883E+03
     -3.472  0.1678E+02  0.5901E+03
     -3.365  0.1553E+02  0.5917E+03
     -3.258  0.4452E+01  0.5922E+03
     -3.151  0.1117E+02  0.5934E+03
     -3.044  0.4477E+02  0.5982E+03
     -2.937  0.6300E+02  0.6049E+03
     -2.830  0.3604E+02  0.6088E+03
     -2.723  0.8489E+01  0.6097E+03
     -2.616  0.3706E+01  0.6101E+03
     -2.509  0.1654E+02  0.6118E+03
     -2.402  0.2642E+02  0.6147E+03
     -2.296  0.2010E+02  0.6168E+03
     -2.189  0.1603E+02  0.6185E+03
     -2.082  0.2247E+02  0.6209E+03
     -1.975  0.3293E+02  0.6244E+03
     -1.868  0.4469E+02  0.6292E+03
     -1.761  0.4549E+02  0.6341E+03
     -1.654  0.3656E+02  0.6380E+03
     -1.547  0.3338E+02  0.6416E+03
     -1.440  0.2876E+02  0.6446E+03
     -1.333  0.2426E+02  0.6472E+03
     -1.227  0.2352E+02  0.6497E+03
     -1.120  0.2176E+02  0.6521E+03
     -1.013  0.3274E+02  0.6556E+03
     -0.906  0.5354E+02  0.6613E+03
     -0.799  0.5420E+02  0.6671E+03
     -0.692  0.3345E+02  0.6707E+03
     -0.585  0.1225E+02  0.6720E+03
     -0.478  0.1136E+01  0.6721E+03
     -0.371 -0.9687E+00  0.6720E+03
     -0.264 -0.1357E+00  0.6720E+03
     -0.157  0.1208E+00  0.6720E+03
     -0.051  0.3914E-01  0.6720E+03
      0.056  0.4461E-02  0.6720E+03
      0.163  0.2357E-03  0.6720E+03
      0.270  0.6271E-05  0.6720E+03
      0.377  0.8729E-07  0.6720E+03
      0.484  0.6495E-09  0.6720E+03
      0.591  0.2615E-11  0.6720E+03
      0.698  0.6231E-14  0.6720E+03
      0.805  0.0000E+00  0.6720E+03
      0.912  0.0000E+00  0.6720E+03
      1.019  0.0000E+00  0.6720E+03
      1.125  0.0000E+00  0.6720E+03
      1.232  0.0000E+00  0.6720E+03
      1.339  0.0000E+00  0.6720E+03
