   57   57    1    1
  0.4736842E+03  0.3000000E-08  0.3000000E-08  0.3000000E-08  0.5000000E-15
  1.000000000000000E-004
  CAR 
 6_Pd100_top_free_z(O)                   
    560      1    336
 
  0.0000000E+00  0.0000000E+00  0.0000000E+00  0.1000000E+01
    1      -28.368304   1.000000
    2      -13.337077   1.000000
    3      -11.564336   1.000000
    4      -11.041180   1.000000
    5      -10.181043   1.000000
    6       -6.642505   1.000000
    7       -6.306036   1.000000
    8       -6.147537   1.000000
    9       -6.122366   1.000000
   10       -6.098553   1.000000
   11       -5.965680   1.000000
   12       -5.861755   1.000000
   13       -5.820478   1.000000
   14       -5.807147   1.000000
   15       -5.760780   1.000000
   16       -5.726479   1.000000
   17       -5.715213   1.000000
   18       -5.682542   1.000000
   19       -5.680181   1.000000
   20       -5.675235   1.000000
   21       -5.654801   1.000000
   22       -5.629952   1.000000
   23       -5.622516   1.000000
   24       -5.611006   1.000000
   25       -5.592719   1.000000
   26       -5.588836   1.000000
   27       -5.582643   1.000000
   28       -5.561604   1.000000
   29       -5.557595   1.000000
   30       -5.545105   1.000000
   31       -5.531817   1.000000
   32       -5.519211   1.000000
   33       -5.514285   1.000000
   34       -5.511332   1.000000
   35       -5.507159   1.000000
   36       -5.504670   1.000000
   37       -5.498337   1.000000
   38       -5.495357   1.000000
   39       -5.481349   1.000000
   40       -5.475775   1.000000
   41       -5.475063   1.000000
   42       -5.467013   1.000000
   43       -5.462305   1.000000
   44       -5.459759   1.000000
   45       -5.458223   1.000000
   46       -5.456181   1.000000
   47       -5.442446   1.000000
   48       -5.436611   1.000000
   49       -5.426007   1.000000
   50       -5.420190   1.000000
   51       -5.415632   1.000000
   52       -5.411901   1.000000
   53       -5.398763   1.000000
   54       -5.393115   1.000000
   55       -5.387227   1.000000
   56       -5.377064   1.000000
   57       -5.366492   1.000000
   58       -5.351080   1.000000
   59       -5.341270   1.000000
   60       -5.325496   1.000000
   61       -5.316519   1.000000
   62       -5.315517   1.000000
   63       -5.307148   1.000000
   64       -5.304942   1.000000
   65       -5.293396   1.000000
   66       -5.292168   1.000000
   67       -5.286603   1.000000
   68       -5.285735   1.000000
   69       -5.255461   1.000000
   70       -5.242370   1.000000
   71       -5.230883   1.000000
   72       -5.203992   1.000000
   73       -5.197346   1.000000
   74       -5.179866   1.000000
   75       -5.175956   1.000000
   76       -5.174180   1.000000
   77       -5.170760   1.000000
   78       -5.169780   1.000000
   79       -5.166987   1.000000
   80       -5.156511   1.000000
   81       -5.146259   1.000000
   82       -5.141487   1.000000
   83       -5.128452   1.000000
   84       -5.117976   1.000000
   85       -5.111852   1.000000
   86       -5.110601   1.000000
   87       -5.101494   1.000000
   88       -5.096004   1.000000
   89       -5.093256   1.000000
   90       -5.084117   1.000000
   91       -5.072094   1.000000
   92       -5.062586   1.000000
   93       -5.049014   1.000000
   94       -5.045696   1.000000
   95       -5.044030   1.000000
   96       -5.041273   1.000000
   97       -5.038692   1.000000
   98       -5.037462   1.000000
   99       -5.026083   1.000000
  100       -5.023552   1.000000
  101       -5.020600   1.000000
  102       -5.010791   1.000000
  103       -5.009210   1.000000
  104       -5.004215   1.000000
  105       -4.998107   1.000000
  106       -4.995939   1.000000
  107       -4.992163   1.000000
  108       -4.988600   1.000000
  109       -4.984517   1.000000
  110       -4.979958   1.000000
  111       -4.978765   1.000000
  112       -4.973607   1.000000
  113       -4.965737   1.000000
  114       -4.959621   1.000000
  115       -4.951084   1.000000
  116       -4.946456   0.999999
  117       -4.944452   0.999999
  118       -4.935786   0.999999
  119       -4.922950   0.999999
  120       -4.918522   0.999999
  121       -4.915557   0.999998
  122       -4.909505   0.999998
  123       -4.903480   0.999997
  124       -4.901862   0.999997
  125       -4.895161   0.999997
  126       -4.892121   0.999996
  127       -4.885392   0.999995
  128       -4.871228   0.999993
  129       -4.861240   0.999990
  130       -4.855418   0.999988
  131       -4.839012   0.999981
  132       -4.836662   0.999979
  133       -4.830314   0.999975
  134       -4.826182   0.999972
  135       -4.822832   0.999969
  136       -4.818779   0.999965
  137       -4.813164   0.999959
  138       -4.810014   0.999955
  139       -4.793457   0.999929
  140       -4.785553   0.999912
  141       -4.774030   0.999881
  142       -4.762528   0.999841
  143       -4.760777   0.999834
  144       -4.747542   0.999771
  145       -4.738557   0.999717
  146       -4.734847   0.999691
  147       -4.728072   0.999640
  148       -4.726439   0.999626
  149       -4.717541   0.999544
  150       -4.698686   0.999321
  151       -4.698337   0.999316
  152       -4.690096   0.999193
  153       -4.687974   0.999158
  154       -4.682721   0.999068
  155       -4.672102   0.998862
  156       -4.665922   0.998727
  157       -4.665345   0.998714
  158       -4.662964   0.998659
  159       -4.661888   0.998633
  160       -4.658582   0.998553
  161       -4.651807   0.998377
  162       -4.647843   0.998268
  163       -4.643565   0.998145
  164       -4.640561   0.998055
  165       -4.638771   0.998000
  166       -4.635941   0.997912
  167       -4.631976   0.997785
  168       -4.629980   0.997719
  169       -4.626420   0.997599
  170       -4.622923   0.997479
  171       -4.613631   0.997147
  172       -4.610658   0.997037
  173       -4.605934   0.996862
  174       -4.594669   0.996438
  175       -4.591174   0.996308
  176       -4.586830   0.996148
  177       -4.584736   0.996072
  178       -4.580421   0.995919
  179       -4.578250   0.995845
  180       -4.571769   0.995634
  181       -4.567687   0.995512
  182       -4.558036   0.995269
  183       -4.552389   0.995164
  184       -4.550566   0.995137
  185       -4.545602   0.995085
  186       -4.543715   0.995073
  187       -4.540574   0.995065
  188       -4.538568   0.995067
  189       -4.535995   0.995080
  190       -4.527775   0.995199
  191       -4.515041   0.995663
  192       -4.510110   0.995950
  193       -4.505058   0.996315
  194       -4.501262   0.996640
  195       -4.492416   0.997580
  196       -4.485868   0.998455
  197       -4.484389   0.998675
  198       -4.482134   0.999026
  199       -4.477153   0.999875
  200       -4.470953   1.001076
  201       -4.466520   1.002037
  202       -4.458656   1.003954
  203       -4.454336   1.005127
  204       -4.450203   1.006329
  205       -4.448134   1.006960
  206       -4.443680   1.008385
  207       -4.442052   1.008928
  208       -4.438182   1.010266
  209       -4.433677   1.011906
  210       -4.428328   1.013965
  211       -4.422648   1.016275
  212       -4.410061   1.021789
  213       -4.407200   1.023106
  214       -4.406056   1.023637
  215       -4.403157   1.024996
  216       -4.399568   1.026698
  217       -4.394001   1.029366
  218       -4.392033   1.030314
  219       -4.388875   1.031834
  220       -4.386045   1.033194
  221       -4.378121   1.036942
  222       -4.367244   1.041797
  223       -4.359707   1.044823
  224       -4.347133   1.048908
  225       -4.343480   1.049801
  226       -4.334001   1.051335
  227       -4.331686   1.051515
  228       -4.327350   1.051621
  229       -4.325110   1.051550
  230       -4.323296   1.051426
  231       -4.322734   1.051375
  232       -4.319834   1.051017
  233       -4.317679   1.050643
  234       -4.313539   1.049653
  235       -4.312883   1.049462
  236       -4.310611   1.048726
  237       -4.309646   1.048377
  238       -4.305881   1.046807
  239       -4.304263   1.046025
  240       -4.301230   1.044381
  241       -4.292291   1.038097
  242       -4.288733   1.034960
  243       -4.286718   1.033016
  244       -4.283058   1.029162
  245       -4.281543   1.027442
  246       -4.280515   1.026234
  247       -4.274396   1.018317
  248       -4.271440   1.014039
  249       -4.270783   1.013047
  250       -4.265811   1.005047
  251       -4.257224   0.989123
  252       -4.254673   0.983865
  253       -4.253205   0.980728
  254       -4.245108   0.961949
  255       -4.243412   0.957696
  256       -4.240101   0.949071
  257       -4.238172   0.943850
  258       -4.235898   0.937511
  259       -4.233411   0.930350
  260       -4.231261   0.923964
  261       -4.230863   0.922761
  262       -4.226299   0.908548
  263       -4.223688   0.900057
  264       -4.222626   0.896527
  265       -4.221598   0.893075
  266       -4.212334   0.860161
  267       -4.209607   0.849880
  268       -4.208359   0.845082
  269       -4.206152   0.836474
  270       -4.204009   0.827951
  271       -4.201775   0.818899
  272       -4.194600   0.788730
  273       -4.185348   0.747506
  274       -4.180779   0.726269
  275       -4.175048   0.698905
  276       -4.173906   0.693360
  277       -4.166763   0.658068
  278       -4.160053   0.624077
  279       -4.159563   0.621568
  280       -4.155468   0.600471
  281       -4.150794   0.576154
  282       -4.143816   0.539510
  283       -4.136403   0.500345
  284       -4.119381   0.410810
  285       -4.116641   0.396602
  286       -4.114839   0.387305
  287       -4.106924   0.347009
  288       -4.096332   0.294846
  289       -3.978139  -0.039885
  290       -3.948073  -0.051521
  291       -3.899928  -0.039397
  292       -3.817026  -0.004762
  293       -3.806605  -0.002139
  294       -3.730302   0.004932
  295       -3.487952   0.000090
  296       -3.478587   0.000070
  297       -3.266816   0.000000
  298       -3.059663   0.000000
  299       -3.047242   0.000000
  300       -3.032101   0.000000
  301       -3.020884   0.000000
  302       -3.006956   0.000000
  303       -2.993223   0.000000
  304       -2.928773   0.000000
  305       -2.802291   0.000000
  306       -2.538767   0.000000
  307       -2.509954   0.000000
  308       -2.428923   0.000000
  309       -2.203372   0.000000
  310       -2.128896   0.000000
  311       -2.109396   0.000000
  312       -2.072594   0.000000
  313       -1.987828   0.000000
  314       -1.942307   0.000000
  315       -1.911306   0.000000
  316       -1.847041   0.000000
  317       -1.819084   0.000000
  318       -1.760511   0.000000
  319       -1.677674   0.000000
  320       -1.629552   0.000000
  321       -1.564348   0.000000
  322       -1.555212   0.000000
  323       -1.476333   0.000000
  324       -1.394066   0.000000
  325       -1.285561   0.000000
  326       -1.137329   0.000000
  327       -1.030045   0.000000
  328       -0.994008   0.000000
  329       -0.959080   0.000000
  330       -0.954728   0.000000
  331       -0.920169   0.000000
  332       -0.906656   0.000000
  333       -0.886171   0.000000
  334       -0.862618   0.000000
  335       -0.778039   0.000000
  336       -0.630308   0.000000
