  57  57   0   0
  0.4736842E+03  0.3000000E-08  0.3000000E-08  0.3000000E-08  0.5000000E-15
  1.000000000000000E-004
  CAR 
 6_Pd100_top_free_z(O)                   
      1.26178337    -31.34677183  301     -4.11176037      1.00000000
    -31.347  0.0000E+00  0.0000E+00
    -31.238  0.0000E+00  0.0000E+00
    -31.129  0.0000E+00  0.0000E+00
    -31.021  0.5468E-27  0.5943E-28
    -30.912  0.2949E-23  0.3206E-24
    -30.803  0.8665E-20  0.9422E-21
    -30.695  0.1383E-16  0.1505E-17
    -30.586  0.1195E-13  0.1301E-14
    -30.477  0.5571E-11  0.6068E-12
    -30.369  0.1386E-08  0.1512E-09
    -30.260  0.1822E-06  0.1995E-07
    -30.151  0.1244E-04  0.1372E-05
    -30.042  0.4276E-03  0.4785E-04
    -29.934  0.6942E-02  0.8024E-03
    -29.825  0.4447E-01  0.5636E-02
    -29.716  0.1719E-01  0.7504E-02
    -29.608 -0.5810E+00 -0.5565E-01
    -29.499 -0.1277E+00 -0.6952E-01
    -29.390  0.5759E+01  0.5565E+00
    -29.282  0.9931E+01  0.1636E+01
    -29.173  0.4244E+01  0.2097E+01
    -29.064 -0.5658E+00  0.2036E+01
    -28.955 -0.4167E+00  0.1990E+01
    -28.847  0.5009E-01  0.1996E+01
    -28.738  0.3372E-01  0.2000E+01
    -28.629  0.4246E-02  0.2000E+01
    -28.521  0.2233E-03  0.2000E+01
    -28.412  0.5642E-05  0.2000E+01
    -28.303  0.7236E-07  0.2000E+01
    -28.195  0.4840E-09  0.2000E+01
    -28.086  0.1716E-11  0.2000E+01
    -27.977  0.4086E-14  0.2000E+01
    -27.869  0.0000E+00  0.2000E+01
    -27.760  0.0000E+00  0.2000E+01
    -27.651  0.0000E+00  0.2000E+01
    -27.542  0.0000E+00  0.2000E+01
    -27.434  0.0000E+00  0.2000E+01
    -27.325  0.0000E+00  0.2000E+01
    -27.216  0.0000E+00  0.2000E+01
    -27.108  0.0000E+00  0.2000E+01
    -26.999  0.0000E+00  0.2000E+01
    -26.890  0.0000E+00  0.2000E+01
    -26.782  0.0000E+00  0.2000E+01
    -26.673  0.0000E+00  0.2000E+01
    -26.564  0.0000E+00  0.2000E+01
    -26.455  0.0000E+00  0.2000E+01
    -26.347  0.0000E+00  0.2000E+01
    -26.238  0.0000E+00  0.2000E+01
    -26.129  0.0000E+00  0.2000E+01
    -26.021  0.0000E+00  0.2000E+01
    -25.912  0.0000E+00  0.2000E+01
    -25.803  0.0000E+00  0.2000E+01
    -25.695  0.0000E+00  0.2000E+01
    -25.586  0.0000E+00  0.2000E+01
    -25.477  0.0000E+00  0.2000E+01
    -25.369  0.0000E+00  0.2000E+01
    -25.260  0.0000E+00  0.2000E+01
    -25.151  0.0000E+00  0.2000E+01
    -25.042  0.0000E+00  0.2000E+01
    -24.934  0.0000E+00  0.2000E+01
    -24.825  0.0000E+00  0.2000E+01
    -24.716  0.0000E+00  0.2000E+01
    -24.608  0.0000E+00  0.2000E+01
    -24.499  0.0000E+00  0.2000E+01
    -24.390  0.0000E+00  0.2000E+01
    -24.282  0.0000E+00  0.2000E+01
    -24.173  0.0000E+00  0.2000E+01
    -24.064  0.0000E+00  0.2000E+01
    -23.955  0.0000E+00  0.2000E+01
    -23.847  0.0000E+00  0.2000E+01
    -23.738  0.0000E+00  0.2000E+01
    -23.629  0.0000E+00  0.2000E+01
    -23.521  0.0000E+00  0.2000E+01
    -23.412  0.0000E+00  0.2000E+01
    -23.303  0.0000E+00  0.2000E+01
    -23.195  0.0000E+00  0.2000E+01
    -23.086  0.0000E+00  0.2000E+01
    -22.977  0.0000E+00  0.2000E+01
    -22.869  0.0000E+00  0.2000E+01
    -22.760  0.0000E+00  0.2000E+01
    -22.651  0.0000E+00  0.2000E+01
    -22.542  0.0000E+00  0.2000E+01
    -22.434  0.0000E+00  0.2000E+01
    -22.325  0.0000E+00  0.2000E+01
    -22.216  0.0000E+00  0.2000E+01
    -22.108  0.0000E+00  0.2000E+01
    -21.999  0.0000E+00  0.2000E+01
    -21.890  0.0000E+00  0.2000E+01
    -21.782  0.0000E+00  0.2000E+01
    -21.673  0.0000E+00  0.2000E+01
    -21.564  0.0000E+00  0.2000E+01
    -21.456  0.0000E+00  0.2000E+01
    -21.347  0.0000E+00  0.2000E+01
    -21.238  0.0000E+00  0.2000E+01
    -21.129  0.0000E+00  0.2000E+01
    -21.021  0.0000E+00  0.2000E+01
    -20.912  0.0000E+00  0.2000E+01
    -20.803  0.0000E+00  0.2000E+01
    -20.695  0.0000E+00  0.2000E+01
    -20.586  0.0000E+00  0.2000E+01
    -20.477  0.0000E+00  0.2000E+01
    -20.369  0.0000E+00  0.2000E+01
    -20.260  0.0000E+00  0.2000E+01
    -20.151  0.0000E+00  0.2000E+01
    -20.042  0.0000E+00  0.2000E+01
    -19.934  0.0000E+00  0.2000E+01
    -19.825  0.0000E+00  0.2000E+01
    -19.716  0.0000E+00  0.2000E+01
    -19.608  0.0000E+00  0.2000E+01
    -19.499  0.0000E+00  0.2000E+01
    -19.390  0.0000E+00  0.2000E+01
    -19.282  0.0000E+00  0.2000E+01
    -19.173  0.0000E+00  0.2000E+01
    -19.064  0.0000E+00  0.2000E+01
    -18.956  0.0000E+00  0.2000E+01
    -18.847  0.0000E+00  0.2000E+01
    -18.738  0.0000E+00  0.2000E+01
    -18.629  0.0000E+00  0.2000E+01
    -18.521  0.0000E+00  0.2000E+01
    -18.412  0.0000E+00  0.2000E+01
    -18.303  0.0000E+00  0.2000E+01
    -18.195  0.0000E+00  0.2000E+01
    -18.086  0.0000E+00  0.2000E+01
    -17.977  0.0000E+00  0.2000E+01
    -17.869  0.0000E+00  0.2000E+01
    -17.760  0.0000E+00  0.2000E+01
    -17.651  0.0000E+00  0.2000E+01
    -17.542  0.0000E+00  0.2000E+01
    -17.434  0.0000E+00  0.2000E+01
    -17.325  0.0000E+00  0.2000E+01
    -17.216  0.0000E+00  0.2000E+01
    -17.108  0.0000E+00  0.2000E+01
    -16.999  0.0000E+00  0.2000E+01
    -16.890  0.0000E+00  0.2000E+01
    -16.782  0.0000E+00  0.2000E+01
    -16.673  0.0000E+00  0.2000E+01
    -16.564  0.0000E+00  0.2000E+01
    -16.456  0.0000E+00  0.2000E+01
    -16.347  0.0000E+00  0.2000E+01
    -16.238  0.0000E+00  0.2000E+01
    -16.129  0.0000E+00  0.2000E+01
    -16.021  0.0000E+00  0.2000E+01
    -15.912  0.1427E-24  0.2000E+01
    -15.803  0.5219E-21  0.2000E+01
    -15.695  0.1039E-17  0.2000E+01
    -15.586  0.1120E-14  0.2000E+01
    -15.477  0.6530E-12  0.2000E+01
    -15.369  0.2039E-09  0.2000E+01
    -15.260  0.3378E-07  0.2000E+01
    -15.151  0.2929E-05  0.2000E+01
    -15.042  0.1296E-03  0.2000E+01
    -14.934  0.2789E-02  0.2000E+01
    -14.825  0.2596E-01  0.2003E+01
    -14.716  0.6162E-01  0.2010E+01
    -14.608 -0.2911E+00  0.1978E+01
    -14.499 -0.7493E+00  0.1897E+01
    -14.390  0.3080E+01  0.2232E+01
    -14.282  0.9569E+01  0.3272E+01
    -14.173  0.6949E+01  0.4027E+01
    -14.064  0.4184E+00  0.4072E+01
    -13.956 -0.7009E+00  0.3996E+01
    -13.847 -0.2874E-01  0.3993E+01
    -13.738  0.5306E-01  0.3999E+01
    -13.629  0.1005E-01  0.4000E+01
    -13.521  0.7058E-03  0.4000E+01
    -13.412  0.2424E-04  0.4000E+01
    -13.303  0.6352E-04  0.4000E+01
    -13.195  0.1656E-02  0.4000E+01
    -13.086  0.2018E-01  0.4002E+01
    -12.977  0.8923E-01  0.4012E+01
    -12.869 -0.8633E-01  0.4003E+01
    -12.760 -0.1106E+01  0.3882E+01
    -12.651  0.9418E+00  0.3985E+01
    -12.543  0.1173E+02  0.5260E+01
    -12.434  0.1796E+02  0.7212E+01
    -12.325  0.8363E+01  0.8121E+01
    -12.216 -0.4059E+00  0.8077E+01
    -12.108 -0.8220E+00  0.7987E+01
    -11.999  0.3505E-01  0.7991E+01
    -11.890  0.6906E-01  0.7999E+01
    -11.782  0.1667E-01  0.8001E+01
    -11.673  0.3950E-01  0.8005E+01
    -11.564  0.3739E-01  0.8009E+01
    -11.456 -0.4952E+00  0.7955E+01
    -11.347 -0.3885E+00  0.7913E+01
    -11.238  0.4963E+01  0.8452E+01
    -11.129  0.9994E+01  0.9539E+01
    -11.021  0.5034E+01  0.1009E+02
    -10.912 -0.3680E+00  0.1005E+02
    -10.803 -0.5030E+00  0.9991E+01
    -10.695  0.3584E-01  0.9995E+01
    -10.586  0.3925E-01  0.9999E+01
    -10.477  0.5516E-02  0.1000E+02
    -10.369  0.3148E-03  0.1000E+02
    -10.260  0.8562E-05  0.1000E+02
    -10.151  0.1177E-06  0.1000E+02
    -10.043  0.8420E-09  0.1000E+02
     -9.934  0.3189E-11  0.1000E+02
     -9.825  0.6128E-14  0.1000E+02
     -9.716  0.0000E+00  0.1000E+02
     -9.608  0.0000E+00  0.1000E+02
     -9.499  0.0000E+00  0.1000E+02
     -9.390  0.0000E+00  0.1000E+02
     -9.282  0.0000E+00  0.1000E+02
     -9.173  0.0000E+00  0.1000E+02
     -9.064  0.0000E+00  0.1000E+02
     -8.956  0.0000E+00  0.1000E+02
     -8.847  0.0000E+00  0.1000E+02
     -8.738  0.0000E+00  0.1000E+02
     -8.629  0.0000E+00  0.1000E+02
     -8.521  0.0000E+00  0.1000E+02
     -8.412  0.3164E-25  0.1000E+02
     -8.303  0.1327E-21  0.1000E+02
     -8.195  0.3035E-18  0.1000E+02
     -8.086  0.3774E-15  0.1000E+02
     -7.977  0.2542E-12  0.1000E+02
     -7.869  0.9240E-10  0.1000E+02
     -7.760  0.1791E-07  0.1000E+02
     -7.651  0.1831E-05  0.1000E+02
     -7.543  0.9669E-04  0.1000E+02
     -7.434  0.2540E-02  0.1000E+02
     -7.325  0.3054E-01  0.1000E+02
     -7.216  0.1274E+00  0.1002E+02
     -7.108 -0.1750E+00  0.9998E+01
     -6.999 -0.1547E+01  0.9830E+01
     -6.890  0.1989E+01  0.1005E+02
     -6.782  0.1616E+02  0.1180E+02
     -6.673  0.2345E+02  0.1435E+02
     -6.564  0.1374E+02  0.1584E+02
     -6.456  0.1757E+01  0.1604E+02
     -6.347 -0.3375E+00  0.1600E+02
     -6.238  0.8922E+01  0.1697E+02
     -6.129  0.2109E+02  0.1926E+02
     -6.021  0.2608E+02  0.2210E+02
     -5.912  0.2697E+02  0.2503E+02
     -5.803  0.3453E+02  0.2878E+02
     -5.695  0.5765E+02  0.3505E+02
     -5.586  0.1250E+03  0.4864E+02
     -5.477  0.2363E+03  0.7432E+02
     -5.369  0.2882E+03  0.1056E+03
     -5.260  0.2422E+03  0.1320E+03
     -5.151  0.2189E+03  0.1558E+03
     -5.043  0.2821E+03  0.1864E+03
     -4.934  0.3541E+03  0.2249E+03
     -4.825  0.3376E+03  0.2616E+03
     -4.716  0.3024E+03  0.2945E+03
     -4.608  0.3592E+03  0.3335E+03
     -4.499  0.4105E+03  0.3781E+03
     -4.390  0.4196E+03  0.4238E+03
     -4.282  0.4992E+03  0.4780E+03
     -4.173  0.5337E+03  0.5360E+03
     -4.064  0.3259E+03  0.5715E+03
     -3.956  0.7671E+02  0.5798E+03
     -3.847  0.1470E+02  0.5814E+03
     -3.738  0.2958E+02  0.5846E+03
     -3.629  0.1991E+02  0.5868E+03
     -3.521  0.1668E+02  0.5886E+03
     -3.412  0.2105E+02  0.5909E+03
     -3.303  0.1083E+02  0.5920E+03
     -3.195  0.4008E+01  0.5925E+03
     -3.086  0.2438E+02  0.5951E+03
     -2.977  0.5675E+02  0.6013E+03
     -2.869  0.5077E+02  0.6068E+03
     -2.760  0.2002E+02  0.6090E+03
     -2.651  0.5681E+01  0.6096E+03
     -2.543  0.9895E+01  0.6107E+03
     -2.434  0.2714E+02  0.6136E+03
     -2.325  0.2958E+02  0.6169E+03
     -2.216  0.1727E+02  0.6187E+03
     -2.108  0.1612E+02  0.6205E+03
     -1.999  0.2563E+02  0.6233E+03
     -1.890  0.3964E+02  0.6276E+03
     -1.782  0.4734E+02  0.6327E+03
     -1.673  0.3968E+02  0.6370E+03
     -1.564  0.3277E+02  0.6406E+03
     -1.456  0.2924E+02  0.6438E+03
     -1.347  0.2934E+02  0.6470E+03
     -1.238  0.3355E+02  0.6506E+03
     -1.130  0.2781E+02  0.6536E+03
     -1.021  0.2487E+02  0.6563E+03
     -0.912  0.4259E+02  0.6610E+03
     -0.803  0.5505E+02  0.6669E+03
     -0.695  0.3896E+02  0.6712E+03
     -0.586  0.1049E+02  0.6723E+03
     -0.477 -0.2255E+01  0.6721E+03
     -0.369 -0.1070E+01  0.6720E+03
     -0.260  0.2210E+00  0.6720E+03
     -0.151  0.1173E+00  0.6720E+03
     -0.043  0.1507E-01  0.6720E+03
      0.066  0.8356E-03  0.6720E+03
      0.175  0.2257E-04  0.6720E+03
      0.284  0.3119E-06  0.6720E+03
      0.392  0.2260E-08  0.6720E+03
      0.501  0.8715E-11  0.6720E+03
      0.610  0.1839E-13  0.6720E+03
      0.718  0.0000E+00  0.6720E+03
      0.827  0.0000E+00  0.6720E+03
      0.936  0.0000E+00  0.6720E+03
      1.044  0.0000E+00  0.6720E+03
      1.153  0.0000E+00  0.6720E+03
      1.262  0.0000E+00  0.6720E+03
