 vasp.5.4.4.18Apr17-6-g9f103f2a35 (build Sep 03 2018 23:53:05) complex          
  
 executed on             LinuxIFC date 2021.12.02  21:45:25
 running on    1 total cores
 distrk:  each k-point on    1 cores,    1 groups
 distr:  one band on NCORES_PER_BAND=   1 cores,    1 groups


--------------------------------------------------------------------------------------------------------


 INCAR:
 POTCAR:    PAW_PBE Pd 04Jan2005                  
 POTCAR:    PAW_PBE C 08Apr2002                   
 POTCAR:    PAW_PBE O 08Apr2002                   
 POTCAR:    PAW_PBE Pd 04Jan2005                  
   VRHFIN =Pd : s1 d9                                                           
   LEXCH  = PE                                                                  
   EATOM  =   809.7530 eV,   59.5152 Ry                                         
                                                                                
   TITEL  = PAW_PBE Pd 04Jan2005                                                
   LULTRA =        F    use ultrasoft PP ?                                      
   IUNSCR =        1    unscreen: 0-lin 1-nonlin 2-no                           
   RPACOR =    2.000    partial core radius                                     
   POMASS =  106.420; ZVAL   =   10.000    mass and valenz                      
   RCORE  =    2.600    outmost cutoff radius                                   
   RWIGS  =    2.710; RWIGS  =    1.434    wigner-seitz radius (au A)           
   ENMAX  =  250.925; ENMIN  =  188.194 eV                                      
   ICORE  =        3    local potential                                         
   LCOR   =        T    correct aug charges                                     
   LPAW   =        T    paw PP                                                  
   EAUG   =  416.230                                                            
   DEXC   =    0.000                                                            
   RMAX   =    2.653    core radius for proj-oper                               
   RAUG   =    1.300    factor for augmentation sphere                          
   RDEP   =    2.734    radius for radial grids                                 
   RDEPT  =    2.103    core radius for aug-charge                              
                                                                                
   Atomic configuration                                                         
   12 entries                                                                   
     n  l   j            E        occ.                                          
     1  0  0.50    -24164.6631   2.0000                                         
     2  0  0.50     -3530.9218   2.0000                                         
     2  1  1.50     -3165.6822   6.0000                                         
     3  0  0.50      -639.4577   2.0000                                         
     3  1  1.50      -519.4532   6.0000                                         
     3  2  2.50      -328.9757  10.0000                                         
     4  0  0.50       -88.7014   2.0000                                         
     4  1  1.50       -54.4540   6.0000                                         
     4  2  2.50        -6.6878   9.0000                                         
     5  0  0.50        -4.3543   1.0000                                         
     5  1  0.50        -1.3606   0.0000                                         
     4  3  2.50        -1.3606   0.0000                                         
   Description                                                                  
     l       E           TYP  RCUT    TYP  RCUT                                 
     2     -6.6878251     23  2.400                                             
     2     -8.0484077     23  2.400                                             
     0     -4.3542939     23  2.400                                             
     0      4.3406793     23  2.400                                             
     1     -4.0817478     23  2.600                                             
     1     15.8380318     23  2.600                                             
     3     -4.0817478     23  2.400                                             
  local pseudopotential read in
  partial core-charges read in
  partial kinetic energy density read in
  atomic valenz-charges read in
  non local Contribution for L=           2  read in
    real space projection operators read in
  non local Contribution for L=           2  read in
    real space projection operators read in
  non local Contribution for L=           0  read in
    real space projection operators read in
  non local Contribution for L=           0  read in
    real space projection operators read in
  non local Contribution for L=           1  read in
    real space projection operators read in
  non local Contribution for L=           1  read in
    real space projection operators read in
    PAW grid and wavefunctions read in
 
   number of l-projection  operators is LMAX  =           6
   number of lm-projection operators is LMMAX =          18
 
 POTCAR:    PAW_PBE C 08Apr2002                   
   VRHFIN =C: s2p2                                                              
   LEXCH  = PE                                                                  
   EATOM  =   147.1560 eV,   10.8157 Ry                                         
                                                                                
   TITEL  = PAW_PBE C 08Apr2002                                                 
   LULTRA =        F    use ultrasoft PP ?                                      
   IUNSCR =        1    unscreen: 0-lin 1-nonlin 2-no                           
   RPACOR =    1.200    partial core radius                                     
   POMASS =   12.011; ZVAL   =    4.000    mass and valenz                      
   RCORE  =    1.500    outmost cutoff radius                                   
   RWIGS  =    1.630; RWIGS  =    0.863    wigner-seitz radius (au A)           
   ENMAX  =  400.000; ENMIN  =  300.000 eV                                      
   ICORE  =        2    local potential                                         
   LCOR   =        T    correct aug charges                                     
   LPAW   =        T    paw PP                                                  
   EAUG   =  644.873                                                            
   DEXC   =    0.000                                                            
   RMAX   =    1.529    core radius for proj-oper                               
   RAUG   =    1.300    factor for augmentation sphere                          
   RDEP   =    1.501    radius for radial grids                                 
   RDEPT  =    1.300    core radius for aug-charge                              
                                                                                
   Atomic configuration                                                         
    4 entries                                                                   
     n  l   j            E        occ.                                          
     1  0  0.50      -273.3789   2.0000                                         
     2  0  0.50       -13.7508   2.0000                                         
     2  1  0.50        -5.2854   2.0000                                         
     3  2  1.50        -5.4423   0.0000                                         
   Description                                                                  
     l       E           TYP  RCUT    TYP  RCUT                                 
     0    -13.7508458     23  1.200                                             
     0     -8.2022199     23  1.200                                             
     1     -5.2854383     23  1.500                                             
     1     34.0145650     23  1.500                                             
     2     -5.4423304      7  1.500                                             
  local pseudopotential read in
  partial core-charges read in
  partial kinetic energy density read in
  atomic valenz-charges read in
  non local Contribution for L=           0  read in
    real space projection operators read in
  non local Contribution for L=           0  read in
    real space projection operators read in
  non local Contribution for L=           1  read in
    real space projection operators read in
  non local Contribution for L=           1  read in
    real space projection operators read in
    PAW grid and wavefunctions read in
 
   number of l-projection  operators is LMAX  =           4
   number of lm-projection operators is LMMAX =           8
 
 POTCAR:    PAW_PBE O 08Apr2002                   
   VRHFIN =O: s2p4                                                              
   LEXCH  = PE                                                                  
   EATOM  =   432.3788 eV,   31.7789 Ry                                         
                                                                                
   TITEL  = PAW_PBE O 08Apr2002                                                 
   LULTRA =        F    use ultrasoft PP ?                                      
   IUNSCR =        1    unscreen: 0-lin 1-nonlin 2-no                           
   RPACOR =    1.200    partial core radius                                     
   POMASS =   16.000; ZVAL   =    6.000    mass and valenz                      
   RCORE  =    1.520    outmost cutoff radius                                   
   RWIGS  =    1.550; RWIGS  =    0.820    wigner-seitz radius (au A)           
   ENMAX  =  400.000; ENMIN  =  300.000 eV                                      
   ICORE  =        2    local potential                                         
   LCOR   =        T    correct aug charges                                     
   LPAW   =        T    paw PP                                                  
   EAUG   =  605.392                                                            
   DEXC   =    0.000                                                            
   RMAX   =    1.553    core radius for proj-oper                               
   RAUG   =    1.300    factor for augmentation sphere                          
   RDEP   =    1.550    radius for radial grids                                 
   RDEPT  =    1.329    core radius for aug-charge                              
                                                                                
   Atomic configuration                                                         
    4 entries                                                                   
     n  l   j            E        occ.                                          
     1  0  0.50      -514.6923   2.0000                                         
     2  0  0.50       -23.9615   2.0000                                         
     2  1  0.50        -9.0305   4.0000                                         
     3  2  1.50        -9.5241   0.0000                                         
   Description                                                                  
     l       E           TYP  RCUT    TYP  RCUT                                 
     0    -23.9615318     23  1.200                                             
     0     -9.5240782     23  1.200                                             
     1     -9.0304911     23  1.520                                             
     1      8.1634956     23  1.520                                             
     2     -9.5240782      7  1.500                                             
  local pseudopotential read in
  partial core-charges read in
  partial kinetic energy density read in
  kinetic energy density of atom read in
  atomic valenz-charges read in
  non local Contribution for L=           0  read in
    real space projection operators read in
  non local Contribution for L=           0  read in
    real space projection operators read in
  non local Contribution for L=           1  read in
    real space projection operators read in
  non local Contribution for L=           1  read in
    real space projection operators read in
    PAW grid and wavefunctions read in
 
   number of l-projection  operators is LMAX  =           4
   number of lm-projection operators is LMMAX =           8
 
 Optimization of the real space projectors (new method)

 maximal supplied QI-value         = 14.36
 optimisation between [QCUT,QGAM] = [ 10.20, 20.39] = [ 29.12,116.47] Ry 
 Optimized for a Real-space Cutoff    1.51 Angstroem

   l    n(q)    QCUT    max X(q) W(low)/X(q) W(high)/X(q)  e(spline) 
   2      8    10.197    59.108    0.26E-03    0.14E-03    0.96E-07
   2      8    10.197    58.101    0.27E-03    0.14E-03    0.98E-07
   0      9    10.197   102.235    0.54E-04    0.60E-05    0.72E-07
   0      9    10.197    58.388    0.52E-04    0.60E-05    0.68E-07
   1      9    10.197    22.191    0.18E-03    0.25E-03    0.79E-07
   1      9    10.197    15.590    0.15E-03    0.21E-03    0.69E-07
 Optimization of the real space projectors (new method)

 maximal supplied QI-value         = 25.13
 optimisation between [QCUT,QGAM] = [ 10.05, 20.36] = [ 28.30,116.06] Ry 
 Optimized for a Real-space Cutoff    1.30 Angstroem

   l    n(q)    QCUT    max X(q) W(low)/X(q) W(high)/X(q)  e(spline) 
   0      8    10.053   115.676    0.49E-03    0.72E-03    0.18E-06
   0      8    10.053    87.132    0.49E-03    0.71E-03    0.18E-06
   1      7    10.053     4.429    0.32E-03    0.31E-03    0.18E-06
   1      7    10.053     2.733    0.23E-03    0.19E-03    0.20E-06
 Optimization of the real space projectors (new method)

 maximal supplied QI-value         = 24.76
 optimisation between [QCUT,QGAM] = [ 10.15, 20.30] = [ 28.85,115.39] Ry 
 Optimized for a Real-space Cutoff    1.38 Angstroem

   l    n(q)    QCUT    max X(q) W(low)/X(q) W(high)/X(q)  e(spline) 
   0      8    10.150    20.381    0.22E-03    0.32E-03    0.29E-06
   0      8    10.150    15.268    0.23E-03    0.35E-03    0.30E-06
   1      8    10.150     5.964    0.46E-03    0.53E-03    0.21E-06
   1      8    10.150     5.382    0.38E-03    0.45E-03    0.19E-06

 ----------------------------------------------------------------------------- 
|                                                                             |
|  ADVICE TO THIS USER RUNNING 'VASP/VAMP'   (HEAR YOUR MASTER'S VOICE ...):  |
|                                                                             |
|      You enforced a specific xc-type in the INCAR file,                     |
|      a different type was found on the POTCAR file                          |
|          I HOPE YOU KNOW, WHAT YOU ARE  DOING                               |
|                                                                             |
 ----------------------------------------------------------------------------- 

  PAW_PBE Pd 04Jan2005                  :
 energy of atom  1       EATOM= -809.7530
 kinetic energy error for atom=    0.0091 (will be added to EATOM!!)
  PAW_PBE C 08Apr2002                   :
 energy of atom  2       EATOM= -147.1560
 kinetic energy error for atom=    0.0288 (will be added to EATOM!!)
  PAW_PBE O 08Apr2002                   :
 energy of atom  3       EATOM= -432.3788
 kinetic energy error for atom=    0.1156 (will be added to EATOM!!)
 
 
 POSCAR: Pd55PES                                 
  positions in cartesian coordinates
  No initial velocities read in
 exchange correlation table for  LEXCH =        9
   RHO(1)=    0.500       N(1)  =     2000
   RHO(2)=  100.500       N(2)  =     4000
 


--------------------------------------------------------------------------------------------------------


 ion  position               nearest neighbor table
   1  0.446  0.328  0.417-   3 3.25   5 3.25   7 3.36  15 3.36  29 3.42  28 3.42
   2  0.672  0.554  0.417-  26 3.25  30 3.25  17 3.36   9 3.36  47 3.42  49 3.42
   3  0.554  0.328  0.417-   1 3.25   5 3.25   7 3.36  11 3.36  29 3.42  21 3.42
   4  0.328  0.554  0.417-  32 3.25  22 3.25  13 3.36   8 3.36  43 3.42  48 3.42
   5  0.500  0.383  0.340-   1 3.25   3 3.25  11 3.36  15 3.36  21 3.42  28 3.42
   6  0.500  0.383  0.660-  24 3.25  19 3.25  16 3.36  12 3.36  42 3.42  44 3.42
   7  0.500  0.276  0.500-  29 3.24   3 3.36   1 3.36  19 3.36  24 3.36
   8  0.276  0.500  0.500-  48 3.24  22 3.36  40 3.36   4 3.36  25 3.36
   9  0.724  0.500  0.500-  49 3.24  26 3.36  45 3.36   2 3.36  20 3.36
  10  0.500  0.724  0.500-  55 3.24  27 3.36  23 3.36  46 3.36  41 3.36
  11  0.612  0.388  0.342-  21 3.24   5 3.36   3 3.36  30 3.36  26 3.36
  12  0.612  0.388  0.658-  42 3.24  24 3.36  45 3.36   6 3.36  31 3.36
  13  0.388  0.612  0.342-  43 3.24  32 3.36  50 3.36   4 3.36  27 3.36
  14  0.388  0.612  0.658-  53 3.24  25 3.36  33 3.36  51 3.36  46 3.36
  15  0.388  0.388  0.342-  28 3.24   5 3.36   1 3.36  32 3.36  22 3.36
  16  0.388  0.388  0.658-  44 3.24  19 3.36  40 3.36   6 3.36  33 3.36
  17  0.612  0.612  0.342-  47 3.24  30 3.36  50 3.36   2 3.36  23 3.36
  18  0.612  0.612  0.658-  54 3.24  31 3.36  20 3.36  51 3.36  41 3.36
  19  0.446  0.328  0.583-   6 3.25  24 3.25  16 3.36   7 3.36  44 3.42  29 3.42
  20  0.672  0.554  0.583-  31 3.25  45 3.25  18 3.36   9 3.36  54 3.42  49 3.42
  21  0.558  0.442  0.418-  11 3.24   5 3.42   3 3.42  30 3.42  26 3.42
  22  0.328  0.446  0.417-   4 3.25  32 3.25   8 3.36  15 3.36  48 3.42  28 3.42
  23  0.554  0.672  0.417-  27 3.25  50 3.25  10 3.36  17 3.36  55 3.42  47 3.42
  24  0.554  0.328  0.583-   6 3.25  19 3.25  12 3.36   7 3.36  42 3.42  29 3.42
  25  0.328  0.554  0.583-  33 3.25  40 3.25  14 3.36   8 3.36  53 3.42  48 3.42
  26  0.672  0.446  0.417-   2 3.25  30 3.25   9 3.36  11 3.36  49 3.42  21 3.42
  27  0.446  0.672  0.417-  23 3.25  50 3.25  10 3.36  13 3.36  55 3.42  43 3.42
  28  0.442  0.442  0.418-  15 3.24   5 3.42   1 3.42  32 3.42  22 3.42
  29  0.500  0.384  0.500-   7 3.24   3 3.42   1 3.42  24 3.42  19 3.42
  30  0.617  0.500  0.340-   2 3.25  26 3.25  17 3.36  11 3.36  47 3.42  21 3.42
  31  0.617  0.500  0.660-  20 3.25  45 3.25  18 3.36  12 3.36  54 3.42  42 3.42
  32  0.383  0.500  0.340-   4 3.25  22 3.25  13 3.36  15 3.36  43 3.42  28 3.42
  33  0.383  0.500  0.660-  25 3.25  40 3.25  14 3.36  16 3.36  53 3.42  44 3.42
  34  0.383  0.383  0.500-
  35  0.617  0.617  0.500-
  36  0.617  0.383  0.500-
  37  0.383  0.617  0.500-
  38  0.500  0.500  0.335-  56 1.89
  39  0.500  0.500  0.665-
  40  0.328  0.446  0.583-  33 3.25  25 3.25  16 3.36   8 3.36  44 3.42  48 3.42
  41  0.554  0.672  0.583-  46 3.25  51 3.25  10 3.36  18 3.36  54 3.42  55 3.42
  42  0.558  0.442  0.582-  12 3.24   6 3.42  24 3.42  31 3.42  45 3.42
  43  0.442  0.558  0.418-  13 3.24   4 3.42  32 3.42  27 3.42  50 3.42
  44  0.442  0.442  0.582-  16 3.24   6 3.42  19 3.42  33 3.42  40 3.42
  45  0.672  0.446  0.583-  20 3.25  31 3.25   9 3.36  12 3.36  49 3.42  42 3.42
  46  0.446  0.672  0.583-  41 3.25  51 3.25  10 3.36  14 3.36  53 3.42  55 3.42
  47  0.558  0.558  0.418-  17 3.24   2 3.42  30 3.42  23 3.42  50 3.42
  48  0.384  0.500  0.500-   8 3.24   4 3.42  22 3.42  25 3.42  40 3.42
  49  0.616  0.500  0.500-   9 3.24   2 3.42  26 3.42  20 3.42  45 3.42
  50  0.500  0.617  0.340-  27 3.25  23 3.25  13 3.36  17 3.36  43 3.42  47 3.42
  51  0.500  0.617  0.660-  41 3.25  46 3.25  14 3.36  18 3.36  53 3.42  54 3.42
  52  0.500  0.500  0.500-
  53  0.442  0.558  0.582-  14 3.24  25 3.42  33 3.42  51 3.42  46 3.42
  54  0.558  0.558  0.582-  18 3.24  31 3.42  20 3.42  51 3.42  41 3.42
  55  0.500  0.616  0.500-  10 3.24  23 3.42  27 3.42  41 3.42  46 3.42
  56  0.507  0.519  0.275-  57 1.13  38 1.89
  57  0.508  0.523  0.238-  56 1.13
 
  LATTYP: Found a simple cubic cell.
 ALAT       =    30.0000000000
  
  Lattice vectors:
  
 A1 = (  30.0000000000,   0.0000000000,   0.0000000000)
 A2 = (   0.0000000000,  30.0000000000,   0.0000000000)
 A3 = (   0.0000000000,   0.0000000000,  30.0000000000)


Analysis of symmetry for initial positions (statically):
=====================================================================
 Subroutine PRICEL returns:
 Original cell was already a primitive cell.
 

 Routine SETGRP: Setting up the symmetry group for a 
 simple cubic supercell.


 Subroutine GETGRP returns: Found  1 space group operations
 (whereof  1 operations were pure point group operations)
 out of a pool of 48 trial point group operations.


The static configuration has the point symmetry C_1 .


Analysis of symmetry for dynamics (positions and initial velocities):
=====================================================================
 Subroutine PRICEL returns:
 Original cell was already a primitive cell.
 

 Routine SETGRP: Setting up the symmetry group for a 
 simple cubic supercell.


 Subroutine GETGRP returns: Found  1 space group operations
 (whereof  1 operations were pure point group operations)
 out of a pool of 48 trial point group operations.


The dynamic configuration has the point symmetry C_1 .


Analysis of constrained symmetry for selective dynamics:
=====================================================================
 Subroutine PRICEL returns:
 Original cell was already a primitive cell.
 

 Routine SETGRP: Setting up the symmetry group for a 
 simple cubic supercell.


 Subroutine GETGRP returns: Found  1 space group operations
 (whereof  1 operations were pure point group operations)
 out of a pool of 48 trial point group operations.


The constrained configuration has the point symmetry C_1 .


 Subroutine INISYM returns: Found  1 space group operations
 (whereof  1 operations are pure point group operations),
 and found     1 'primitive' translations

 
 
 KPOINTS: K-points                                

Automatic generation of k-mesh.
Space group operators:
 irot       det(A)        alpha          n_x          n_y          n_z        tau_x        tau_y        tau_z
    1     1.000000     0.000000     1.000000     0.000000     0.000000     0.000000     0.000000     0.000000
 
 Subroutine IBZKPT returns following result:
 ===========================================
 
 Found      1 irreducible k-points:
 
 Following reciprocal coordinates:
            Coordinates               Weight
  0.000000  0.000000  0.000000      1.000000
 
 Following cartesian coordinates:
            Coordinates               Weight
  0.000000  0.000000  0.000000      1.000000
 


--------------------------------------------------------------------------------------------------------




 Dimension of arrays:
   k-points           NKPTS =      1   k-points in BZ     NKDIM =      1   number of bands    NBANDS=    336
   number of dos      NEDOS =    301   number of ions     NIONS =     57
   non local maximal  LDIM  =      6   non local SUM 2l+1 LMDIM =     18
   total plane-waves  NPLWV = ******
   max r-space proj   IRMAX =   1847   max aug-charges    IRDMAX=   6262
   dimension x,y,z NGX =   150 NGY =  150 NGZ =  150
   dimension x,y,z NGXF=   300 NGYF=  300 NGZF=  300
   support grid    NGXF=   300 NGYF=  300 NGZF=  300
   ions per type =              55   1   1
   NGX,Y,Z   is equivalent  to a cutoff of   8.31,  8.31,  8.31 a.u.
   NGXF,Y,Z  is equivalent  to a cutoff of  16.62, 16.62, 16.62 a.u.

 SYSTEM =  6_Pd100_top_free_z(O)                   
 POSCAR =  Pd55PES                                 

 Startparameter for this run:
   NWRITE =      2    write-flag & timer
   PREC   = normal    normal or accurate (medium, high low for compatibility)
   ISTART =      0    job   : 0-new  1-cont  2-samecut
   ICHARG =      2    charge: 1-file 2-atom 10-const
   ISPIN  =      1    spin polarized calculation?
   LNONCOLLINEAR =      F non collinear calculations
   LSORBIT =      F    spin-orbit coupling
   INIWAV =      1    electr: 0-lowe 1-rand  2-diag
   LASPH  =      F    aspherical Exc in radial PAW
   METAGGA=      F    non-selfconsistent MetaGGA calc.

 Electronic Relaxation 1
   ENCUT  =  400.0 eV  29.40 Ry    5.42 a.u.  48.92 48.92 48.92*2*pi/ulx,y,z
   ENINI  =  400.0     initial cutoff
   ENAUG  =  644.9 eV  augmentation charge cutoff
   NELM   =    100;   NELMIN=  6; NELMDL= -5     # of ELM steps 
   EDIFF  = 0.1E-03   stopping-criterion for ELM
   LREAL  =      T    real-space projection
   NLSPLINE    = F    spline interpolate recip. space projectors
   LCOMPAT=      F    compatible to vasp.4.4
   GGA_COMPAT  = T    GGA compatible to vasp.4.4-vasp.4.6
   LMAXPAW     = -100 max onsite density
   LMAXMIX     =    2 max onsite mixed and CHGCAR
   VOSKOWN=      0    Vosko Wilk Nusair interpolation
   ROPT   =   -0.00050  -0.00050  -0.00050
 Ionic relaxation
   EDIFFG = -.5E-01   stopping-criterion for IOM
   NSW    =      0    number of steps for IOM
   NBLOCK =      1;   KBLOCK =      1    inner block; outer block 
   IBRION =     -1    ionic relax: 0-MD 1-quasi-New 2-CG
   NFREE  =      1    steps in history (QN), initial steepest desc. (CG)
   ISIF   =      2    stress and relaxation
   IWAVPR =     10    prediction:  0-non 1-charg 2-wave 3-comb
   ISYM   =      2    0-nonsym 1-usesym 2-fastsym
   LCORR  =      T    Harris-Foulkes like correction to forces

   POTIM  = 0.5000    time-step for ionic-motion
   TEIN   =    0.0    initial temperature
   TEBEG  =    0.0;   TEEND  =   0.0 temperature during run
   SMASS  =  -3.00    Nose mass-parameter (am)
   estimated Nose-frequenzy (Omega)   =  0.10E-29 period in steps =****** mass=  -0.206E-25a.u.
   SCALEE = 1.0000    scale energy and forces
   NPACO  =    256;   APACO  = 16.0  distance and # of slots for P.C.
   PSTRESS=    0.0 pullay stress

  Mass of Ions in am
   POMASS = 106.42 12.01 16.00
  Ionic Valenz
   ZVAL   =  10.00  4.00  6.00
  Atomic Wigner-Seitz radii
   RWIGS  =  -1.00 -1.00 -1.00
  virtual crystal weights 
   VCA    =   1.00  1.00  1.00
   NELECT =     560.0000    total number of electrons
   NUPDOWN=      -1.0000    fix difference up-down

 DOS related values:
   EMIN   =  10.00;   EMAX   =-10.00  energy-range for DOS
   EFERMI =   0.00
   ISMEAR =     2;   SIGMA  =   0.20  broadening in eV -4-tet -1-fermi 0-gaus

 Electronic relaxation 2 (details)
   IALGO  =     68    algorithm
   LDIAG  =      T    sub-space diagonalisation (order eigenvalues)
   LSUBROT=      F    optimize rotation matrix (better conditioning)
   TURBO    =      0    0=normal 1=particle mesh
   IRESTART =      0    0=no restart 2=restart with 2 vectors
   NREBOOT  =      0    no. of reboots
   NMIN     =      0    reboot dimension
   EREF     =   0.00    reference energy to select bands
   IMIX   =      4    mixing-type and parameters
     AMIX     =   0.40;   BMIX     =  1.00
     AMIX_MAG =   1.60;   BMIX_MAG =  1.00
     AMIN     =   0.10
     WC   =   100.;   INIMIX=   1;  MIXPRE=   1;  MAXMIX= -45

 Intra band minimization:
   WEIMIN = 0.0000     energy-eigenvalue tresh-hold
   EBREAK =  0.74E-07  absolut break condition
   DEPER  =   0.30     relativ break condition  

   TIME   =   0.40     timestep for ELM

  volume/ion in A,a.u.               =     473.68      3196.58
  Fermi-wavevector in a.u.,A,eV,Ry     =   0.449797  0.849992  2.752691  0.202317
  Thomas-Fermi vector in A             =   1.430086
 
 Write flags
   LWAVE        =      F    write WAVECAR
   LDOWNSAMPLE  =      F    k-point downsampling of WAVECAR
   LCHARG       =      F    write CHGCAR
   LVTOT        =      F    write LOCPOT, total local potential
   LVHAR        =      F    write LOCPOT, Hartree potential only
   LELF         =      F    write electronic localiz. function (ELF)
   LORBIT       =      0    0 simple, 1 ext, 2 COOP (PROOUT), +10 PAW based schemes


 Dipole corrections
   LMONO  =      F    monopole corrections only (constant potential shift)
   LDIPOL =      F    correct potential (dipole corrections)
   IDIPOL =      0    1-x, 2-y, 3-z, 4-all directions 
   EPSILON=  1.0000000 bulk dielectric constant

 Exchange correlation treatment:
   GGA     =    RP    GGA type
   LEXCH   =     9    internal setting for exchange type
   VOSKOWN=      0    Vosko Wilk Nusair interpolation
   LHFCALC =     F    Hartree Fock is set to
   LHFONE  =     F    Hartree Fock one center treatment
   AEXX    =    0.0000 exact exchange contribution

 Linear response parameters
   LEPSILON=     F    determine dielectric tensor
   LRPA    =     F    only Hartree local field effects (RPA)
   LNABLA  =     F    use nabla operator in PAW spheres
   LVEL    =     F    velocity operator in full k-point grid
   LINTERFAST=   F  fast interpolation
   KINTER  =     0    interpolate to denser k-point grid
   CSHIFT  =0.1000    complex shift for real part using Kramers Kronig
   OMEGAMAX=  -1.0    maximum frequency
   DEG_THRESHOLD= 0.2000000E-02 threshold for treating states as degnerate
   RTIME   =   -0.100 relaxation time in fs
  (WPLASMAI=    0.000 imaginary part of plasma frequency in eV, 0.658/RTIME)
   DFIELD  = 0.0000000 0.0000000 0.0000000 field for delta impulse in time
 
 Orbital magnetization related:
   ORBITALMAG=     F  switch on orbital magnetization
   LCHIMAG   =     F  perturbation theory with respect to B field
   DQ        =  0.001000  dq finite difference perturbation B field
   LLRAUG    =     F  two centre corrections for induced B field



--------------------------------------------------------------------------------------------------------


 Static calculation
 charge density and potential will be updated during run
 non-spin polarized calculation
 RMM-DIIS sequential band-by-band and
  variant of blocked Davidson during initial phase
 perform sub-space diagonalisation
    before iterative eigenvector-optimisation
 modified Broyden-mixing scheme, WC =      100.0
 initial mixing is a Kerker type mixing with AMIX =  0.4000 and BMIX =      1.0000
 Hartree-type preconditioning will be used
 using additional bands           56
 real space projection scheme for non local part
 use partial core corrections
 calculate Harris-corrections to forces 
   (improved forces if not selfconsistent)
 use gradient corrections 
 use of overlap-Matrix (Vanderbilt PP)
 Methfessel and Paxton  Order N= 2 SIGMA  =   0.20


--------------------------------------------------------------------------------------------------------


  energy-cutoff  :      400.00
  volume of cell :    27000.00
      direct lattice vectors                 reciprocal lattice vectors
    30.000000000  0.000000000  0.000000000     0.033333333  0.000000000  0.000000000
     0.000000000 30.000000000  0.000000000     0.000000000  0.033333333  0.000000000
     0.000000000  0.000000000 30.000000000     0.000000000  0.000000000  0.033333333

  length of vectors
    30.000000000 30.000000000 30.000000000     0.033333333  0.033333333  0.033333333


 
 k-points in units of 2pi/SCALE and weight: K-points                                
   0.00000000  0.00000000  0.00000000       1.000
 
 k-points in reciprocal lattice and weights: K-points                                
   0.00000000  0.00000000  0.00000000       1.000
 
 position of ions in fractional coordinates (direct lattice) 
   0.44576020  0.32826710  0.41691983
   0.67173288  0.55423978  0.41691983
   0.55423980  0.32826710  0.41691983
   0.32826712  0.55423978  0.41691983
   0.50000000  0.38250690  0.34021317
   0.50000000  0.38250690  0.65978680
   0.50000000  0.27609440  0.50000000
   0.27609443  0.49999998  0.50000000
   0.72390557  0.49999998  0.50000000
   0.50000000  0.72390555  0.50000000
   0.61195280  0.38804720  0.34167483
   0.61195280  0.38804720  0.65832513
   0.38804722  0.61195278  0.34167483
   0.38804722  0.61195278  0.65832513
   0.38804720  0.38804720  0.34167483
   0.38804720  0.38804720  0.65832513
   0.61195278  0.61195278  0.34167483
   0.61195278  0.61195278  0.65832513
   0.44576020  0.32826710  0.58308023
   0.67173288  0.55423978  0.58308023
   0.55791699  0.44208301  0.41809300
   0.32826705  0.44576024  0.41691983
   0.55423973  0.67173293  0.41691983
   0.55423980  0.32826710  0.58308023
   0.32826712  0.55423978  0.58308023
   0.67173295  0.44576024  0.41691983
   0.44576027  0.67173293  0.41691983
   0.44208301  0.44208301  0.41809300
   0.50000000  0.38416601  0.50000000
   0.61749315  0.50000005  0.34021317
   0.61749315  0.50000005  0.65978680
   0.38250685  0.50000005  0.34021317
   0.38250685  0.50000005  0.65978680
   0.38317830  0.38317830  0.50000000
   0.61682172  0.61682172  0.50000000
   0.61682170  0.38317830  0.50000000
   0.38317828  0.61682172  0.50000000
   0.50000000  0.50000000  0.33478917
   0.50000000  0.50000000  0.66521087
   0.32826705  0.44576024  0.58308023
   0.55423973  0.67173293  0.58308023
   0.55791699  0.44208301  0.58190703
   0.44208298  0.55791702  0.41809300
   0.44208301  0.44208301  0.58190703
   0.67173295  0.44576024  0.58308023
   0.44576027  0.67173293  0.58308023
   0.55791702  0.55791702  0.41809300
   0.38416599  0.50000002  0.50000000
   0.61583401  0.50000002  0.50000000
   0.50000000  0.61749319  0.34021317
   0.50000000  0.61749319  0.65978680
   0.50000000  0.50000000  0.50000000
   0.44208298  0.55791702  0.58190703
   0.55791702  0.55791702  0.58190703
   0.50000000  0.61583404  0.50000000
   0.50689417  0.51940263  0.27539637
   0.50804347  0.52263717  0.23795337
 
 position of ions in cartesian coordinates  (Angst):
  13.37280588  9.84801292 12.50759500
  20.15198637 16.62719342 12.50759500
  16.62719412  9.84801292 12.50759500
   9.84801363 16.62719342 12.50759500
  15.00000000 11.47520705 10.20639500
  15.00000000 11.47520705 19.79360400
  15.00000000  8.28283206 15.00000000
   8.28283277 14.99999929 15.00000000
  21.71716723 14.99999929 15.00000000
  15.00000000 21.71716652 14.99999999
  18.35858397 11.64141603 10.25024500
  18.35858397 11.64141603 19.74975399
  11.64141674 18.35858326 10.25024500
  11.64141674 18.35858326 19.74975400
  11.64141603 11.64141603 10.25024500
  11.64141603 11.64141603 19.74975400
  18.35858326 18.35858326 10.25024500
  18.35858326 18.35858326 19.74975400
  13.37280588  9.84801291 17.49240700
  20.15198638 16.62719341 17.49240700
  16.73750985 13.26249015 12.54279000
   9.84801151 13.37280729 12.50759500
  16.62719200 20.15198779 12.50759500
  16.62719412  9.84801292 17.49240700
   9.84801363 16.62719342 17.49240700
  20.15198849 13.37280729 12.50759500
  13.37280800 20.15198779 12.50759500
  13.26249015 13.26249015 12.54279000
  15.00000000 11.52498029 15.00000000
  18.52479437 15.00000140 10.20639500
  18.52479437 15.00000141 19.79360400
  11.47520562 15.00000141 10.20639501
  11.47520563 15.00000141 19.79360400
  11.49534898 11.49534898 15.00000000
  18.50465172 18.50465172 15.00000000
  18.50465102 11.49534898 15.00000000
  11.49534828 18.50465172 15.00000000
  15.00000000 15.00000000 10.04367500
  15.00000000 15.00000000 19.95632599
   9.84801151 13.37280729 17.49240700
  16.62719200 20.15198779 17.49240700
  16.73750985 13.26249015 17.45721100
  13.26248944 16.73751056 12.54279001
  13.26249015 13.26249015 17.45721100
  20.15198849 13.37280729 17.49240699
  13.37280800 20.15198779 17.49240700
  16.73751056 16.73751056 12.54279000
  11.52497959 15.00000071 15.00000000
  18.47502041 15.00000071 15.00000000
  14.99999999 18.52479579 10.20639500
  15.00000000 18.52479578 19.79360400
  15.00000000 15.00000000 15.00000000
  13.26248944 16.73751057 17.45721101
  16.73751056 16.73751057 17.45721100
  15.00000000 18.47502112 15.00000000
  15.20682500 15.58207900  8.26189100
  15.24130400 15.67911500  7.13860100
 


--------------------------------------------------------------------------------------------------------


 k-point  1 :   0.0000 0.0000 0.0000  plane waves:  490521

 maximum and minimum number of plane-waves per node :    490521   490521

 maximum number of plane-waves:    490521
 maximum index in each direction: 
   IXMAX=   48   IYMAX=   48   IZMAX=   48
   IXMIN=  -48   IYMIN=  -48   IZMIN=  -48


 serial   3D FFT for wavefunctions
 parallel 3D FFT for charge:
    minimum data exchange during FFTs selected (reduces bandwidth)


 total amount of memory used by VASP MPI-rank0  5486941. kBytes
=======================================================================

   base      :      30000. kBytes
   nonlr-proj:      17126. kBytes
   fftplans  :     924480. kBytes
   grid      :    1872000. kBytes
   one-center:        886. kBytes
   wavefun   :    2642449. kBytes
 
     INWAV:  cpu time    0.0001: real time    0.0006
 Broyden mixing: mesh for mixing (old mesh)
   NGX = 97   NGY = 97   NGZ = 97
  (NGX  =300   NGY  =300   NGZ  =300)
  gives a total of 912673 points

 initial charge density was supplied:
 charge density of overlapping atoms calculated
 number of electron     560.0000000 magnetization 
 keeping initial charge density in first step


--------------------------------------------------------------------------------------------------------


 Maximum index for non-local projection operator         1763
 Maximum index for augmentation-charges         5898 (set IRDMAX)


--------------------------------------------------------------------------------------------------------


 First call to EWALD:  gamma=   0.059
 Maximum number of real-space cells 3x 3x 3
 Maximum number of reciprocal cells 3x 3x 3

    FEWALD:  cpu time    0.0150: real time    0.0150


--------------------------------------- Iteration      1(   1)  ---------------------------------------


    POTLOK:  cpu time   14.2011: real time   14.2054
    SETDIJ:  cpu time    0.1211: real time    0.1211
     EDDAV:  cpu time  356.9400: real time  356.9920
       DOS:  cpu time    0.0013: real time    0.0013
    --------------------------------------------
      LOOP:  cpu time  371.2635: real time  371.3198

 eigenvalue-minimisations  :   688
 total energy-change (2. order) : 0.4391416E+04  (-0.1004995E+05)
 number of electron     560.0000000 magnetization 
 augmentation part      560.0000000 magnetization 

 Free energy of the ion-electron system (eV)
  ---------------------------------------------------
  alpha Z        PSCENC =        75.25431677
  Ewald energy   TEWEN  =    138729.98987984
  -Hartree energ DENC   =   -182089.48122590
  -exchange      EXHF   =         0.00000000
  -V(xc)+E(xc)   XCENC  =     -1703.01007893
  PAW double counting   =     44873.02882129   -41398.84523641
  entropy T*S    EENTRO =         0.02569347
  eigenvalues    EBANDS =       817.94824328
  atomic energy  EATOM  =     45086.50549395
  Solvation  Ediel_sol  =         0.00000000
  ---------------------------------------------------
  free energy    TOTEN  =      4391.41590737 eV

  energy without entropy =     4391.39021390  energy(sigma->0) =     4391.40948400


--------------------------------------------------------------------------------------------------------




--------------------------------------- Iteration      1(   2)  ---------------------------------------


     EDDAV:  cpu time  566.5651: real time  566.5730
       DOS:  cpu time    0.0012: real time    0.0012
    --------------------------------------------
      LOOP:  cpu time  566.5664: real time  566.5742

 eigenvalue-minimisations  :  1208
 total energy-change (2. order) :-0.2361025E+04  (-0.2121977E+04)
 number of electron     560.0000000 magnetization 
 augmentation part      560.0000000 magnetization 

 Free energy of the ion-electron system (eV)
  ---------------------------------------------------
  alpha Z        PSCENC =        75.25431677
  Ewald energy   TEWEN  =    138729.98987984
  -Hartree energ DENC   =   -182089.48122590
  -exchange      EXHF   =         0.00000000
  -V(xc)+E(xc)   XCENC  =     -1703.01007893
  PAW double counting   =     44873.02882129   -41398.84523641
  entropy T*S    EENTRO =        -0.00580404
  eigenvalues    EBANDS =     -1543.04539825
  atomic energy  EATOM  =     45086.50549395
  Solvation  Ediel_sol  =         0.00000000
  ---------------------------------------------------
  free energy    TOTEN  =      2030.39076833 eV

  energy without entropy =     2030.39657237  energy(sigma->0) =     2030.39221934


--------------------------------------------------------------------------------------------------------




--------------------------------------- Iteration      1(   3)  ---------------------------------------


     EDDAV:  cpu time  483.6219: real time  483.6306
       DOS:  cpu time    0.0011: real time    0.0011
    --------------------------------------------
      LOOP:  cpu time  483.6230: real time  483.6317

 eigenvalue-minimisations  :  1000
 total energy-change (2. order) :-0.1788635E+04  (-0.1682208E+04)
 number of electron     560.0000000 magnetization 
 augmentation part      560.0000000 magnetization 

 Free energy of the ion-electron system (eV)
  ---------------------------------------------------
  alpha Z        PSCENC =        75.25431677
  Ewald energy   TEWEN  =    138729.98987984
  -Hartree energ DENC   =   -182089.48122590
  -exchange      EXHF   =         0.00000000
  -V(xc)+E(xc)   XCENC  =     -1703.01007893
  PAW double counting   =     44873.02882129   -41398.84523641
  entropy T*S    EENTRO =        -0.03384860
  eigenvalues    EBANDS =     -3331.65218274
  atomic energy  EATOM  =     45086.50549395
  Solvation  Ediel_sol  =         0.00000000
  ---------------------------------------------------
  free energy    TOTEN  =       241.75593928 eV

  energy without entropy =      241.78978788  energy(sigma->0) =      241.76440143


--------------------------------------------------------------------------------------------------------




--------------------------------------- Iteration      1(   4)  ---------------------------------------


     EDDAV:  cpu time  422.3757: real time  422.3816
       DOS:  cpu time    0.0012: real time    0.0012
    --------------------------------------------
      LOOP:  cpu time  422.3768: real time  422.3827

 eigenvalue-minimisations  :   832
 total energy-change (2. order) :-0.3751959E+03  (-0.3199691E+03)
 number of electron     560.0000000 magnetization 
 augmentation part      560.0000000 magnetization 

 Free energy of the ion-electron system (eV)
  ---------------------------------------------------
  alpha Z        PSCENC =        75.25431677
  Ewald energy   TEWEN  =    138729.98987984
  -Hartree energ DENC   =   -182089.48122590
  -exchange      EXHF   =         0.00000000
  -V(xc)+E(xc)   XCENC  =     -1703.01007893
  PAW double counting   =     44873.02882129   -41398.84523641
  entropy T*S    EENTRO =        -0.02609818
  eigenvalues    EBANDS =     -3706.85586428
  atomic energy  EATOM  =     45086.50549395
  Solvation  Ediel_sol  =         0.00000000
  ---------------------------------------------------
  free energy    TOTEN  =      -133.43999184 eV

  energy without entropy =     -133.41389366  energy(sigma->0) =     -133.43346729


--------------------------------------------------------------------------------------------------------




--------------------------------------- Iteration      1(   5)  ---------------------------------------


     EDDAV:  cpu time  513.4451: real time  513.4576
       DOS:  cpu time    0.0014: real time    0.0014
    CHARGE:  cpu time   25.2581: real time   25.2579
    MIXING:  cpu time    0.4397: real time    0.4397
    --------------------------------------------
      LOOP:  cpu time  539.1443: real time  539.1566

 eigenvalue-minimisations  :  1048
 total energy-change (2. order) :-0.4655295E+02  (-0.3826533E+02)
 number of electron     559.9999839 magnetization 
 augmentation part      244.9795813 magnetization 

 Broyden mixing:
  rms(total) = 0.16156E+01    rms(broyden)= 0.16148E+01
  rms(prec ) = 0.17181E+01
  weight for this iteration     100.00

 Free energy of the ion-electron system (eV)
  ---------------------------------------------------
  alpha Z        PSCENC =        75.25431677
  Ewald energy   TEWEN  =    138729.98987984
  -Hartree energ DENC   =   -182089.48122590
  -exchange      EXHF   =         0.00000000
  -V(xc)+E(xc)   XCENC  =     -1703.01007893
  PAW double counting   =     44873.02882129   -41398.84523641
  entropy T*S    EENTRO =         0.53921907
  eigenvalues    EBANDS =     -3753.97412949
  atomic energy  EATOM  =     45086.50549395
  Solvation  Ediel_sol  =         0.00000000
  ---------------------------------------------------
  free energy    TOTEN  =      -179.99293980 eV

  energy without entropy =     -180.53215887  energy(sigma->0) =     -180.12774457


--------------------------------------------------------------------------------------------------------




--------------------------------------- Iteration      1(   6)  ---------------------------------------


    POTLOK:  cpu time   13.2384: real time   13.2408
    SETDIJ:  cpu time    0.1219: real time    0.1219
    EDDIAG:  cpu time   69.9977: real time   70.0003
  RMM-DIIS:  cpu time  189.9699: real time  189.9710
    ORTHCH:  cpu time   13.3940: real time   13.3939
       DOS:  cpu time    0.0015: real time    0.0015
    CHARGE:  cpu time   25.0927: real time   25.0925
    MIXING:  cpu time    0.4593: real time    0.4593
    --------------------------------------------
      LOOP:  cpu time  312.2754: real time  312.2811

 eigenvalue-minimisations  :   723
 total energy-change (2. order) :-0.3256104E+00  (-0.6509236E+01)
 number of electron     559.9999876 magnetization 
 augmentation part      240.4764313 magnetization 

 Broyden mixing:
  rms(total) = 0.21207E+01    rms(broyden)= 0.21204E+01
  rms(prec ) = 0.24046E+01
  weight for this iteration     100.00

 eigenvalues of (default mixing * dielectric matrix)
  average eigenvalue GAMMA=   0.3852
  0.3852

 Free energy of the ion-electron system (eV)
  ---------------------------------------------------
  alpha Z        PSCENC =        75.25431677
  Ewald energy   TEWEN  =    138729.98987984
  -Hartree energ DENC   =   -182484.42461361
  -exchange      EXHF   =         0.00000000
  -V(xc)+E(xc)   XCENC  =     -1696.68878855
  PAW double counting   =     45658.56251784   -42158.21122600
  entropy T*S    EENTRO =        -0.29308772
  eigenvalues    EBANDS =     -3391.01304267
  atomic energy  EATOM  =     45086.50549395
  Solvation  Ediel_sol  =         0.00000000
  ---------------------------------------------------
  free energy    TOTEN  =      -180.31855015 eV

  energy without entropy =     -180.02546243  energy(sigma->0) =     -180.24527822


--------------------------------------------------------------------------------------------------------




--------------------------------------- Iteration      1(   7)  ---------------------------------------


    POTLOK:  cpu time   13.3773: real time   13.3794
    SETDIJ:  cpu time    0.1250: real time    0.1250
    EDDIAG:  cpu time   69.0450: real time   69.0464
  RMM-DIIS:  cpu time  216.1559: real time  216.1598
    ORTHCH:  cpu time   13.5379: real time   13.5380
       DOS:  cpu time    0.0014: real time    0.0014
    CHARGE:  cpu time   25.8366: real time   25.8368
    MIXING:  cpu time    0.4971: real time    0.4972
    --------------------------------------------
      LOOP:  cpu time  338.5762: real time  338.5839

 eigenvalue-minimisations  :   827
 total energy-change (2. order) :-0.1600901E+01  (-0.1958652E+01)
 number of electron     559.9999830 magnetization 
 augmentation part      240.4705238 magnetization 

 Broyden mixing:
  rms(total) = 0.22691E+01    rms(broyden)= 0.22688E+01
  rms(prec ) = 0.26768E+01
  weight for this iteration     100.00

 eigenvalues of (default mixing * dielectric matrix)
  average eigenvalue GAMMA=   0.3557
  0.5429  0.1685

 Free energy of the ion-electron system (eV)
  ---------------------------------------------------
  alpha Z        PSCENC =        75.25431677
  Ewald energy   TEWEN  =    138729.98987984
  -Hartree energ DENC   =   -182589.38190633
  -exchange      EXHF   =         0.00000000
  -V(xc)+E(xc)   XCENC  =     -1696.97305052
  PAW double counting   =     45745.67273847   -42242.42384914
  entropy T*S    EENTRO =        -0.11115271
  eigenvalues    EBANDS =     -3290.45192113
  atomic energy  EATOM  =     45086.50549395
  Solvation  Ediel_sol  =         0.00000000
  ---------------------------------------------------
  free energy    TOTEN  =      -181.91945080 eV

  energy without entropy =     -181.80829809  energy(sigma->0) =     -181.89166262


--------------------------------------------------------------------------------------------------------




--------------------------------------- Iteration      1(   8)  ---------------------------------------


    POTLOK:  cpu time   13.4576: real time   13.4584
    SETDIJ:  cpu time    0.1214: real time    0.1213
    EDDIAG:  cpu time   69.8953: real time   69.8966
  RMM-DIIS:  cpu time  208.0569: real time  208.0592
    ORTHCH:  cpu time   13.6333: real time   13.6333
       DOS:  cpu time    0.0014: real time    0.0014
    CHARGE:  cpu time   25.8679: real time   25.8680
    MIXING:  cpu time    0.5322: real time    0.5322
    --------------------------------------------
      LOOP:  cpu time  331.5658: real time  331.5705

 eigenvalue-minimisations  :   793
 total energy-change (2. order) :-0.1639968E+01  (-0.7505843E+00)
 number of electron     559.9999839 magnetization 
 augmentation part      240.3655080 magnetization 

 Broyden mixing:
  rms(total) = 0.25415E+01    rms(broyden)= 0.25412E+01
  rms(prec ) = 0.30369E+01
  weight for this iteration     100.00

 eigenvalues of (default mixing * dielectric matrix)
  average eigenvalue GAMMA=   0.3273
  0.6673  0.1773  0.1373

 Free energy of the ion-electron system (eV)
  ---------------------------------------------------
  alpha Z        PSCENC =        75.25431677
  Ewald energy   TEWEN  =    138729.98987984
  -Hartree energ DENC   =   -182616.47071227
  -exchange      EXHF   =         0.00000000
  -V(xc)+E(xc)   XCENC  =     -1696.89841310
  PAW double counting   =     45819.01580888   -42313.16703208
  entropy T*S    EENTRO =        -0.13084041
  eigenvalues    EBANDS =     -3267.65792079
  atomic energy  EATOM  =     45086.50549395
  Solvation  Ediel_sol  =         0.00000000
  ---------------------------------------------------
  free energy    TOTEN  =      -183.55941921 eV

  energy without entropy =     -183.42857880  energy(sigma->0) =     -183.52670911


--------------------------------------------------------------------------------------------------------




--------------------------------------- Iteration      1(   9)  ---------------------------------------


    POTLOK:  cpu time   13.4759: real time   13.4794
    SETDIJ:  cpu time    0.1210: real time    0.1210
    EDDIAG:  cpu time   70.6309: real time   70.6339
  RMM-DIIS:  cpu time  192.2163: real time  192.2231
    ORTHCH:  cpu time   13.8132: real time   13.8130
       DOS:  cpu time    0.0014: real time    0.0014
    CHARGE:  cpu time   26.1965: real time   26.1962
    MIXING:  cpu time    0.5461: real time    0.5461
    --------------------------------------------
      LOOP:  cpu time  317.0012: real time  317.0141

 eigenvalue-minimisations  :   734
 total energy-change (2. order) : 0.1941236E+01  (-0.5301238E+00)
 number of electron     559.9999829 magnetization 
 augmentation part      241.1444830 magnetization 

 Broyden mixing:
  rms(total) = 0.21631E+01    rms(broyden)= 0.21627E+01
  rms(prec ) = 0.24739E+01
  weight for this iteration     100.00

 eigenvalues of (default mixing * dielectric matrix)
  average eigenvalue GAMMA=   0.3187
  0.7895  0.2095  0.1565  0.1196

 Free energy of the ion-electron system (eV)
  ---------------------------------------------------
  alpha Z        PSCENC =        75.25431677
  Ewald energy   TEWEN  =    138729.98987984
  -Hartree energ DENC   =   -182633.49282951
  -exchange      EXHF   =         0.00000000
  -V(xc)+E(xc)   XCENC  =     -1696.80883425
  PAW double counting   =     45877.01158788   -42369.13513291
  entropy T*S    EENTRO =        -0.25585060
  eigenvalues    EBANDS =     -3250.68681405
  atomic energy  EATOM  =     45086.50549395
  Solvation  Ediel_sol  =         0.00000000
  ---------------------------------------------------
  free energy    TOTEN  =      -181.61818288 eV

  energy without entropy =     -181.36233229  energy(sigma->0) =     -181.55422023


--------------------------------------------------------------------------------------------------------




--------------------------------------- Iteration      1(  10)  ---------------------------------------


    POTLOK:  cpu time   13.6210: real time   13.6230
    SETDIJ:  cpu time    0.1239: real time    0.1239
    EDDIAG:  cpu time   71.8032: real time   71.8047
  RMM-DIIS:  cpu time  191.5328: real time  191.5348
    ORTHCH:  cpu time   13.8311: real time   13.8311
       DOS:  cpu time    0.0015: real time    0.0015
    CHARGE:  cpu time   26.2782: real time   26.2780
    MIXING:  cpu time    0.6364: real time    0.6364
    --------------------------------------------
      LOOP:  cpu time  317.8281: real time  317.8333

 eigenvalue-minimisations  :   728
 total energy-change (2. order) : 0.2779347E+01  (-0.4106220E+00)
 number of electron     559.9999818 magnetization 
 augmentation part      241.5112140 magnetization 

 Broyden mixing:
  rms(total) = 0.17545E+01    rms(broyden)= 0.17540E+01
  rms(prec ) = 0.20010E+01
  weight for this iteration     100.00

 eigenvalues of (default mixing * dielectric matrix)
  average eigenvalue GAMMA=   0.3227
  0.9276  0.2632  0.1609  0.1609  0.1008

 Free energy of the ion-electron system (eV)
  ---------------------------------------------------
  alpha Z        PSCENC =        75.25431677
  Ewald energy   TEWEN  =    138729.98987984
  -Hartree energ DENC   =   -182670.22586200
  -exchange      EXHF   =         0.00000000
  -V(xc)+E(xc)   XCENC  =     -1696.59419081
  PAW double counting   =     45938.63152512   -42428.53769508
  entropy T*S    EENTRO =         0.05100916
  eigenvalues    EBANDS =     -3213.91331327
  atomic energy  EATOM  =     45086.50549395
  Solvation  Ediel_sol  =         0.00000000
  ---------------------------------------------------
  free energy    TOTEN  =      -178.83883632 eV

  energy without entropy =     -178.88984548  energy(sigma->0) =     -178.85158861


--------------------------------------------------------------------------------------------------------




--------------------------------------- Iteration      1(  11)  ---------------------------------------


    POTLOK:  cpu time   13.6002: real time   13.6039
    SETDIJ:  cpu time    0.1238: real time    0.1238
    EDDIAG:  cpu time   71.7094: real time   71.7108
  RMM-DIIS:  cpu time  190.3215: real time  190.3233
    ORTHCH:  cpu time   13.6710: real time   13.6711
       DOS:  cpu time    0.0015: real time    0.0015
    CHARGE:  cpu time   26.2608: real time   26.2608
    MIXING:  cpu time    0.6202: real time    0.6202
    --------------------------------------------
      LOOP:  cpu time  316.3083: real time  316.3154

 eigenvalue-minimisations  :   721
 total energy-change (2. order) : 0.1309235E+01  (-0.2757553E+00)
 number of electron     559.9999859 magnetization 
 augmentation part      241.6767351 magnetization 

 Broyden mixing:
  rms(total) = 0.14337E+01    rms(broyden)= 0.14334E+01
  rms(prec ) = 0.16642E+01
  weight for this iteration     100.00

 eigenvalues of (default mixing * dielectric matrix)
  average eigenvalue GAMMA=   0.3276
  1.0557  0.3131  0.2053  0.1520  0.1520  0.0876

 Free energy of the ion-electron system (eV)
  ---------------------------------------------------
  alpha Z        PSCENC =        75.25431677
  Ewald energy   TEWEN  =    138729.98987984
  -Hartree energ DENC   =   -182701.10550922
  -exchange      EXHF   =         0.00000000
  -V(xc)+E(xc)   XCENC  =     -1696.26031191
  PAW double counting   =     45997.63598008   -42485.13884932
  entropy T*S    EENTRO =        -0.02330285
  eigenvalues    EBANDS =     -3184.38729823
  atomic energy  EATOM  =     45086.50549395
  Solvation  Ediel_sol  =         0.00000000
  ---------------------------------------------------
  free energy    TOTEN  =      -177.52960090 eV

  energy without entropy =     -177.50629805  energy(sigma->0) =     -177.52377519


--------------------------------------------------------------------------------------------------------




--------------------------------------- Iteration      1(  12)  ---------------------------------------


    POTLOK:  cpu time   13.6374: real time   13.6409
    SETDIJ:  cpu time    0.1227: real time    0.1227
    EDDIAG:  cpu time   71.3794: real time   71.3801
  RMM-DIIS:  cpu time  190.5747: real time  190.5753
    ORTHCH:  cpu time   13.6197: real time   13.6196
       DOS:  cpu time    0.0015: real time    0.0015
    CHARGE:  cpu time   25.9784: real time   25.9782
    MIXING:  cpu time    0.6868: real time    0.6868
    --------------------------------------------
      LOOP:  cpu time  316.0005: real time  316.0051

 eigenvalue-minimisations  :   722
 total energy-change (2. order) :-0.1029852E-01  (-0.2071095E+00)
 number of electron     559.9999847 magnetization 
 augmentation part      241.4682700 magnetization 

 Broyden mixing:
  rms(total) = 0.16025E+01    rms(broyden)= 0.16023E+01
  rms(prec ) = 0.19613E+01
  weight for this iteration     100.00

 eigenvalues of (default mixing * dielectric matrix)
  average eigenvalue GAMMA=   0.3238
  1.1628  0.3797  0.2044  0.1652  0.1652  0.0945  0.0945

 Free energy of the ion-electron system (eV)
  ---------------------------------------------------
  alpha Z        PSCENC =        75.25431677
  Ewald energy   TEWEN  =    138729.98987984
  -Hartree energ DENC   =   -182737.15700754
  -exchange      EXHF   =         0.00000000
  -V(xc)+E(xc)   XCENC  =     -1695.88348594
  PAW double counting   =     46052.99489948   -42538.08829690
  entropy T*S    EENTRO =        -0.01816762
  eigenvalues    EBANDS =     -3151.13753146
  atomic energy  EATOM  =     45086.50549395
  Solvation  Ediel_sol  =         0.00000000
  ---------------------------------------------------
  free energy    TOTEN  =      -177.53989942 eV

  energy without entropy =     -177.52173180  energy(sigma->0) =     -177.53535751


--------------------------------------------------------------------------------------------------------




--------------------------------------- Iteration      1(  13)  ---------------------------------------


    POTLOK:  cpu time   13.5192: real time   13.5227
    SETDIJ:  cpu time    0.1248: real time    0.1248
    EDDIAG:  cpu time   71.0536: real time   71.0541
  RMM-DIIS:  cpu time  192.1934: real time  192.1957
    ORTHCH:  cpu time   13.7690: real time   13.7690
       DOS:  cpu time    0.0015: real time    0.0015
    CHARGE:  cpu time   26.2117: real time   26.2147
    MIXING:  cpu time    0.7426: real time    0.7426
    --------------------------------------------
      LOOP:  cpu time  317.6160: real time  317.6251

 eigenvalue-minimisations  :   727
 total energy-change (2. order) :-0.8351733E+00  (-0.1293683E+00)
 number of electron     559.9999831 magnetization 
 augmentation part      241.2714575 magnetization 

 Broyden mixing:
  rms(total) = 0.22014E+01    rms(broyden)= 0.22012E+01
  rms(prec ) = 0.26606E+01
  weight for this iteration     100.00

 eigenvalues of (default mixing * dielectric matrix)
  average eigenvalue GAMMA=   0.3133
  1.2567  0.4168  0.2075  0.2075  0.1316  0.1316  0.0927  0.0623

 Free energy of the ion-electron system (eV)
  ---------------------------------------------------
  alpha Z        PSCENC =        75.25431677
  Ewald energy   TEWEN  =    138729.98987984
  -Hartree energ DENC   =   -182763.17410132
  -exchange      EXHF   =         0.00000000
  -V(xc)+E(xc)   XCENC  =     -1695.57494184
  PAW double counting   =     46093.60043540   -42576.88523682
  entropy T*S    EENTRO =         0.02286578
  eigenvalues    EBANDS =     -3128.11378449
  atomic energy  EATOM  =     45086.50549395
  Solvation  Ediel_sol  =         0.00000000
  ---------------------------------------------------
  free energy    TOTEN  =      -178.37507272 eV

  energy without entropy =     -178.39793851  energy(sigma->0) =     -178.38078917


--------------------------------------------------------------------------------------------------------




--------------------------------------- Iteration      1(  14)  ---------------------------------------


    POTLOK:  cpu time   13.4903: real time   13.4946
    SETDIJ:  cpu time    0.1227: real time    0.1227
    EDDIAG:  cpu time   71.1521: real time   71.1553
  RMM-DIIS:  cpu time  189.7142: real time  189.7184
    ORTHCH:  cpu time   13.6329: real time   13.6328
       DOS:  cpu time    0.0015: real time    0.0015
    CHARGE:  cpu time   25.7805: real time   25.7804
    MIXING:  cpu time    0.7513: real time    0.7513
    --------------------------------------------
      LOOP:  cpu time  314.6456: real time  314.6570

 eigenvalue-minimisations  :   719
 total energy-change (2. order) : 0.7340708E+00  (-0.1147602E+00)
 number of electron     559.9999837 magnetization 
 augmentation part      241.3162708 magnetization 

 Broyden mixing:
  rms(total) = 0.23377E+01    rms(broyden)= 0.23374E+01
  rms(prec ) = 0.27066E+01
  weight for this iteration     100.00

 eigenvalues of (default mixing * dielectric matrix)
  average eigenvalue GAMMA=   0.3151
  1.3922  0.5035  0.2281  0.2281  0.1250  0.1250  0.1061  0.0739  0.0543

 Free energy of the ion-electron system (eV)
  ---------------------------------------------------
  alpha Z        PSCENC =        75.25431677
  Ewald energy   TEWEN  =    138729.98987984
  -Hartree energ DENC   =   -182785.50935194
  -exchange      EXHF   =         0.00000000
  -V(xc)+E(xc)   XCENC  =     -1695.27759029
  PAW double counting   =     46128.77519788   -42610.45367873
  entropy T*S    EENTRO =         0.08685932
  eigenvalues    EBANDS =     -3107.01212877
  atomic energy  EATOM  =     45086.50549395
  Solvation  Ediel_sol  =         0.00000000
  ---------------------------------------------------
  free energy    TOTEN  =      -177.64100197 eV

  energy without entropy =     -177.72786129  energy(sigma->0) =     -177.66271680


--------------------------------------------------------------------------------------------------------




--------------------------------------- Iteration      1(  15)  ---------------------------------------


    POTLOK:  cpu time   13.6275: real time   13.6309
    SETDIJ:  cpu time    0.1228: real time    0.1228
    EDDIAG:  cpu time   71.5235: real time   71.5234
  RMM-DIIS:  cpu time  190.9824: real time  190.9843
    ORTHCH:  cpu time   13.7082: real time   13.7081
       DOS:  cpu time    0.0014: real time    0.0014
    CHARGE:  cpu time   25.8165: real time   25.8163
    MIXING:  cpu time    0.8342: real time    0.8342
    --------------------------------------------
      LOOP:  cpu time  316.6165: real time  316.6214

 eigenvalue-minimisations  :   721
 total energy-change (2. order) : 0.4085463E+00  (-0.1127763E+00)
 number of electron     559.9999844 magnetization 
 augmentation part      241.2345564 magnetization 

 Broyden mixing:
  rms(total) = 0.20346E+01    rms(broyden)= 0.20344E+01
  rms(prec ) = 0.24299E+01
  weight for this iteration     100.00

 eigenvalues of (default mixing * dielectric matrix)
  average eigenvalue GAMMA=   0.3079
  1.4855  0.5464  0.2459  0.2459  0.1319  0.1319  0.0989  0.0671  0.0671  0.0586

 Free energy of the ion-electron system (eV)
  ---------------------------------------------------
  alpha Z        PSCENC =        75.25431677
  Ewald energy   TEWEN  =    138729.98987984
  -Hartree energ DENC   =   -182811.45934579
  -exchange      EXHF   =         0.00000000
  -V(xc)+E(xc)   XCENC  =     -1694.91300647
  PAW double counting   =     46169.56200634   -42649.36361007
  entropy T*S    EENTRO =         0.03495271
  eigenvalues    EBANDS =     -3082.84314295
  atomic energy  EATOM  =     45086.50549395
  Solvation  Ediel_sol  =         0.00000000
  ---------------------------------------------------
  free energy    TOTEN  =      -177.23245567 eV

  energy without entropy =     -177.26740838  energy(sigma->0) =     -177.24119385


--------------------------------------------------------------------------------------------------------




--------------------------------------- Iteration      1(  16)  ---------------------------------------


    POTLOK:  cpu time   13.5155: real time   13.5193
    SETDIJ:  cpu time    0.1243: real time    0.1243
    EDDIAG:  cpu time   70.8100: real time   70.8099
  RMM-DIIS:  cpu time  190.0838: real time  190.0856
    ORTHCH:  cpu time   13.6738: real time   13.6738
       DOS:  cpu time    0.0015: real time    0.0015
    CHARGE:  cpu time   25.7007: real time   25.7005
    MIXING:  cpu time    0.8143: real time    0.8143
    --------------------------------------------
      LOOP:  cpu time  314.7240: real time  314.7293

 eigenvalue-minimisations  :   720
 total energy-change (2. order) : 0.5709379E+00  (-0.7551623E-01)
 number of electron     559.9999858 magnetization 
 augmentation part      241.2521529 magnetization 

 Broyden mixing:
  rms(total) = 0.14824E+01    rms(broyden)= 0.14821E+01
  rms(prec ) = 0.17586E+01
  weight for this iteration     100.00

 eigenvalues of (default mixing * dielectric matrix)
  average eigenvalue GAMMA=   0.3012
  1.5375  0.6002  0.2601  0.2601  0.1384  0.1384  0.0976  0.0976  0.0834  0.0496
  0.0496

 Free energy of the ion-electron system (eV)
  ---------------------------------------------------
  alpha Z        PSCENC =        75.25431677
  Ewald energy   TEWEN  =    138729.98987984
  -Hartree energ DENC   =   -182827.07910431
  -exchange      EXHF   =         0.00000000
  -V(xc)+E(xc)   XCENC  =     -1694.68596064
  PAW double counting   =     46195.17803568   -42673.75491313
  entropy T*S    EENTRO =         0.02562840
  eigenvalues    EBANDS =     -3068.09489431
  atomic energy  EATOM  =     45086.50549395
  Solvation  Ediel_sol  =         0.00000000
  ---------------------------------------------------
  free energy    TOTEN  =      -176.66151774 eV

  energy without entropy =     -176.68714615  energy(sigma->0) =     -176.66792485


--------------------------------------------------------------------------------------------------------




--------------------------------------- Iteration      1(  17)  ---------------------------------------


    POTLOK:  cpu time   13.6728: real time   13.6766
    SETDIJ:  cpu time    0.1241: real time    0.1241
    EDDIAG:  cpu time   70.8101: real time   70.8105
  RMM-DIIS:  cpu time  188.3329: real time  188.3349
    ORTHCH:  cpu time   13.5865: real time   13.5864
       DOS:  cpu time    0.0015: real time    0.0015
    CHARGE:  cpu time   25.8581: real time   25.8579
    MIXING:  cpu time    0.8681: real time    0.8681
    --------------------------------------------
      LOOP:  cpu time  313.2541: real time  313.2600

 eigenvalue-minimisations  :   711
 total energy-change (2. order) : 0.6443199E+00  (-0.5232801E-01)
 number of electron     559.9999849 magnetization 
 augmentation part      241.2364570 magnetization 

 Broyden mixing:
  rms(total) = 0.11090E+01    rms(broyden)= 0.11087E+01
  rms(prec ) = 0.13154E+01
  weight for this iteration     100.00

 eigenvalues of (default mixing * dielectric matrix)
  average eigenvalue GAMMA=   0.2992
  1.5984  0.6652  0.2830  0.2830  0.1343  0.1343  0.1193  0.1193  0.0762  0.0762
  0.0542  0.0466

 Free energy of the ion-electron system (eV)
  ---------------------------------------------------
  alpha Z        PSCENC =        75.25431677
  Ewald energy   TEWEN  =    138729.98987984
  -Hartree energ DENC   =   -182842.75943731
  -exchange      EXHF   =         0.00000000
  -V(xc)+E(xc)   XCENC  =     -1694.48908426
  PAW double counting   =     46213.23243838   -42690.87927324
  entropy T*S    EENTRO =         0.01710225
  eigenvalues    EBANDS =     -3052.88863419
  atomic energy  EATOM  =     45086.50549395
  Solvation  Ediel_sol  =         0.00000000
  ---------------------------------------------------
  free energy    TOTEN  =      -176.01719781 eV

  energy without entropy =     -176.03430006  energy(sigma->0) =     -176.02147337


--------------------------------------------------------------------------------------------------------




--------------------------------------- Iteration      1(  18)  ---------------------------------------


    POTLOK:  cpu time   13.6065: real time   13.6094
    SETDIJ:  cpu time    0.1257: real time    0.1257
    EDDIAG:  cpu time   70.8505: real time   70.8525
  RMM-DIIS:  cpu time  187.5041: real time  187.5067
    ORTHCH:  cpu time   13.5572: real time   13.5571
       DOS:  cpu time    0.0015: real time    0.0015
    CHARGE:  cpu time   25.8601: real time   25.8600
    MIXING:  cpu time    0.9119: real time    0.9119
    --------------------------------------------
      LOOP:  cpu time  312.4175: real time  312.4248

 eigenvalue-minimisations  :   707
 total energy-change (2. order) : 0.2024888E+00  (-0.4433731E-01)
 number of electron     559.9999854 magnetization 
 augmentation part      241.1688692 magnetization 

 Broyden mixing:
  rms(total) = 0.91266E+00    rms(broyden)= 0.91242E+00
  rms(prec ) = 0.10811E+01
  weight for this iteration     100.00

 eigenvalues of (default mixing * dielectric matrix)
  average eigenvalue GAMMA=   0.3076
  1.6617  0.7665  0.3423  0.3423  0.1294  0.1294  0.1363  0.1363  0.0935  0.0935
  0.0714  0.0518  0.0441

 Free energy of the ion-electron system (eV)
  ---------------------------------------------------
  alpha Z        PSCENC =        75.25431677
  Ewald energy   TEWEN  =    138729.98987984
  -Hartree energ DENC   =   -182860.36241054
  -exchange      EXHF   =         0.00000000
  -V(xc)+E(xc)   XCENC  =     -1694.26883104
  PAW double counting   =     46231.50649051   -42708.07224301
  entropy T*S    EENTRO =        -0.02093664
  eigenvalues    EBANDS =     -3036.34646881
  atomic energy  EATOM  =     45086.50549395
  Solvation  Ediel_sol  =         0.00000000
  ---------------------------------------------------
  free energy    TOTEN  =      -175.81470897 eV

  energy without entropy =     -175.79377233  energy(sigma->0) =     -175.80947481


--------------------------------------------------------------------------------------------------------




--------------------------------------- Iteration      1(  19)  ---------------------------------------


    POTLOK:  cpu time   13.4141: real time   13.4189
    SETDIJ:  cpu time    0.1251: real time    0.1251
    EDDIAG:  cpu time   71.0202: real time   71.0208
  RMM-DIIS:  cpu time  186.5106: real time  186.5118
    ORTHCH:  cpu time   13.4452: real time   13.4451
       DOS:  cpu time    0.0015: real time    0.0015
    CHARGE:  cpu time   25.8294: real time   25.8293
    MIXING:  cpu time    1.0027: real time    1.0027
    --------------------------------------------
      LOOP:  cpu time  311.3489: real time  311.3552

 eigenvalue-minimisations  :   703
 total energy-change (2. order) :-0.7919272E-01  (-0.3732122E-01)
 number of electron     559.9999843 magnetization 
 augmentation part      241.0873578 magnetization 

 Broyden mixing:
  rms(total) = 0.10290E+01    rms(broyden)= 0.10288E+01
  rms(prec ) = 0.11747E+01
  weight for this iteration     100.00

 eigenvalues of (default mixing * dielectric matrix)
  average eigenvalue GAMMA=   0.3256
  1.7573  1.0115  0.3870  0.3870  0.1886  0.1379  0.1379  0.1014  0.1014  0.1089
  0.0791  0.0602  0.0568  0.0432

 Free energy of the ion-electron system (eV)
  ---------------------------------------------------
  alpha Z        PSCENC =        75.25431677
  Ewald energy   TEWEN  =    138729.98987984
  -Hartree energ DENC   =   -182879.58405806
  -exchange      EXHF   =         0.00000000
  -V(xc)+E(xc)   XCENC  =     -1694.01207866
  PAW double counting   =     46247.36421219   -42722.76114986
  entropy T*S    EENTRO =        -0.01826926
  eigenvalues    EBANDS =     -3018.63224860
  atomic energy  EATOM  =     45086.50549395
  Solvation  Ediel_sol  =         0.00000000
  ---------------------------------------------------
  free energy    TOTEN  =      -175.89390169 eV

  energy without entropy =     -175.87563243  energy(sigma->0) =     -175.88933437


--------------------------------------------------------------------------------------------------------




--------------------------------------- Iteration      1(  20)  ---------------------------------------


    POTLOK:  cpu time   13.3548: real time   13.3586
    SETDIJ:  cpu time    0.1224: real time    0.1224
    EDDIAG:  cpu time   70.9595: real time   70.9596
  RMM-DIIS:  cpu time  184.9175: real time  184.9185
    ORTHCH:  cpu time   13.4413: real time   13.4412
       DOS:  cpu time    0.0016: real time    0.0016
    CHARGE:  cpu time   25.8226: real time   25.8224
    MIXING:  cpu time    1.0692: real time    1.0692
    --------------------------------------------
      LOOP:  cpu time  309.6888: real time  309.6936

 eigenvalue-minimisations  :   696
 total energy-change (2. order) : 0.6156166E-01  (-0.3763330E-01)
 number of electron     559.9999850 magnetization 
 augmentation part      240.9710428 magnetization 

 Broyden mixing:
  rms(total) = 0.84962E+00    rms(broyden)= 0.84947E+00
  rms(prec ) = 0.96673E+00
  weight for this iteration     100.00

 eigenvalues of (default mixing * dielectric matrix)
  average eigenvalue GAMMA=   0.3363
  1.8727  1.1886  0.4108  0.4108  0.2026  0.1458  0.1458  0.1240  0.1240  0.0895
  0.0895  0.0828  0.0573  0.0573  0.0431

 Free energy of the ion-electron system (eV)
  ---------------------------------------------------
  alpha Z        PSCENC =        75.25431677
  Ewald energy   TEWEN  =    138729.98987984
  -Hartree energ DENC   =   -182905.67372123
  -exchange      EXHF   =         0.00000000
  -V(xc)+E(xc)   XCENC  =     -1693.65684290
  PAW double counting   =     46265.19362219   -42739.05863446
  entropy T*S    EENTRO =        -0.02818972
  eigenvalues    EBANDS =     -2994.35826447
  atomic energy  EATOM  =     45086.50549395
  Solvation  Ediel_sol  =         0.00000000
  ---------------------------------------------------
  free energy    TOTEN  =      -175.83234003 eV

  energy without entropy =     -175.80415031  energy(sigma->0) =     -175.82529260


--------------------------------------------------------------------------------------------------------




--------------------------------------- Iteration      1(  21)  ---------------------------------------


    POTLOK:  cpu time   13.3285: real time   13.3319
    SETDIJ:  cpu time    0.1240: real time    0.1240
    EDDIAG:  cpu time   69.8708: real time   69.8709
  RMM-DIIS:  cpu time  186.9413: real time  186.9428
    ORTHCH:  cpu time   13.5175: real time   13.5175
       DOS:  cpu time    0.0015: real time    0.0015
    CHARGE:  cpu time   25.5186: real time   25.5185
    MIXING:  cpu time    1.0910: real time    1.0910
    --------------------------------------------
      LOOP:  cpu time  310.3933: real time  310.3981

 eigenvalue-minimisations  :   702
 total energy-change (2. order) : 0.1859916E+00  (-0.2770526E-01)
 number of electron     559.9999845 magnetization 
 augmentation part      240.9999299 magnetization 

 Broyden mixing:
  rms(total) = 0.81576E+00    rms(broyden)= 0.81557E+00
  rms(prec ) = 0.94973E+00
  weight for this iteration     100.00

 eigenvalues of (default mixing * dielectric matrix)
  average eigenvalue GAMMA=   0.3385
  1.9562  1.2937  0.4229  0.4229  0.2091  0.2091  0.1315  0.1315  0.1105  0.1105
  0.0920  0.0920  0.0735  0.0606  0.0563  0.0432

 Free energy of the ion-electron system (eV)
  ---------------------------------------------------
  alpha Z        PSCENC =        75.25431677
  Ewald energy   TEWEN  =    138729.98987984
  -Hartree energ DENC   =   -182923.60280559
  -exchange      EXHF   =         0.00000000
  -V(xc)+E(xc)   XCENC  =     -1693.42316537
  PAW double counting   =     46273.25624134   -42746.14268766
  entropy T*S    EENTRO =         0.02535830
  eigenvalues    EBANDS =     -2977.50897999
  atomic energy  EATOM  =     45086.50549395
  Solvation  Ediel_sol  =         0.00000000
  ---------------------------------------------------
  free energy    TOTEN  =      -175.64634840 eV

  energy without entropy =     -175.67170670  energy(sigma->0) =     -175.65268797


--------------------------------------------------------------------------------------------------------




--------------------------------------- Iteration      1(  22)  ---------------------------------------


    POTLOK:  cpu time   13.0880: real time   13.0906
    SETDIJ:  cpu time    0.1203: real time    0.1203
    EDDIAG:  cpu time   70.0070: real time   70.0101
  RMM-DIIS:  cpu time  185.8514: real time  185.8529
    ORTHCH:  cpu time   13.3895: real time   13.3894
       DOS:  cpu time    0.0015: real time    0.0015
    CHARGE:  cpu time   25.4884: real time   25.4882
    MIXING:  cpu time    1.1491: real time    1.1491
    --------------------------------------------
      LOOP:  cpu time  309.0952: real time  309.1022

 eigenvalue-minimisations  :   696
 total energy-change (2. order) : 0.7278690E-01  (-0.1915910E-01)
 number of electron     559.9999853 magnetization 
 augmentation part      241.0792951 magnetization 

 Broyden mixing:
  rms(total) = 0.84878E+00    rms(broyden)= 0.84862E+00
  rms(prec ) = 0.98158E+00
  weight for this iteration     100.00

 eigenvalues of (default mixing * dielectric matrix)
  average eigenvalue GAMMA=   0.3439
  1.9778  1.3786  0.4775  0.4775  0.2732  0.2732  0.1338  0.1338  0.1166  0.1166
  0.0949  0.0949  0.0798  0.0603  0.0603  0.0537  0.0432

 Free energy of the ion-electron system (eV)
  ---------------------------------------------------
  alpha Z        PSCENC =        75.25431677
  Ewald energy   TEWEN  =    138729.98987984
  -Hartree energ DENC   =   -182932.94816753
  -exchange      EXHF   =         0.00000000
  -V(xc)+E(xc)   XCENC  =     -1693.29818553
  PAW double counting   =     46274.15117508   -42746.57323169
  entropy T*S    EENTRO =         0.03141445
  eigenvalues    EBANDS =     -2968.68625685
  atomic energy  EATOM  =     45086.50549395
  Solvation  Ediel_sol  =         0.00000000
  ---------------------------------------------------
  free energy    TOTEN  =      -175.57356150 eV

  energy without entropy =     -175.60497595  energy(sigma->0) =     -175.58141511


--------------------------------------------------------------------------------------------------------




--------------------------------------- Iteration      1(  23)  ---------------------------------------


    POTLOK:  cpu time   13.1359: real time   13.1364
    SETDIJ:  cpu time    0.1220: real time    0.1220
    EDDIAG:  cpu time   69.3938: real time   69.3941
  RMM-DIIS:  cpu time  187.4777: real time  187.4793
    ORTHCH:  cpu time   13.3391: real time   13.3393
       DOS:  cpu time    0.0015: real time    0.0015
    CHARGE:  cpu time   25.3218: real time   25.3221
    MIXING:  cpu time    1.2541: real time    1.2541
    --------------------------------------------
      LOOP:  cpu time  310.0459: real time  310.0488

 eigenvalue-minimisations  :   700
 total energy-change (2. order) : 0.1005338E+00  (-0.1501589E-01)
 number of electron     559.9999847 magnetization 
 augmentation part      241.0945551 magnetization 

 Broyden mixing:
  rms(total) = 0.66665E+00    rms(broyden)= 0.66650E+00
  rms(prec ) = 0.76237E+00
  weight for this iteration     100.00

 eigenvalues of (default mixing * dielectric matrix)
  average eigenvalue GAMMA=   0.3507
  2.1113  1.4892  0.5088  0.5088  0.3003  0.3003  0.1371  0.1371  0.1223  0.1223
[...]
 -0.006  -0.012   0.004   0.004   0.006  -0.006  -0.012   0.004
 -0.010  -0.021   0.006   0.007   0.010  -0.010  -0.020   0.006
 -0.015  -0.005   0.012   0.000   0.022  -0.014  -0.004   0.012
  0.000  -0.023  -0.006  -0.015  -0.000   0.000  -0.022  -0.006
 -0.022   0.000   0.009  -0.005  -0.016  -0.021   0.000   0.008
 -0.017  -0.006   0.015   0.000   0.027  -0.017  -0.006   0.015
  0.000  -0.027  -0.007  -0.018   0.000   0.000  -0.026  -0.007
 -0.027   0.000   0.010  -0.006  -0.019  -0.026   0.000   0.010
 total augmentation occupancy for first ion, spin component:           1
  1.531  -0.027   0.005   0.025   0.023   0.078  -0.010  -0.002   0.034  -0.010   0.088  -0.029   0.013  -0.000   0.002  -0.019
 -0.027   1.398   0.026   0.067   0.003  -0.009   0.073   0.012  -0.013  -0.008   0.218  -0.067   0.018   0.004   0.002  -0.006
  0.005   0.026   1.544   0.000   0.000  -0.002   0.013   0.074  -0.012   0.018  -0.056   0.019  -0.003  -0.007  -0.006   0.016
  0.025   0.067   0.000   1.334   0.043   0.032  -0.012  -0.012   0.091  -0.022  -0.076   0.020  -0.002  -0.006  -0.003   0.001
  0.023   0.003   0.000   0.043   1.442  -0.010  -0.009   0.016  -0.022   0.067  -0.102   0.033  -0.002  -0.010  -0.010   0.026
  0.078  -0.009  -0.002   0.032  -0.010   0.217   0.019  -0.002  -0.044   0.004  -0.048   0.002   0.017  -0.009   0.035  -0.004
 -0.010   0.073   0.013  -0.012  -0.009   0.019   0.263  -0.023  -0.004   0.006  -0.109   0.007  -0.001   0.051  -0.010  -0.000
 -0.002   0.012   0.074  -0.012   0.016  -0.002  -0.023   0.215   0.014  -0.020   0.028  -0.001  -0.012   0.009  -0.018   0.003
  0.034  -0.013  -0.012   0.091  -0.022  -0.044  -0.004   0.014   0.261   0.007   0.042  -0.004  -0.009   0.035   0.004   0.000
 -0.010  -0.008   0.018  -0.022   0.067   0.004   0.006  -0.020   0.007   0.259   0.047  -0.002  -0.038   0.002   0.049   0.007
  0.088   0.218  -0.056  -0.076  -0.102  -0.048  -0.109   0.028   0.042   0.047   0.952  -0.141   0.084   0.014   0.064  -0.013
 -0.029  -0.067   0.019   0.020   0.033   0.002   0.007  -0.001  -0.004  -0.002  -0.141   0.023  -0.014  -0.003  -0.010   0.003
  0.013   0.018  -0.003  -0.002  -0.002   0.017  -0.001  -0.012  -0.009  -0.038   0.084  -0.014   0.029  -0.008  -0.004  -0.003
 -0.000   0.004  -0.007  -0.006  -0.010  -0.009   0.051   0.009   0.035   0.002   0.014  -0.003  -0.008   0.035   0.004   0.000
  0.002   0.002  -0.006  -0.003  -0.010   0.035  -0.010  -0.018   0.004   0.049   0.064  -0.010  -0.004   0.004   0.035  -0.000
 -0.019  -0.006   0.016   0.001   0.026  -0.004  -0.000   0.003   0.000   0.007  -0.013   0.003  -0.003   0.000  -0.000   0.001
  0.001  -0.028  -0.007  -0.018   0.001   0.001  -0.008  -0.001  -0.006  -0.000  -0.003   0.001   0.000  -0.003  -0.000   0.000
 -0.028   0.001   0.012  -0.005  -0.020  -0.006   0.001   0.003  -0.001  -0.007  -0.008   0.001  -0.000  -0.000  -0.003   0.000


------------------------ aborting loop because EDIFF is reached ----------------------------------------


    CHARGE:  cpu time   25.3945: real time   25.3950
    FORLOC:  cpu time    6.7940: real time    6.7942
    FORNL :  cpu time   65.7092: real time   65.7105
    STRESS:  cpu time  196.7277: real time  196.7344
    FORCOR:  cpu time   21.7113: real time   21.7138
    FORHAR:  cpu time    9.6659: real time    9.6662
    MIXING:  cpu time    3.2675: real time    3.2676
    OFIELD:  cpu time    0.0000: real time    0.0000

  FORCE on cell =-STRESS in cart. coord.  units (eV):
  Direction    XX          YY          ZZ          XY          YZ          ZX
  --------------------------------------------------------------------------------------
  Alpha Z    75.25432    75.25432    75.25432
  Ewald   44329.73906 44389.65466 50010.49036    14.73223  -374.95111  -134.65767
  Hartree 59268.86101 59312.01560 64507.89905    10.04547  -311.75118  -111.70613
  E(xc)   -2906.15845 -2905.96486 -2903.02409     0.06195    -0.59785    -0.22375
  Local  ************************************   -23.79344   676.79075   242.77913
  n-local  -879.23450  -879.45319  -886.37818    -0.13324     0.55299     0.18441
  augment  4106.46867  4105.85342  4098.05586    -0.22661     2.13246     0.80109
  Kinetic  7819.99298  7817.98193  7777.99144    -0.75551     7.77084     2.83777
  Fock        0.00000     0.00000     0.00000     0.00000     0.00000     0.00000
  -------------------------------------------------------------------------------------
  Total    -113.03828  -113.23194  -109.64609    -0.06916    -0.05311     0.01485
  in kB      -6.70768    -6.71917    -6.50639    -0.00410    -0.00315     0.00088
  external pressure =       -6.64 kB  Pullay stress =        0.00 kB


 VOLUME and BASIS-vectors are now :
 -----------------------------------------------------------------------------
  energy-cutoff  :      400.00
  volume of cell :    27000.00
      direct lattice vectors                 reciprocal lattice vectors
    30.000000000  0.000000000  0.000000000     0.033333333  0.000000000  0.000000000
     0.000000000 30.000000000  0.000000000     0.000000000  0.033333333  0.000000000
     0.000000000  0.000000000 30.000000000     0.000000000  0.000000000  0.033333333

  length of vectors
    30.000000000 30.000000000 30.000000000     0.033333333  0.033333333  0.033333333


 FORCES acting on ions
    electron-ion (+dipol)            ewald-force                    non-local-force                 convergence-correction
 -----------------------------------------------------------------------------------------------
   0.399E+03 0.986E+03 0.402E+03   -.397E+03 -.983E+03 -.401E+03   -.153E+01 -.184E+01 -.203E+00   0.117E-01 -.327E-02 0.661E-02
   -.990E+03 -.398E+03 0.396E+03   0.987E+03 0.395E+03 -.396E+03   0.182E+01 0.154E+01 -.232E+00   -.942E-03 -.785E-02 0.200E-02
   -.398E+03 0.987E+03 0.401E+03   0.396E+03 -.984E+03 -.401E+03   0.153E+01 -.183E+01 -.211E+00   0.506E-02 0.346E-02 0.103E-01
   0.989E+03 -.397E+03 0.399E+03   -.986E+03 0.395E+03 -.398E+03   -.183E+01 0.153E+01 -.224E+00   -.155E-02 0.463E-02 0.423E-02
   0.268E+01 0.635E+03 0.933E+03   -.270E+01 -.635E+03 -.930E+03   0.681E-02 -.217E+00 -.246E+01   0.964E-02 -.752E-03 0.386E-02
   0.143E+00 0.588E+03 -.968E+03   -.148E+00 -.587E+03 0.964E+03   -.781E-03 -.291E+00 0.238E+01   0.659E-02 0.266E-02 -.703E-02
   0.255E+00 0.114E+04 -.789E+01   -.260E+00 -.114E+04 0.786E+01   -.724E-04 -.311E+01 0.168E-01   0.702E-02 0.607E-02 0.698E-02
   0.114E+04 0.800E+00 -.861E+01   -.114E+04 -.795E+00 0.857E+01   -.310E+01 -.460E-03 0.260E-01   -.371E-02 -.438E-03 0.618E-02
   -.114E+04 0.886E+00 -.954E+01   0.114E+04 -.876E+00 0.948E+01   0.310E+01 -.804E-03 0.356E-01   -.791E-02 -.685E-02 0.598E-02
   0.342E+00 -.114E+04 -.105E+02   -.341E+00 0.114E+04 0.105E+02   -.581E-03 0.310E+01 0.461E-01   0.112E-02 0.326E-02 -.132E-03
   -.601E+03 0.607E+03 0.792E+03   0.598E+03 -.605E+03 -.789E+03   0.155E+01 -.154E+01 -.223E+01   0.801E-03 0.139E-02 0.621E-02
   -.579E+03 0.580E+03 -.815E+03   0.577E+03 -.577E+03 0.812E+03   0.155E+01 -.156E+01 0.221E+01   -.310E-02 0.543E-02 -.983E-02
   0.613E+03 -.604E+03 0.786E+03   -.610E+03 0.602E+03 -.783E+03   -.153E+01 0.153E+01 -.223E+01   0.720E-02 0.595E-02 -.301E-02
   0.580E+03 -.579E+03 -.816E+03   -.577E+03 0.577E+03 0.812E+03   -.156E+01 0.155E+01 0.221E+01   0.158E-02 -.603E-02 0.452E-02
   0.601E+03 0.603E+03 0.795E+03   -.598E+03 -.601E+03 -.791E+03   -.155E+01 -.155E+01 -.223E+01   0.609E-02 -.785E-02 -.192E-02
   0.579E+03 0.580E+03 -.815E+03   -.577E+03 -.577E+03 0.812E+03   -.155E+01 -.156E+01 0.221E+01   0.105E-01 -.136E-02 0.825E-03
   -.614E+03 -.610E+03 0.781E+03   0.612E+03 0.607E+03 -.778E+03   0.152E+01 0.152E+01 -.223E+01   0.319E-03 -.640E-02 -.199E-02
   -.579E+03 -.579E+03 -.816E+03   0.577E+03 0.577E+03 0.813E+03   0.156E+01 0.155E+01 0.221E+01   0.276E-02 -.111E-01 0.156E-02
   0.395E+03 0.975E+03 -.422E+03   -.393E+03 -.972E+03 0.422E+03   -.150E+01 -.184E+01 0.210E+00   0.122E-01 0.375E-02 0.489E-02
   -.975E+03 -.394E+03 -.423E+03   0.972E+03 0.392E+03 0.423E+03   0.183E+01 0.150E+01 0.192E+00   -.341E-02 -.151E-01 0.278E-02
   -.333E+03 0.339E+03 0.414E+03   0.333E+03 -.340E+03 -.415E+03   -.213E+00 0.270E+00 0.568E+00   0.691E-02 -.261E-02 0.998E-02
   0.987E+03 0.401E+03 0.401E+03   -.984E+03 -.398E+03 -.400E+03   -.184E+01 -.154E+01 -.199E+00   -.130E-02 -.529E-02 0.374E-02
   -.400E+03 -.990E+03 0.395E+03   0.398E+03 0.987E+03 -.394E+03   0.155E+01 0.182E+01 -.231E+00   0.234E-02 -.609E-02 -.694E-02
   -.395E+03 0.975E+03 -.422E+03   0.393E+03 -.972E+03 0.422E+03   0.150E+01 -.184E+01 0.206E+00   0.214E-02 0.104E-01 -.453E-03
   0.975E+03 -.394E+03 -.423E+03   -.972E+03 0.392E+03 0.422E+03   -.183E+01 0.150E+01 0.198E+00   0.291E-02 -.208E-02 0.578E-02
   -.987E+03 0.402E+03 0.399E+03   0.984E+03 -.399E+03 -.398E+03   0.183E+01 -.154E+01 -.202E+00   -.490E-02 -.134E-02 0.867E-02
   0.401E+03 -.989E+03 0.396E+03   -.399E+03 0.986E+03 -.395E+03   -.155E+01 0.183E+01 -.218E+00   0.176E-02 -.141E-02 -.442E-02
   0.335E+03 0.338E+03 0.417E+03   -.335E+03 -.338E+03 -.418E+03   0.172E+00 0.202E+00 0.668E+00   0.180E-01 -.278E-02 0.787E-02
   0.493E+00 0.647E+03 -.158E+02   -.508E+00 -.648E+03 0.158E+02   -.419E-03 0.720E+00 0.231E-01   0.153E-01 -.814E-03 0.113E-01
   -.647E+03 0.118E+02 0.917E+03   0.647E+03 -.118E+02 -.913E+03   0.613E-01 0.251E-01 -.238E+01   0.336E-03 -.148E-02 0.413E-02
   -.588E+03 0.455E+00 -.968E+03   0.587E+03 -.442E+00 0.964E+03   0.300E+00 -.123E-02 0.237E+01   -.143E-02 -.103E-01 -.749E-02
   0.640E+03 0.919E+01 0.927E+03   -.640E+03 -.922E+01 -.923E+03   -.141E+00 0.214E-01 -.243E+01   0.781E-02 -.394E-03 -.279E-02
   0.588E+03 0.438E+00 -.968E+03   -.587E+03 -.428E+00 0.964E+03   -.295E+00 -.146E-02 0.237E+01   0.902E-02 -.743E-02 0.243E-02
   0.766E+03 0.766E+03 -.117E+02   -.764E+03 -.764E+03 0.117E+02   -.113E+01 -.113E+01 -.315E-01   0.119E-01 -.476E-02 0.988E-02
   -.766E+03 -.766E+03 -.151E+02   0.764E+03 0.764E+03 0.151E+02   0.114E+01 0.115E+01 0.294E-01   0.517E-02 -.125E-01 0.278E-02
   -.765E+03 0.767E+03 -.124E+02   0.763E+03 -.765E+03 0.125E+02   0.113E+01 -.113E+01 -.162E-01   -.212E-02 0.392E-02 0.101E-01
   0.767E+03 -.765E+03 -.140E+02   -.765E+03 0.763E+03 0.140E+02   -.114E+01 0.114E+01 0.131E-01   0.141E-02 -.133E-02 0.283E-02
   0.265E+02 0.747E+02 0.811E+03   -.255E+02 -.717E+02 -.819E+03   -.987E+00 -.277E+01 0.786E+01   0.126E-01 0.640E-03 0.261E-02
   0.170E+00 0.511E+00 -.107E+04   -.170E+00 -.479E+00 0.107E+04   -.493E-02 -.142E-01 0.163E+01   0.784E-02 -.103E-01 -.388E-02
   0.975E+03 0.395E+03 -.422E+03   -.972E+03 -.393E+03 0.422E+03   -.184E+01 -.150E+01 0.207E+00   0.711E-02 -.379E-02 0.958E-02
   -.395E+03 -.974E+03 -.424E+03   0.393E+03 0.972E+03 0.423E+03   0.150E+01 0.183E+01 0.187E+00   0.665E-02 -.610E-02 0.612E-02
   -.322E+03 0.323E+03 -.463E+03   0.323E+03 -.324E+03 0.463E+03   -.364E+00 0.364E+00 -.519E+00   0.754E-02 -.621E-02 0.221E-02
   0.338E+03 -.331E+03 0.409E+03   -.339E+03 0.331E+03 -.409E+03   0.344E+00 -.290E+00 0.414E+00   0.143E-01 -.183E-02 0.299E-02
   0.323E+03 0.323E+03 -.463E+03   -.323E+03 -.324E+03 0.463E+03   0.367E+00 0.367E+00 -.513E+00   0.158E-01 -.560E-02 0.843E-02
   -.974E+03 0.396E+03 -.423E+03   0.972E+03 -.393E+03 0.422E+03   0.184E+01 -.149E+01 0.200E+00   -.993E-02 -.360E-02 -.143E-03
   0.395E+03 -.974E+03 -.424E+03   -.393E+03 0.971E+03 0.423E+03   -.149E+01 0.183E+01 0.190E+00   0.797E-04 -.380E-02 0.398E-02
   -.336E+03 -.331E+03 0.405E+03   0.336E+03 0.332E+03 -.405E+03   -.363E+00 -.336E+00 0.341E+00   0.435E-02 -.106E-01 -.914E-03
   0.646E+03 0.153E+01 -.169E+02   -.647E+03 -.152E+01 0.169E+02   0.717E+00 -.185E-02 0.385E-01   0.121E-01 -.185E-02 0.949E-02
   -.646E+03 0.166E+01 -.183E+02   0.647E+03 -.164E+01 0.182E+02   -.715E+00 -.252E-02 0.539E-01   0.107E-02 -.139E-01 0.861E-02
   0.547E+01 -.656E+03 0.903E+03   -.549E+01 0.656E+03 -.899E+03   0.943E-02 -.810E-02 -.232E+01   0.674E-02 -.371E-02 -.399E-02
   0.157E+00 -.588E+03 -.968E+03   -.162E+00 0.587E+03 0.965E+03   -.509E-03 0.303E+00 0.236E+01   0.592E-02 -.113E-01 0.454E-02
   0.759E+00 0.218E+01 -.244E+02   -.772E+00 -.217E+01 0.244E+02   0.289E-03 0.115E-02 0.418E-01   0.124E-01 -.105E-01 0.796E-02
   0.323E+03 -.322E+03 -.463E+03   -.323E+03 0.322E+03 0.464E+03   0.359E+00 -.359E+00 -.531E+00   0.849E-02 -.129E-01 0.508E-02
   -.322E+03 -.322E+03 -.464E+03   0.323E+03 0.322E+03 0.464E+03   -.357E+00 -.357E+00 -.537E+00   0.568E-02 -.185E-01 0.512E-02
   0.623E+00 -.645E+03 -.197E+02   -.625E+00 0.646E+03 0.196E+02   -.999E-03 -.715E+00 0.689E-01   0.355E-02 -.130E-01 0.135E-02
   -.137E+02 -.372E+02 0.298E+03   0.129E+02 0.351E+02 -.277E+03   0.420E+00 0.121E+01 -.169E+02   0.310E-02 0.387E-03 0.151E-02
   -.224E+02 -.626E+02 0.798E+03   0.244E+02 0.681E+02 -.863E+03   -.172E+01 -.489E+01 0.609E+02   0.324E-02 0.249E-03 0.140E-02
 -----------------------------------------------------------------------------------------------
   0.217E+01 0.705E+01 -.536E+02   0.104E-11 -.105E-11 -.148E-11   -.244E+01 -.685E+01 0.534E+02   0.266E+00 -.213E+00 0.172E+00
 
 
 POSITION                                       TOTAL-FORCE (eV/Angst)
 -----------------------------------------------------------------------------------
     13.37281      9.84801     12.50759         0.700440      1.105701      0.287985
     20.15199     16.62719     12.50759        -1.097873     -0.701186      0.299357
     16.62719      9.84801     12.50759        -0.699017      1.104846      0.290740
      9.84801     16.62719     12.50759         1.101113     -0.699758      0.296305
     15.00000     11.47521     10.20639        -0.002996      0.385940      1.331304
     15.00000     11.47521     19.79360         0.000758      0.400778     -1.281645
     15.00000      8.28283     15.00000         0.001239      1.509952     -0.007653
      8.28283     15.00000     15.00000         1.508099      0.003384     -0.010635
     21.71717     15.00000     15.00000        -1.506419      0.003463     -0.013550
     15.00000     21.71717     15.00000         0.001520     -1.504887     -0.016898
     18.35858     11.64142     10.25025        -0.744407      0.743263      1.073023
     18.35858     11.64142     19.74975        -0.750640      0.753950     -1.074958
     11.64142     18.35858     10.25025         0.734385     -0.736675      1.073648
     11.64142     18.35858     19.74975         0.754213     -0.751026     -1.073972
     11.64142     11.64142     10.25025         0.747367      0.747098      1.071721
     11.64142     11.64142     19.74975         0.751472      0.753016     -1.075234
     18.35858     18.35858     10.25025        -0.729269     -0.731045      1.074267
     18.35858     18.35858     19.74975        -0.753750     -0.752243     -1.073627
     13.37281      9.84801     17.49241         0.697593      1.108721     -0.288967
     20.15199     16.62719     17.49241        -1.109688     -0.698285     -0.286735
     16.73751     13.26249     12.54279         0.098353     -0.126584     -0.143384
      9.84801     13.37281     12.50759         1.105465      0.703232      0.286968
     16.62719     20.15199     12.50759        -0.702619     -1.095528      0.299317
     16.62719      9.84801     17.49241        -0.697820      1.108295     -0.288476
      9.84801     16.62719     17.49241         1.108677     -0.698037     -0.287468
     20.15199     13.37281     12.50759        -1.104021      0.704689      0.288809
     13.37281     20.15199     12.50759         0.704088     -1.098463      0.295171
     13.26249     13.26249     12.54279        -0.072973     -0.088881     -0.174564
     15.00000     11.52498     15.00000        -0.000028     -0.209786     -0.000625
     18.52479     15.00000     10.20639        -0.388085     -0.011732      1.332101
     18.52479     15.00000     19.79360        -0.404528      0.001686     -1.280819
     11.47521     15.00000     10.20640         0.383037     -0.010816      1.332932
     11.47521     15.00000     19.79360         0.402979      0.001747     -1.281017
     11.49535     11.49535     15.00000         0.813950      0.812201      0.026057
     18.50465     18.50465     15.00000        -0.825039     -0.826503      0.002233
     18.50465     11.49535     15.00000        -0.817731      0.814587      0.021019
     11.49535     18.50465     15.00000         0.820956     -0.823923      0.009071
     15.00000     15.00000     10.04368         0.080793      0.216482      0.405299
     15.00000     15.00000     19.95633         0.002665      0.007428     -1.186740
      9.84801     13.37281     17.49241         1.109977      0.696491     -0.287960
     16.62719     20.15199     17.49241        -0.697714     -1.111080     -0.285481
     16.73751     13.26249     17.45721         0.114130     -0.114021      0.150352
     13.26249     16.73751     12.54279        -0.157461      0.134835     -0.114487
     13.26249     13.26249     17.45721        -0.114138     -0.113988      0.149428
     20.15199     13.37281     17.49241        -1.111145      0.696421     -0.286453
     13.37281     20.15199     17.49241         0.696938     -1.111337     -0.285131
     16.73751     16.73751     12.54279         0.160359      0.150082     -0.105120
     11.52498     15.00000     15.00000        -0.211599     -0.000149      0.000204
     18.47502     15.00000     15.00000         0.213251      0.000341      0.000689
     15.00000     18.52480     10.20639        -0.001559     -0.421349      1.310939
     15.00000     18.52480     19.79360         0.000760     -0.405671     -1.280239
     15.00000     15.00000     15.00000        -0.000142     -0.000968     -0.012794
     13.26249     16.73751     17.45721        -0.114207      0.113191      0.151883
     16.73751     16.73751     17.45721         0.114119      0.113251      0.152338
     15.00000     18.47502     15.00000         0.000435      0.214295      0.001025
     15.20683     15.58208      8.26189        -0.324660     -0.835923      4.874654
     15.24130     15.67912      7.13860         0.210396      0.570479     -4.384208
 -----------------------------------------------------------------------------------
    total drift:                               -0.006959     -0.010101      0.000480


--------------------------------------------------------------------------------------------------------



  FREE ENERGIE OF THE ION-ELECTRON SYSTEM (eV)
  ---------------------------------------------------
  free  energy   TOTEN  =      -175.18863670 eV

  energy  without entropy=     -175.14341736  energy(sigma->0) =     -175.17733187
 


--------------------------------------------------------------------------------------------------------


    POTLOK:  cpu time   13.9202: real time   13.9207


--------------------------------------------------------------------------------------------------------


     LOOP+:  cpu time18471.3325: real time18471.8615
    4ORBIT:  cpu time    0.0000: real time    0.0000

 total amount of memory used by VASP MPI-rank0  5486941. kBytes
=======================================================================

   base      :      30000. kBytes
   nonlr-proj:      17126. kBytes
   fftplans  :     924480. kBytes
   grid      :    1872000. kBytes
   one-center:        886. kBytes
   wavefun   :    2642449. kBytes
 
  
  
 General timing and accounting informations for this job:
 ========================================================
  
                  Total CPU time used (sec):    18545.045
                            User time (sec):    17488.687
                          System time (sec):     1056.357
                         Elapsed time (sec):    18545.628
  
                   Maximum memory used (kb):     7178824.
                   Average memory used (kb):           0.
  
                          Minor page faults:    825887414
                          Major page faults:            0
                 Voluntary context switches:          604
