   57   57    1    1
  0.4736842E+03  0.3000000E-08  0.3000000E-08  0.3000000E-08  0.5000000E-15
  1.000000000000000E-004
  CAR 
 6_Pd100_top_free_z(O)                   
    560      1    336
 
  0.0000000E+00  0.0000000E+00  0.0000000E+00  0.1000000E+01
    1      -29.925700   1.000000
    2      -14.912547   1.000000
    3      -13.546234   1.000000
    4      -12.796434   1.000000
    5      -11.254132   1.000000
    6       -7.776377   1.000000
    7       -6.975130   1.000000
    8       -6.635300   1.000000
    9       -6.308348   1.000000
   10       -6.210009   1.000000
   11       -6.160356   1.000000
   12       -6.105957   1.000000
   13       -6.065138   1.000000
   14       -5.942608   1.000000
   15       -5.890018   1.000000
   16       -5.879067   1.000000
   17       -5.815702   1.000000
   18       -5.792792   1.000000
   19       -5.779795   1.000000
   20       -5.745097   1.000000
   21       -5.699711   1.000000
   22       -5.656217   1.000000
   23       -5.655383   1.000000
   24       -5.647486   1.000000
   25       -5.630868   1.000000
   26       -5.624164   1.000000
   27       -5.595292   1.000000
   28       -5.585605   1.000000
   29       -5.561701   1.000000
   30       -5.552760   1.000000
   31       -5.550444   1.000000
   32       -5.538041   1.000000
   33       -5.525490   1.000000
   34       -5.515152   1.000000
   35       -5.504593   1.000000
   36       -5.500989   1.000000
   37       -5.494118   1.000000
   38       -5.488275   1.000000
   39       -5.481571   1.000000
   40       -5.480375   1.000000
   41       -5.470570   1.000000
   42       -5.468399   1.000000
   43       -5.462886   1.000000
   44       -5.451486   1.000000
   45       -5.440519   1.000000
   46       -5.436817   1.000000
   47       -5.435548   1.000000
   48       -5.430975   1.000000
   49       -5.428062   1.000000
   50       -5.421551   1.000000
   51       -5.418046   1.000000
   52       -5.404948   1.000000
   53       -5.393764   1.000000
   54       -5.389161   1.000000
   55       -5.375422   1.000000
   56       -5.370103   1.000000
   57       -5.366943   1.000000
   58       -5.350040   1.000000
   59       -5.347183   1.000000
   60       -5.338066   1.000000
   61       -5.327061   1.000000
   62       -5.318618   1.000000
   63       -5.302413   1.000000
   64       -5.297457   1.000000
   65       -5.290913   1.000000
   66       -5.283988   1.000000
   67       -5.280663   1.000000
   68       -5.278277   1.000000
   69       -5.262497   1.000000
   70       -5.256944   1.000000
   71       -5.254344   1.000000
   72       -5.234888   1.000000
   73       -5.221892   1.000000
   74       -5.204040   1.000000
   75       -5.194629   1.000000
   76       -5.173564   1.000000
   77       -5.171816   1.000000
   78       -5.154010   1.000000
   79       -5.151928   1.000000
   80       -5.147000   1.000000
   81       -5.143085   1.000000
   82       -5.135690   1.000000
   83       -5.130813   1.000000
   84       -5.114507   1.000000
   85       -5.106851   1.000000
   86       -5.100353   1.000000
   87       -5.091239   1.000000
   88       -5.088285   1.000000
   89       -5.085645   1.000000
   90       -5.081009   1.000000
   91       -5.071787   1.000000
   92       -5.062613   1.000000
   93       -5.052363   1.000000
   94       -5.047595   1.000000
   95       -5.038617   1.000000
   96       -5.036935   1.000000
   97       -5.022415   1.000000
   98       -5.018066   1.000000
   99       -5.016634   1.000000
  100       -5.012639   1.000000
  101       -5.009464   1.000000
  102       -5.005615   1.000000
  103       -4.989911   1.000000
  104       -4.985239   1.000000
  105       -4.981543   1.000000
  106       -4.976401   1.000000
  107       -4.972288   1.000000
  108       -4.967845   1.000000
  109       -4.965462   1.000000
  110       -4.962176   1.000000
  111       -4.954080   1.000000
  112       -4.950955   1.000000
  113       -4.944659   1.000000
  114       -4.941515   1.000000
  115       -4.934795   1.000000
  116       -4.928548   1.000000
  117       -4.922377   0.999999
  118       -4.917467   0.999999
  119       -4.913815   0.999999
  120       -4.899717   0.999999
  121       -4.897249   0.999999
  122       -4.893649   0.999998
  123       -4.884016   0.999998
  124       -4.882831   0.999998
  125       -4.873536   0.999997
  126       -4.871273   0.999997
  127       -4.867977   0.999996
  128       -4.859479   0.999995
  129       -4.850233   0.999993
  130       -4.844212   0.999992
  131       -4.837941   0.999990
  132       -4.831231   0.999988
  133       -4.818522   0.999982
  134       -4.816312   0.999981
  135       -4.813056   0.999979
  136       -4.802806   0.999971
  137       -4.798205   0.999967
  138       -4.790789   0.999959
  139       -4.782511   0.999948
  140       -4.773750   0.999934
  141       -4.768859   0.999925
  142       -4.753097   0.999887
  143       -4.744264   0.999858
  144       -4.732295   0.999808
  145       -4.718237   0.999732
  146       -4.714683   0.999708
  147       -4.704708   0.999633
  148       -4.699985   0.999592
  149       -4.696557   0.999560
  150       -4.688667   0.999478
  151       -4.686060   0.999449
  152       -4.676598   0.999328
  153       -4.668682   0.999212
  154       -4.654204   0.998957
  155       -4.652246   0.998919
  156       -4.647339   0.998816
  157       -4.645952   0.998786
  158       -4.641335   0.998682
  159       -4.639588   0.998641
  160       -4.636834   0.998574
  161       -4.630255   0.998405
  162       -4.627871   0.998341
  163       -4.626233   0.998296
  164       -4.619835   0.998112
  165       -4.616534   0.998012
  166       -4.614255   0.997941
  167       -4.610322   0.997816
  168       -4.606432   0.997688
  169       -4.604947   0.997638
  170       -4.603702   0.997596
  171       -4.594042   0.997256
  172       -4.591560   0.997166
  173       -4.583686   0.996875
  174       -4.574301   0.996522
  175       -4.567003   0.996250
  176       -4.564622   0.996163
  177       -4.561769   0.996059
  178       -4.559221   0.995969
  179       -4.554876   0.995819
  180       -4.552943   0.995755
  181       -4.546950   0.995567
  182       -4.542960   0.995453
  183       -4.532814   0.995216
  184       -4.527151   0.995127
  185       -4.526389   0.995118
  186       -4.522428   0.995081
  187       -4.517885   0.995065
  188       -4.515380   0.995069
  189       -4.511709   0.995094
  190       -4.509195   0.995125
  191       -4.498174   0.995407
  192       -4.496046   0.995492
  193       -4.485920   0.996056
  194       -4.481110   0.996424
  195       -4.468472   0.997745
  196       -4.465314   0.998163
  197       -4.463491   0.998421
  198       -4.461865   0.998661
  199       -4.453500   1.000066
  200       -4.450531   1.000634
  201       -4.445834   1.001609
  202       -4.444352   1.001937
  203       -4.441451   1.002606
  204       -4.430830   1.005381
  205       -4.424768   1.007195
  206       -4.422115   1.008042
  207       -4.420695   1.008508
  208       -4.414989   1.010473
  209       -4.410977   1.011940
  210       -4.410027   1.012297
  211       -4.402488   1.015263
  212       -4.399604   1.016456
  213       -4.389649   1.020792
  214       -4.386622   1.022168
  215       -4.379443   1.025517
  216       -4.378367   1.026027
  217       -4.371914   1.029115
  218       -4.371604   1.029264
  219       -4.368951   1.030541
  220       -4.363570   1.033129
  221       -4.357804   1.035869
  222       -4.347209   1.040691
  223       -4.342742   1.042588
  224       -4.335170   1.045536
  225       -4.318392   1.050317
  226       -4.316727   1.050620
  227       -4.314543   1.050961
  228       -4.312628   1.051205
  229       -4.308766   1.051533
  230       -4.303629   1.051596
  231       -4.300201   1.051382
  232       -4.297900   1.051115
  233       -4.295674   1.050758
  234       -4.294172   1.050460
  235       -4.293228   1.050248
  236       -4.291078   1.049695
  237       -4.289017   1.049070
  238       -4.285425   1.047747
  239       -4.279986   1.045151
  240       -4.278675   1.044413
  241       -4.274037   1.041436
  242       -4.271141   1.039276
  243       -4.268356   1.036973
  244       -4.265007   1.033899
  245       -4.264160   1.033068
  246       -4.259462   1.028051
  247       -4.252938   1.019903
  248       -4.250026   1.015808
  249       -4.245376   1.008655
  250       -4.240398   1.000146
  251       -4.239676   0.998839
  252       -4.235322   0.990539
  253       -4.230820   0.981216
  254       -4.223124   0.963489
  255       -4.221119   0.958499
  256       -4.217403   0.948838
  257       -4.215071   0.942500
  258       -4.212542   0.935387
  259       -4.209822   0.927463
  260       -4.208875   0.924637
  261       -4.205629   0.914689
  262       -4.203138   0.906778
  263       -4.201491   0.901419
  264       -4.198934   0.892892
  265       -4.197950   0.889544
  266       -4.194527   0.877620
  267       -4.192240   0.869412
  268       -4.185366   0.843604
  269       -4.182355   0.831773
  270       -4.180435   0.824066
  271       -4.177607   0.812492
  272       -4.176492   0.807854
  273       -4.165092   0.758231
  274       -4.162622   0.746977
  275       -4.154998   0.711227
  276       -4.146277   0.668669
  277       -4.146077   0.667675
  278       -4.138249   0.628196
  279       -4.135205   0.612589
  280       -4.130632   0.588919
  281       -4.123621   0.552230
  282       -4.122690   0.547334
  283       -4.105681   0.457496
  284       -4.097345   0.413801
  285       -4.095453   0.403967
  286       -4.085558   0.353277
  287       -4.079600   0.323513
  288       -4.075386   0.302884
  289       -3.975247  -0.018904
  290       -3.872020  -0.036977
  291       -3.836493  -0.020203
  292       -3.786413  -0.002704
  293       -3.777965  -0.000842
  294       -3.657310   0.003634
  295       -3.475816   0.000118
  296       -3.441587   0.000047
  297       -3.228856   0.000000
  298       -3.049102   0.000000
  299       -3.024498   0.000000
  300       -3.001225   0.000000
  301       -2.982906   0.000000
  302       -2.964370   0.000000
  303       -2.949560   0.000000
  304       -2.877915   0.000000
  305       -2.698656   0.000000
  306       -2.493591   0.000000
  307       -2.480950   0.000000
  308       -2.384509   0.000000
  309       -2.294599   0.000000
  310       -2.214228   0.000000
  311       -2.094275   0.000000
  312       -1.997328   0.000000
  313       -1.937346   0.000000
  314       -1.914124   0.000000
  315       -1.848381   0.000000
  316       -1.827225   0.000000
  317       -1.795266   0.000000
  318       -1.727041   0.000000
  319       -1.666684   0.000000
  320       -1.611613   0.000000
  321       -1.547931   0.000000
  322       -1.505116   0.000000
  323       -1.350565   0.000000
  324       -1.287852   0.000000
  325       -1.259685   0.000000
  326       -1.211739   0.000000
  327       -1.181835   0.000000
  328       -1.081168   0.000000
  329       -0.964165   0.000000
  330       -0.959169   0.000000
  331       -0.911664   0.000000
  332       -0.896120   0.000000
  333       -0.846162   0.000000
  334       -0.790859   0.000000
  335       -0.785683   0.000000
  336       -0.725756   0.000000
