 vasp.5.4.4.18Apr17-6-g9f103f2a35 (build Sep 03 2018 23:53:05) complex          
  
 executed on             LinuxIFC date 2021.11.26  02:51:09
 running on    1 total cores
 distrk:  each k-point on    1 cores,    1 groups
 distr:  one band on NCORES_PER_BAND=   1 cores,    1 groups


--------------------------------------------------------------------------------------------------------


 INCAR:
 POTCAR:    PAW_PBE Pd 04Jan2005                  
 POTCAR:    PAW_PBE C 08Apr2002                   
 POTCAR:    PAW_PBE O 08Apr2002                   
 POTCAR:    PAW_PBE Pd 04Jan2005                  
   VRHFIN =Pd : s1 d9                                                           
   LEXCH  = PE                                                                  
   EATOM  =   809.7530 eV,   59.5152 Ry                                         
                                                                                
   TITEL  = PAW_PBE Pd 04Jan2005                                                
   LULTRA =        F    use ultrasoft PP ?                                      
   IUNSCR =        1    unscreen: 0-lin 1-nonlin 2-no                           
   RPACOR =    2.000    partial core radius                                     
   POMASS =  106.420; ZVAL   =   10.000    mass and valenz                      
   RCORE  =    2.600    outmost cutoff radius                                   
   RWIGS  =    2.710; RWIGS  =    1.434    wigner-seitz radius (au A)           
   ENMAX  =  250.925; ENMIN  =  188.194 eV                                      
   ICORE  =        3    local potential                                         
   LCOR   =        T    correct aug charges                                     
   LPAW   =        T    paw PP                                                  
   EAUG   =  416.230                                                            
   DEXC   =    0.000                                                            
   RMAX   =    2.653    core radius for proj-oper                               
   RAUG   =    1.300    factor for augmentation sphere                          
   RDEP   =    2.734    radius for radial grids                                 
   RDEPT  =    2.103    core radius for aug-charge                              
                                                                                
   Atomic configuration                                                         
   12 entries                                                                   
     n  l   j            E        occ.                                          
     1  0  0.50    -24164.6631   2.0000                                         
     2  0  0.50     -3530.9218   2.0000                                         
     2  1  1.50     -3165.6822   6.0000                                         
     3  0  0.50      -639.4577   2.0000                                         
     3  1  1.50      -519.4532   6.0000                                         
     3  2  2.50      -328.9757  10.0000                                         
     4  0  0.50       -88.7014   2.0000                                         
     4  1  1.50       -54.4540   6.0000                                         
     4  2  2.50        -6.6878   9.0000                                         
     5  0  0.50        -4.3543   1.0000                                         
     5  1  0.50        -1.3606   0.0000                                         
     4  3  2.50        -1.3606   0.0000                                         
   Description                                                                  
     l       E           TYP  RCUT    TYP  RCUT                                 
     2     -6.6878251     23  2.400                                             
     2     -8.0484077     23  2.400                                             
     0     -4.3542939     23  2.400                                             
     0      4.3406793     23  2.400                                             
     1     -4.0817478     23  2.600                                             
     1     15.8380318     23  2.600                                             
     3     -4.0817478     23  2.400                                             
  local pseudopotential read in
  partial core-charges read in
  partial kinetic energy density read in
  atomic valenz-charges read in
  non local Contribution for L=           2  read in
    real space projection operators read in
  non local Contribution for L=           2  read in
    real space projection operators read in
  non local Contribution for L=           0  read in
    real space projection operators read in
  non local Contribution for L=           0  read in
    real space projection operators read in
  non local Contribution for L=           1  read in
    real space projection operators read in
  non local Contribution for L=           1  read in
    real space projection operators read in
    PAW grid and wavefunctions read in
 
   number of l-projection  operators is LMAX  =           6
   number of lm-projection operators is LMMAX =          18
 
 POTCAR:    PAW_PBE C 08Apr2002                   
   VRHFIN =C: s2p2                                                              
   LEXCH  = PE                                                                  
   EATOM  =   147.1560 eV,   10.8157 Ry                                         
                                                                                
   TITEL  = PAW_PBE C 08Apr2002                                                 
   LULTRA =        F    use ultrasoft PP ?                                      
   IUNSCR =        1    unscreen: 0-lin 1-nonlin 2-no                           
   RPACOR =    1.200    partial core radius                                     
   POMASS =   12.011; ZVAL   =    4.000    mass and valenz                      
   RCORE  =    1.500    outmost cutoff radius                                   
   RWIGS  =    1.630; RWIGS  =    0.863    wigner-seitz radius (au A)           
   ENMAX  =  400.000; ENMIN  =  300.000 eV                                      
   ICORE  =        2    local potential                                         
   LCOR   =        T    correct aug charges                                     
   LPAW   =        T    paw PP                                                  
   EAUG   =  644.873                                                            
   DEXC   =    0.000                                                            
   RMAX   =    1.529    core radius for proj-oper                               
   RAUG   =    1.300    factor for augmentation sphere                          
   RDEP   =    1.501    radius for radial grids                                 
   RDEPT  =    1.300    core radius for aug-charge                              
                                                                                
   Atomic configuration                                                         
    4 entries                                                                   
     n  l   j            E        occ.                                          
     1  0  0.50      -273.3789   2.0000                                         
     2  0  0.50       -13.7508   2.0000                                         
     2  1  0.50        -5.2854   2.0000                                         
     3  2  1.50        -5.4423   0.0000                                         
   Description                                                                  
     l       E           TYP  RCUT    TYP  RCUT                                 
     0    -13.7508458     23  1.200                                             
     0     -8.2022199     23  1.200                                             
     1     -5.2854383     23  1.500                                             
     1     34.0145650     23  1.500                                             
     2     -5.4423304      7  1.500                                             
  local pseudopotential read in
  partial core-charges read in
  partial kinetic energy density read in
  atomic valenz-charges read in
  non local Contribution for L=           0  read in
    real space projection operators read in
  non local Contribution for L=           0  read in
    real space projection operators read in
  non local Contribution for L=           1  read in
    real space projection operators read in
  non local Contribution for L=           1  read in
    real space projection operators read in
    PAW grid and wavefunctions read in
 
   number of l-projection  operators is LMAX  =           4
   number of lm-projection operators is LMMAX =           8
 
 POTCAR:    PAW_PBE O 08Apr2002                   
   VRHFIN =O: s2p4                                                              
   LEXCH  = PE                                                                  
   EATOM  =   432.3788 eV,   31.7789 Ry                                         
                                                                                
   TITEL  = PAW_PBE O 08Apr2002                                                 
   LULTRA =        F    use ultrasoft PP ?                                      
   IUNSCR =        1    unscreen: 0-lin 1-nonlin 2-no                           
   RPACOR =    1.200    partial core radius                                     
   POMASS =   16.000; ZVAL   =    6.000    mass and valenz                      
   RCORE  =    1.520    outmost cutoff radius                                   
   RWIGS  =    1.550; RWIGS  =    0.820    wigner-seitz radius (au A)           
   ENMAX  =  400.000; ENMIN  =  300.000 eV                                      
   ICORE  =        2    local potential                                         
   LCOR   =        T    correct aug charges                                     
   LPAW   =        T    paw PP                                                  
   EAUG   =  605.392                                                            
   DEXC   =    0.000                                                            
   RMAX   =    1.553    core radius for proj-oper                               
   RAUG   =    1.300    factor for augmentation sphere                          
   RDEP   =    1.550    radius for radial grids                                 
   RDEPT  =    1.329    core radius for aug-charge                              
                                                                                
   Atomic configuration                                                         
    4 entries                                                                   
     n  l   j            E        occ.                                          
     1  0  0.50      -514.6923   2.0000                                         
     2  0  0.50       -23.9615   2.0000                                         
     2  1  0.50        -9.0305   4.0000                                         
     3  2  1.50        -9.5241   0.0000                                         
   Description                                                                  
     l       E           TYP  RCUT    TYP  RCUT                                 
     0    -23.9615318     23  1.200                                             
     0     -9.5240782     23  1.200                                             
     1     -9.0304911     23  1.520                                             
     1      8.1634956     23  1.520                                             
     2     -9.5240782      7  1.500                                             
  local pseudopotential read in
  partial core-charges read in
  partial kinetic energy density read in
  kinetic energy density of atom read in
  atomic valenz-charges read in
  non local Contribution for L=           0  read in
    real space projection operators read in
  non local Contribution for L=           0  read in
    real space projection operators read in
  non local Contribution for L=           1  read in
    real space projection operators read in
  non local Contribution for L=           1  read in
    real space projection operators read in
    PAW grid and wavefunctions read in
 
   number of l-projection  operators is LMAX  =           4
   number of lm-projection operators is LMMAX =           8
 
 Optimization of the real space projectors (new method)

 maximal supplied QI-value         = 14.36
 optimisation between [QCUT,QGAM] = [ 10.20, 20.39] = [ 29.12,116.47] Ry 
 Optimized for a Real-space Cutoff    1.51 Angstroem

   l    n(q)    QCUT    max X(q) W(low)/X(q) W(high)/X(q)  e(spline) 
   2      8    10.197    59.108    0.26E-03    0.14E-03    0.96E-07
   2      8    10.197    58.101    0.27E-03    0.14E-03    0.98E-07
   0      9    10.197   102.235    0.54E-04    0.60E-05    0.72E-07
   0      9    10.197    58.388    0.52E-04    0.60E-05    0.68E-07
   1      9    10.197    22.191    0.18E-03    0.25E-03    0.79E-07
   1      9    10.197    15.590    0.15E-03    0.21E-03    0.69E-07
 Optimization of the real space projectors (new method)

 maximal supplied QI-value         = 25.13
 optimisation between [QCUT,QGAM] = [ 10.05, 20.36] = [ 28.30,116.06] Ry 
 Optimized for a Real-space Cutoff    1.30 Angstroem

   l    n(q)    QCUT    max X(q) W(low)/X(q) W(high)/X(q)  e(spline) 
   0      8    10.053   115.676    0.49E-03    0.72E-03    0.18E-06
   0      8    10.053    87.132    0.49E-03    0.71E-03    0.18E-06
   1      7    10.053     4.429    0.32E-03    0.31E-03    0.18E-06
   1      7    10.053     2.733    0.23E-03    0.19E-03    0.20E-06
 Optimization of the real space projectors (new method)

 maximal supplied QI-value         = 24.76
 optimisation between [QCUT,QGAM] = [ 10.15, 20.30] = [ 28.85,115.39] Ry 
 Optimized for a Real-space Cutoff    1.38 Angstroem

   l    n(q)    QCUT    max X(q) W(low)/X(q) W(high)/X(q)  e(spline) 
   0      8    10.150    20.381    0.22E-03    0.32E-03    0.29E-06
   0      8    10.150    15.268    0.23E-03    0.35E-03    0.30E-06
   1      8    10.150     5.964    0.46E-03    0.53E-03    0.21E-06
   1      8    10.150     5.382    0.38E-03    0.45E-03    0.19E-06

 ----------------------------------------------------------------------------- 
|                                                                             |
|  ADVICE TO THIS USER RUNNING 'VASP/VAMP'   (HEAR YOUR MASTER'S VOICE ...):  |
|                                                                             |
|      You enforced a specific xc-type in the INCAR file,                     |
|      a different type was found on the POTCAR file                          |
|          I HOPE YOU KNOW, WHAT YOU ARE  DOING                               |
|                                                                             |
 ----------------------------------------------------------------------------- 

  PAW_PBE Pd 04Jan2005                  :
 energy of atom  1       EATOM= -809.7530
 kinetic energy error for atom=    0.0091 (will be added to EATOM!!)
  PAW_PBE C 08Apr2002                   :
 energy of atom  2       EATOM= -147.1560
 kinetic energy error for atom=    0.0288 (will be added to EATOM!!)
  PAW_PBE O 08Apr2002                   :
 energy of atom  3       EATOM= -432.3788
 kinetic energy error for atom=    0.1156 (will be added to EATOM!!)
 
 
 POSCAR: Pd55PES                                 
  positions in cartesian coordinates
  No initial velocities read in
 exchange correlation table for  LEXCH =        9
   RHO(1)=    0.500       N(1)  =     2000
   RHO(2)=  100.500       N(2)  =     4000
 


--------------------------------------------------------------------------------------------------------


 ion  position               nearest neighbor table
   1  0.446  0.328  0.417-   3 3.25   5 3.25   7 3.36  15 3.36  29 3.42  28 3.42
   2  0.672  0.554  0.417-  26 3.25  30 3.25  17 3.36   9 3.36  47 3.42  49 3.42
   3  0.554  0.328  0.417-   1 3.25   5 3.25   7 3.36  11 3.36  29 3.42  21 3.42
   4  0.328  0.554  0.417-  32 3.25  22 3.25  13 3.36   8 3.36  43 3.42  48 3.42
   5  0.500  0.383  0.340-   1 3.25   3 3.25  11 3.36  15 3.36  21 3.42  28 3.42
   6  0.500  0.383  0.660-  24 3.25  19 3.25  16 3.36  12 3.36  42 3.42  44 3.42
   7  0.500  0.276  0.500-  29 3.24   3 3.36   1 3.36  19 3.36  24 3.36
   8  0.276  0.500  0.500-  48 3.24  22 3.36  40 3.36   4 3.36  25 3.36
   9  0.724  0.500  0.500-  49 3.24  26 3.36  45 3.36   2 3.36  20 3.36
  10  0.500  0.724  0.500-  55 3.24  27 3.36  23 3.36  46 3.36  41 3.36
  11  0.612  0.388  0.342-  21 3.24   5 3.36   3 3.36  30 3.36  26 3.36
  12  0.612  0.388  0.658-  42 3.24  24 3.36  45 3.36   6 3.36  31 3.36
  13  0.388  0.612  0.342-  43 3.24  32 3.36  50 3.36   4 3.36  27 3.36
  14  0.388  0.612  0.658-  53 3.24  25 3.36  33 3.36  51 3.36  46 3.36
  15  0.388  0.388  0.342-  28 3.24   5 3.36   1 3.36  32 3.36  22 3.36
  16  0.388  0.388  0.658-  44 3.24  19 3.36  40 3.36   6 3.36  33 3.36
  17  0.612  0.612  0.342-  47 3.24  30 3.36  50 3.36   2 3.36  23 3.36
  18  0.612  0.612  0.658-  56 1.68  57 2.64  54 3.24  31 3.36  20 3.36  51 3.36  41 3.36
  19  0.446  0.328  0.583-   6 3.25  24 3.25  16 3.36   7 3.36  44 3.42  29 3.42
  20  0.672  0.554  0.583-  31 3.25  45 3.25  18 3.36   9 3.36  54 3.42  49 3.42
  21  0.558  0.442  0.418-  11 3.24   5 3.42   3 3.42  30 3.42  26 3.42
  22  0.328  0.446  0.417-   4 3.25  32 3.25   8 3.36  15 3.36  48 3.42  28 3.42
  23  0.554  0.672  0.417-  27 3.25  50 3.25  10 3.36  17 3.36  55 3.42  47 3.42
  24  0.554  0.328  0.583-   6 3.25  19 3.25  12 3.36   7 3.36  42 3.42  29 3.42
  25  0.328  0.554  0.583-  33 3.25  40 3.25  14 3.36   8 3.36  53 3.42  48 3.42
  26  0.672  0.446  0.417-   2 3.25  30 3.25   9 3.36  11 3.36  49 3.42  21 3.42
  27  0.446  0.672  0.417-  23 3.25  50 3.25  10 3.36  13 3.36  55 3.42  43 3.42
  28  0.442  0.442  0.418-  15 3.24   5 3.42   1 3.42  32 3.42  22 3.42
  29  0.500  0.384  0.500-   7 3.24   3 3.42   1 3.42  24 3.42  19 3.42
  30  0.617  0.500  0.340-   2 3.25  26 3.25  17 3.36  11 3.36  47 3.42  21 3.42
  31  0.617  0.500  0.660-  20 3.25  45 3.25  18 3.36  12 3.36  54 3.42  42 3.42
  32  0.383  0.500  0.340-   4 3.25  22 3.25  13 3.36  15 3.36  43 3.42  28 3.42
  33  0.383  0.500  0.660-  25 3.25  40 3.25  14 3.36  16 3.36  53 3.42  44 3.42
  34  0.383  0.383  0.500-
  35  0.617  0.617  0.500-
  36  0.617  0.383  0.500-
  37  0.383  0.617  0.500-
  38  0.500  0.500  0.335-
  39  0.500  0.500  0.665-
  40  0.328  0.446  0.583-  33 3.25  25 3.25  16 3.36   8 3.36  44 3.42  48 3.42
  41  0.554  0.672  0.583-  46 3.25  51 3.25  10 3.36  18 3.36  54 3.42  55 3.42
  42  0.558  0.442  0.582-  12 3.24   6 3.42  24 3.42  31 3.42  45 3.42
  43  0.442  0.558  0.418-  13 3.24   4 3.42  32 3.42  27 3.42  50 3.42
  44  0.442  0.442  0.582-  16 3.24   6 3.42  19 3.42  33 3.42  40 3.42
  45  0.672  0.446  0.583-  20 3.25  31 3.25   9 3.36  12 3.36  49 3.42  42 3.42
  46  0.446  0.672  0.583-  41 3.25  51 3.25  10 3.36  14 3.36  53 3.42  55 3.42
  47  0.558  0.558  0.418-  17 3.24   2 3.42  30 3.42  23 3.42  50 3.42
  48  0.384  0.500  0.500-   8 3.24   4 3.42  22 3.42  25 3.42  40 3.42
  49  0.616  0.500  0.500-   9 3.24   2 3.42  26 3.42  20 3.42  45 3.42
  50  0.500  0.617  0.340-  27 3.25  23 3.25  13 3.36  17 3.36  43 3.42  47 3.42
  51  0.500  0.617  0.660-  41 3.25  46 3.25  14 3.36  18 3.36  53 3.42  54 3.42
  52  0.500  0.500  0.500-
  53  0.442  0.558  0.582-  14 3.24  25 3.42  33 3.42  51 3.42  46 3.42
  54  0.558  0.558  0.582-  18 3.24  31 3.42  20 3.42  51 3.42  41 3.42
  55  0.500  0.616  0.500-  10 3.24  23 3.42  27 3.42  41 3.42  46 3.42
  56  0.645  0.657  0.654-  57 1.13  18 1.68
  57  0.666  0.680  0.676-  56 1.13  18 2.64
 
  LATTYP: Found a simple cubic cell.
 ALAT       =    30.0000000000
  
  Lattice vectors:
  
 A1 = (  30.0000000000,   0.0000000000,   0.0000000000)
 A2 = (   0.0000000000,  30.0000000000,   0.0000000000)
 A3 = (   0.0000000000,   0.0000000000,  30.0000000000)


Analysis of symmetry for initial positions (statically):
=====================================================================
 Subroutine PRICEL returns:
 Original cell was already a primitive cell.
 

 Routine SETGRP: Setting up the symmetry group for a 
 simple cubic supercell.


 Subroutine GETGRP returns: Found  1 space group operations
 (whereof  1 operations were pure point group operations)
 out of a pool of 48 trial point group operations.


The static configuration has the point symmetry C_1 .


Analysis of symmetry for dynamics (positions and initial velocities):
=====================================================================
 Subroutine PRICEL returns:
 Original cell was already a primitive cell.
 

 Routine SETGRP: Setting up the symmetry group for a 
 simple cubic supercell.


 Subroutine GETGRP returns: Found  1 space group operations
 (whereof  1 operations were pure point group operations)
 out of a pool of 48 trial point group operations.


The dynamic configuration has the point symmetry C_1 .


Analysis of constrained symmetry for selective dynamics:
=====================================================================
 Subroutine PRICEL returns:
 Original cell was already a primitive cell.
 

 Routine SETGRP: Setting up the symmetry group for a 
 simple cubic supercell.


 Subroutine GETGRP returns: Found  1 space group operations
 (whereof  1 operations were pure point group operations)
 out of a pool of 48 trial point group operations.


The constrained configuration has the point symmetry C_1 .


 Subroutine INISYM returns: Found  1 space group operations
 (whereof  1 operations are pure point group operations),
 and found     1 'primitive' translations

 
 
 KPOINTS: K-points                                

Automatic generation of k-mesh.
Space group operators:
 irot       det(A)        alpha          n_x          n_y          n_z        tau_x        tau_y        tau_z
    1     1.000000     0.000000     1.000000     0.000000     0.000000     0.000000     0.000000     0.000000
 
 Subroutine IBZKPT returns following result:
 ===========================================
 
 Found      1 irreducible k-points:
 
 Following reciprocal coordinates:
            Coordinates               Weight
  0.000000  0.000000  0.000000      1.000000
 
 Following cartesian coordinates:
            Coordinates               Weight
  0.000000  0.000000  0.000000      1.000000
 


--------------------------------------------------------------------------------------------------------




 Dimension of arrays:
   k-points           NKPTS =      1   k-points in BZ     NKDIM =      1   number of bands    NBANDS=    336
   number of dos      NEDOS =    301   number of ions     NIONS =     57
   non local maximal  LDIM  =      6   non local SUM 2l+1 LMDIM =     18
   total plane-waves  NPLWV = ******
   max r-space proj   IRMAX =   1847   max aug-charges    IRDMAX=   6262
   dimension x,y,z NGX =   150 NGY =  150 NGZ =  150
   dimension x,y,z NGXF=   300 NGYF=  300 NGZF=  300
   support grid    NGXF=   300 NGYF=  300 NGZF=  300
   ions per type =              55   1   1
   NGX,Y,Z   is equivalent  to a cutoff of   8.31,  8.31,  8.31 a.u.
   NGXF,Y,Z  is equivalent  to a cutoff of  16.62, 16.62, 16.62 a.u.

 SYSTEM =  6_Pd100_top_free_z(O)                   
 POSCAR =  Pd55PES                                 

 Startparameter for this run:
   NWRITE =      2    write-flag & timer
   PREC   = normal    normal or accurate (medium, high low for compatibility)
   ISTART =      0    job   : 0-new  1-cont  2-samecut
   ICHARG =      2    charge: 1-file 2-atom 10-const
   ISPIN  =      1    spin polarized calculation?
   LNONCOLLINEAR =      F non collinear calculations
   LSORBIT =      F    spin-orbit coupling
   INIWAV =      1    electr: 0-lowe 1-rand  2-diag
   LASPH  =      F    aspherical Exc in radial PAW
   METAGGA=      F    non-selfconsistent MetaGGA calc.

 Electronic Relaxation 1
   ENCUT  =  400.0 eV  29.40 Ry    5.42 a.u.  48.92 48.92 48.92*2*pi/ulx,y,z
   ENINI  =  400.0     initial cutoff
   ENAUG  =  644.9 eV  augmentation charge cutoff
   NELM   =    100;   NELMIN=  6; NELMDL= -5     # of ELM steps 
   EDIFF  = 0.1E-03   stopping-criterion for ELM
   LREAL  =      T    real-space projection
   NLSPLINE    = F    spline interpolate recip. space projectors
   LCOMPAT=      F    compatible to vasp.4.4
   GGA_COMPAT  = T    GGA compatible to vasp.4.4-vasp.4.6
   LMAXPAW     = -100 max onsite density
   LMAXMIX     =    2 max onsite mixed and CHGCAR
   VOSKOWN=      0    Vosko Wilk Nusair interpolation
   ROPT   =   -0.00050  -0.00050  -0.00050
 Ionic relaxation
   EDIFFG = -.5E-01   stopping-criterion for IOM
   NSW    =      0    number of steps for IOM
   NBLOCK =      1;   KBLOCK =      1    inner block; outer block 
   IBRION =     -1    ionic relax: 0-MD 1-quasi-New 2-CG
   NFREE  =      1    steps in history (QN), initial steepest desc. (CG)
   ISIF   =      2    stress and relaxation
   IWAVPR =     10    prediction:  0-non 1-charg 2-wave 3-comb
   ISYM   =      2    0-nonsym 1-usesym 2-fastsym
   LCORR  =      T    Harris-Foulkes like correction to forces

   POTIM  = 0.5000    time-step for ionic-motion
   TEIN   =    0.0    initial temperature
   TEBEG  =    0.0;   TEEND  =   0.0 temperature during run
   SMASS  =  -3.00    Nose mass-parameter (am)
   estimated Nose-frequenzy (Omega)   =  0.10E-29 period in steps =****** mass=  -0.206E-25a.u.
   SCALEE = 1.0000    scale energy and forces
   NPACO  =    256;   APACO  = 16.0  distance and # of slots for P.C.
   PSTRESS=    0.0 pullay stress

  Mass of Ions in am
   POMASS = 106.42 12.01 16.00
  Ionic Valenz
   ZVAL   =  10.00  4.00  6.00
  Atomic Wigner-Seitz radii
   RWIGS  =  -1.00 -1.00 -1.00
  virtual crystal weights 
   VCA    =   1.00  1.00  1.00
   NELECT =     560.0000    total number of electrons
   NUPDOWN=      -1.0000    fix difference up-down

 DOS related values:
   EMIN   =  10.00;   EMAX   =-10.00  energy-range for DOS
   EFERMI =   0.00
   ISMEAR =     2;   SIGMA  =   0.20  broadening in eV -4-tet -1-fermi 0-gaus

 Electronic relaxation 2 (details)
   IALGO  =     68    algorithm
   LDIAG  =      T    sub-space diagonalisation (order eigenvalues)
   LSUBROT=      F    optimize rotation matrix (better conditioning)
   TURBO    =      0    0=normal 1=particle mesh
   IRESTART =      0    0=no restart 2=restart with 2 vectors
   NREBOOT  =      0    no. of reboots
   NMIN     =      0    reboot dimension
   EREF     =   0.00    reference energy to select bands
   IMIX   =      4    mixing-type and parameters
     AMIX     =   0.40;   BMIX     =  1.00
     AMIX_MAG =   1.60;   BMIX_MAG =  1.00
     AMIN     =   0.10
     WC   =   100.;   INIMIX=   1;  MIXPRE=   1;  MAXMIX= -45

 Intra band minimization:
   WEIMIN = 0.0000     energy-eigenvalue tresh-hold
   EBREAK =  0.74E-07  absolut break condition
   DEPER  =   0.30     relativ break condition  

   TIME   =   0.40     timestep for ELM

  volume/ion in A,a.u.               =     473.68      3196.58
  Fermi-wavevector in a.u.,A,eV,Ry     =   0.449797  0.849992  2.752691  0.202317
  Thomas-Fermi vector in A             =   1.430086
 
 Write flags
   LWAVE        =      F    write WAVECAR
   LDOWNSAMPLE  =      F    k-point downsampling of WAVECAR
   LCHARG       =      F    write CHGCAR
   LVTOT        =      F    write LOCPOT, total local potential
   LVHAR        =      F    write LOCPOT, Hartree potential only
   LELF         =      F    write electronic localiz. function (ELF)
   LORBIT       =      0    0 simple, 1 ext, 2 COOP (PROOUT), +10 PAW based schemes


 Dipole corrections
   LMONO  =      F    monopole corrections only (constant potential shift)
   LDIPOL =      F    correct potential (dipole corrections)
   IDIPOL =      0    1-x, 2-y, 3-z, 4-all directions 
   EPSILON=  1.0000000 bulk dielectric constant

 Exchange correlation treatment:
   GGA     =    RP    GGA type
   LEXCH   =     9    internal setting for exchange type
   VOSKOWN=      0    Vosko Wilk Nusair interpolation
   LHFCALC =     F    Hartree Fock is set to
   LHFONE  =     F    Hartree Fock one center treatment
   AEXX    =    0.0000 exact exchange contribution

 Linear response parameters
   LEPSILON=     F    determine dielectric tensor
   LRPA    =     F    only Hartree local field effects (RPA)
   LNABLA  =     F    use nabla operator in PAW spheres
   LVEL    =     F    velocity operator in full k-point grid
   LINTERFAST=   F  fast interpolation
   KINTER  =     0    interpolate to denser k-point grid
   CSHIFT  =0.1000    complex shift for real part using Kramers Kronig
   OMEGAMAX=  -1.0    maximum frequency
   DEG_THRESHOLD= 0.2000000E-02 threshold for treating states as degnerate
   RTIME   =   -0.100 relaxation time in fs
  (WPLASMAI=    0.000 imaginary part of plasma frequency in eV, 0.658/RTIME)
   DFIELD  = 0.0000000 0.0000000 0.0000000 field for delta impulse in time
 
 Orbital magnetization related:
   ORBITALMAG=     F  switch on orbital magnetization
   LCHIMAG   =     F  perturbation theory with respect to B field
   DQ        =  0.001000  dq finite difference perturbation B field
   LLRAUG    =     F  two centre corrections for induced B field



--------------------------------------------------------------------------------------------------------


 Static calculation
 charge density and potential will be updated during run
 non-spin polarized calculation
 RMM-DIIS sequential band-by-band and
  variant of blocked Davidson during initial phase
 perform sub-space diagonalisation
    before iterative eigenvector-optimisation
 modified Broyden-mixing scheme, WC =      100.0
 initial mixing is a Kerker type mixing with AMIX =  0.4000 and BMIX =      1.0000
 Hartree-type preconditioning will be used
 using additional bands           56
 real space projection scheme for non local part
 use partial core corrections
 calculate Harris-corrections to forces 
   (improved forces if not selfconsistent)
 use gradient corrections 
 use of overlap-Matrix (Vanderbilt PP)
 Methfessel and Paxton  Order N= 2 SIGMA  =   0.20


--------------------------------------------------------------------------------------------------------


  energy-cutoff  :      400.00
  volume of cell :    27000.00
      direct lattice vectors                 reciprocal lattice vectors
    30.000000000  0.000000000  0.000000000     0.033333333  0.000000000  0.000000000
     0.000000000 30.000000000  0.000000000     0.000000000  0.033333333  0.000000000
     0.000000000  0.000000000 30.000000000     0.000000000  0.000000000  0.033333333

  length of vectors
    30.000000000 30.000000000 30.000000000     0.033333333  0.033333333  0.033333333


 
 k-points in units of 2pi/SCALE and weight: K-points                                
   0.00000000  0.00000000  0.00000000       1.000
 
 k-points in reciprocal lattice and weights: K-points                                
   0.00000000  0.00000000  0.00000000       1.000
 
 position of ions in fractional coordinates (direct lattice) 
   0.44576020  0.32826710  0.41691983
   0.67173288  0.55423978  0.41691983
   0.55423980  0.32826710  0.41691983
   0.32826712  0.55423978  0.41691983
   0.50000000  0.38250690  0.34021317
   0.50000000  0.38250690  0.65978680
   0.50000000  0.27609440  0.50000000
   0.27609443  0.49999998  0.50000000
   0.72390557  0.49999998  0.50000000
   0.50000000  0.72390555  0.50000000
   0.61195280  0.38804720  0.34167483
   0.61195280  0.38804720  0.65832513
   0.38804722  0.61195278  0.34167483
   0.38804722  0.61195278  0.65832513
   0.38804720  0.38804720  0.34167483
   0.38804720  0.38804720  0.65832513
   0.61195278  0.61195278  0.34167483
   0.61195278  0.61195278  0.65832513
   0.44576020  0.32826710  0.58308023
   0.67173288  0.55423978  0.58308023
   0.55791699  0.44208301  0.41809300
   0.32826705  0.44576024  0.41691983
   0.55423973  0.67173293  0.41691983
   0.55423980  0.32826710  0.58308023
   0.32826712  0.55423978  0.58308023
   0.67173295  0.44576024  0.41691983
   0.44576027  0.67173293  0.41691983
   0.44208301  0.44208301  0.41809300
   0.50000000  0.38416601  0.50000000
   0.61749315  0.50000005  0.34021317
   0.61749315  0.50000005  0.65978680
   0.38250685  0.50000005  0.34021317
   0.38250685  0.50000005  0.65978680
   0.38317830  0.38317830  0.50000000
   0.61682172  0.61682172  0.50000000
   0.61682170  0.38317830  0.50000000
   0.38317828  0.61682172  0.50000000
   0.50000000  0.50000000  0.33478917
   0.50000000  0.50000000  0.66521087
   0.32826705  0.44576024  0.58308023
   0.55423973  0.67173293  0.58308023
   0.55791699  0.44208301  0.58190703
   0.44208298  0.55791702  0.41809300
   0.44208301  0.44208301  0.58190703
   0.67173295  0.44576024  0.58308023
   0.44576027  0.67173293  0.58308023
   0.55791702  0.55791702  0.41809300
   0.38416599  0.50000002  0.50000000
   0.61583401  0.50000002  0.50000000
   0.50000000  0.61749319  0.34021317
   0.50000000  0.61749319  0.65978680
   0.50000000  0.50000000  0.50000000
   0.44208298  0.55791702  0.58190703
   0.55791702  0.55791702  0.58190703
   0.50000000  0.61583404  0.50000000
   0.64482307  0.65712920  0.65362093
   0.66551380  0.67957810  0.67556860
 
 position of ions in cartesian coordinates  (Angst):
  13.37280588  9.84801292 12.50759500
  20.15198637 16.62719342 12.50759500
  16.62719412  9.84801292 12.50759500
   9.84801363 16.62719342 12.50759500
  15.00000000 11.47520705 10.20639500
  15.00000000 11.47520705 19.79360400
  15.00000000  8.28283206 15.00000000
   8.28283277 14.99999929 15.00000000
  21.71716723 14.99999929 15.00000000
  15.00000000 21.71716652 14.99999999
  18.35858397 11.64141603 10.25024500
  18.35858397 11.64141603 19.74975399
  11.64141674 18.35858326 10.25024500
  11.64141674 18.35858326 19.74975400
  11.64141603 11.64141603 10.25024500
  11.64141603 11.64141603 19.74975400
  18.35858326 18.35858326 10.25024500
  18.35858326 18.35858326 19.74975400
  13.37280588  9.84801291 17.49240700
  20.15198638 16.62719341 17.49240700
  16.73750985 13.26249015 12.54279000
   9.84801151 13.37280729 12.50759500
  16.62719200 20.15198779 12.50759500
  16.62719412  9.84801292 17.49240700
   9.84801363 16.62719342 17.49240700
  20.15198849 13.37280729 12.50759500
  13.37280800 20.15198779 12.50759500
  13.26249015 13.26249015 12.54279000
  15.00000000 11.52498029 15.00000000
  18.52479437 15.00000140 10.20639500
  18.52479437 15.00000141 19.79360400
  11.47520562 15.00000141 10.20639501
  11.47520563 15.00000141 19.79360400
  11.49534898 11.49534898 15.00000000
  18.50465172 18.50465172 15.00000000
  18.50465102 11.49534898 15.00000000
  11.49534828 18.50465172 15.00000000
  15.00000000 15.00000000 10.04367500
  15.00000000 15.00000000 19.95632599
   9.84801151 13.37280729 17.49240700
  16.62719200 20.15198779 17.49240700
  16.73750985 13.26249015 17.45721100
  13.26248944 16.73751056 12.54279001
  13.26249015 13.26249015 17.45721100
  20.15198849 13.37280729 17.49240699
  13.37280800 20.15198779 17.49240700
  16.73751056 16.73751056 12.54279000
  11.52497959 15.00000071 15.00000000
  18.47502041 15.00000071 15.00000000
  14.99999999 18.52479579 10.20639500
  15.00000000 18.52479578 19.79360400
  15.00000000 15.00000000 15.00000000
  13.26248944 16.73751057 17.45721101
  16.73751056 16.73751057 17.45721100
  15.00000000 18.47502112 15.00000000
  19.34469200 19.71387600 19.60862800
  19.96541400 20.38734300 20.26705800
 


--------------------------------------------------------------------------------------------------------


 k-point  1 :   0.0000 0.0000 0.0000  plane waves:  490521

 maximum and minimum number of plane-waves per node :    490521   490521

 maximum number of plane-waves:    490521
 maximum index in each direction: 
   IXMAX=   48   IYMAX=   48   IZMAX=   48
   IXMIN=  -48   IYMIN=  -48   IZMIN=  -48


 serial   3D FFT for wavefunctions
 parallel 3D FFT for charge:
    minimum data exchange during FFTs selected (reduces bandwidth)


 total amount of memory used by VASP MPI-rank0  5486941. kBytes
=======================================================================

   base      :      30000. kBytes
   nonlr-proj:      17126. kBytes
   fftplans  :     924480. kBytes
   grid      :    1872000. kBytes
   one-center:        886. kBytes
   wavefun   :    2642449. kBytes
 
     INWAV:  cpu time    0.0001: real time    0.0005
 Broyden mixing: mesh for mixing (old mesh)
   NGX = 97   NGY = 97   NGZ = 97
  (NGX  =300   NGY  =300   NGZ  =300)
  gives a total of 912673 points

 initial charge density was supplied:
 charge density of overlapping atoms calculated
 number of electron     560.0000000 magnetization 
 keeping initial charge density in first step


--------------------------------------------------------------------------------------------------------


 Maximum index for non-local projection operator         1763
 Maximum index for augmentation-charges         5898 (set IRDMAX)


--------------------------------------------------------------------------------------------------------


 First call to EWALD:  gamma=   0.059
 Maximum number of real-space cells 3x 3x 3
 Maximum number of reciprocal cells 3x 3x 3

    FEWALD:  cpu time    0.0150: real time    0.0150


--------------------------------------- Iteration      1(   1)  ---------------------------------------


    POTLOK:  cpu time   14.2388: real time   14.2426
    SETDIJ:  cpu time    0.1196: real time    0.1196
     EDDAV:  cpu time  357.9101: real time  358.0102
       DOS:  cpu time    0.0013: real time    0.0013
    --------------------------------------------
      LOOP:  cpu time  372.2698: real time  372.3738

 eigenvalue-minimisations  :   688
 total energy-change (2. order) : 0.4395693E+04  (-0.1005393E+05)
 number of electron     560.0000000 magnetization 
 augmentation part      560.0000000 magnetization 

 Free energy of the ion-electron system (eV)
  ---------------------------------------------------
  alpha Z        PSCENC =        75.25431677
  Ewald energy   TEWEN  =    137882.10605125
  -Hartree energ DENC   =   -181234.02582368
  -exchange      EXHF   =         0.00000000
  -V(xc)+E(xc)   XCENC  =     -1702.51843163
  PAW double counting   =     44873.02882129   -41398.84523641
  entropy T*S    EENTRO =        -0.00358830
  eigenvalues    EBANDS =       814.19155763
  atomic energy  EATOM  =     45086.50549395
  Solvation  Ediel_sol  =         0.00000000
  ---------------------------------------------------
  free energy    TOTEN  =      4395.69316088 eV

  energy without entropy =     4395.69674918  energy(sigma->0) =     4395.69405796


--------------------------------------------------------------------------------------------------------




--------------------------------------- Iteration      1(   2)  ---------------------------------------


     EDDAV:  cpu time  571.9533: real time  572.0209
       DOS:  cpu time    0.0013: real time    0.0013
    --------------------------------------------
      LOOP:  cpu time  571.9546: real time  572.0222

 eigenvalue-minimisations  :  1224
 total energy-change (2. order) :-0.2384011E+04  (-0.2145311E+04)
 number of electron     560.0000000 magnetization 
 augmentation part      560.0000000 magnetization 

 Free energy of the ion-electron system (eV)
  ---------------------------------------------------
  alpha Z        PSCENC =        75.25431677
  Ewald energy   TEWEN  =    137882.10605125
  -Hartree energ DENC   =   -181234.02582368
  -exchange      EXHF   =         0.00000000
  -V(xc)+E(xc)   XCENC  =     -1702.51843163
  PAW double counting   =     44873.02882129   -41398.84523641
  entropy T*S    EENTRO =        -0.02880509
  eigenvalues    EBANDS =     -1569.79403373
  atomic energy  EATOM  =     45086.50549395
  Solvation  Ediel_sol  =         0.00000000
  ---------------------------------------------------
  free energy    TOTEN  =      2011.68235273 eV

  energy without entropy =     2011.71115782  energy(sigma->0) =     2011.68955400


--------------------------------------------------------------------------------------------------------




--------------------------------------- Iteration      1(   3)  ---------------------------------------


     EDDAV:  cpu time  482.7290: real time  482.7460
       DOS:  cpu time    0.0011: real time    0.0011
    --------------------------------------------
      LOOP:  cpu time  482.7300: real time  482.7471

 eigenvalue-minimisations  :   992
 total energy-change (2. order) :-0.1778454E+04  (-0.1673397E+04)
 number of electron     560.0000000 magnetization 
 augmentation part      560.0000000 magnetization 

 Free energy of the ion-electron system (eV)
  ---------------------------------------------------
  alpha Z        PSCENC =        75.25431677
  Ewald energy   TEWEN  =    137882.10605125
  -Hartree energ DENC   =   -181234.02582368
  -exchange      EXHF   =         0.00000000
  -V(xc)+E(xc)   XCENC  =     -1702.51843163
  PAW double counting   =     44873.02882129   -41398.84523641
  entropy T*S    EENTRO =        -0.00010036
  eigenvalues    EBANDS =     -3348.27636389
  atomic energy  EATOM  =     45086.50549395
  Solvation  Ediel_sol  =         0.00000000
  ---------------------------------------------------
  free energy    TOTEN  =       233.22872731 eV

  energy without entropy =      233.22882767  energy(sigma->0) =      233.22875240


--------------------------------------------------------------------------------------------------------




--------------------------------------- Iteration      1(   4)  ---------------------------------------


     EDDAV:  cpu time  415.8899: real time  415.8943
       DOS:  cpu time    0.0012: real time    0.0012
    --------------------------------------------
      LOOP:  cpu time  415.8912: real time  415.8955

 eigenvalue-minimisations  :   824
 total energy-change (2. order) :-0.3687819E+03  (-0.3113016E+03)
 number of electron     560.0000000 magnetization 
 augmentation part      560.0000000 magnetization 

 Free energy of the ion-electron system (eV)
  ---------------------------------------------------
  alpha Z        PSCENC =        75.25431677
  Ewald energy   TEWEN  =    137882.10605125
  -Hartree energ DENC   =   -181234.02582368
  -exchange      EXHF   =         0.00000000
  -V(xc)+E(xc)   XCENC  =     -1702.51843163
  PAW double counting   =     44873.02882129   -41398.84523641
  entropy T*S    EENTRO =        -0.00594341
  eigenvalues    EBANDS =     -3717.05244494
  atomic energy  EATOM  =     45086.50549395
  Solvation  Ediel_sol  =         0.00000000
  ---------------------------------------------------
  free energy    TOTEN  =      -135.55319680 eV

  energy without entropy =     -135.54725338  energy(sigma->0) =     -135.55171094


--------------------------------------------------------------------------------------------------------




--------------------------------------- Iteration      1(   5)  ---------------------------------------


     EDDAV:  cpu time  509.0979: real time  509.1023
       DOS:  cpu time    0.0014: real time    0.0014
    CHARGE:  cpu time   25.5169: real time   25.5167
    MIXING:  cpu time    0.4621: real time    0.4621
    --------------------------------------------
      LOOP:  cpu time  535.0783: real time  535.0826

 eigenvalue-minimisations  :  1048
 total energy-change (2. order) :-0.4459981E+02  (-0.3710725E+02)
 number of electron     559.9999856 magnetization 
 augmentation part      245.0235408 magnetization 

 Broyden mixing:
  rms(total) = 0.19291E+01    rms(broyden)= 0.19285E+01
  rms(prec ) = 0.20209E+01
  weight for this iteration     100.00

 Free energy of the ion-electron system (eV)
  ---------------------------------------------------
  alpha Z        PSCENC =        75.25431677
  Ewald energy   TEWEN  =    137882.10605125
  -Hartree energ DENC   =   -181234.02582368
  -exchange      EXHF   =         0.00000000
  -V(xc)+E(xc)   XCENC  =     -1702.51843163
  PAW double counting   =     44873.02882129   -41398.84523641
  entropy T*S    EENTRO =         0.53114439
  eigenvalues    EBANDS =     -3762.18934486
  atomic energy  EATOM  =     45086.50549395
  Solvation  Ediel_sol  =         0.00000000
  ---------------------------------------------------
  free energy    TOTEN  =      -180.15300891 eV

  energy without entropy =     -180.68415330  energy(sigma->0) =     -180.28579500


--------------------------------------------------------------------------------------------------------




--------------------------------------- Iteration      1(   6)  ---------------------------------------


    POTLOK:  cpu time   13.1113: real time   13.1138
    SETDIJ:  cpu time    0.1233: real time    0.1233
    EDDIAG:  cpu time   67.3395: real time   67.3398
  RMM-DIIS:  cpu time  191.8931: real time  191.8939
    ORTHCH:  cpu time   13.4751: real time   13.4750
       DOS:  cpu time    0.0014: real time    0.0014
    CHARGE:  cpu time   25.6974: real time   25.6973
    MIXING:  cpu time    0.4586: real time    0.4586
    --------------------------------------------
      LOOP:  cpu time  312.0997: real time  312.1031

 eigenvalue-minimisations  :   736
 total energy-change (2. order) : 0.1374960E+00  (-0.6657229E+01)
 number of electron     559.9999877 magnetization 
 augmentation part      240.3003411 magnetization 

 Broyden mixing:
  rms(total) = 0.28394E+01    rms(broyden)= 0.28392E+01
  rms(prec ) = 0.32806E+01
  weight for this iteration     100.00

 eigenvalues of (default mixing * dielectric matrix)
  average eigenvalue GAMMA=   0.3296
  0.3296

 Free energy of the ion-electron system (eV)
  ---------------------------------------------------
  alpha Z        PSCENC =        75.25431677
  Ewald energy   TEWEN  =    137882.10605125
  -Hartree energ DENC   =   -181639.16291836
  -exchange      EXHF   =         0.00000000
  -V(xc)+E(xc)   XCENC  =     -1695.98657052
  PAW double counting   =     45710.12766668   -42209.98750477
  entropy T*S    EENTRO =        -0.19232595
  eigenvalues    EBANDS =     -3388.67972191
  atomic energy  EATOM  =     45086.50549395
  Solvation  Ediel_sol  =         0.00000000
  ---------------------------------------------------
  free energy    TOTEN  =      -180.01551287 eV

  energy without entropy =     -179.82318691  energy(sigma->0) =     -179.96743138


--------------------------------------------------------------------------------------------------------




--------------------------------------- Iteration      1(   7)  ---------------------------------------


    POTLOK:  cpu time   13.2150: real time   13.2164
    SETDIJ:  cpu time    0.1196: real time    0.1196
    EDDIAG:  cpu time   68.2314: real time   68.2334
  RMM-DIIS:  cpu time  225.6068: real time  225.6077
    ORTHCH:  cpu time   13.6150: real time   13.6149
       DOS:  cpu time    0.0015: real time    0.0015
    CHARGE:  cpu time   25.6028: real time   25.6028
    MIXING:  cpu time    0.4941: real time    0.4941
    --------------------------------------------
      LOOP:  cpu time  346.8862: real time  346.8904

 eigenvalue-minimisations  :   866
 total energy-change (2. order) :-0.3838003E+01  (-0.2469847E+01)
 number of electron     559.9999843 magnetization 
 augmentation part      240.0010239 magnetization 

 Broyden mixing:
  rms(total) = 0.24952E+01    rms(broyden)= 0.24950E+01
  rms(prec ) = 0.30233E+01
  weight for this iteration     100.00

 eigenvalues of (default mixing * dielectric matrix)
  average eigenvalue GAMMA=   0.3607
  0.5599  0.1615

 Free energy of the ion-electron system (eV)
  ---------------------------------------------------
  alpha Z        PSCENC =        75.25431677
  Ewald energy   TEWEN  =    137882.10605125
  -Hartree energ DENC   =   -181718.89780105
  -exchange      EXHF   =         0.00000000
  -V(xc)+E(xc)   XCENC  =     -1696.26244569
  PAW double counting   =     45785.36916836   -42283.17852759
  entropy T*S    EENTRO =        -0.11810550
  eigenvalues    EBANDS =     -3314.63166633
  atomic energy  EATOM  =     45086.50549395
  Solvation  Ediel_sol  =         0.00000000
  ---------------------------------------------------
  free energy    TOTEN  =      -183.85351582 eV

  energy without entropy =     -183.73541032  energy(sigma->0) =     -183.82398945


--------------------------------------------------------------------------------------------------------




--------------------------------------- Iteration      1(   8)  ---------------------------------------


    POTLOK:  cpu time   13.3390: real time   13.3399
    SETDIJ:  cpu time    0.1240: real time    0.1240
    EDDIAG:  cpu time   69.1899: real time   69.1901
  RMM-DIIS:  cpu time  201.0000: real time  201.0042
    ORTHCH:  cpu time   13.7415: real time   13.7414
       DOS:  cpu time    0.0014: real time    0.0014
    CHARGE:  cpu time   25.9660: real time   25.9658
    MIXING:  cpu time    0.5215: real time    0.5215
    --------------------------------------------
      LOOP:  cpu time  323.8834: real time  323.8883

 eigenvalue-minimisations  :   763
 total energy-change (2. order) :-0.4326418E+01  (-0.1141470E+01)
 number of electron     559.9999828 magnetization 
 augmentation part      239.2748272 magnetization 

 Broyden mixing:
  rms(total) = 0.30853E+01    rms(broyden)= 0.30850E+01
  rms(prec ) = 0.36029E+01
  weight for this iteration     100.00

 eigenvalues of (default mixing * dielectric matrix)
  average eigenvalue GAMMA=   0.3619
  0.7842  0.1508  0.1508

 Free energy of the ion-electron system (eV)
  ---------------------------------------------------
  alpha Z        PSCENC =        75.25431677
  Ewald energy   TEWEN  =    137882.10605125
  -Hartree energ DENC   =   -181770.56517310
  -exchange      EXHF   =         0.00000000
  -V(xc)+E(xc)   XCENC  =     -1696.47062509
  PAW double counting   =     45873.90955608   -42369.30058333
  entropy T*S    EENTRO =        -0.17873044
  eigenvalues    EBANDS =     -3269.44024042
  atomic energy  EATOM  =     45086.50549395
  Solvation  Ediel_sol  =         0.00000000
  ---------------------------------------------------
  free energy    TOTEN  =      -188.17993432 eV

  energy without entropy =     -188.00120388  energy(sigma->0) =     -188.13525171


--------------------------------------------------------------------------------------------------------




--------------------------------------- Iteration      1(   9)  ---------------------------------------


    POTLOK:  cpu time   13.3369: real time   13.3385
    SETDIJ:  cpu time    0.1233: real time    0.1233
    EDDIAG:  cpu time   68.8295: real time   68.8294
  RMM-DIIS:  cpu time  194.4400: real time  194.4402
    ORTHCH:  cpu time   13.9968: real time   13.9967
       DOS:  cpu time    0.0014: real time    0.0014
    CHARGE:  cpu time   26.4316: real time   26.4315
    MIXING:  cpu time    0.5572: real time    0.5572
    --------------------------------------------
      LOOP:  cpu time  317.7167: real time  317.7182

 eigenvalue-minimisations  :   728
 total energy-change (2. order) : 0.2527138E+01  (-0.9622250E+00)
 number of electron     559.9999821 magnetization 
 augmentation part      240.5901405 magnetization 

 Broyden mixing:
  rms(total) = 0.29625E+01    rms(broyden)= 0.29621E+01
  rms(prec ) = 0.34469E+01
  weight for this iteration     100.00

 eigenvalues of (default mixing * dielectric matrix)
  average eigenvalue GAMMA=   0.3425
  0.9102  0.1736  0.1736  0.1127

 Free energy of the ion-electron system (eV)
  ---------------------------------------------------
  alpha Z        PSCENC =        75.25431677
  Ewald energy   TEWEN  =    137882.10605125
  -Hartree energ DENC   =   -181778.40888903
  -exchange      EXHF   =         0.00000000
  -V(xc)+E(xc)   XCENC  =     -1696.67332045
  PAW double counting   =     45955.86764633   -42449.37859011
  entropy T*S    EENTRO =        -0.11790831
  eigenvalues    EBANDS =     -3260.80759685
  atomic energy  EATOM  =     45086.50549395
  Solvation  Ediel_sol  =         0.00000000
  ---------------------------------------------------
  free energy    TOTEN  =      -185.65279645 eV

  energy without entropy =     -185.53488813  energy(sigma->0) =     -185.62331937


--------------------------------------------------------------------------------------------------------




--------------------------------------- Iteration      1(  10)  ---------------------------------------


    POTLOK:  cpu time   13.5123: real time   13.5136
    SETDIJ:  cpu time    0.1249: real time    0.1249
    EDDIAG:  cpu time   69.3439: real time   69.3444
  RMM-DIIS:  cpu time  195.0036: real time  195.0037
    ORTHCH:  cpu time   14.0296: real time   14.0295
       DOS:  cpu time    0.0014: real time    0.0014
    CHARGE:  cpu time   26.5153: real time   26.5152
    MIXING:  cpu time    0.5919: real time    0.5919
    --------------------------------------------
      LOOP:  cpu time  319.1230: real time  319.1246

 eigenvalue-minimisations  :   733
 total energy-change (2. order) : 0.2557924E+01  (-0.5479450E+00)
 number of electron     559.9999844 magnetization 
 augmentation part      241.1096617 magnetization 

 Broyden mixing:
  rms(total) = 0.28418E+01    rms(broyden)= 0.28414E+01
  rms(prec ) = 0.33146E+01
  weight for this iteration     100.00

 eigenvalues of (default mixing * dielectric matrix)
  average eigenvalue GAMMA=   0.3176
  1.0005  0.1845  0.1845  0.1179  0.1008

 Free energy of the ion-electron system (eV)
  ---------------------------------------------------
  alpha Z        PSCENC =        75.25431677
  Ewald energy   TEWEN  =    137882.10605125
  -Hartree energ DENC   =   -181806.12247537
  -exchange      EXHF   =         0.00000000
  -V(xc)+E(xc)   XCENC  =     -1696.61756200
  PAW double counting   =     46014.41429123   -42506.49917768
  entropy T*S    EENTRO =        -0.08643161
  eigenvalues    EBANDS =     -3232.04937940
  atomic energy  EATOM  =     45086.50549395
  Solvation  Ediel_sol  =         0.00000000
  ---------------------------------------------------
  free energy    TOTEN  =      -183.09487284 eV

  energy without entropy =     -183.00844124  energy(sigma->0) =     -183.07326494


--------------------------------------------------------------------------------------------------------




--------------------------------------- Iteration      1(  11)  ---------------------------------------


    POTLOK:  cpu time   13.8362: real time   13.8375
    SETDIJ:  cpu time    0.1221: real time    0.1221
    EDDIAG:  cpu time   69.9597: real time   69.9606
  RMM-DIIS:  cpu time  193.8408: real time  193.8431
    ORTHCH:  cpu time   13.9577: real time   13.9576
       DOS:  cpu time    0.0015: real time    0.0015
    CHARGE:  cpu time   26.4814: real time   26.4813
    MIXING:  cpu time    0.6562: real time    0.6562
    --------------------------------------------
      LOOP:  cpu time  318.8554: real time  318.8598

 eigenvalue-minimisations  :   733
 total energy-change (2. order) : 0.2544438E+01  (-0.3726947E+00)
 number of electron     559.9999875 magnetization 
 augmentation part      241.4989407 magnetization 

 Broyden mixing:
  rms(total) = 0.22423E+01    rms(broyden)= 0.22420E+01
  rms(prec ) = 0.26332E+01
  weight for this iteration     100.00

 eigenvalues of (default mixing * dielectric matrix)
  average eigenvalue GAMMA=   0.3117
  1.1129  0.2149  0.2149  0.1213  0.1213  0.0849

 Free energy of the ion-electron system (eV)
  ---------------------------------------------------
  alpha Z        PSCENC =        75.25431677
  Ewald energy   TEWEN  =    137882.10605125
  -Hartree energ DENC   =   -181825.26670525
  -exchange      EXHF   =         0.00000000
  -V(xc)+E(xc)   XCENC  =     -1696.49978782
  PAW double counting   =     46058.32955992   -42549.13193928
  entropy T*S    EENTRO =        -0.15794195
  eigenvalues    EBANDS =     -3211.68948257
  atomic energy  EATOM  =     45086.50549395
  Solvation  Ediel_sol  =         0.00000000
  ---------------------------------------------------
  free energy    TOTEN  =      -180.55043498 eV

  energy without entropy =     -180.39249303  energy(sigma->0) =     -180.51094949


--------------------------------------------------------------------------------------------------------




--------------------------------------- Iteration      1(  12)  ---------------------------------------


    POTLOK:  cpu time   13.7603: real time   13.7633
    SETDIJ:  cpu time    0.1221: real time    0.1221
    EDDIAG:  cpu time   70.7377: real time   70.7386
  RMM-DIIS:  cpu time  189.8196: real time  189.8237
    ORTHCH:  cpu time   13.8937: real time   13.8936
       DOS:  cpu time    0.0015: real time    0.0015
    CHARGE:  cpu time   26.3616: real time   26.3618
    MIXING:  cpu time    0.6758: real time    0.6758
    --------------------------------------------
      LOOP:  cpu time  315.3724: real time  315.3806

 eigenvalue-minimisations  :   718
 total energy-change (2. order) : 0.9899225E+00  (-0.3026906E+00)
 number of electron     559.9999864 magnetization 
 augmentation part      241.6515084 magnetization 

 Broyden mixing:
  rms(total) = 0.23743E+01    rms(broyden)= 0.23740E+01
  rms(prec ) = 0.28356E+01
  weight for this iteration     100.00

 eigenvalues of (default mixing * dielectric matrix)
  average eigenvalue GAMMA=   0.3013
  1.1958  0.2456  0.2456  0.1290  0.1290  0.0881  0.0763

 Free energy of the ion-electron system (eV)
  ---------------------------------------------------
  alpha Z        PSCENC =        75.25431677
  Ewald energy   TEWEN  =    137882.10605125
  -Hartree energ DENC   =   -181846.08191129
  -exchange      EXHF   =         0.00000000
  -V(xc)+E(xc)   XCENC  =     -1696.24731045
  PAW double counting   =     46108.57720506   -42597.81691032
  entropy T*S    EENTRO =        -0.04085335
  eigenvalues    EBANDS =     -3191.81659405
  atomic energy  EATOM  =     45086.50549395
  Solvation  Ediel_sol  =         0.00000000
  ---------------------------------------------------
  free energy    TOTEN  =      -179.56051243 eV

  energy without entropy =     -179.51965908  energy(sigma->0) =     -179.55029909


--------------------------------------------------------------------------------------------------------




--------------------------------------- Iteration      1(  13)  ---------------------------------------


    POTLOK:  cpu time   13.5460: real time   13.5494
    SETDIJ:  cpu time    0.1248: real time    0.1248
    EDDIAG:  cpu time   70.8646: real time   70.8666
  RMM-DIIS:  cpu time  189.9964: real time  190.0082
    ORTHCH:  cpu time   13.9459: real time   13.9459
       DOS:  cpu time    0.0015: real time    0.0015
    CHARGE:  cpu time   26.3142: real time   26.3151
    MIXING:  cpu time    0.7098: real time    0.7098
    --------------------------------------------
      LOOP:  cpu time  315.5031: real time  315.5213

 eigenvalue-minimisations  :   720
 total energy-change (2. order) : 0.1383765E+01  (-0.2375189E+00)
 number of electron     559.9999836 magnetization 
 augmentation part      241.8031876 magnetization 

 Broyden mixing:
  rms(total) = 0.18911E+01    rms(broyden)= 0.18908E+01
  rms(prec ) = 0.22143E+01
  weight for this iteration     100.00

 eigenvalues of (default mixing * dielectric matrix)
  average eigenvalue GAMMA=   0.2992
  1.2857  0.2897  0.2897  0.1259  0.1259  0.1059  0.1059  0.0652

 Free energy of the ion-electron system (eV)
  ---------------------------------------------------
  alpha Z        PSCENC =        75.25431677
  Ewald energy   TEWEN  =    137882.10605125
  -Hartree energ DENC   =   -181862.34309158
  -exchange      EXHF   =         0.00000000
  -V(xc)+E(xc)   XCENC  =     -1695.96866160
  PAW double counting   =     46150.87626022   -42638.69755041
  entropy T*S    EENTRO =        -0.08294320
  eigenvalues    EBANDS =     -3175.82662307
  atomic energy  EATOM  =     45086.50549395
  Solvation  Ediel_sol  =         0.00000000
  ---------------------------------------------------
  free energy    TOTEN  =      -178.17674767 eV

  energy without entropy =     -178.09380447  energy(sigma->0) =     -178.15601187


--------------------------------------------------------------------------------------------------------




--------------------------------------- Iteration      1(  14)  ---------------------------------------


    POTLOK:  cpu time   13.5760: real time   13.5789
    SETDIJ:  cpu time    0.1259: real time    0.1259
    EDDIAG:  cpu time   70.7968: real time   70.8011
  RMM-DIIS:  cpu time  189.9718: real time  189.9752
    ORTHCH:  cpu time   13.9129: real time   13.9130
       DOS:  cpu time    0.0015: real time    0.0015
    CHARGE:  cpu time   26.3475: real time   26.3526
    MIXING:  cpu time    0.7299: real time    0.7299
    --------------------------------------------
      LOOP:  cpu time  315.4623: real time  315.4781

 eigenvalue-minimisations  :   722
 total energy-change (2. order) : 0.3857797E+00  (-0.1839673E+00)
 number of electron     559.9999842 magnetization 
 augmentation part      241.6659970 magnetization 

 Broyden mixing:
  rms(total) = 0.21144E+01    rms(broyden)= 0.21141E+01
  rms(prec ) = 0.25080E+01
  weight for this iteration     100.00

 eigenvalues of (default mixing * dielectric matrix)
  average eigenvalue GAMMA=   0.3092
  1.4313  0.3521  0.3521  0.1189  0.1189  0.1529  0.1227  0.0672  0.0672

 Free energy of the ion-electron system (eV)
  ---------------------------------------------------
  alpha Z        PSCENC =        75.25431677
  Ewald energy   TEWEN  =    137882.10605125
  -Hartree energ DENC   =   -181889.56404697
  -exchange      EXHF   =         0.00000000
  -V(xc)+E(xc)   XCENC  =     -1695.62109849
  PAW double counting   =     46195.56572937   -42681.74062776
  entropy T*S    EENTRO =         0.04347639
  eigenvalues    EBANDS =     -3150.34026253
  atomic energy  EATOM  =     45086.50549395
  Solvation  Ediel_sol  =         0.00000000
  ---------------------------------------------------
  free energy    TOTEN  =      -177.79096801 eV

  energy without entropy =     -177.83444440  energy(sigma->0) =     -177.80183711


--------------------------------------------------------------------------------------------------------




--------------------------------------- Iteration      1(  15)  ---------------------------------------


    POTLOK:  cpu time   13.6410: real time   13.6427
    SETDIJ:  cpu time    0.1258: real time    0.1258
    EDDIAG:  cpu time   71.0779: real time   71.0788
  RMM-DIIS:  cpu time  186.5873: real time  186.5917
    ORTHCH:  cpu time   13.8721: real time   13.8721
       DOS:  cpu time    0.0014: real time    0.0014
    CHARGE:  cpu time   26.2319: real time   26.2322
    MIXING:  cpu time    0.8062: real time    0.8062
    --------------------------------------------
      LOOP:  cpu time  312.3436: real time  312.3510

 eigenvalue-minimisations  :   710
 total energy-change (2. order) :-0.4111151E+00  (-0.1896292E+00)
 number of electron     559.9999842 magnetization 
 augmentation part      241.4034626 magnetization 

 Broyden mixing:
  rms(total) = 0.28284E+01    rms(broyden)= 0.28282E+01
  rms(prec ) = 0.32460E+01
  weight for this iteration     100.00

 eigenvalues of (default mixing * dielectric matrix)
  average eigenvalue GAMMA=   0.3023
  1.5308  0.3762  0.3762  0.1251  0.1251  0.1405  0.1405  0.0779  0.0779  0.0528

 Free energy of the ion-electron system (eV)
  ---------------------------------------------------
  alpha Z        PSCENC =        75.25431677
  Ewald energy   TEWEN  =    137882.10605125
  -Hartree energ DENC   =   -181926.41114113
  -exchange      EXHF   =         0.00000000
  -V(xc)+E(xc)   XCENC  =     -1695.01280212
  PAW double counting   =     46263.68959767   -42747.19262554
  entropy T*S    EENTRO =        -0.00982543
  eigenvalues    EBANDS =     -3117.13114856
  atomic energy  EATOM  =     45086.50549395
  Solvation  Ediel_sol  =         0.00000000
  ---------------------------------------------------
  free energy    TOTEN  =      -178.20208313 eV

  energy without entropy =     -178.19225771  energy(sigma->0) =     -178.19962678


--------------------------------------------------------------------------------------------------------




--------------------------------------- Iteration      1(  16)  ---------------------------------------


    POTLOK:  cpu time   13.5502: real time   13.5533
    SETDIJ:  cpu time    0.1235: real time    0.1235
    EDDIAG:  cpu time   70.6489: real time   70.6516
  RMM-DIIS:  cpu time  184.7876: real time  184.7968
    ORTHCH:  cpu time   14.0543: real time   14.0585
       DOS:  cpu time    0.0015: real time    0.0015
    CHARGE:  cpu time   26.3641: real time   26.3639
    MIXING:  cpu time    0.8698: real time    0.8698
    --------------------------------------------
      LOOP:  cpu time  310.3999: real time  310.4189

 eigenvalue-minimisations  :   701
 total energy-change (2. order) : 0.1781975E+01  (-0.1564242E+00)
 number of electron     559.9999878 magnetization 
 augmentation part      241.2800176 magnetization 

 Broyden mixing:
  rms(total) = 0.15670E+01    rms(broyden)= 0.15667E+01
  rms(prec ) = 0.17948E+01
  weight for this iteration     100.00

 eigenvalues of (default mixing * dielectric matrix)
  average eigenvalue GAMMA=   0.2956
  1.6052  0.3733  0.3733  0.1803  0.1803  0.1195  0.1195  0.0966  0.0744  0.0744
  0.0547

 Free energy of the ion-electron system (eV)
  ---------------------------------------------------
  alpha Z        PSCENC =        75.25431677
  Ewald energy   TEWEN  =    137882.10605125
  -Hartree energ DENC   =   -181953.53998626
  -exchange      EXHF   =         0.00000000
  -V(xc)+E(xc)   XCENC  =     -1694.59580395
  PAW double counting   =     46310.72170068   -42792.41089108
  entropy T*S    EENTRO =        -0.07466716
  eigenvalues    EBANDS =     -3090.38632210
  atomic energy  EATOM  =     45086.50549395
  Solvation  Ediel_sol  =         0.00000000
  ---------------------------------------------------
  free energy    TOTEN  =      -176.42010788 eV

  energy without entropy =     -176.34544073  energy(sigma->0) =     -176.40144109


--------------------------------------------------------------------------------------------------------




--------------------------------------- Iteration      1(  17)  ---------------------------------------


    POTLOK:  cpu time   13.5708: real time   13.5728
    SETDIJ:  cpu time    0.1243: real time    0.1243
    EDDIAG:  cpu time   70.9426: real time   70.9449
  RMM-DIIS:  cpu time  184.5094: real time  184.5110
    ORTHCH:  cpu time   13.9463: real time   13.9464
       DOS:  cpu time    0.0015: real time    0.0015
    CHARGE:  cpu time   26.3141: real time   26.3140
    MIXING:  cpu time    0.8570: real time    0.8570
    --------------------------------------------
      LOOP:  cpu time  310.2661: real time  310.2717

 eigenvalue-minimisations  :   701
 total energy-change (2. order) : 0.8346739E+00  (-0.9534125E-01)
 number of electron     559.9999865 magnetization 
 augmentation part      241.3227138 magnetization 

 Broyden mixing:
  rms(total) = 0.14434E+01    rms(broyden)= 0.14432E+01
  rms(prec ) = 0.16882E+01
  weight for this iteration     100.00

 eigenvalues of (default mixing * dielectric matrix)
  average eigenvalue GAMMA=   0.2858
  1.6325  0.4496  0.3056  0.2150  0.2150  0.1169  0.1169  0.0932  0.0876  0.0721
  0.0721  0.0529

 Free energy of the ion-electron system (eV)
  ---------------------------------------------------
  alpha Z        PSCENC =        75.25431677
  Ewald energy   TEWEN  =    137882.10605125
  -Hartree energ DENC   =   -181971.10306009
  -exchange      EXHF   =         0.00000000
  -V(xc)+E(xc)   XCENC  =     -1694.32557213
  PAW double counting   =     46339.26920736   -42819.79315329
  entropy T*S    EENTRO =        -0.00420913
  eigenvalues    EBANDS =     -3073.49450869
  atomic energy  EATOM  =     45086.50549395
  Solvation  Ediel_sol  =         0.00000000
  ---------------------------------------------------
  free energy    TOTEN  =      -175.58543398 eV

  energy without entropy =     -175.58122485  energy(sigma->0) =     -175.58438170


--------------------------------------------------------------------------------------------------------




--------------------------------------- Iteration      1(  18)  ---------------------------------------


    POTLOK:  cpu time   13.8291: real time   13.8320
    SETDIJ:  cpu time    0.1309: real time    0.1309
    EDDIAG:  cpu time   71.1047: real time   71.1082
  RMM-DIIS:  cpu time  189.3695: real time  189.3807
    ORTHCH:  cpu time   13.9508: real time   13.9514
       DOS:  cpu time    0.0015: real time    0.0015
    CHARGE:  cpu time   26.3278: real time   26.3287
    MIXING:  cpu time    0.9258: real time    0.9259
    --------------------------------------------
      LOOP:  cpu time  315.6402: real time  315.6594

 eigenvalue-minimisations  :   721
 total energy-change (2. order) : 0.2060160E+00  (-0.4539309E-01)
 number of electron     559.9999852 magnetization 
 augmentation part      241.2930518 magnetization 

 Broyden mixing:
  rms(total) = 0.11911E+01    rms(broyden)= 0.11909E+01
  rms(prec ) = 0.14355E+01
  weight for this iteration     100.00

 eigenvalues of (default mixing * dielectric matrix)
  average eigenvalue GAMMA=   0.2908
  1.6856  0.4985  0.3119  0.3119  0.2585  0.1185  0.1185  0.1103  0.0934  0.0934
  0.0634  0.0634  0.0525

 Free energy of the ion-electron system (eV)
  ---------------------------------------------------
  alpha Z        PSCENC =        75.25431677
  Ewald energy   TEWEN  =    137882.10605125
  -Hartree energ DENC   =   -181980.21084051
  -exchange      EXHF   =         0.00000000
  -V(xc)+E(xc)   XCENC  =     -1694.20454965
  PAW double counting   =     46350.99212847   -42830.89799874
  entropy T*S    EENTRO =        -0.03706314
  eigenvalues    EBANDS =     -3064.88695643
  atomic energy  EATOM  =     45086.50549395
  Solvation  Ediel_sol  =         0.00000000
  ---------------------------------------------------
  free energy    TOTEN  =      -175.37941802 eV

  energy without entropy =     -175.34235488  energy(sigma->0) =     -175.37015224


--------------------------------------------------------------------------------------------------------




--------------------------------------- Iteration      1(  19)  ---------------------------------------


    POTLOK:  cpu time   13.9359: real time   13.9387
    SETDIJ:  cpu time    0.1257: real time    0.1257
    EDDIAG:  cpu time   71.2468: real time   71.2481
  RMM-DIIS:  cpu time  185.5524: real time  185.5574
    ORTHCH:  cpu time   13.8764: real time   13.8768
       DOS:  cpu time    0.0015: real time    0.0015
    CHARGE:  cpu time   26.1671: real time   26.1677
    MIXING:  cpu time    1.0256: real time    1.0256
    --------------------------------------------
      LOOP:  cpu time  311.9314: real time  311.9416

 eigenvalue-minimisations  :   707
 total energy-change (2. order) : 0.1419813E+00  (-0.5401288E-01)
 number of electron     559.9999861 magnetization 
 augmentation part      241.2538604 magnetization 

 Broyden mixing:
  rms(total) = 0.11343E+01    rms(broyden)= 0.11341E+01
  rms(prec ) = 0.13268E+01
  weight for this iteration     100.00

 eigenvalues of (default mixing * dielectric matrix)
  average eigenvalue GAMMA=   0.2837
  1.6958  0.5440  0.3573  0.3573  0.1949  0.1189  0.1189  0.1391  0.0972  0.0972
  0.0731  0.0731  0.0541  0.0507

 Free energy of the ion-electron system (eV)
  ---------------------------------------------------
  alpha Z        PSCENC =        75.25431677
  Ewald energy   TEWEN  =    137882.10605125
  -Hartree energ DENC   =   -181995.78427318
  -exchange      EXHF   =         0.00000000
  -V(xc)+E(xc)   XCENC  =     -1693.91754656
  PAW double counting   =     46371.53672800   -42850.21518594
  entropy T*S    EENTRO =        -0.01785528
  eigenvalues    EBANDS =     -3050.70516577
  atomic energy  EATOM  =     45086.50549395
  Solvation  Ediel_sol  =         0.00000000
  ---------------------------------------------------
  free energy    TOTEN  =      -175.23743675 eV

  energy without entropy =     -175.21958147  energy(sigma->0) =     -175.23297293


--------------------------------------------------------------------------------------------------------




--------------------------------------- Iteration      1(  20)  ---------------------------------------


    POTLOK:  cpu time   13.8829: real time   13.8851
    SETDIJ:  cpu time    0.1293: real time    0.1293
    EDDIAG:  cpu time   70.7128: real time   70.7159
  RMM-DIIS:  cpu time  184.5233: real time  184.5327
    ORTHCH:  cpu time   13.9093: real time   13.9094
       DOS:  cpu time    0.0015: real time    0.0015
    CHARGE:  cpu time   26.2108: real time   26.2110
    MIXING:  cpu time    1.1272: real time    1.1273
    --------------------------------------------
      LOOP:  cpu time  310.4971: real time  310.5123

 eigenvalue-minimisations  :   705
 total energy-change (2. order) : 0.3408046E+00  (-0.2576440E-01)
 number of electron     559.9999859 magnetization 
 augmentation part      241.2323133 magnetization 

 Broyden mixing:
  rms(total) = 0.69381E+00    rms(broyden)= 0.69361E+00
  rms(prec ) = 0.78867E+00
  weight for this iteration     100.00

 eigenvalues of (default mixing * dielectric matrix)
  average eigenvalue GAMMA=   0.2922
  1.7261  0.6717  0.4055  0.4055  0.1949  0.1949  0.1180  0.1180  0.1008  0.1008
  0.0934  0.0756  0.0756  0.0534  0.0486

 Free energy of the ion-electron system (eV)
  ---------------------------------------------------
  alpha Z        PSCENC =        75.25431677
  Ewald energy   TEWEN  =    137882.10605125
  -Hartree energ DENC   =   -182006.03423236
  -exchange      EXHF   =         0.00000000
  -V(xc)+E(xc)   XCENC  =     -1693.76870156
  PAW double counting   =     46379.45406408   -42857.49447275
  entropy T*S    EENTRO =        -0.05756022
  eigenvalues    EBANDS =     -3040.86159136
  atomic energy  EATOM  =     45086.50549395
  Solvation  Ediel_sol  =         0.00000000
  ---------------------------------------------------
  free energy    TOTEN  =      -174.89663220 eV

  energy without entropy =     -174.83907197  energy(sigma->0) =     -174.88224214


--------------------------------------------------------------------------------------------------------




--------------------------------------- Iteration      1(  21)  ---------------------------------------


    POTLOK:  cpu time   13.9088: real time   13.9112
    SETDIJ:  cpu time    0.1222: real time    0.1222
    EDDIAG:  cpu time   71.1510: real time   71.1544
  RMM-DIIS:  cpu time  183.3325: real time  183.3360
    ORTHCH:  cpu time   13.9887: real time   13.9891
       DOS:  cpu time    0.0016: real time    0.0016
    CHARGE:  cpu time   26.2951: real time   26.2961
    MIXING:  cpu time    1.1689: real time    1.1690
    --------------------------------------------
      LOOP:  cpu time  309.9689: real time  309.9796

 eigenvalue-minimisations  :   700
 total energy-change (2. order) : 0.5404834E-01  (-0.2483173E-01)
 number of electron     559.9999870 magnetization 
 augmentation part      241.1719727 magnetization 

 Broyden mixing:
  rms(total) = 0.79664E+00    rms(broyden)= 0.79651E+00
  rms(prec ) = 0.92459E+00
  weight for this iteration     100.00

 eigenvalues of (default mixing * dielectric matrix)
  average eigenvalue GAMMA=   0.2934
  1.7481  0.6902  0.4609  0.4609  0.2203  0.2203  0.1172  0.1172  0.1094  0.1094
  0.0963  0.0963  0.0730  0.0730  0.0530  0.0481

 Free energy of the ion-electron system (eV)
  ---------------------------------------------------
  alpha Z        PSCENC =        75.25431677
  Ewald energy   TEWEN  =    137882.10605125
  -Hartree energ DENC   =   -182024.38436334
  -exchange      EXHF   =         0.00000000
  -V(xc)+E(xc)   XCENC  =     -1693.48768401
  PAW double counting   =     46392.60415060   -42869.40358048
  entropy T*S    EENTRO =        -0.03750944
  eigenvalues    EBANDS =     -3023.99945917
  atomic energy  EATOM  =     45086.50549395
  Solvation  Ediel_sol  =         0.00000000
  ---------------------------------------------------
  free energy    TOTEN  =      -174.84258386 eV

  energy without entropy =     -174.80507443  energy(sigma->0) =     -174.83320650


--------------------------------------------------------------------------------------------------------




--------------------------------------- Iteration      1(  22)  ---------------------------------------


    POTLOK:  cpu time   13.8843: real time   13.8880
    SETDIJ:  cpu time    0.1325: real time    0.1325
    EDDIAG:  cpu time   71.3970: real time   71.3971
  RMM-DIIS:  cpu time  183.7854: real time  183.7929
    ORTHCH:  cpu time   14.0058: real time   14.0058
       DOS:  cpu time    0.0015: real time    0.0015
    CHARGE:  cpu time   26.3309: real time   26.3309
    MIXING:  cpu time    1.2834: real time    1.2835
    --------------------------------------------
      LOOP:  cpu time  310.8207: real time  310.8322

 eigenvalue-minimisations  :   700
 total energy-change (2. order) : 0.9491807E-01  (-0.1502582E-01)
 number of electron     559.9999874 magnetization 
 augmentation part      241.1680285 magnetization 

 Broyden mixing:
  rms(total) = 0.70633E+00    rms(broyden)= 0.70617E+00
  rms(prec ) = 0.80582E+00
  weight for this iteration     100.00

 eigenvalues of (default mixing * dielectric matrix)
  average eigenvalue GAMMA=   0.2992
  1.7741  0.6904  0.5545  0.5545  0.2428  0.2428  0.1737  0.1182  0.1182  0.1025
  0.1025  0.0964  0.0727  0.0727  0.0703  0.0530  0.0479

 Free energy of the ion-electron system (eV)
  ---------------------------------------------------
  alpha Z        PSCENC =        75.25431677
  Ewald energy   TEWEN  =    137882.10605125
  -Hartree energ DENC   =   -182032.11234032
  -exchange      EXHF   =         0.00000000
  -V(xc)+E(xc)   XCENC  =     -1693.37091650
  PAW double counting   =     46395.81097825   -42872.07811701
  entropy T*S    EENTRO =        -0.02553486
  eigenvalues    EBANDS =     -3016.83759735
  atomic energy  EATOM  =     45086.50549395
  Solvation  Ediel_sol  =         0.00000000
  ---------------------------------------------------
  free energy    TOTEN  =      -174.74766580 eV

  energy without entropy =     -174.72213094  energy(sigma->0) =     -174.74128208


--------------------------------------------------------------------------------------------------------




--------------------------------------- Iteration      1(  23)  ---------------------------------------


    POTLOK:  cpu time   13.7949: real time   13.7979
    SETDIJ:  cpu time    0.1255: real time    0.1255
    EDDIAG:  cpu time   71.0432: real time   71.0441
  RMM-DIIS:  cpu time  181.8626: real time  181.8699
    ORTHCH:  cpu time   13.9567: real time   13.9571
       DOS:  cpu time    0.0015: real time    0.0015
    CHARGE:  cpu time   26.2918: real time   26.2919
    MIXING:  cpu time    1.3286: real time    1.3286
    --------------------------------------------
      LOOP:  cpu time  308.4047: real time  308.4165

 eigenvalue-minimisations  :   693
 total energy-change (2. order) : 0.1391978E+00  (-0.1695837E-01)
 number of electron     559.9999869 magnetization 
 augmentation part      241.1505559 magnetization 

 Broyden mixing:
  rms(total) = 0.50865E+00    rms(broyden)= 0.50853E+00
  rms(prec ) = 0.58573E+00
  weight for this iteration     100.00

 eigenvalues of (default mixing * dielectric matrix)
  average eigenvalue GAMMA=   0.3139
[...]
 -0.006  -0.012   0.003   0.005   0.005  -0.006  -0.011   0.003
 -0.011  -0.020   0.006   0.008   0.009  -0.010  -0.019   0.006
 -0.015  -0.005   0.012   0.000   0.022  -0.014  -0.005   0.012
  0.000  -0.023  -0.006  -0.016  -0.000   0.000  -0.022  -0.006
 -0.022   0.000   0.009  -0.005  -0.016  -0.021   0.000   0.009
 -0.018  -0.006   0.015   0.000   0.027  -0.017  -0.006   0.015
  0.000  -0.027  -0.008  -0.019  -0.000   0.000  -0.026  -0.007
 -0.027   0.000   0.011  -0.006  -0.019  -0.026   0.000   0.010
 total augmentation occupancy for first ion, spin component:           1
  1.531  -0.033   0.006   0.013   0.020   0.077  -0.008  -0.002   0.036  -0.009   0.084  -0.029   0.011   0.003   0.004  -0.019
 -0.033   1.400   0.030   0.070  -0.002  -0.006   0.072   0.011  -0.014  -0.008   0.213  -0.064   0.019   0.001   0.003  -0.006
  0.006   0.030   1.541   0.002   0.002  -0.002   0.012   0.075  -0.013   0.017  -0.048   0.016  -0.003  -0.007  -0.005   0.016
  0.013   0.070   0.002   1.336   0.045   0.034  -0.013  -0.012   0.092  -0.023  -0.088   0.024  -0.001  -0.008  -0.003   0.001
  0.020  -0.002   0.002   0.045   1.440  -0.009  -0.008   0.016  -0.022   0.068  -0.100   0.032  -0.002  -0.009  -0.009   0.026
  0.077  -0.006  -0.002   0.034  -0.009   0.217   0.018  -0.002  -0.045   0.003  -0.047   0.002   0.017  -0.010   0.034  -0.004
 -0.008   0.072   0.012  -0.013  -0.008   0.018   0.263  -0.023  -0.003   0.006  -0.108   0.007  -0.001   0.052  -0.010  -0.001
 -0.002   0.011   0.075  -0.012   0.016  -0.002  -0.023   0.216   0.014  -0.020   0.028  -0.001  -0.012   0.009  -0.018   0.003
  0.036  -0.014  -0.013   0.092  -0.022  -0.045  -0.003   0.014   0.261   0.007   0.043  -0.003  -0.009   0.036   0.004   0.000
 -0.009  -0.008   0.017  -0.023   0.068   0.003   0.006  -0.020   0.007   0.259   0.048  -0.003  -0.038   0.002   0.049   0.007
  0.084   0.213  -0.048  -0.088  -0.100  -0.047  -0.108   0.028   0.043   0.048   0.945  -0.140   0.083   0.014   0.064  -0.012
 -0.029  -0.064   0.016   0.024   0.032   0.002   0.007  -0.001  -0.003  -0.003  -0.140   0.023  -0.014  -0.003  -0.010   0.003
  0.011   0.019  -0.003  -0.001  -0.002   0.017  -0.001  -0.012  -0.009  -0.038   0.083  -0.014   0.029  -0.008  -0.004  -0.003
  0.003   0.001  -0.007  -0.008  -0.009  -0.010   0.052   0.009   0.036   0.002   0.014  -0.003  -0.008   0.036   0.004   0.000
  0.004   0.003  -0.005  -0.003  -0.009   0.034  -0.010  -0.018   0.004   0.049   0.064  -0.010  -0.004   0.004   0.034  -0.000
 -0.019  -0.006   0.016   0.001   0.026  -0.004  -0.001   0.003   0.000   0.007  -0.012   0.003  -0.003   0.000  -0.000   0.001
  0.001  -0.028  -0.007  -0.018   0.001   0.001  -0.008  -0.002  -0.006  -0.000  -0.003   0.001   0.000  -0.003  -0.000   0.000
 -0.028   0.001   0.012  -0.005  -0.020  -0.006   0.001   0.003  -0.001  -0.007  -0.008   0.001  -0.000  -0.000  -0.003   0.000


------------------------ aborting loop because EDIFF is reached ----------------------------------------


    CHARGE:  cpu time   25.1321: real time   25.1321
    FORLOC:  cpu time    6.7337: real time    6.7337
    FORNL :  cpu time   64.8665: real time   64.8666
    STRESS:  cpu time  198.4259: real time  198.4286
    FORCOR:  cpu time   21.6571: real time   21.6572
    FORHAR:  cpu time    9.7779: real time    9.7779
    MIXING:  cpu time    3.6308: real time    3.6308
    OFIELD:  cpu time    0.0000: real time    0.0000

  FORCE on cell =-STRESS in cart. coord.  units (eV):
  Direction    XX          YY          ZZ          XY          YZ          ZX
  --------------------------------------------------------------------------------------
  Alpha Z    75.25432    75.25432    75.25432
  Ewald   45846.87104 46297.17754 45737.95176  1606.50688  1550.89423  1467.63195
  Hartree 60625.80704 60999.88913 60596.27694  1403.99749  1445.74529  1362.93761
  E(xc)   -2905.76881 -2905.35106 -2906.20999     1.12282     0.24441     0.28587
  Local  ************************************ -2984.04740 -2989.82962 -2823.28335
  n-local  -877.35461  -874.55035  -881.81366     2.31874    -1.77086    -2.35797
  augment  4102.89294  4099.92137  4106.52739    -5.22016     1.19560     1.10148
  Kinetic  7808.72550  7801.18252  7814.35507   -17.49252    -3.96368    -4.17730
  Fock        0.00000     0.00000     0.00000     0.00000     0.00000     0.00000
  -------------------------------------------------------------------------------------
  Total    -107.50216  -103.87643  -111.51688     7.18584     2.51538     2.13829
  in kB      -6.37917    -6.16402    -6.61740     0.42641     0.14926     0.12689
  external pressure =       -6.39 kB  Pullay stress =        0.00 kB


 VOLUME and BASIS-vectors are now :
 -----------------------------------------------------------------------------
  energy-cutoff  :      400.00
  volume of cell :    27000.00
      direct lattice vectors                 reciprocal lattice vectors
    30.000000000  0.000000000  0.000000000     0.033333333  0.000000000  0.000000000
     0.000000000 30.000000000  0.000000000     0.000000000  0.033333333  0.000000000
     0.000000000  0.000000000 30.000000000     0.000000000  0.000000000  0.033333333

  length of vectors
    30.000000000 30.000000000 30.000000000     0.033333333  0.033333333  0.033333333


 FORCES acting on ions
    electron-ion (+dipol)            ewald-force                    non-local-force                 convergence-correction
 -----------------------------------------------------------------------------------------------
   0.396E+03 0.973E+03 0.418E+03   -.394E+03 -.970E+03 -.418E+03   -.152E+01 -.183E+01 -.230E+00   -.733E-02 0.666E-02 -.280E-02
   -.971E+03 -.385E+03 0.433E+03   0.968E+03 0.383E+03 -.432E+03   0.183E+01 0.149E+01 -.236E+00   -.182E-02 0.658E-02 0.732E-04
   -.392E+03 0.974E+03 0.419E+03   0.390E+03 -.971E+03 -.419E+03   0.151E+01 -.183E+01 -.229E+00   -.877E-03 0.313E-02 -.560E-02
   0.975E+03 -.392E+03 0.420E+03   -.972E+03 0.389E+03 -.419E+03   -.183E+01 0.151E+01 -.227E+00   0.107E-01 -.217E-02 -.235E-03
   0.215E+01 0.589E+03 0.967E+03   -.213E+01 -.588E+03 -.963E+03   -.505E-02 -.323E+00 -.236E+01   -.410E-02 0.871E-02 0.976E-03
   0.640E+01 0.596E+03 -.963E+03   -.640E+01 -.596E+03 0.960E+03   0.716E-02 -.312E+00 0.235E+01   -.174E-02 0.122E-01 0.586E-02
   0.236E+01 0.114E+04 0.249E+01   -.236E+01 -.113E+04 -.248E+01   -.192E-03 -.311E+01 -.173E-02   -.490E-02 -.259E-02 -.210E-02
   0.114E+04 0.260E+01 0.256E+01   -.113E+04 -.261E+01 -.256E+01   -.312E+01 -.117E-02 -.845E-03   0.825E-02 0.599E-02 -.310E-02
   -.114E+04 0.169E+02 0.166E+02   0.113E+04 -.169E+02 -.165E+02   0.313E+01 -.300E-02 -.423E-01   -.545E-02 0.100E-01 0.180E-02
   0.183E+02 -.114E+04 0.195E+02   -.183E+02 0.113E+04 -.194E+02   -.125E-01 0.314E+01 -.494E-01   -.254E-02 -.920E-03 0.148E-02
   -.577E+03 0.582E+03 0.816E+03   0.574E+03 -.579E+03 -.813E+03   0.156E+01 -.156E+01 -.220E+01   -.129E-02 0.198E-02 -.596E-02
   -.575E+03 0.594E+03 -.811E+03   0.572E+03 -.592E+03 0.808E+03   0.156E+01 -.153E+01 0.218E+01   -.150E-02 0.950E-02 0.103E-01
   0.582E+03 -.576E+03 0.816E+03   -.579E+03 0.574E+03 -.813E+03   -.156E+01 0.156E+01 -.220E+01   -.179E-02 -.670E-02 0.790E-02
   0.596E+03 -.573E+03 -.811E+03   -.594E+03 0.571E+03 0.808E+03   -.158E+01 0.155E+01 0.218E+01   0.505E-02 -.263E-02 -.284E-02
   0.580E+03 0.580E+03 0.814E+03   -.577E+03 -.577E+03 -.811E+03   -.156E+01 -.156E+01 -.220E+01   -.408E-02 0.105E-01 0.164E-02
   0.583E+03 0.583E+03 -.811E+03   -.581E+03 -.581E+03 0.808E+03   -.155E+01 -.156E+01 0.220E+01   0.270E-02 0.760E-02 0.934E-03
   -.576E+03 -.575E+03 0.823E+03   0.573E+03 0.573E+03 -.819E+03   0.156E+01 0.156E+01 -.220E+01   0.266E-02 0.156E-02 0.639E-04
   -.377E+03 -.311E+03 -.805E+03   0.381E+03 0.316E+03 0.801E+03   -.713E+01 -.103E+02 0.300E+01   -.872E-02 -.584E-02 -.309E-02
   0.398E+03 0.975E+03 -.414E+03   -.395E+03 -.973E+03 0.413E+03   -.150E+01 -.182E+01 0.221E+00   -.553E-02 0.493E-02 0.258E-02
   -.980E+03 -.331E+03 -.371E+03   0.977E+03 0.329E+03 0.370E+03   0.168E+01 0.178E+01 0.484E+00   -.135E-01 0.544E-02 0.758E-02
   -.317E+03 0.328E+03 0.460E+03   0.318E+03 -.328E+03 -.461E+03   -.360E+00 0.378E+00 0.535E+00   -.956E-02 0.946E-02 0.228E-03
   0.973E+03 0.396E+03 0.419E+03   -.970E+03 -.394E+03 -.418E+03   -.183E+01 -.152E+01 -.234E+00   0.773E-02 0.111E-01 -.188E-02
   -.386E+03 -.970E+03 0.434E+03   0.384E+03 0.967E+03 -.434E+03   0.149E+01 0.183E+01 -.235E+00   -.588E-02 0.595E-02 0.494E-02
   -.391E+03 0.978E+03 -.413E+03   0.388E+03 -.975E+03 0.413E+03   0.152E+01 -.181E+01 0.219E+00   -.284E-02 0.282E-02 0.682E-02
   0.979E+03 -.390E+03 -.413E+03   -.976E+03 0.388E+03 0.412E+03   -.180E+01 0.152E+01 0.222E+00   0.586E-02 0.206E-02 -.289E-02
   -.971E+03 0.402E+03 0.425E+03   0.968E+03 -.400E+03 -.424E+03   0.181E+01 -.150E+01 -.205E+00   -.709E-02 0.719E-02 -.467E-02
   0.402E+03 -.970E+03 0.425E+03   -.400E+03 0.967E+03 -.425E+03   -.149E+01 0.181E+01 -.211E+00   -.466E-02 -.280E-02 0.366E-02
   0.325E+03 0.325E+03 0.457E+03   -.325E+03 -.325E+03 -.458E+03   0.350E+00 0.350E+00 0.515E+00   -.714E-02 0.165E-01 0.934E-03
   0.448E+01 0.645E+03 0.472E+01   -.447E+01 -.646E+03 -.472E+01   -.270E-04 0.740E+00 0.217E-02   -.936E-02 0.160E-01 -.382E-02
   -.584E+03 0.472E+01 0.971E+03   0.584E+03 -.471E+01 -.968E+03   0.314E+00 -.170E-02 -.235E+01   -.356E-02 0.133E-02 -.210E-02
   -.575E+03 0.501E+02 -.962E+03   0.574E+03 -.501E+02 0.958E+03   0.579E+00 -.170E+00 0.238E+01   -.924E-02 0.116E-01 0.274E-02
   0.589E+03 0.235E+01 0.967E+03   -.588E+03 -.234E+01 -.963E+03   -.325E+00 -.879E-02 -.236E+01   0.945E-03 0.489E-02 0.806E-02
   0.597E+03 0.722E+01 -.963E+03   -.596E+03 -.724E+01 0.960E+03   -.316E+00 0.940E-02 0.235E+01   0.629E-02 0.861E-02 -.242E-02
   0.764E+03 0.764E+03 0.281E+01   -.762E+03 -.762E+03 -.280E+01   -.115E+01 -.115E+01 -.520E-02   -.196E-03 0.122E-01 -.417E-02
   -.749E+03 -.745E+03 0.456E+02   0.747E+03 0.743E+03 -.458E+02   0.117E+01 0.118E+01 0.109E+00   -.381E-02 -.230E-02 0.789E-02
   -.758E+03 0.770E+03 0.636E+01   0.756E+03 -.768E+03 -.637E+01   0.114E+01 -.115E+01 0.203E-02   -.364E-02 0.713E-02 -.210E-02
   0.770E+03 -.757E+03 0.698E+01   -.768E+03 0.755E+03 -.697E+01   -.115E+01 0.113E+01 -.721E-02   0.156E-02 -.672E-02 -.343E-02
   0.329E+01 0.353E+01 0.107E+04   -.328E+01 -.353E+01 -.107E+04   0.182E-02 -.150E-02 -.162E+01   -.111E-01 0.137E-02 0.526E-02
   0.194E+02 0.210E+02 -.107E+04   -.193E+02 -.210E+02 0.107E+04   -.751E-01 -.675E-01 0.162E+01   0.243E-02 0.101E-01 -.211E-02
   0.976E+03 0.398E+03 -.414E+03   -.973E+03 -.396E+03 0.413E+03   -.182E+01 -.150E+01 0.226E+00   0.449E-02 0.117E-01 -.378E-02
   -.322E+03 -.973E+03 -.358E+03   0.320E+03 0.971E+03 0.357E+03   0.175E+01 0.158E+01 0.562E+00   -.464E-02 -.517E-02 0.449E-02
   -.312E+03 0.339E+03 -.445E+03   0.313E+03 -.340E+03 0.446E+03   -.398E+00 0.282E+00 -.539E+00   -.738E-02 0.217E-01 0.660E-02
   0.327E+03 -.317E+03 0.460E+03   -.328E+03 0.317E+03 -.461E+03   0.378E+00 -.356E+00 0.541E+00   -.121E-01 -.519E-02 0.194E-02
   0.329E+03 0.330E+03 -.449E+03   -.330E+03 -.330E+03 0.449E+03   0.378E+00 0.375E+00 -.521E+00   0.289E-03 0.156E-01 -.984E-03
   -.972E+03 0.418E+03 -.407E+03   0.969E+03 -.416E+03 0.406E+03   0.182E+01 -.157E+01 0.258E+00   -.644E-02 0.118E-01 0.917E-02
   0.421E+03 -.970E+03 -.405E+03   -.419E+03 0.968E+03 0.404E+03   -.154E+01 0.183E+01 0.276E+00   0.364E-02 -.287E-02 0.156E-02
   -.314E+03 -.314E+03 0.467E+03   0.315E+03 0.314E+03 -.468E+03   -.373E+00 -.373E+00 0.519E+00   -.653E-02 -.406E-02 0.529E-02
   0.645E+03 0.497E+01 0.489E+01   -.646E+03 -.500E+01 -.489E+01   0.740E+00 0.922E-02 0.780E-02   0.431E-02 0.769E-02 -.612E-02
   -.633E+03 0.184E+02 0.181E+02   0.634E+03 -.184E+02 -.180E+02   -.740E+00 -.213E-01 -.497E-01   -.118E-01 0.119E-01 0.562E-02
   0.455E+01 -.584E+03 0.971E+03   -.454E+01 0.583E+03 -.968E+03   -.225E-02 0.318E+00 -.234E+01   -.108E-01 -.112E-02 0.547E-02
   0.543E+02 -.568E+03 -.962E+03   -.546E+02 0.567E+03 0.958E+03   0.105E+00 0.577E+00 0.234E+01   0.291E-02 -.532E-02 -.319E-02
   0.100E+02 0.108E+02 0.106E+02   -.100E+02 -.109E+02 -.106E+02   0.147E-01 0.172E-01 0.711E-02   -.843E-02 0.574E-02 0.925E-03
   0.339E+03 -.310E+03 -.445E+03   -.340E+03 0.311E+03 0.446E+03   0.289E+00 -.403E+00 -.544E+00   0.246E-02 -.164E-02 0.221E-02
   -.289E+03 -.285E+03 -.426E+03   0.289E+03 0.285E+03 0.426E+03   -.181E+00 -.108E+00 -.499E+00   -.290E-02 0.120E-02 0.892E-02
   0.186E+02 -.631E+03 0.197E+02   -.185E+02 0.632E+03 -.196E+02   -.101E-01 -.755E+00 -.487E-01   -.621E-02 -.339E-03 0.479E-02
   -.193E+03 -.230E+03 -.646E+02   0.184E+03 0.221E+03 0.520E+02   0.859E+01 0.905E+01 0.103E+02   -.314E-02 -.241E-02 -.381E-03
   -.442E+03 -.483E+03 -.412E+03   0.478E+03 0.522E+03 0.451E+03   -.323E+02 -.348E+02 -.360E+02   -.342E-02 -.257E-02 -.116E-02
 -----------------------------------------------------------------------------------------------
   0.321E+02 0.372E+02 0.243E+02   0.284E-12 -.796E-12 -.188E-11   -.320E+02 -.375E+02 -.243E+02   -.155E+00 0.247E+00 0.678E-01
 
 
 POSITION                                       TOTAL-FORCE (eV/Angst)
 -----------------------------------------------------------------------------------
     13.37281      9.84801     12.50759         0.708032      1.102063      0.298930
     20.15199     16.62719     12.50759        -1.109492     -0.703899      0.289476
     16.62719      9.84801     12.50759        -0.702192      1.100683      0.288742
      9.84801     16.62719     12.50759         1.100017     -0.703281      0.287592
     15.00000     11.47521     10.20639         0.008404      0.418263      1.279204
     15.00000     11.47521     19.79360        -0.002843      0.407711     -1.284980
     15.00000      8.28283     15.00000         0.000787      1.515605      0.002028
      8.28283     15.00000     15.00000         1.515366      0.000651      0.001075
     21.71717     15.00000     15.00000        -1.515979      0.001056      0.007371
     15.00000     21.71717     15.00000         0.003840     -1.520397      0.011065
     18.35858     11.64142     10.25025        -0.756161      0.755992      1.070689
     18.35858     11.64142     19.74975        -0.768146      0.727477     -1.056647
     11.64142     18.35858     10.25025         0.755285     -0.757358      1.070703
     11.64142     18.35858     19.74975         0.756839     -0.762492     -1.051875
     11.64142     11.64142     10.25025         0.756618      0.757083      1.066786
     11.64142     11.64142     19.74975         0.755403      0.755225     -1.074806
     18.35858     18.35858     10.25025        -0.756207     -0.756664      1.071156
     18.35858     18.35858     19.74975        -3.935797     -5.167069     -1.216915
     13.37281      9.84801     17.49241         0.703322      1.107409     -0.288718
     20.15199     16.62719     17.49241        -1.055467     -0.797147     -0.319265
     16.73751     13.26249     12.54279         0.104375     -0.112734     -0.167289
      9.84801     13.37281     12.50759         1.101475      0.708341      0.301302
     16.62719     20.15199     12.50759        -0.704240     -1.108989      0.290471
     16.62719      9.84801     17.49241        -0.713968      1.098818     -0.292182
      9.84801     16.62719     17.49241         1.098855     -0.713004     -0.295112
     20.15199     13.37281     12.50759        -1.109763      0.703321      0.287912
     13.37281     20.15199     12.50759         0.702367     -1.108548      0.292035
     13.26249     13.26249     12.54279        -0.110627     -0.113036     -0.152413
     15.00000     11.52498     15.00000        -0.003607     -0.228235     -0.000994
     18.52479     15.00000     10.20639        -0.416875      0.002085      1.278984
     18.52479     15.00000     19.79360        -0.388437     -0.104042     -1.285701
     11.47521     15.00000     10.20640         0.419451      0.010719      1.279987
     11.47521     15.00000     19.79360         0.408038     -0.003196     -1.284579
     11.49535     11.49535     15.00000         0.827942      0.828932      0.004211
     18.50465     18.50465     15.00000        -0.830631     -0.835464     -0.047245
     18.50465     11.49535     15.00000        -0.830042      0.836737     -0.002963
     11.49535     18.50465     15.00000         0.840279     -0.826149      0.002536
     15.00000     15.00000     10.04368         0.001010      0.000613      1.176123
     15.00000     15.00000     19.95633         0.018253      0.013111     -1.180937
      9.84801     13.37281     17.49241         1.107318      0.702130     -0.290289
     16.62719     20.15199     17.49241        -0.721472     -1.041814     -0.285070
     16.73751     13.26249     17.45721         0.106139     -0.093516      0.157312
     13.26249     16.73751     12.54279        -0.116052      0.104026     -0.168696
     13.26249     13.26249     17.45721        -0.108407     -0.109377      0.159139
     20.15199     13.37281     17.49241        -1.100833      0.732758     -0.298348
     13.37281     20.15199     17.49241         0.719154     -1.106496     -0.305675
     16.73751     16.73751     12.54279         0.114393      0.114356     -0.149852
     11.52498     15.00000     15.00000        -0.230709     -0.005447     -0.003705
     18.47502     15.00000     15.00000         0.223624     -0.011071     -0.002945
     15.00000     18.52480     10.20639         0.001967     -0.417632      1.278151
     15.00000     18.52480     19.79360        -0.167325     -0.373868     -1.291658
     15.00000     15.00000     15.00000        -0.006868     -0.005071     -0.011103
     13.26249     16.73751     17.45721        -0.098071      0.106385      0.154732
     16.73751     16.73751     17.45721         0.016600     -0.007762      0.074637
     15.00000     18.47502     15.00000        -0.011882      0.221958     -0.005748
     19.34469     19.71388     19.60863        -0.318610      0.414881     -2.322170
     19.96541     20.38734     20.26706         3.715551      4.245368      2.655530
 -----------------------------------------------------------------------------------
    total drift:                                0.016318      0.012149     -0.000597


--------------------------------------------------------------------------------------------------------



  FREE ENERGIE OF THE ION-ELECTRON SYSTEM (eV)
  ---------------------------------------------------
  free  energy   TOTEN  =      -174.38923521 eV

  energy  without entropy=     -174.31699673  energy(sigma->0) =     -174.37117559
 


--------------------------------------------------------------------------------------------------------


    POTLOK:  cpu time   13.8156: real time   13.8156


--------------------------------------------------------------------------------------------------------


     LOOP+:  cpu time18658.9654: real time18659.6506
    4ORBIT:  cpu time    0.0000: real time    0.0000

 total amount of memory used by VASP MPI-rank0  5486941. kBytes
=======================================================================

   base      :      30000. kBytes
   nonlr-proj:      17126. kBytes
   fftplans  :     924480. kBytes
   grid      :    1872000. kBytes
   one-center:        886. kBytes
   wavefun   :    2642449. kBytes
 
  
  
 General timing and accounting informations for this job:
 ========================================================
  
                  Total CPU time used (sec):    18733.477
                            User time (sec):    17699.547
                          System time (sec):     1033.931
                         Elapsed time (sec):    18734.297
  
                   Maximum memory used (kb):     7178936.
                   Average memory used (kb):           0.
  
                          Minor page faults:    833081560
                          Major page faults:            0
                 Voluntary context switches:          604
