<?xml version="1.0" encoding="ISO-8859-1"?>
<modeling>
 <generator>
  <i name="program" type="string">vasp </i>
  <i name="version" type="string">5.4.4.18Apr17-6-g9f103f2a35  </i>
  <i name="subversion" type="string">(build Sep 03 2018 23:53:05) complex            parallel </i>
  <i name="platform" type="string">LinuxIFC </i>
  <i name="date" type="string">2021 12 03 </i>
  <i name="time" type="string">04:29:55 </i>
 </generator>
 <incar>
  <i type="string" name="SYSTEM"> 6_Pd100_top_free_z(O)</i>
  <i type="int" name="ISTART">     0</i>
  <i type="string" name="PREC">normal   			! encut=max(enmax), ngx,y,z</i>
  <i type="string" name="ALGO"> Fast     			! Mix RMM-DIIS and Dav</i>
  <i type="logical" name="ADDGRID"> F  </i>
  <i type="int" name="ISPIN">     1</i>
  <i type="int" name="ICHARG">     2</i>
  <i type="int" name="NELM">   100</i>
  <i type="int" name="NELMIN">     6</i>
  <i type="int" name="IBRION">     2</i>
  <i name="EDIFF">      0.00010000</i>
  <i name="EDIFFG">     -0.05000000</i>
  <i type="int" name="NSW">     0</i>
  <i type="int" name="ISIF">     2</i>
  <i type="int" name="ISYM">     2</i>
  <i name="ENCUT">    400.00000000</i>
  <i type="string" name="LREAL"> Auto     			! Auto or A projection done</i>
  <i type="int" name="ISMEAR">     2</i>
  <i name="SIGMA">      0.20000000</i>
  <i type="logical" name="LWAVE"> F  </i>
  <i type="logical" name="LCHARG"> F  </i>
  <v type="int" name="KPOINT_BSE">    -1     0     0     0</v>
  <i type="int" name="MAXMEM"> 10000</i>
  <i type="int" name="NELM">   100</i>
  <i type="string" name="GGA"> RP         			! Revised PBE</i>
 </incar>
 <structure name="primitive_cell" >
  <crystal>
   <varray name="basis" >
    <v>      30.00000000       0.00000000       0.00000000 </v>
    <v>       0.00000000      30.00000000       0.00000000 </v>
    <v>       0.00000000       0.00000000      30.00000000 </v>
   </varray>
   <i name="volume">  27000.00000000 </i>
   <varray name="rec_basis" >
    <v>       0.03333333       0.00000000       0.00000000 </v>
    <v>       0.00000000       0.03333333       0.00000000 </v>
    <v>       0.00000000       0.00000000       0.03333333 </v>
   </varray>
  </crystal>
  <varray name="positions" >
   <v>       0.44576020       0.32826710       0.41691983 </v>
   <v>      -0.44576020       0.32826710       0.41691983 </v>
   <v>      -0.50000000       0.38250690       0.34021317 </v>
   <v>      -0.50000000       0.27609440      -0.50000000 </v>
   <v>       0.38804720       0.38804720       0.34167483 </v>
   <v>      -0.50000000       0.38416601      -0.50000000 </v>
   <v>       0.44208300       0.44208300       0.41809300 </v>
   <v>       0.38317830       0.38317830      -0.50000000 </v>
   <v>      -0.44208300       0.44208300       0.41809300 </v>
   <v>       0.44576020       0.32826710      -0.41691977 </v>
   <v>       0.32826705       0.44576024       0.41691983 </v>
   <v>      -0.38804720       0.38804720       0.34167483 </v>
   <v>      -0.38317830       0.38317830      -0.50000000 </v>
   <v>      -0.50000000      -0.50000000       0.33478917 </v>
   <v>      -0.50000000      -0.50000000      -0.50000000 </v>
   <v>      -0.44576020       0.32826710      -0.41691977 </v>
   <v>       0.38250685      -0.49999995       0.34021317 </v>
   <v>       0.44208300       0.44208300      -0.41809297 </v>
   <v>       0.38416599      -0.49999998      -0.50000000 </v>
   <v>      -0.44208300       0.44208300      -0.41809297 </v>
   <v>       0.44208298      -0.44208298       0.41809300 </v>
   <v>       0.32826705       0.44576024      -0.41691977 </v>
   <v>      -0.50000000       0.38250690      -0.34021320 </v>
   <v>       0.32826712      -0.44576022       0.41691983 </v>
   <v>      -0.38250685      -0.49999995       0.34021317 </v>
   <v>      -0.32826705       0.44576024       0.41691983 </v>
   <v>       0.27609443       0.49999998      -0.50000000 </v>
   <v>       0.38804720       0.38804720      -0.34167487 </v>
   <v>      -0.38416599      -0.49999998      -0.50000000 </v>
   <v>      -0.44208298      -0.44208298       0.41809300 </v>
   <v>       0.44208298      -0.44208298      -0.41809297 </v>
   <v>       0.26650527      -0.44845040       0.42821580 </v>
   <v>      -0.38804720       0.38804720      -0.34167487 </v>
   <v>       0.38804722      -0.38804722       0.34167483 </v>
   <v>       0.38250685      -0.49999995      -0.34021320 </v>
   <v>       0.32826712      -0.44576022      -0.41691977 </v>
   <v>      -0.32826705       0.44576024      -0.41691977 </v>
   <v>       0.50000000      -0.38250681       0.34021317 </v>
   <v>      -0.50000000      -0.38416596      -0.50000000 </v>
   <v>      -0.44208298      -0.44208298      -0.41809297 </v>
   <v>      -0.50000000      -0.50000000      -0.33478913 </v>
   <v>       0.38317828      -0.38317828      -0.50000000 </v>
   <v>       0.23133983      -0.44068677       0.41740477 </v>
   <v>      -0.32826712      -0.44576022       0.41691983 </v>
   <v>      -0.27609443       0.49999998      -0.50000000 </v>
   <v>      -0.38804722      -0.38804722       0.34167483 </v>
   <v>      -0.38250685      -0.49999995      -0.34021320 </v>
   <v>       0.44576027      -0.32826707       0.41691983 </v>
   <v>      -0.38317828      -0.38317828      -0.50000000 </v>
   <v>      -0.32826712      -0.44576022      -0.41691977 </v>
   <v>      -0.44576027      -0.32826707       0.41691983 </v>
   <v>       0.38804722      -0.38804722      -0.34167487 </v>
   <v>      -0.50000000      -0.38250681      -0.34021320 </v>
   <v>       0.44576027      -0.32826707      -0.41691977 </v>
   <v>      -0.44576027      -0.32826707      -0.41691977 </v>
   <v>      -0.50000000      -0.27609445       0.50000000 </v>
   <v>      -0.38804722      -0.38804722      -0.34167487 </v>
  </varray>
 </structure>
 <varray name="primitive_index" >
  <v type="int" >        1 </v>
  <v type="int" >        3 </v>
  <v type="int" >        5 </v>
  <v type="int" >        7 </v>
  <v type="int" >       15 </v>
  <v type="int" >       29 </v>
  <v type="int" >       28 </v>
  <v type="int" >       34 </v>
  <v type="int" >       21 </v>
  <v type="int" >       19 </v>
  <v type="int" >       22 </v>
  <v type="int" >       11 </v>
  <v type="int" >       36 </v>
  <v type="int" >       38 </v>
  <v type="int" >       52 </v>
  <v type="int" >       24 </v>
  <v type="int" >       32 </v>
  <v type="int" >       44 </v>
  <v type="int" >       48 </v>
  <v type="int" >       42 </v>
  <v type="int" >       43 </v>
  <v type="int" >       40 </v>
  <v type="int" >        6 </v>
  <v type="int" >        4 </v>
  <v type="int" >       30 </v>
  <v type="int" >       26 </v>
  <v type="int" >        8 </v>
  <v type="int" >       16 </v>
  <v type="int" >       49 </v>
  <v type="int" >       47 </v>
  <v type="int" >       53 </v>
  <v type="int" >       56 </v>
  <v type="int" >       12 </v>
  <v type="int" >       13 </v>
  <v type="int" >       33 </v>
  <v type="int" >       25 </v>
  <v type="int" >       45 </v>
  <v type="int" >       50 </v>
  <v type="int" >       55 </v>
  <v type="int" >       54 </v>
  <v type="int" >       39 </v>
  <v type="int" >       37 </v>
  <v type="int" >       57 </v>
  <v type="int" >        2 </v>
  <v type="int" >        9 </v>
  <v type="int" >       17 </v>
  <v type="int" >       31 </v>
  <v type="int" >       27 </v>
  <v type="int" >       35 </v>
  <v type="int" >       20 </v>
  <v type="int" >       23 </v>
  <v type="int" >       14 </v>
  <v type="int" >       51 </v>
  <v type="int" >       46 </v>
  <v type="int" >       41 </v>
  <v type="int" >       10 </v>
  <v type="int" >       18 </v>
 </varray>
 <kpoints>
  <generation param="Monkhorst-Pack">
   <v type="int" name="divisions">       1        1        1 </v>
   <v name="usershift">      0.00000000       0.00000000       0.00000000 </v>
   <v name="genvec1">      1.00000000       0.00000000       0.00000000 </v>
   <v name="genvec2">      0.00000000       1.00000000       0.00000000 </v>
   <v name="genvec3">      0.00000000       0.00000000       1.00000000 </v>
   <v name="shift">      0.00000000       0.00000000       0.00000000 </v>
  </generation>
  <varray name="kpointlist" >
   <v>       0.00000000       0.00000000       0.00000000 </v>
  </varray>
  <varray name="weights" >
   <v>       1.00000000 </v>
  </varray>
 </kpoints>
 <parameters>
  <separator name="general" >
   <i type="string" name="SYSTEM">6_Pd100_top_free_z(O)</i>
   <i type="logical" name="LCOMPAT"> F  </i>
  </separator>
  <separator name="electronic" >
   <i type="string" name="PREC">normal</i>
   <i name="ENMAX">    400.00000000</i>
   <i name="ENAUG">    644.87300000</i>
   <i name="EDIFF">      0.00010000</i>
   <i type="int" name="IALGO">    68</i>
   <i type="int" name="IWAVPR">    10</i>
   <i type="int" name="NBANDS">   336</i>
   <i name="NELECT">    560.00000000</i>
   <i type="int" name="TURBO">     0</i>
   <i type="int" name="IRESTART">     0</i>
   <i type="int" name="NREBOOT">     0</i>
   <i type="int" name="NMIN">     0</i>
   <i name="EREF">      0.00000000</i>
   <separator name="electronic smearing" >
    <i type="int" name="ISMEAR">     2</i>
    <i name="SIGMA">      0.20000000</i>
    <i name="KSPACING">      0.50000000</i>
    <i type="logical" name="KGAMMA"> T  </i>
   </separator>
   <separator name="electronic projectors" >
    <i type="logical" name="LREAL"> T  </i>
    <v name="ROPT">     -0.00050000     -0.00050000     -0.00050000</v>
    <i type="int" name="LMAXPAW">  -100</i>
    <i type="int" name="LMAXMIX">     2</i>
    <i type="logical" name="NLSPLINE"> F  </i>
   </separator>
   <separator name="electronic startup" >
    <i type="int" name="ISTART">     0</i>
    <i type="int" name="ICHARG">     2</i>
    <i type="int" name="INIWAV">     1</i>
   </separator>
   <separator name="electronic spin" >
    <i type="int" name="ISPIN">     1</i>
    <i type="logical" name="LNONCOLLINEAR"> F  </i>
    <v name="MAGMOM">      1.00000000      1.00000000      1.00000000      1.00000000      1.00000000      1.00000000      1.00000000      1.00000000      1.00000000      1.00000000      1.00000000      1.00000000      1.00000000      1.00000000      1.00000000      1.00000000      1.00000000      1.00000000      1.00000000      1.00000000
      1.00000000      1.00000000      1.00000000      1.00000000      1.00000000      1.00000000      1.00000000      1.00000000      1.00000000      1.00000000      1.00000000      1.00000000      1.00000000      1.00000000      1.00000000      1.00000000      1.00000000      1.00000000      1.00000000      1.00000000
      1.00000000      1.00000000      1.00000000      1.00000000      1.00000000      1.00000000      1.00000000      1.00000000      1.00000000      1.00000000      1.00000000      1.00000000      1.00000000      1.00000000      1.00000000      1.00000000      1.00000000</v>
    <i name="NUPDOWN">     -1.00000000</i>
    <i type="logical" name="LSORBIT"> F  </i>
    <v name="SAXIS">      0.00000000      0.00000000      1.00000000</v>
    <i type="logical" name="LSPIRAL"> F  </i>
    <v name="QSPIRAL">      0.00000000      0.00000000      0.00000000</v>
    <i type="logical" name="LZEROZ"> F  </i>
   </separator>
   <separator name="electronic exchange-correlation" >
    <i type="logical" name="LASPH"> F  </i>
    <i type="logical" name="LMETAGGA"> F  </i>
   </separator>
   <separator name="electronic convergence" >
    <i type="int" name="NELM">   100</i>
    <i type="int" name="NELMDL">    -5</i>
    <i type="int" name="NELMIN">     6</i>
    <i name="ENINI">    400.00000000</i>
    <separator name="electronic convergence detail" >
     <i type="logical" name="LDIAG"> T  </i>
     <i type="logical" name="LSUBROT"> F  </i>
     <i name="WEIMIN">      0.00000000</i>
     <i name="EBREAK">      0.00000007</i>
     <i name="DEPER">      0.30000000</i>
     <i type="int" name="NRMM">     4</i>
     <i name="TIME">      0.40000000</i>
    </separator>
   </separator>
   <separator name="electronic mixer" >
    <i name="AMIX">      0.40000000</i>
    <i name="BMIX">      1.00000000</i>
    <i name="AMIN">      0.10000000</i>
    <i name="AMIX_MAG">      1.60000000</i>
    <i name="BMIX_MAG">      1.00000000</i>
    <separator name="electronic mixer details" >
     <i type="int" name="IMIX">     4</i>
     <i type="logical" name="MIXFIRST"> F  </i>
     <i type="int" name="MAXMIX">   -45</i>
     <i name="WC">    100.00000000</i>
     <i type="int" name="INIMIX">     1</i>
     <i type="int" name="MIXPRE">     1</i>
     <i type="int" name="MREMOVE">     5</i>
    </separator>
   </separator>
   <separator name="electronic dipolcorrection" >
    <i type="logical" name="LDIPOL"> F  </i>
    <i type="logical" name="LMONO"> F  </i>
    <i type="int" name="IDIPOL">     0</i>
    <i name="EPSILON">      1.00000000</i>
    <v name="DIPOL">   -100.00000000   -100.00000000   -100.00000000</v>
    <i name="EFIELD">      0.00000000</i>
   </separator>
  </separator>
  <separator name="grids" >
   <i type="int" name="NGX">   150</i>
   <i type="int" name="NGY">   150</i>
   <i type="int" name="NGZ">   150</i>
   <i type="int" name="NGXF">   300</i>
   <i type="int" name="NGYF">   300</i>
   <i type="int" name="NGZF">   300</i>
   <i type="logical" name="ADDGRID"> F  </i>
  </separator>
  <separator name="ionic" >
   <i type="int" name="NSW">     0</i>
   <i type="int" name="IBRION">    -1</i>
   <i type="int" name="MDALGO">     0</i>
   <i type="int" name="ISIF">     2</i>
   <i name="PSTRESS">      0.00000000</i>
   <i name="EDIFFG">     -0.05000000</i>
   <i type="int" name="NFREE">     1</i>
   <i name="POTIM">      0.50000000</i>
   <i name="SMASS">     -3.00000000</i>
   <i name="SCALEE">      1.00000000</i>
  </separator>
  <separator name="ionic md" >
   <i name="TEBEG">      0.00010000</i>
   <i name="TEEND">      0.00010000</i>
   <i type="int" name="NBLOCK">     1</i>
   <i type="int" name="KBLOCK">     1</i>
   <i type="int" name="NPACO">   256</i>
   <i name="APACO">     16.00000000</i>
  </separator>
  <separator name="symmetry" >
   <i type="int" name="ISYM">     2</i>
   <i name="SYMPREC">      0.00001000</i>
  </separator>
  <separator name="dos" >
   <i type="int" name="LORBIT">     0</i>
   <v name="RWIGS">     -1.00000000     -1.00000000     -1.00000000</v>
   <i type="int" name="NEDOS">   301</i>
   <i name="EMIN">     10.00000000</i>
   <i name="EMAX">    -10.00000000</i>
   <i name="EFERMI">      0.00000000</i>
  </separator>
  <separator name="writing" >
   <i type="int" name="NWRITE">     2</i>
   <i type="logical" name="LWAVE"> F  </i>
   <i type="logical" name="LDOWNSAMPLE"> F  </i>
   <i type="logical" name="LCHARG"> F  </i>
   <i type="logical" name="LPARD"> F  </i>
   <i type="logical" name="LVTOT"> F  </i>
   <i type="logical" name="LVHAR"> F  </i>
   <i type="logical" name="LELF"> F  </i>
   <i type="logical" name="LOPTICS"> F  </i>
   <v name="STM">      0.00000000      0.00000000      0.00000000      0.00000000      0.00000000      0.00000000      0.00000000</v>
  </separator>
  <separator name="performance" >
   <i type="int" name="NPAR">     1</i>
   <i type="int" name="NSIM">     4</i>
   <i type="int" name="NBLK">    -1</i>
   <i type="logical" name="LPLANE"> T  </i>
   <i type="logical" name="LSCALAPACK"> T  </i>
   <i type="logical" name="LSCAAWARE"> F  </i>
   <i type="logical" name="LSCALU"> F  </i>
   <i type="logical" name="LASYNC"> F  </i>
   <i type="logical" name="LORBITALREAL"> F  </i>
  </separator>
  <separator name="miscellaneous" >
   <i type="int" name="IDIOT">     3</i>
   <i type="int" name="ISPECIAL">     0</i>
   <i type="logical" name="LMUSIC"> F  </i>
   <v name="POMASS">    106.42000000     12.01100000     16.00000000</v>
   <v name="DARWINR">      0.00000000      0.00000000      0.00000000</v>
   <v name="DARWINV">      1.00000000      1.00000000      1.00000000</v>
   <i type="logical" name="LCORR"> T  </i>
  </separator>
  <i type="logical" name="GGA_COMPAT"> T  </i>
  <i type="logical" name="LBERRY"> F  </i>
  <i type="int" name="ICORELEVEL">     0</i>
  <i type="logical" name="LDAU"> F  </i>
  <i type="int" name="I_CONSTRAINED_M">     0</i>
  <separator name="electronic exchange-correlation" >
   <i type="string" name="GGA">RP</i>
   <i type="int" name="VOSKOWN">     0</i>
   <i type="logical" name="LHFCALC"> F  </i>
   <i type="string" name="PRECFOCK"></i>
   <i type="logical" name="LSYMGRAD"> F  </i>
   <i type="logical" name="LHFONE"> F  </i>
   <i type="logical" name="LRHFCALC"> F  </i>
   <i type="logical" name="LTHOMAS"> F  </i>
   <i type="logical" name="LMODELHF"> F  </i>
   <i name="ENCUT4O">     -1.00000000</i>
   <i type="int" name="EXXOEP">     0</i>
   <i type="int" name="FOURORBIT">     0</i>
   <i name="AEXX">      0.00000000</i>
   <i name="HFALPHA">      0.00000000</i>
   <i name="MCALPHA">      0.00000000</i>
   <i name="ALDAX">      1.00000000</i>
   <i name="AGGAX">      1.00000000</i>
   <i name="ALDAC">      1.00000000</i>
   <i name="AGGAC">      1.00000000</i>
   <i type="int" name="NKREDX">     1</i>
   <i type="int" name="NKREDY">     1</i>
   <i type="int" name="NKREDZ">     1</i>
   <i type="logical" name="SHIFTRED"> F  </i>
   <i type="logical" name="ODDONLY"> F  </i>
   <i type="logical" name="EVENONLY"> F  </i>
   <i type="int" name="LMAXFOCK">     0</i>
   <i type="int" name="NMAXFOCKAE">     0</i>
   <i type="logical" name="LFOCKAEDFT"> F  </i>
   <i name="HFSCREEN">      0.00000000</i>
   <i name="HFSCREENC">      0.00000000</i>
   <i type="int" name="NBANDSGWLOW">     0</i>
  </separator>
  <separator name="vdW DFT" >
   <i type="logical" name="LUSE_VDW"> F  </i>
   <i name="Zab_VDW">     -0.84910000</i>
   <i name="PARAM1">      0.12340000</i>
   <i name="PARAM2">      1.00000000</i>
   <i name="PARAM3">      0.00000000</i>
  </separator>
  <separator name="model GW" >
   <i type="int" name="MODEL_GW">     0</i>
   <i name="MODEL_EPS0">    284.21052632</i>
   <i name="MODEL_ALPHA">      1.00000000</i>
  </separator>
  <separator name="linear response parameters" >
   <i type="logical" name="LEPSILON"> F  </i>
   <i type="logical" name="LRPA"> F  </i>
   <i type="logical" name="LNABLA"> F  </i>
   <i type="logical" name="LVEL"> F  </i>
   <i type="int" name="KINTER">     0</i>
   <i name="CSHIFT">      0.10000000</i>
   <i name="OMEGAMAX">     -1.00000000</i>
   <i name="DEG_THRESHOLD">      0.00200000</i>
   <i name="RTIME">     -0.10000000</i>
   <i name="WPLASMAI">      0.00000000</i>
   <v name="DFIELD">      0.00000000      0.00000000      0.00000000</v>
   <v name="WPLASMA">      0.00000000      0.00000000      0.00000000      0.00000000      0.00000000      0.00000000      0.00000000      0.00000000      0.00000000</v>
  </separator>
  <separator name="orbital magnetization" >
   <i type="logical" name="NUCIND"> F  </i>
   <v name="MAGPOS">      0.00000000      0.00000000      0.00000000</v>
   <i type="logical" name="LNICSALL"> T  </i>
   <i type="logical" name="ORBITALMAG"> F  </i>
   <i type="logical" name="LMAGBLOCH"> F  </i>
   <i type="logical" name="LCHIMAG"> F  </i>
   <i type="logical" name="LGAUGE"> T  </i>
   <i type="int" name="MAGATOM">     0</i>
   <v name="MAGDIPOL">      0.00000000      0.00000000      0.00000000</v>
   <v name="AVECCONST">      0.00000000      0.00000000      0.00000000</v>
  </separator>
  <separator name="response functions" >
   <i type="logical" name="LADDER"> F  </i>
   <i type="logical" name="LRPAFORCE"> F  </i>
   <i type="logical" name="LFXC"> F  </i>
   <i type="logical" name="LHARTREE"> T  </i>
   <i type="int" name="IBSE">     0</i>
   <v type="int" name="KPOINT">    -1     0     0     0</v>
   <i type="logical" name="LTCTE"> F  </i>
   <i type="logical" name="LTETE"> F  </i>
   <i type="logical" name="LTRIPLET"> F  </i>
   <i type="logical" name="LFXCEPS"> F  </i>
   <i type="logical" name="LFXHEG"> F  </i>
   <i type="int" name="NATURALO">     2</i>
   <i type="logical" name="L2ORDER"> F  </i>
   <i type="logical" name="LMP2LT"> F  </i>
   <i type="logical" name="LUSEW"> F  </i>
   <i name="ENCUTGW">     -2.00000000</i>
   <i name="ENCUTGWSOFT">     -2.00000000</i>
   <i name="ENCUTLF">     -1.00000000</i>
   <i type="int" name="LMAXMP2">    -1</i>
   <i name="SCISSOR">      0.00000000</i>
   <i type="int" name="NOMEGA">     0</i>
   <i type="int" name="NOMEGAR">     0</i>
   <i type="int" name="NBANDSGW">    -1</i>
   <i type="int" name="NBANDSO">    -1</i>
   <i type="int" name="NBANDSV">    -1</i>
   <i type="int" name="NELM">   100</i>
   <i type="int" name="NELMHF">     1</i>
   <i type="int" name="DIM">     3</i>
   <i type="int" name="ANTIRES">     0</i>
   <i name="OMEGAMAX">    -30.00000000</i>
   <i name="OMEGAMIN">    -30.00000000</i>
   <i name="OMEGATL">   -200.00000000</i>
   <i type="int" name="OMEGAGRID">   140</i>
   <i name="CSHIFT">     -0.10000000</i>
   <i type="logical" name="SELFENERGY"> F  </i>
   <i type="logical" name="LSPECTRAL"> F  </i>
   <i type="logical" name="LSPECTRALGW"> F  </i>
   <i type="logical" name="LSINGLES"> F  </i>
   <i type="logical" name="LFERMIGW"> F  </i>
   <i type="logical" name="ODDONLYGW"> F  </i>
   <i type="logical" name="EVENONLYGW"> F  </i>
   <i type="int" name="NKREDLFX">     1</i>
   <i type="int" name="NKREDLFY">     1</i>
   <i type="int" name="NKREDLFZ">     1</i>
   <i type="int" name="MAXMEM"> 10000</i>
   <i type="int" name="TELESCOPE">     0</i>
   <i type="int" name="TAUPAR">     1</i>
   <i type="int" name="OMEGAPAR">    -1</i>
   <i name="LAMBDA">      1.00000000</i>
  </separator>
  <separator name="External order field" >
   <i name="OFIELD_KAPPA">      0.00000000</i>
   <v name="OFIELD_K">      0.00000000      0.00000000      0.00000000</v>
   <i name="OFIELD_Q6_NEAR">      0.00000000</i>
   <i name="OFIELD_Q6_FAR">      0.00000000</i>
   <i name="OFIELD_A">      0.00000000</i>
  </separator>
 </parameters>
 <atominfo>
  <atoms>      57 </atoms>
  <types>       3 </types>
  <array name="atoms" >
   <dimension dim="1">ion</dimension>
   <field type="string">element</field>
   <field type="int">atomtype</field>
   <set>
    <rc><c>Pd</c><c>   1</c></rc>
    <rc><c>Pd</c><c>   1</c></rc>
    <rc><c>Pd</c><c>   1</c></rc>
    <rc><c>Pd</c><c>   1</c></rc>
    <rc><c>Pd</c><c>   1</c></rc>
    <rc><c>Pd</c><c>   1</c></rc>
    <rc><c>Pd</c><c>   1</c></rc>
    <rc><c>Pd</c><c>   1</c></rc>
    <rc><c>Pd</c><c>   1</c></rc>
    <rc><c>Pd</c><c>   1</c></rc>
    <rc><c>Pd</c><c>   1</c></rc>
    <rc><c>Pd</c><c>   1</c></rc>
    <rc><c>Pd</c><c>   1</c></rc>
    <rc><c>Pd</c><c>   1</c></rc>
    <rc><c>Pd</c><c>   1</c></rc>
    <rc><c>Pd</c><c>   1</c></rc>
    <rc><c>Pd</c><c>   1</c></rc>
    <rc><c>Pd</c><c>   1</c></rc>
    <rc><c>Pd</c><c>   1</c></rc>
    <rc><c>Pd</c><c>   1</c></rc>
    <rc><c>Pd</c><c>   1</c></rc>
    <rc><c>Pd</c><c>   1</c></rc>
    <rc><c>Pd</c><c>   1</c></rc>
    <rc><c>Pd</c><c>   1</c></rc>
    <rc><c>Pd</c><c>   1</c></rc>
    <rc><c>Pd</c><c>   1</c></rc>
    <rc><c>Pd</c><c>   1</c></rc>
    <rc><c>Pd</c><c>   1</c></rc>
    <rc><c>Pd</c><c>   1</c></rc>
    <rc><c>Pd</c><c>   1</c></rc>
    <rc><c>Pd</c><c>   1</c></rc>
    <rc><c>Pd</c><c>   1</c></rc>
    <rc><c>Pd</c><c>   1</c></rc>
    <rc><c>Pd</c><c>   1</c></rc>
    <rc><c>Pd</c><c>   1</c></rc>
    <rc><c>Pd</c><c>   1</c></rc>
    <rc><c>Pd</c><c>   1</c></rc>
    <rc><c>Pd</c><c>   1</c></rc>
    <rc><c>Pd</c><c>   1</c></rc>
    <rc><c>Pd</c><c>   1</c></rc>
    <rc><c>Pd</c><c>   1</c></rc>
    <rc><c>Pd</c><c>   1</c></rc>
    <rc><c>Pd</c><c>   1</c></rc>
    <rc><c>Pd</c><c>   1</c></rc>
    <rc><c>Pd</c><c>   1</c></rc>
    <rc><c>Pd</c><c>   1</c></rc>
    <rc><c>Pd</c><c>   1</c></rc>
    <rc><c>Pd</c><c>   1</c></rc>
    <rc><c>Pd</c><c>   1</c></rc>
    <rc><c>Pd</c><c>   1</c></rc>
    <rc><c>Pd</c><c>   1</c></rc>
    <rc><c>Pd</c><c>   1</c></rc>
    <rc><c>Pd</c><c>   1</c></rc>
    <rc><c>Pd</c><c>   1</c></rc>
    <rc><c>Pd</c><c>   1</c></rc>
    <rc><c>C </c><c>   2</c></rc>
    <rc><c>O </c><c>   3</c></rc>
   </set>
  </array>
  <array name="atomtypes" >
   <dimension dim="1">type</dimension>
   <field type="int">atomspertype</field>
   <field type="string">element</field>
   <field>mass</field>
   <field>valence</field>
   <field type="string">pseudopotential</field>
   <set>
    <rc><c>  55</c><c>Pd</c><c>    106.42000000</c><c>     10.00000000</c><c>  PAW_PBE Pd 04Jan2005                  </c></rc>
    <rc><c>   1</c><c>C </c><c>     12.01100000</c><c>      4.00000000</c><c>  PAW_PBE C 08Apr2002                   </c></rc>
    <rc><c>   1</c><c>O </c><c>     16.00000000</c><c>      6.00000000</c><c>  PAW_PBE O 08Apr2002                   </c></rc>
   </set>
  </array>
 </atominfo>
 <structure name="initialpos" >
  <crystal>
   <varray name="basis" >
    <v>      30.00000000       0.00000000       0.00000000 </v>
    <v>       0.00000000      30.00000000       0.00000000 </v>
    <v>       0.00000000       0.00000000      30.00000000 </v>
   </varray>
   <i name="volume">  27000.00000000 </i>
   <varray name="rec_basis" >
    <v>       0.03333333       0.00000000       0.00000000 </v>
    <v>       0.00000000       0.03333333       0.00000000 </v>
    <v>       0.00000000       0.00000000       0.03333333 </v>
   </varray>
  </crystal>
  <varray name="positions" >
   <v>       0.44576020       0.32826710       0.41691983 </v>
   <v>       0.67173288       0.55423978       0.41691983 </v>
   <v>       0.55423980       0.32826710       0.41691983 </v>
   <v>       0.32826712       0.55423978       0.41691983 </v>
   <v>       0.50000000       0.38250690       0.34021317 </v>
   <v>       0.50000000       0.38250690       0.65978680 </v>
   <v>       0.50000000       0.27609440       0.50000000 </v>
   <v>       0.27609443       0.49999998       0.50000000 </v>
   <v>       0.72390557       0.49999998       0.50000000 </v>
   <v>       0.50000000       0.72390555       0.50000000 </v>
   <v>       0.61195280       0.38804720       0.34167483 </v>
   <v>       0.61195280       0.38804720       0.65832513 </v>
   <v>       0.38804722       0.61195278       0.34167483 </v>
   <v>       0.38804722       0.61195278       0.65832513 </v>
   <v>       0.38804720       0.38804720       0.34167483 </v>
   <v>       0.38804720       0.38804720       0.65832513 </v>
   <v>       0.61195278       0.61195278       0.34167483 </v>
   <v>       0.61195278       0.61195278       0.65832513 </v>
   <v>       0.44576020       0.32826710       0.58308023 </v>
   <v>       0.67173288       0.55423978       0.58308023 </v>
   <v>       0.55791699       0.44208301       0.41809300 </v>
   <v>       0.32826705       0.44576024       0.41691983 </v>
   <v>       0.55423973       0.67173293       0.41691983 </v>
   <v>       0.55423980       0.32826710       0.58308023 </v>
   <v>       0.32826712       0.55423978       0.58308023 </v>
   <v>       0.67173295       0.44576024       0.41691983 </v>
   <v>       0.44576027       0.67173293       0.41691983 </v>
   <v>       0.44208301       0.44208301       0.41809300 </v>
   <v>       0.50000000       0.38416601       0.50000000 </v>
   <v>       0.61749315       0.50000005       0.34021317 </v>
   <v>       0.61749315       0.50000005       0.65978680 </v>
   <v>       0.38250685       0.50000005       0.34021317 </v>
   <v>       0.38250685       0.50000005       0.65978680 </v>
   <v>       0.38317830       0.38317830       0.50000000 </v>
   <v>       0.61682172       0.61682172       0.50000000 </v>
   <v>       0.61682170       0.38317830       0.50000000 </v>
   <v>       0.38317828       0.61682172       0.50000000 </v>
   <v>       0.50000000       0.50000000       0.33478917 </v>
   <v>       0.50000000       0.50000000       0.66521087 </v>
   <v>       0.32826705       0.44576024       0.58308023 </v>
   <v>       0.55423973       0.67173293       0.58308023 </v>
   <v>       0.55791699       0.44208301       0.58190703 </v>
   <v>       0.44208298       0.55791702       0.41809300 </v>
   <v>       0.44208301       0.44208301       0.58190703 </v>
   <v>       0.67173295       0.44576024       0.58308023 </v>
   <v>       0.44576027       0.67173293       0.58308023 </v>
   <v>       0.55791702       0.55791702       0.41809300 </v>
   <v>       0.38416599       0.50000002       0.50000000 </v>
   <v>       0.61583401       0.50000002       0.50000000 </v>
   <v>       0.50000000       0.61749319       0.34021317 </v>
   <v>       0.50000000       0.61749319       0.65978680 </v>
   <v>       0.50000000       0.50000000       0.50000000 </v>
   <v>       0.44208298       0.55791702       0.58190703 </v>
   <v>       0.55791702       0.55791702       0.58190703 </v>
   <v>       0.50000000       0.61583404       0.50000000 </v>
   <v>       0.26650527       0.55154960       0.42821580 </v>
   <v>       0.23133983       0.55931323       0.41740477 </v>
  </varray>
  <varray name="selective"  type="logical" >
   <v type="logical" >  F  F  F </v>
   <v type="logical" >  F  F  F </v>
   <v type="logical" >  F  F  F </v>
   <v type="logical" >  F  F  F </v>
   <v type="logical" >  F  F  F </v>
   <v type="logical" >  F  F  F </v>
   <v type="logical" >  F  F  F </v>
   <v type="logical" >  F  F  F </v>
   <v type="logical" >  F  F  F </v>
   <v type="logical" >  F  F  F </v>
   <v type="logical" >  F  F  F </v>
   <v type="logical" >  F  F  F </v>
   <v type="logical" >  F  F  F </v>
   <v type="logical" >  F  F  F </v>
   <v type="logical" >  F  F  F </v>
   <v type="logical" >  F  F  F </v>
   <v type="logical" >  F  F  F </v>
   <v type="logical" >  F  F  F </v>
   <v type="logical" >  F  F  F </v>
   <v type="logical" >  F  F  F </v>
   <v type="logical" >  F  F  F </v>
   <v type="logical" >  F  F  F </v>
   <v type="logical" >  F  F  F </v>
   <v type="logical" >  F  F  F </v>
   <v type="logical" >  F  F  F </v>
   <v type="logical" >  F  F  F </v>
   <v type="logical" >  F  F  F </v>
   <v type="logical" >  F  F  F </v>
   <v type="logical" >  F  F  F </v>
   <v type="logical" >  F  F  F </v>
   <v type="logical" >  F  F  F </v>
   <v type="logical" >  F  F  F </v>
   <v type="logical" >  F  F  F </v>
   <v type="logical" >  F  F  F </v>
   <v type="logical" >  F  F  F </v>
   <v type="logical" >  F  F  F </v>
   <v type="logical" >  F  F  F </v>
   <v type="logical" >  F  F  F </v>
   <v type="logical" >  F  F  F </v>
   <v type="logical" >  F  F  F </v>
   <v type="logical" >  F  F  F </v>
   <v type="logical" >  F  F  F </v>
   <v type="logical" >  F  F  F </v>
   <v type="logical" >  F  F  F </v>
   <v type="logical" >  F  F  F </v>
   <v type="logical" >  F  F  F </v>
   <v type="logical" >  F  F  F </v>
   <v type="logical" >  F  F  F </v>
   <v type="logical" >  F  F  F </v>
   <v type="logical" >  F  F  F </v>
   <v type="logical" >  F  F  F </v>
   <v type="logical" >  F  F  F </v>
   <v type="logical" >  F  F  F </v>
   <v type="logical" >  F  F  F </v>
   <v type="logical" >  F  F  F </v>
   <v type="logical" >  F  F  F </v>
   <v type="logical" >  F  F  F </v>
  </varray>
  <nose>
   <v>      -3.00000000       0.00000000       0.00010000       0.00010000 </v>
  </nose>
 </structure>
 <calculation>
  <scstep>
   <time name="dav">  368.62  368.68</time>
   <time name="total">  383.02  383.08</time>
   <energy>
    <i name="alphaZ">     75.25431677 </i>
    <i name="ewald"> 138279.22267463 </i>
    <i name="hartreedc">-181637.45531511 </i>
    <i name="XCdc">  -1702.76481145 </i>
    <i name="pawpsdc">  44873.02882129 </i>
    <i name="pawaedc"> -41398.84523641 </i>
    <i name="eentropy">      0.01132861 </i>
    <i name="bandstr">    817.21317910 </i>
    <i name="atom">  45086.50549395 </i>
    <i name="e_fr_energy">   4392.17045138 </i>
    <i name="e_wo_entrp">   4392.15912277 </i>
    <i name="e_0_energy">   4392.16761923 </i>
   </energy>
  </scstep>
  <scstep>
   <time name="dav">  581.06  581.06</time>
   <time name="total">  581.06  581.06</time>
   <energy>
    <i name="e_fr_energy">   2009.53443271 </i>
    <i name="e_wo_entrp">   2009.52587767 </i>
    <i name="e_0_energy">   2009.53229395 </i>
   </energy>
  </scstep>
  <scstep>
   <time name="dav">  499.68  499.67</time>
   <time name="total">  499.68  499.67</time>
   <energy>
    <i name="e_fr_energy">    228.52489051 </i>
    <i name="e_wo_entrp">    228.59606515 </i>
    <i name="e_0_energy">    228.54268417 </i>
   </energy>
  </scstep>
  <scstep>
   <time name="dav">  431.37  431.37</time>
   <time name="total">  431.37  431.37</time>
   <energy>
    <i name="e_fr_energy">   -136.18890184 </i>
    <i name="e_wo_entrp">   -136.17634182 </i>
    <i name="e_0_energy">   -136.18576184 </i>
   </energy>
  </scstep>
  <scstep>
   <time name="dav">  524.09  524.09</time>
   <time name="total">  550.56  550.56</time>
   <energy>
    <i name="e_fr_energy">   -180.38798026 </i>
    <i name="e_wo_entrp">   -180.91243152 </i>
    <i name="e_0_energy">   -180.51909308 </i>
   </energy>
  </scstep>
  <scstep>
   <time name="diag">   68.48   68.48</time>
   <time name="diis">  193.98  193.98</time>
   <time name="orth">   13.84   13.84</time>
   <time name="total">  316.79  316.78</time>
   <energy>
    <i name="e_fr_energy">   -180.50290460 </i>
    <i name="e_wo_entrp">   -180.29088196 </i>
    <i name="e_0_energy">   -180.44989894 </i>
   </energy>
  </scstep>
  <scstep>
   <time name="diag">   69.48   69.48</time>
   <time name="diis">  228.36  228.36</time>
   <time name="orth">   13.49   13.49</time>
   <time name="total">  352.19  352.19</time>
   <energy>
    <i name="e_fr_energy">   -183.30955839 </i>
    <i name="e_wo_entrp">   -183.21326553 </i>
    <i name="e_0_energy">   -183.28548518 </i>
   </energy>
  </scstep>
  <scstep>
   <time name="diag">   69.82   69.82</time>
   <time name="diis">  216.23  216.22</time>
   <time name="orth">   13.68   13.68</time>
   <time name="total">  340.88  340.88</time>
   <energy>
    <i name="e_fr_energy">   -185.24733224 </i>
    <i name="e_wo_entrp">   -185.07871303 </i>
    <i name="e_0_energy">   -185.20517744 </i>
   </energy>
  </scstep>
  <scstep>
   <time name="diag">   70.48   70.48</time>
   <time name="diis">  205.13  205.13</time>
   <time name="orth">   14.24   14.24</time>
   <time name="total">  331.57  331.57</time>
   <energy>
    <i name="e_fr_energy">   -183.19403021 </i>
    <i name="e_wo_entrp">   -183.21069750 </i>
    <i name="e_0_energy">   -183.19819703 </i>
   </energy>
  </scstep>
  <scstep>
   <time name="diag">   70.67   70.67</time>
   <time name="diis">  204.30  204.30</time>
   <time name="orth">   14.18   14.18</time>
   <time name="total">  330.83  330.83</time>
   <energy>
    <i name="e_fr_energy">   -180.77757144 </i>
    <i name="e_wo_entrp">   -180.52205705 </i>
    <i name="e_0_energy">   -180.71369284 </i>
   </energy>
  </scstep>
  <scstep>
   <time name="diag">   71.63   71.63</time>
   <time name="diis">  202.78  202.78</time>
   <time name="orth">   14.05   14.05</time>
   <time name="total">  330.42  330.43</time>
   <energy>
    <i name="e_fr_energy">   -179.10226779 </i>
    <i name="e_wo_entrp">   -178.95380816 </i>
    <i name="e_0_energy">   -179.06515289 </i>
   </energy>
  </scstep>
  <scstep>
   <time name="diag">   72.36   72.36</time>
   <time name="diis">  198.23  198.23</time>
   <time name="orth">   13.95   13.95</time>
   <time name="total">  326.39  326.39</time>
   <energy>
    <i name="e_fr_energy">   -177.86400309 </i>
    <i name="e_wo_entrp">   -177.82281853 </i>
    <i name="e_0_energy">   -177.85370695 </i>
   </energy>
  </scstep>
  <scstep>
   <time name="diag">   72.97   72.97</time>
   <time name="diis">  198.76  198.76</time>
   <time name="orth">   13.98   13.98</time>
   <time name="total">  327.68  327.68</time>
   <energy>
    <i name="e_fr_energy">   -177.58291910 </i>
    <i name="e_wo_entrp">   -177.50676095 </i>
    <i name="e_0_energy">   -177.56387956 </i>
   </energy>
  </scstep>
  <scstep>
   <time name="diag">   73.44   73.44</time>
   <time name="diis">  199.58  199.58</time>
   <time name="orth">   14.00   14.00</time>
   <time name="total">  328.64  328.64</time>
   <energy>
    <i name="e_fr_energy">   -177.84687205 </i>
    <i name="e_wo_entrp">   -177.71173171 </i>
    <i name="e_0_energy">   -177.81308696 </i>
   </energy>
  </scstep>
  <scstep>
   <time name="diag">   72.90   72.90</time>
   <time name="diis">  195.56  195.56</time>
   <time name="orth">   13.97   13.97</time>
   <time name="total">  324.17  324.17</time>
   <energy>
    <i name="e_fr_energy">   -177.25106405 </i>
    <i name="e_wo_entrp">   -177.16235807 </i>
    <i name="e_0_energy">   -177.22888755 </i>
   </energy>
  </scstep>
  <scstep>
   <time name="diag">   73.02   73.02</time>
   <time name="diis">  195.06  195.07</time>
   <time name="orth">   13.91   13.91</time>
   <time name="total">  323.60  323.62</time>
   <energy>
    <i name="e_fr_energy">   -176.48523684 </i>
    <i name="e_wo_entrp">   -176.36373554 </i>
    <i name="e_0_energy">   -176.45486152 </i>
   </energy>
  </scstep>
  <scstep>
   <time name="diag">   72.95   72.95</time>
   <time name="diis">  193.41  193.41</time>
   <time name="orth">   13.90   13.90</time>
   <time name="total">  321.75  321.75</time>
   <energy>
    <i name="e_fr_energy">   -176.27108097 </i>
    <i name="e_wo_entrp">   -176.28246483 </i>
    <i name="e_0_energy">   -176.27392694 </i>
   </energy>
  </scstep>
  <scstep>
   <time name="diag">   72.83   72.83</time>
   <time name="diis">  193.64  193.65</time>
   <time name="orth">   13.94   13.94</time>
   <time name="total">  322.16  322.16</time>
   <energy>
    <i name="e_fr_energy">   -176.00522635 </i>
    <i name="e_wo_entrp">   -175.99904702 </i>
    <i name="e_0_energy">   -176.00368152 </i>
   </energy>
  </scstep>
  <scstep>
   <time name="diag">   72.70   72.70</time>
   <time name="diis">  193.31  193.32</time>
   <time name="orth">   14.11   14.11</time>
   <time name="total">  322.58  322.59</time>
   <energy>
    <i name="e_fr_energy">   -176.03309909 </i>
    <i name="e_wo_entrp">   -176.03186108 </i>
    <i name="e_0_energy">   -176.03278959 </i>
   </energy>
  </scstep>
  <scstep>
   <time name="diag">   72.93   72.93</time>
   <time name="diis">  192.61  192.61</time>
   <time name="orth">   14.21   14.21</time>
   <time name="total">  322.31  322.31</time>
   <energy>
    <i name="e_fr_energy">   -175.84962636 </i>
    <i name="e_wo_entrp">   -175.86158054 </i>
    <i name="e_0_energy">   -175.85261491 </i>
   </energy>
  </scstep>
  <scstep>
   <time name="diag">   72.55   72.55</time>
   <time name="diis">  189.80  189.80</time>
   <time name="orth">   14.29   14.29</time>
   <time name="total">  319.01  319.01</time>
   <energy>
    <i name="e_fr_energy">   -175.63956610 </i>
    <i name="e_wo_entrp">   -175.58838599 </i>
    <i name="e_0_energy">   -175.62677107 </i>
   </energy>
  </scstep>
  <scstep>
   <time name="diag">   71.91   71.91</time>
   <time name="diis">  190.82  190.82</time>
   <time name="orth">   13.99   13.99</time>
   <time name="total">  318.99  318.99</time>
   <energy>
    <i name="e_fr_energy">   -175.59152617 </i>
    <i name="e_wo_entrp">   -175.48754590 </i>
    <i name="e_0_energy">   -175.56553110 </i>
   </energy>
  </scstep>
  <scstep>
   <time name="diag">   71.52   71.52</time>
   <time name="diis">  193.15  193.15</time>
   <time name="orth">   13.99   13.99</time>
   <time name="total">  320.67  320.67</time>
   <energy>
    <i name="e_fr_energy">   -175.54212419 </i>
    <i name="e_wo_entrp">   -175.44132079 </i>
    <i name="e_0_energy">   -175.51692334 </i>
   </energy>
  </scstep>
  <scstep>
   <time name="diag">   72.45   72.45</time>
   <time name="diis">  191.22  191.22</time>
   <time name="orth">   14.09   14.09</time>
   <time name="total">  320.16  320.16</time>
   <energy>
    <i name="e_fr_energy">   -175.49670956 </i>
    <i name="e_wo_entrp">   -175.40175167 </i>
    <i name="e_0_energy">   -175.47297009 </i>
   </energy>
  </scstep>
  <scstep>
   <time name="diag">   72.59   72.59</time>
   <time name="diis">  189.97  189.97</time>
   <time name="orth">   14.13   14.13</time>
   <time name="total">  319.67  319.67</time>
   <energy>
    <i name="e_fr_energy">   -175.39708239 </i>
    <i name="e_wo_entrp">   -175.29128486 </i>
    <i name="e_0_energy">   -175.37063301 </i>
   </energy>
  </scstep>
  <scstep>
   <time name="diag">   71.99   71.99</time>
   <time name="diis">  190.04  190.04</time>
   <time name="orth">   14.10   14.10</time>
   <time name="total">  318.90  318.90</time>
   <energy>
    <i name="e_fr_energy">   -175.32372451 </i>
    <i name="e_wo_entrp">   -175.24001946 </i>
    <i name="e_0_energy">   -175.30279825 </i>
   </energy>
  </scstep>
  <scstep>
   <time name="diag">   71.63   71.63</time>
   <time name="diis">  190.69  190.69</time>
   <time name="orth">   13.89   13.89</time>
   <time name="total">  318.60  318.60</time>
   <energy>
    <i name="e_fr_energy">   -175.34483883 </i>
    <i name="e_wo_entrp">   -175.26706207 </i>
    <i name="e_0_energy">   -175.32539464 </i>
   </energy>
  </scstep>
  <scstep>
   <time name="diag">   72.12   72.12</time>
   <time name="diis">  189.46  189.46</time>
   <time name="orth">   14.12   14.12</time>
   <time name="total">  318.51  318.51</time>
   <energy>
    <i name="e_fr_energy">   -175.32053625 </i>
    <i name="e_wo_entrp">   -175.24032952 </i>
    <i name="e_0_energy">   -175.30048456 </i>
   </energy>
  </scstep>
  <scstep>
   <time name="diag">   72.29   72.29</time>
   <time name="diis">  188.37  188.37</time>
   <time name="orth">   13.91   13.91</time>
   <time name="total">  317.67  317.67</time>
   <energy>
    <i name="e_fr_energy">   -175.29420039 </i>
    <i name="e_wo_entrp">   -175.20708710 </i>
    <i name="e_0_energy">   -175.27242207 </i>
   </energy>
  </scstep>
  <scstep>
   <time name="diag">   71.61   71.61</time>
   <time name="diis">  189.92  189.92</time>
   <time name="orth">   13.92   13.92</time>
   <time name="total">  317.76  317.76</time>
   <energy>
    <i name="e_fr_energy">   -175.29637103 </i>
    <i name="e_wo_entrp">   -175.21246630 </i>
    <i name="e_0_energy">   -175.27539485 </i>
   </energy>
  </scstep>
  <scstep>
   <time name="diag">   71.91   71.91</time>
   <time name="diis">  188.66  188.66</time>
   <time name="orth">   14.14   14.14</time>
   <time name="total">  318.03  318.03</time>
   <energy>
    <i name="e_fr_energy">   -175.28718290 </i>
    <i name="e_wo_entrp">   -175.19851877 </i>
    <i name="e_0_energy">   -175.26501687 </i>
   </energy>
  </scstep>
  <scstep>
   <time name="diag">   72.05   72.05</time>
   <time name="diis">  189.39  189.39</time>
   <time name="orth">   13.89   13.89</time>
   <time name="total">  318.36  318.36</time>
   <energy>
    <i name="e_fr_energy">   -175.28108897 </i>
    <i name="e_wo_entrp">   -175.19198083 </i>
    <i name="e_0_energy">   -175.25881193 </i>
   </energy>
  </scstep>
  <scstep>
   <time name="diag">   71.63   71.63</time>
   <time name="diis">  188.12  188.12</time>
   <time name="orth">   14.03   14.03</time>
   <time name="total">  316.89  316.89</time>
   <energy>
    <i name="e_fr_energy">   -175.28000380 </i>
    <i name="e_wo_entrp">   -175.18579695 </i>
    <i name="e_0_energy">   -175.25645209 </i>
   </energy>
  </scstep>
  <scstep>
   <time name="diag">   72.14   72.14</time>
   <time name="diis">  186.59  186.59</time>
   <time name="orth">   14.03   14.03</time>
   <time name="total">  316.15  316.14</time>
   <energy>
    <i name="e_fr_energy">   -175.28048397 </i>
    <i name="e_wo_entrp">   -175.18899483 </i>
    <i name="e_0_energy">   -175.25761169 </i>
   </energy>
  </scstep>
  <scstep>
   <time name="diag">   71.47   71.47</time>
   <time name="diis">  179.85  179.85</time>
   <time name="orth">   13.60   13.60</time>
   <time name="total">  306.99  306.99</time>
   <energy>
    <i name="e_fr_energy">   -175.27938688 </i>
    <i name="e_wo_entrp">   -175.18734787 </i>
    <i name="e_0_energy">   -175.25637713 </i>
   </energy>
  </scstep>
  <scstep>
   <time name="diag">   69.18   69.18</time>
   <time name="diis">  178.43  178.43</time>
   <time name="orth">   13.53   13.53</time>
   <time name="total">  302.89  302.89</time>
   <energy>
    <i name="e_fr_energy">   -175.28018758 </i>
    <i name="e_wo_entrp">   -175.19027022 </i>
    <i name="e_0_energy">   -175.25770824 </i>
   </energy>
  </scstep>
  <scstep>
   <time name="diag">   69.58   69.58</time>
   <time name="diis">  178.44  178.44</time>
   <time name="orth">   13.55   13.55</time>
   <time name="total">  303.32  303.33</time>
   <energy>
    <i name="e_fr_energy">   -175.28221535 </i>
    <i name="e_wo_entrp">   -175.19039824 </i>
    <i name="e_0_energy">   -175.25926107 </i>
   </energy>
  </scstep>
  <scstep>
   <time name="diag">   69.54   69.54</time>
   <time name="diis">  175.12  175.13</time>
   <time name="orth">   13.55   13.55</time>
   <time name="total">  300.14  300.15</time>
   <energy>
    <i name="e_fr_energy">   -175.28368682 </i>
    <i name="e_wo_entrp">   -175.19019017 </i>
    <i name="e_0_energy">   -175.26031266 </i>
   </energy>
  </scstep>
  <scstep>
   <time name="diag">   69.05   69.06</time>
   <time name="diis">  167.51  167.51</time>
   <time name="orth">   13.47   13.47</time>
   <time name="total">  292.04  292.05</time>
   <energy>
    <i name="e_fr_energy">   -175.28579169 </i>
    <i name="e_wo_entrp">   -175.19292594 </i>
    <i name="e_0_energy">   -175.26257525 </i>
   </energy>
  </scstep>
  <scstep>
   <time name="diag">   68.76   68.76</time>
   <time name="diis">  173.63  173.62</time>
   <time name="orth">   13.38   13.38</time>
   <time name="total">  298.11  298.11</time>
   <energy>
    <i name="e_fr_energy">   -175.28919922 </i>
    <i name="e_wo_entrp">   -175.19757229 </i>
    <i name="e_0_energy">   -175.26629249 </i>
   </energy>
  </scstep>
  <scstep>
   <time name="diag">   69.35   69.35</time>
   <time name="diis">  145.62  145.62</time>
   <time name="orth">   13.35   13.35</time>
   <time name="total">  270.14  270.15</time>
   <energy>
    <i name="e_fr_energy">   -175.29148445 </i>
    <i name="e_wo_entrp">   -175.19863467 </i>
    <i name="e_0_energy">   -175.26827201 </i>
   </energy>
  </scstep>
  <scstep>
   <time name="diag">   68.82   68.82</time>
   <time name="diis">  127.79  127.79</time>
   <time name="orth">   13.07   13.07</time>
   <time name="total">  250.97  250.97</time>
   <energy>
    <i name="e_fr_energy">   -175.29349169 </i>
    <i name="e_wo_entrp">   -175.20049869 </i>
    <i name="e_0_energy">   -175.27024344 </i>
   </energy>
  </scstep>
  <scstep>
   <time name="diag">   68.42   68.42</time>
   <time name="diis">  136.05  136.05</time>
   <time name="orth">   13.20   13.20</time>
   <time name="total">  258.64  258.64</time>
   <energy>
    <i name="e_fr_energy">   -175.29610416 </i>
    <i name="e_wo_entrp">   -175.20385382 </i>
    <i name="e_0_energy">   -175.27304157 </i>
   </energy>
  </scstep>
  <scstep>
   <time name="diag">   68.22   68.23</time>
   <time name="diis">  120.02  120.02</time>
   <time name="orth">   13.23   13.23</time>
   <time name="total">  243.10  243.10</time>
   <energy>
    <i name="e_fr_energy">   -175.29766853 </i>
    <i name="e_wo_entrp">   -175.20514174 </i>
    <i name="e_0_energy">   -175.27453684 </i>
   </energy>
  </scstep>
  <scstep>
   <time name="diag">   67.25   67.25</time>
   <time name="diis">  119.06  119.05</time>
   <time name="orth">   13.29   13.29</time>
   <time name="total">  241.28  241.28</time>
   <energy>
    <i name="e_fr_energy">   -175.29935853 </i>
    <i name="e_wo_entrp">   -175.20707932 </i>
    <i name="e_0_energy">   -175.27628873 </i>
   </energy>
  </scstep>
  <scstep>
   <time name="diag">   67.19   67.19</time>
   <time name="diis">  116.08  116.08</time>
   <time name="orth">   13.70   13.70</time>
   <time name="total">  238.89  238.89</time>
   <energy>
    <i name="e_fr_energy">   -175.30051717 </i>
    <i name="e_wo_entrp">   -175.20847263 </i>
    <i name="e_0_energy">   -175.27750604 </i>
   </energy>
  </scstep>
  <scstep>
   <time name="diag">   66.98   66.98</time>
   <time name="diis">  115.71  115.71</time>
   <time name="orth">   13.32   13.32</time>
   <time name="total">  238.24  238.24</time>
   <energy>
    <i name="e_fr_energy">   -175.30156897 </i>
    <i name="e_wo_entrp">   -175.20917221 </i>
    <i name="e_0_energy">   -175.27846978 </i>
   </energy>
  </scstep>
  <scstep>
   <time name="diag">   66.90   66.90</time>
   <time name="diis">  115.19  115.19</time>
   <time name="orth">   13.25   13.25</time>
   <time name="total">  237.68  237.68</time>
   <energy>
    <i name="e_fr_energy">   -175.30266151 </i>
    <i name="e_wo_entrp">   -175.21028942 </i>
    <i name="e_0_energy">   -175.27956849 </i>
   </energy>
  </scstep>
  <scstep>
   <time name="diag">   66.57   66.57</time>
   <time name="diis">  115.54  115.53</time>
   <time name="orth">   13.20   13.20</time>
   <time name="total">  238.00  238.00</time>
   <energy>
    <i name="e_fr_energy">   -175.30336791 </i>
    <i name="e_wo_entrp">   -175.21115333 </i>
    <i name="e_0_energy">   -175.28031426 </i>
   </energy>
  </scstep>
  <scstep>
   <time name="diag">   66.55   66.55</time>
   <time name="diis">  116.45  116.45</time>
   <time name="orth">   13.23   13.23</time>
   <time name="total">  238.64  238.64</time>
   <energy>
    <i name="e_fr_energy">   -175.30427807 </i>
    <i name="e_wo_entrp">   -175.21223532 </i>
    <i name="e_0_energy">   -175.28126738 </i>
   </energy>
  </scstep>
  <scstep>
   <time name="diag">   66.81   66.81</time>
   <time name="diis">  112.61  112.61</time>
   <time name="orth">   13.11   13.11</time>
   <time name="total">  235.12  235.12</time>
   <energy>
    <i name="e_fr_energy">   -175.30485266 </i>
    <i name="e_wo_entrp">   -175.21275847 </i>
    <i name="e_0_energy">   -175.28182912 </i>
   </energy>
  </scstep>
  <scstep>
   <time name="diag">   66.96   66.96</time>
   <time name="diis">  101.81  101.81</time>
   <time name="orth">   13.14   13.14</time>
   <time name="total">  224.71  224.71</time>
   <energy>
    <i name="e_fr_energy">   -175.30520051 </i>
    <i name="e_wo_entrp">   -175.21318053 </i>
    <i name="e_0_energy">   -175.28219552 </i>
   </energy>
  </scstep>
  <scstep>
   <time name="diag">   66.84   66.84</time>
   <time name="diis">  102.12  102.12</time>
   <time name="orth">   13.57   13.57</time>
   <time name="total">  224.91  224.91</time>
   <energy>
    <i name="e_fr_energy">   -175.30581477 </i>
    <i name="e_wo_entrp">   -175.21380071 </i>
    <i name="e_0_energy">   -175.28281126 </i>
   </energy>
  </scstep>
  <scstep>
   <time name="diag">   66.69   66.69</time>
   <time name="diis">   85.02   85.02</time>
   <time name="orth">   13.44   13.44</time>
   <time name="total">  209.34  209.34</time>
   <energy>
    <i name="e_fr_energy">   -175.30607932 </i>
    <i name="e_wo_entrp">   -175.21408263 </i>
    <i name="e_0_energy">   -175.28308015 </i>
   </energy>
  </scstep>
  <scstep>
   <time name="diag">   67.22   67.22</time>
   <time name="diis">  100.40  100.40</time>
   <time name="orth">   13.35   13.35</time>
   <time name="total">  224.83  224.82</time>
   <energy>
    <i name="e_fr_energy">   -175.30670444 </i>
    <i name="e_wo_entrp">   -175.21460109 </i>
    <i name="e_0_energy">   -175.28367860 </i>
   </energy>
  </scstep>
  <scstep>
   <time name="diag">   67.29   67.29</time>
   <time name="diis">   79.71   79.71</time>
   <time name="orth">   13.41   13.41</time>
   <time name="total">  203.31  203.31</time>
   <energy>
    <i name="e_fr_energy">   -175.30694333 </i>
    <i name="e_wo_entrp">   -175.21493004 </i>
    <i name="e_0_energy">   -175.28394001 </i>
   </energy>
  </scstep>
  <scstep>
   <time name="diag">   67.88   67.88</time>
   <time name="diis">   90.03   90.03</time>
   <time name="orth">   13.29   13.29</time>
   <time name="total">  214.49  214.49</time>
   <energy>
    <i name="e_fr_energy">   -175.30717412 </i>
    <i name="e_wo_entrp">   -175.21509157 </i>
    <i name="e_0_energy">   -175.28415348 </i>
   </energy>
  </scstep>
  <scstep>
   <time name="diag">   67.76   67.76</time>
   <time name="diis">   81.23   81.23</time>
   <time name="orth">   13.17   13.17</time>
   <time name="total">  205.36  205.37</time>
   <energy>
    <i name="e_fr_energy">   -175.30735547 </i>
    <i name="e_wo_entrp">   -175.21527192 </i>
    <i name="e_0_energy">   -175.28433458 </i>
   </energy>
  </scstep>
  <scstep>
   <time name="diag">   67.82   67.82</time>
   <time name="diis">   82.60   82.59</time>
   <time name="orth">   13.04   13.04</time>
   <time name="total">  206.42  206.42</time>
   <energy>
    <i name="e_fr_energy">   -175.30749961 </i>
    <i name="e_wo_entrp">   -175.21539348 </i>
    <i name="e_0_energy">   -175.28447308 </i>
   </energy>
  </scstep>
  <scstep>
   <time name="diag">   67.60   67.60</time>
   <time name="diis">   81.02   81.02</time>
   <time name="orth">   12.95   12.95</time>
   <time name="total">  204.23  204.24</time>
   <energy>
    <i name="e_fr_energy">   -175.30759992 </i>
    <i name="e_wo_entrp">   -175.21556546 </i>
    <i name="e_0_energy">   -175.28459130 </i>
   </energy>
  </scstep>
  <scstep>
   <time name="diag">   67.65   67.65</time>
   <time name="diis">   75.22   75.22</time>
   <time name="orth">   13.02   13.02</time>
   <time name="total">  169.74  169.74</time>
   <energy>
    <i name="alphaZ">     75.25431677 </i>
    <i name="ewald"> 138279.22267463 </i>
    <i name="hartreedc">-182629.10719131 </i>
    <i name="XCdc">  -1692.09676856 </i>
    <i name="pawpsdc">  46210.36552189 </i>
    <i name="pawaedc"> -42681.60373452 </i>
    <i name="eentropy">     -0.09211053 </i>
    <i name="bandstr">  -2823.75587891 </i>
    <i name="atom">  45086.50549395 </i>
    <i name="e_fr_energy">   -175.30767659 </i>
    <i name="e_wo_entrp">   -175.21556606 </i>
    <i name="e_0_energy">   -175.28464895 </i>
   </energy>
  </scstep>
  <structure>
   <crystal>
    <varray name="basis" >
     <v>      30.00000000       0.00000000       0.00000000 </v>
     <v>       0.00000000      30.00000000       0.00000000 </v>
     <v>       0.00000000       0.00000000      30.00000000 </v>
    </varray>
    <i name="volume">  27000.00000000 </i>
    <varray name="rec_basis" >
     <v>       0.03333333       0.00000000       0.00000000 </v>
     <v>       0.00000000       0.03333333       0.00000000 </v>
     <v>       0.00000000       0.00000000       0.03333333 </v>
    </varray>
   </crystal>
   <varray name="positions" >
    <v>       0.44576020       0.32826710       0.41691983 </v>
    <v>       0.67173288       0.55423978       0.41691983 </v>
    <v>       0.55423980       0.32826710       0.41691983 </v>
    <v>       0.32826712       0.55423978       0.41691983 </v>
    <v>       0.50000000       0.38250690       0.34021317 </v>
    <v>       0.50000000       0.38250690       0.65978680 </v>
    <v>       0.50000000       0.27609440       0.50000000 </v>
    <v>       0.27609443       0.49999998       0.50000000 </v>
    <v>       0.72390557       0.49999998       0.50000000 </v>
    <v>       0.50000000       0.72390555       0.50000000 </v>
    <v>       0.61195280       0.38804720       0.34167483 </v>
    <v>       0.61195280       0.38804720       0.65832513 </v>
    <v>       0.38804722       0.61195278       0.34167483 </v>
    <v>       0.38804722       0.61195278       0.65832513 </v>
    <v>       0.38804720       0.38804720       0.34167483 </v>
    <v>       0.38804720       0.38804720       0.65832513 </v>
    <v>       0.61195278       0.61195278       0.34167483 </v>
    <v>       0.61195278       0.61195278       0.65832513 </v>
    <v>       0.44576020       0.32826710       0.58308023 </v>
    <v>       0.67173288       0.55423978       0.58308023 </v>
    <v>       0.55791699       0.44208301       0.41809300 </v>
    <v>       0.32826705       0.44576024       0.41691983 </v>
    <v>       0.55423973       0.67173293       0.41691983 </v>
    <v>       0.55423980       0.32826710       0.58308023 </v>
    <v>       0.32826712       0.55423978       0.58308023 </v>
    <v>       0.67173295       0.44576024       0.41691983 </v>
    <v>       0.44576027       0.67173293       0.41691983 </v>
    <v>       0.44208301       0.44208301       0.41809300 </v>
    <v>       0.50000000       0.38416601       0.50000000 </v>
    <v>       0.61749315       0.50000005       0.34021317 </v>
    <v>       0.61749315       0.50000005       0.65978680 </v>
    <v>       0.38250685       0.50000005       0.34021317 </v>
    <v>       0.38250685       0.50000005       0.65978680 </v>
    <v>       0.38317830       0.38317830       0.50000000 </v>
    <v>       0.61682172       0.61682172       0.50000000 </v>
    <v>       0.61682170       0.38317830       0.50000000 </v>
    <v>       0.38317828       0.61682172       0.50000000 </v>
    <v>       0.50000000       0.50000000       0.33478917 </v>
    <v>       0.50000000       0.50000000       0.66521087 </v>
    <v>       0.32826705       0.44576024       0.58308023 </v>
    <v>       0.55423973       0.67173293       0.58308023 </v>
    <v>       0.55791699       0.44208301       0.58190703 </v>
    <v>       0.44208298       0.55791702       0.41809300 </v>
    <v>       0.44208301       0.44208301       0.58190703 </v>
    <v>       0.67173295       0.44576024       0.58308023 </v>
    <v>       0.44576027       0.67173293       0.58308023 </v>
    <v>       0.55791702       0.55791702       0.41809300 </v>
    <v>       0.38416599       0.50000002       0.50000000 </v>
    <v>       0.61583401       0.50000002       0.50000000 </v>
    <v>       0.50000000       0.61749319       0.34021317 </v>
    <v>       0.50000000       0.61749319       0.65978680 </v>
    <v>       0.50000000       0.50000000       0.50000000 </v>
    <v>       0.44208298       0.55791702       0.58190703 </v>
    <v>       0.55791702       0.55791702       0.58190703 </v>
    <v>       0.50000000       0.61583404       0.50000000 </v>
    <v>       0.26650527       0.55154960       0.42821580 </v>
    <v>       0.23133983       0.55931323       0.41740477 </v>
   </varray>
  </structure>
  <varray name="forces" >
   <v>       0.70354929       1.10803041       0.29125453 </v>
   <v>      -1.11706288      -0.69471991       0.28219873 </v>
   <v>      -0.70117378       1.10852287       0.29360094 </v>
   <v>       0.84742091      -0.71185913       0.34748742 </v>
   <v>       0.00199309       0.41522961       1.28049520 </v>
   <v>       0.00138982       0.40592318      -1.28475395 </v>
   <v>       0.00044697       1.51956306       0.00560709 </v>
   <v>       1.35935628       0.41193808      -0.57038802 </v>
   <v>      -1.51216921       0.00340710      -0.00347890 </v>
   <v>       0.00100467      -1.51807673       0.00184312 </v>
   <v>      -0.75449872       0.75801853       1.07254914 </v>
   <v>      -0.76162399       0.75453855      -1.07193178 </v>
   <v>       0.77115136      -0.76671766       1.07992337 </v>
   <v>       0.75834809      -0.75977960      -1.07248123 </v>
   <v>       0.73254736       0.76469826       1.10525458 </v>
   <v>       0.77053229       0.73648084      -1.06336870 </v>
   <v>      -0.74924855      -0.76250026       1.07746504 </v>
   <v>      -0.75915261      -0.75173224      -1.07078934 </v>
   <v>       0.71186775       1.11063075      -0.28827370 </v>
   <v>      -1.11209177      -0.70139007      -0.28927058 </v>
   <v>       0.12125746      -0.11119914      -0.15166027 </v>
   <v>       1.14507387       0.59294528       0.20681300 </v>
   <v>      -0.70591781      -1.10698709       0.29432272 </v>
   <v>      -0.70971820       1.10388844      -0.29095411 </v>
   <v>       1.13526716      -0.70799091      -0.21988733 </v>
   <v>      -1.11803915       0.69771747       0.28169137 </v>
   <v>       0.71399085      -1.11164550       0.29196067 </v>
   <v>      -0.10984817      -0.10115334      -0.15872687 </v>
   <v>      -0.00295304      -0.23006032       0.00186314 </v>
   <v>      -0.39967929       0.00247460       1.28238186 </v>
   <v>      -0.40966950      -0.00032148      -1.27793262 </v>
   <v>       0.50786238      -0.00931065       1.23858768 </v>
   <v>       0.38836871       0.00764283      -1.29787065 </v>
   <v>       0.83986997       0.81643609      -0.00015655 </v>
   <v>      -0.82731716      -0.82643327       0.00139143 </v>
   <v>      -0.83079338       0.82564296      -0.00264953 </v>
   <v>       0.87657394      -0.78052639       0.03946071 </v>
   <v>      -0.02421295       0.00039862       1.17851617 </v>
   <v>       0.00682876       0.00149046      -1.17864556 </v>
   <v>       1.13098774       0.69280301      -0.21670032 </v>
   <v>      -0.70519134      -1.10842211      -0.28998360 </v>
   <v>       0.10910922      -0.11267518       0.15465169 </v>
   <v>      -0.14576132       0.10816320      -0.16089109 </v>
   <v>      -0.10600179      -0.11429878       0.15324441 </v>
   <v>      -1.11031619       0.70429576      -0.28420190 </v>
   <v>       0.71547266      -1.10750063      -0.28779881 </v>
   <v>       0.15255552       0.11187407      -0.16689708 </v>
   <v>      -0.12131865      -0.03595686       0.07360811 </v>
   <v>       0.22617342      -0.00042341       0.00450815 </v>
   <v>      -0.00484047      -0.41515135       1.27747486 </v>
   <v>       0.00580727      -0.40659012      -1.28457640 </v>
   <v>      -0.02006675      -0.00336927      -0.00812141 </v>
   <v>      -0.11191271       0.10564810       0.16158936 </v>
   <v>       0.11098808       0.11360633       0.14652345 </v>
   <v>      -0.00441401       0.23043509      -0.00374128 </v>
   <v>       5.12322604      -1.28702301       1.70534308 </v>
   <v>      -5.03402756       1.03137089      -1.33547948 </v>
  </varray>
  <varray name="stress" >
   <v>      -6.41551022      -0.07257203       0.10390007 </v>
   <v>      -0.07257200      -6.74671850       0.02636971 </v>
   <v>       0.10390009       0.02636970      -6.75640036 </v>
  </varray>
  <energy>
   <i name="e_fr_energy">   -175.30767659 </i>
   <i name="e_wo_entrp">   -175.28464895 </i>
   <i name="e_0_energy">     -0.09211053 </i>
  </energy>
  <time name="totalsc">18752.4518752.57</time>
  <eigenvalues>
   <array>
    <dimension dim="1">band</dimension>
    <dimension dim="2">kpoint</dimension>
    <dimension dim="3">spin</dimension>
    <field>eigene</field>
    <field>occ</field>
    <set>
     <set comment="spin 1">
      <set comment="kpoint 1">
       <r>  -28.3670    1.0000 </r>
       <r>  -13.3748    1.0000 </r>
       <r>  -11.1301    1.0000 </r>
       <r>  -10.8751    1.0000 </r>
       <r>  -10.6124    1.0000 </r>
       <r>   -6.6636    1.0000 </r>
       <r>   -6.3980    1.0000 </r>
       <r>   -6.2869    1.0000 </r>
       <r>   -6.1639    1.0000 </r>
       <r>   -6.1391    1.0000 </r>
       <r>   -6.1360    1.0000 </r>
       <r>   -5.8880    1.0000 </r>
       <r>   -5.8266    1.0000 </r>
       <r>   -5.8226    1.0000 </r>
       <r>   -5.7694    1.0000 </r>
       <r>   -5.7378    1.0000 </r>
       <r>   -5.7045    1.0000 </r>
       <r>   -5.7003    1.0000 </r>
       <r>   -5.6958    1.0000 </r>
       <r>   -5.6856    1.0000 </r>
       <r>   -5.6684    1.0000 </r>
       <r>   -5.6615    1.0000 </r>
       <r>   -5.6349    1.0000 </r>
       <r>   -5.6123    1.0000 </r>
       <r>   -5.6061    1.0000 </r>
       <r>   -5.5978    1.0000 </r>
       <r>   -5.5912    1.0000 </r>
       <r>   -5.5824    1.0000 </r>
       <r>   -5.5609    1.0000 </r>
       <r>   -5.5592    1.0000 </r>
       <r>   -5.5461    1.0000 </r>
       <r>   -5.5347    1.0000 </r>
       <r>   -5.5325    1.0000 </r>
       <r>   -5.5303    1.0000 </r>
       <r>   -5.5253    1.0000 </r>
       <r>   -5.5227    1.0000 </r>
       <r>   -5.5212    1.0000 </r>
       <r>   -5.5154    1.0000 </r>
       <r>   -5.5047    1.0000 </r>
       <r>   -5.4939    1.0000 </r>
       <r>   -5.4860    1.0000 </r>
       <r>   -5.4837    1.0000 </r>
       <r>   -5.4812    1.0000 </r>
       <r>   -5.4786    1.0000 </r>
       <r>   -5.4754    1.0000 </r>
       <r>   -5.4658    1.0000 </r>
       <r>   -5.4538    1.0000 </r>
       <r>   -5.4440    1.0000 </r>
       <r>   -5.4404    1.0000 </r>
       <r>   -5.4374    1.0000 </r>
       <r>   -5.4357    1.0000 </r>
       <r>   -5.4325    1.0000 </r>
       <r>   -5.4184    1.0000 </r>
       <r>   -5.4173    1.0000 </r>
       <r>   -5.4123    1.0000 </r>
       <r>   -5.4059    1.0000 </r>
       <r>   -5.3930    1.0000 </r>
       <r>   -5.3730    1.0000 </r>
       <r>   -5.3626    1.0000 </r>
       <r>   -5.3415    1.0000 </r>
       <r>   -5.3381    1.0000 </r>
       <r>   -5.3317    1.0000 </r>
       <r>   -5.3291    1.0000 </r>
       <r>   -5.3255    1.0000 </r>
       <r>   -5.3143    1.0000 </r>
       <r>   -5.3117    1.0000 </r>
       <r>   -5.3056    1.0000 </r>
       <r>   -5.3012    1.0000 </r>
       <r>   -5.2743    1.0000 </r>
       <r>   -5.2706    1.0000 </r>
       <r>   -5.2220    1.0000 </r>
       <r>   -5.2210    1.0000 </r>
       <r>   -5.2135    1.0000 </r>
       <r>   -5.2079    1.0000 </r>
       <r>   -5.2020    1.0000 </r>
       <r>   -5.1929    1.0000 </r>
       <r>   -5.1916    1.0000 </r>
       <r>   -5.1817    1.0000 </r>
       <r>   -5.1780    1.0000 </r>
       <r>   -5.1766    1.0000 </r>
       <r>   -5.1739    1.0000 </r>
       <r>   -5.1611    1.0000 </r>
       <r>   -5.1527    1.0000 </r>
       <r>   -5.1439    1.0000 </r>
       <r>   -5.1368    1.0000 </r>
       <r>   -5.1257    1.0000 </r>
       <r>   -5.1205    1.0000 </r>
       <r>   -5.1162    1.0000 </r>
       <r>   -5.1054    1.0000 </r>
       <r>   -5.0841    1.0000 </r>
       <r>   -5.0827    1.0000 </r>
       <r>   -5.0698    1.0000 </r>
       <r>   -5.0673    1.0000 </r>
       <r>   -5.0646    1.0000 </r>
       <r>   -5.0637    1.0000 </r>
       <r>   -5.0582    1.0000 </r>
       <r>   -5.0539    1.0000 </r>
       <r>   -5.0513    1.0000 </r>
       <r>   -5.0425    1.0000 </r>
       <r>   -5.0401    1.0000 </r>
       <r>   -5.0360    1.0000 </r>
       <r>   -5.0299    1.0000 </r>
       <r>   -5.0236    1.0000 </r>
       <r>   -5.0171    1.0000 </r>
       <r>   -5.0160    1.0000 </r>
       <r>   -5.0111    1.0000 </r>
       <r>   -5.0100    1.0000 </r>
       <r>   -5.0026    1.0000 </r>
       <r>   -5.0001    1.0000 </r>
       <r>   -4.9898    1.0000 </r>
       <r>   -4.9884    1.0000 </r>
       <r>   -4.9843    1.0000 </r>
       <r>   -4.9754    1.0000 </r>
       <r>   -4.9726    1.0000 </r>
       <r>   -4.9683    1.0000 </r>
       <r>   -4.9678    1.0000 </r>
       <r>   -4.9606    1.0000 </r>
       <r>   -4.9488    1.0000 </r>
       <r>   -4.9433    1.0000 </r>
       <r>   -4.9403    1.0000 </r>
       <r>   -4.9310    1.0000 </r>
       <r>   -4.9221    1.0000 </r>
       <r>   -4.9185    1.0000 </r>
       <r>   -4.9146    1.0000 </r>
       <r>   -4.9136    1.0000 </r>
       <r>   -4.9102    1.0000 </r>
       <r>   -4.8885    1.0000 </r>
       <r>   -4.8796    1.0000 </r>
       <r>   -4.8704    1.0000 </r>
       <r>   -4.8621    1.0000 </r>
       <r>   -4.8529    1.0000 </r>
       <r>   -4.8515    1.0000 </r>
       <r>   -4.8484    1.0000 </r>
       <r>   -4.8465    1.0000 </r>
       <r>   -4.8414    1.0000 </r>
       <r>   -4.8276    0.9999 </r>
       <r>   -4.8174    0.9999 </r>
       <r>   -4.8078    0.9999 </r>
       <r>   -4.8043    0.9999 </r>
       <r>   -4.7992    0.9999 </r>
       <r>   -4.7889    0.9999 </r>
       <r>   -4.7792    0.9998 </r>
       <r>   -4.7747    0.9998 </r>
       <r>   -4.7678    0.9997 </r>
       <r>   -4.7512    0.9996 </r>
       <r>   -4.7492    0.9996 </r>
       <r>   -4.7427    0.9996 </r>
       <r>   -4.7396    0.9995 </r>
       <r>   -4.7330    0.9995 </r>
       <r>   -4.7216    0.9993 </r>
       <r>   -4.7152    0.9992 </r>
       <r>   -4.7101    0.9991 </r>
       <r>   -4.7005    0.9990 </r>
       <r>   -4.6955    0.9988 </r>
       <r>   -4.6934    0.9988 </r>
       <r>   -4.6879    0.9987 </r>
       <r>   -4.6859    0.9986 </r>
       <r>   -4.6843    0.9986 </r>
       <r>   -4.6824    0.9985 </r>
       <r>   -4.6769    0.9984 </r>
       <r>   -4.6741    0.9983 </r>
       <r>   -4.6650    0.9981 </r>
       <r>   -4.6607    0.9979 </r>
       <r>   -4.6584    0.9979 </r>
       <r>   -4.6573    0.9978 </r>
       <r>   -4.6566    0.9978 </r>
       <r>   -4.6558    0.9978 </r>
       <r>   -4.6519    0.9976 </r>
       <r>   -4.6465    0.9975 </r>
       <r>   -4.6405    0.9972 </r>
       <r>   -4.6323    0.9969 </r>
       <r>   -4.6246    0.9967 </r>
       <r>   -4.6221    0.9966 </r>
       <r>   -4.6126    0.9962 </r>
       <r>   -4.6097    0.9961 </r>
       <r>   -4.6069    0.9960 </r>
       <r>   -4.6054    0.9960 </r>
       <r>   -4.6007    0.9958 </r>
       <r>   -4.6004    0.9958 </r>
       <r>   -4.5907    0.9955 </r>
       <r>   -4.5880    0.9954 </r>
       <r>   -4.5806    0.9952 </r>
       <r>   -4.5784    0.9952 </r>
       <r>   -4.5747    0.9951 </r>
       <r>   -4.5699    0.9951 </r>
       <r>   -4.5680    0.9951 </r>
       <r>   -4.5663    0.9951 </r>
       <r>   -4.5593    0.9951 </r>
       <r>   -4.5584    0.9951 </r>
       <r>   -4.5547    0.9951 </r>
       <r>   -4.5471    0.9953 </r>
       <r>   -4.5312    0.9961 </r>
       <r>   -4.5213    0.9970 </r>
       <r>   -4.5201    0.9972 </r>
       <r>   -4.5170    0.9975 </r>
       <r>   -4.5108    0.9983 </r>
       <r>   -4.5076    0.9988 </r>
       <r>   -4.5046    0.9993 </r>
       <r>   -4.4987    1.0003 </r>
       <r>   -4.4957    1.0009 </r>
       <r>   -4.4862    1.0030 </r>
       <r>   -4.4788    1.0050 </r>
       <r>   -4.4739    1.0064 </r>
       <r>   -4.4718    1.0071 </r>
       <r>   -4.4698    1.0077 </r>
       <r>   -4.4616    1.0105 </r>
       <r>   -4.4591    1.0114 </r>
       <r>   -4.4564    1.0124 </r>
       <r>   -4.4555    1.0127 </r>
       <r>   -4.4481    1.0157 </r>
       <r>   -4.4400    1.0191 </r>
       <r>   -4.4371    1.0204 </r>
       <r>   -4.4341    1.0218 </r>
       <r>   -4.4293    1.0240 </r>
       <r>   -4.4209    1.0280 </r>
       <r>   -4.4182    1.0293 </r>
       <r>   -4.4177    1.0295 </r>
       <r>   -4.4154    1.0306 </r>
       <r>   -4.4132    1.0317 </r>
       <r>   -4.4027    1.0367 </r>
       <r>   -4.3917    1.0416 </r>
       <r>   -4.3792    1.0464 </r>
       <r>   -4.3766    1.0473 </r>
       <r>   -4.3726    1.0485 </r>
       <r>   -4.3685    1.0496 </r>
       <r>   -4.3607    1.0510 </r>
       <r>   -4.3489    1.0515 </r>
       <r>   -4.3474    1.0514 </r>
       <r>   -4.3452    1.0512 </r>
       <r>   -4.3450    1.0512 </r>
       <r>   -4.3435    1.0510 </r>
       <r>   -4.3431    1.0509 </r>
       <r>   -4.3390    1.0500 </r>
       <r>   -4.3368    1.0494 </r>
       <r>   -4.3355    1.0490 </r>
       <r>   -4.3325    1.0479 </r>
       <r>   -4.3319    1.0477 </r>
       <r>   -4.3282    1.0460 </r>
       <r>   -4.3280    1.0459 </r>
       <r>   -4.3244    1.0439 </r>
       <r>   -4.3185    1.0398 </r>
       <r>   -4.3102    1.0325 </r>
       <r>   -4.3069    1.0290 </r>
       <r>   -4.3014    1.0223 </r>
       <r>   -4.2981    1.0179 </r>
       <r>   -4.2974    1.0169 </r>
       <r>   -4.2943    1.0123 </r>
       <r>   -4.2917    1.0081 </r>
       <r>   -4.2898    1.0050 </r>
       <r>   -4.2817    0.9900 </r>
       <r>   -4.2764    0.9790 </r>
       <r>   -4.2730    0.9713 </r>
       <r>   -4.2710    0.9664 </r>
       <r>   -4.2692    0.9621 </r>
       <r>   -4.2652    0.9518 </r>
       <r>   -4.2635    0.9474 </r>
       <r>   -4.2610    0.9406 </r>
       <r>   -4.2579    0.9317 </r>
       <r>   -4.2555    0.9247 </r>
       <r>   -4.2545    0.9215 </r>
       <r>   -4.2523    0.9148 </r>
       <r>   -4.2510    0.9108 </r>
       <r>   -4.2495    0.9060 </r>
       <r>   -4.2479    0.9007 </r>
       <r>   -4.2460    0.8942 </r>
       <r>   -4.2385    0.8680 </r>
       <r>   -4.2358    0.8580 </r>
       <r>   -4.2331    0.8478 </r>
       <r>   -4.2315    0.8417 </r>
       <r>   -4.2296    0.8342 </r>
       <r>   -4.2273    0.8251 </r>
       <r>   -4.2197    0.7933 </r>
       <r>   -4.2149    0.7723 </r>
       <r>   -4.2069    0.7361 </r>
       <r>   -4.1956    0.6819 </r>
       <r>   -4.1923    0.6658 </r>
       <r>   -4.1860    0.6340 </r>
       <r>   -4.1849    0.6285 </r>
       <r>   -4.1836    0.6219 </r>
       <r>   -4.1809    0.6080 </r>
       <r>   -4.1698    0.5500 </r>
       <r>   -4.1634    0.5162 </r>
       <r>   -4.1475    0.4325 </r>
       <r>   -4.1402    0.3940 </r>
       <r>   -4.1381    0.3834 </r>
       <r>   -4.1370    0.3780 </r>
       <r>   -4.1267    0.3261 </r>
       <r>   -4.1220    0.3028 </r>
       <r>   -4.0970    0.1898 </r>
       <r>   -3.9734   -0.0514 </r>
       <r>   -3.8918   -0.0242 </r>
       <r>   -3.8357   -0.0034 </r>
       <r>   -3.8240   -0.0007 </r>
       <r>   -3.7034    0.0036 </r>
       <r>   -3.5150    0.0001 </r>
       <r>   -3.4984    0.0001 </r>
       <r>   -3.4010    0.0000 </r>
       <r>   -3.0808    0.0000 </r>
       <r>   -3.0741    0.0000 </r>
       <r>   -3.0560    0.0000 </r>
       <r>   -3.0492    0.0000 </r>
       <r>   -3.0266    0.0000 </r>
       <r>   -2.9628    0.0000 </r>
       <r>   -2.9494    0.0000 </r>
       <r>   -2.8178    0.0000 </r>
       <r>   -2.5402    0.0000 </r>
       <r>   -2.5323    0.0000 </r>
       <r>   -2.4201    0.0000 </r>
       <r>   -2.3400    0.0000 </r>
       <r>   -2.1622    0.0000 </r>
       <r>   -2.1242    0.0000 </r>
       <r>   -2.0975    0.0000 </r>
       <r>   -2.0648    0.0000 </r>
       <r>   -1.9708    0.0000 </r>
       <r>   -1.9351    0.0000 </r>
       <r>   -1.8804    0.0000 </r>
       <r>   -1.8007    0.0000 </r>
       <r>   -1.7443    0.0000 </r>
       <r>   -1.7150    0.0000 </r>
       <r>   -1.6497    0.0000 </r>
       <r>   -1.6215    0.0000 </r>
       <r>   -1.5627    0.0000 </r>
       <r>   -1.4175    0.0000 </r>
       <r>   -1.3702    0.0000 </r>
       <r>   -1.2619    0.0000 </r>
       <r>   -1.1926    0.0000 </r>
       <r>   -1.1843    0.0000 </r>
       <r>   -1.0101    0.0000 </r>
       <r>   -0.9956    0.0000 </r>
       <r>   -0.9837    0.0000 </r>
       <r>   -0.9556    0.0000 </r>
       <r>   -0.9496    0.0000 </r>
       <r>   -0.9264    0.0000 </r>
       <r>   -0.8813    0.0000 </r>
       <r>   -0.8581    0.0000 </r>
       <r>   -0.6500    0.0000 </r>
      </set>
     </set>
    </set>
   </array>
  </eigenvalues>
  <separator name="orbital magnetization" >
   <v name="MAGDIPOLOUT">      0.00000000      0.00000000      0.00000000</v>
  </separator>
  <dos>
   <i name="efermi">     -4.16035316 </i>
   <total>
    <array>
     <dimension dim="1">gridpoints</dimension>
     <dimension dim="2">spin</dimension>
     <field>energy</field>
     <field>total</field>
     <field>integrated</field>
     <set>
      <set comment="spin 1">
       <r>   -30.3670     0.0000     0.0000 </r>
       <r>   -30.2613     0.0000     0.0000 </r>
       <r>   -30.1556     0.0000     0.0000 </r>
       <r>   -30.0498     0.0000     0.0000 </r>
       <r>   -29.9441     0.0000     0.0000 </r>
       <r>   -29.8384     0.0000     0.0000 </r>
       <r>   -29.7327     0.0000     0.0000 </r>
       <r>   -29.6269     0.0000     0.0000 </r>
       <r>   -29.5212     0.0000     0.0000 </r>
       <r>   -29.4155     0.0000     0.0000 </r>
       <r>   -29.3098     0.0000     0.0000 </r>
       <r>   -29.2040     0.0000     0.0000 </r>
       <r>   -29.0983     0.0001     0.0000 </r>
       <r>   -28.9926     0.0029     0.0003 </r>
       <r>   -28.8869     0.0255     0.0030 </r>
       <r>   -28.7811     0.0635     0.0097 </r>
       <r>   -28.6754    -0.2439    -0.0161 </r>
       <r>   -28.5697    -0.8066    -0.1013 </r>
       <r>   -28.4640     2.2814     0.1399 </r>
       <r>   -28.3583     9.0095     1.0924 </r>
       <r>   -28.2525     8.1201     1.9509 </r>
       <r>   -28.1468     1.3348     2.0920 </r>
       <r>   -28.0411    -0.8123     2.0061 </r>
       <r>   -27.9354    -0.1423     1.9910 </r>
       <r>   -27.8296     0.0638     1.9978 </r>
       <r>   -27.7239     0.0190     1.9998 </r>
       <r>   -27.6182     0.0019     2.0000 </r>
       <r>   -27.5125     0.0001     2.0000 </r>
       <r>   -27.4067     0.0000     2.0000 </r>
       <r>   -27.3010     0.0000     2.0000 </r>
       <r>   -27.1953     0.0000     2.0000 </r>
       <r>   -27.0896     0.0000     2.0000 </r>
       <r>   -26.9839     0.0000     2.0000 </r>
       <r>   -26.8781     0.0000     2.0000 </r>
       <r>   -26.7724     0.0000     2.0000 </r>
       <r>   -26.6667     0.0000     2.0000 </r>
       <r>   -26.5610     0.0000     2.0000 </r>
       <r>   -26.4552     0.0000     2.0000 </r>
       <r>   -26.3495     0.0000     2.0000 </r>
       <r>   -26.2438     0.0000     2.0000 </r>
       <r>   -26.1381     0.0000     2.0000 </r>
       <r>   -26.0323     0.0000     2.0000 </r>
       <r>   -25.9266     0.0000     2.0000 </r>
       <r>   -25.8209     0.0000     2.0000 </r>
       <r>   -25.7152     0.0000     2.0000 </r>
       <r>   -25.6094     0.0000     2.0000 </r>
       <r>   -25.5037     0.0000     2.0000 </r>
       <r>   -25.3980     0.0000     2.0000 </r>
       <r>   -25.2923     0.0000     2.0000 </r>
       <r>   -25.1866     0.0000     2.0000 </r>
       <r>   -25.0808     0.0000     2.0000 </r>
       <r>   -24.9751     0.0000     2.0000 </r>
       <r>   -24.8694     0.0000     2.0000 </r>
       <r>   -24.7637     0.0000     2.0000 </r>
       <r>   -24.6579     0.0000     2.0000 </r>
       <r>   -24.5522     0.0000     2.0000 </r>
       <r>   -24.4465     0.0000     2.0000 </r>
       <r>   -24.3408     0.0000     2.0000 </r>
       <r>   -24.2350     0.0000     2.0000 </r>
       <r>   -24.1293     0.0000     2.0000 </r>
       <r>   -24.0236     0.0000     2.0000 </r>
       <r>   -23.9179     0.0000     2.0000 </r>
       <r>   -23.8121     0.0000     2.0000 </r>
       <r>   -23.7064     0.0000     2.0000 </r>
       <r>   -23.6007     0.0000     2.0000 </r>
       <r>   -23.4950     0.0000     2.0000 </r>
       <r>   -23.3893     0.0000     2.0000 </r>
       <r>   -23.2835     0.0000     2.0000 </r>
       <r>   -23.1778     0.0000     2.0000 </r>
       <r>   -23.0721     0.0000     2.0000 </r>
       <r>   -22.9664     0.0000     2.0000 </r>
       <r>   -22.8606     0.0000     2.0000 </r>
       <r>   -22.7549     0.0000     2.0000 </r>
       <r>   -22.6492     0.0000     2.0000 </r>
       <r>   -22.5435     0.0000     2.0000 </r>
       <r>   -22.4377     0.0000     2.0000 </r>
       <r>   -22.3320     0.0000     2.0000 </r>
       <r>   -22.2263     0.0000     2.0000 </r>
       <r>   -22.1206     0.0000     2.0000 </r>
       <r>   -22.0148     0.0000     2.0000 </r>
       <r>   -21.9091     0.0000     2.0000 </r>
       <r>   -21.8034     0.0000     2.0000 </r>
       <r>   -21.6977     0.0000     2.0000 </r>
       <r>   -21.5920     0.0000     2.0000 </r>
       <r>   -21.4862     0.0000     2.0000 </r>
       <r>   -21.3805     0.0000     2.0000 </r>
       <r>   -21.2748     0.0000     2.0000 </r>
       <r>   -21.1691     0.0000     2.0000 </r>
       <r>   -21.0633     0.0000     2.0000 </r>
       <r>   -20.9576     0.0000     2.0000 </r>
       <r>   -20.8519     0.0000     2.0000 </r>
       <r>   -20.7462     0.0000     2.0000 </r>
       <r>   -20.6404     0.0000     2.0000 </r>
       <r>   -20.5347     0.0000     2.0000 </r>
       <r>   -20.4290     0.0000     2.0000 </r>
       <r>   -20.3233     0.0000     2.0000 </r>
       <r>   -20.2176     0.0000     2.0000 </r>
       <r>   -20.1118     0.0000     2.0000 </r>
       <r>   -20.0061     0.0000     2.0000 </r>
       <r>   -19.9004     0.0000     2.0000 </r>
       <r>   -19.7947     0.0000     2.0000 </r>
       <r>   -19.6889     0.0000     2.0000 </r>
       <r>   -19.5832     0.0000     2.0000 </r>
       <r>   -19.4775     0.0000     2.0000 </r>
       <r>   -19.3718     0.0000     2.0000 </r>
       <r>   -19.2660     0.0000     2.0000 </r>
       <r>   -19.1603     0.0000     2.0000 </r>
       <r>   -19.0546     0.0000     2.0000 </r>
       <r>   -18.9489     0.0000     2.0000 </r>
       <r>   -18.8431     0.0000     2.0000 </r>
       <r>   -18.7374     0.0000     2.0000 </r>
       <r>   -18.6317     0.0000     2.0000 </r>
       <r>   -18.5260     0.0000     2.0000 </r>
       <r>   -18.4203     0.0000     2.0000 </r>
       <r>   -18.3145     0.0000     2.0000 </r>
       <r>   -18.2088     0.0000     2.0000 </r>
       <r>   -18.1031     0.0000     2.0000 </r>
       <r>   -17.9974     0.0000     2.0000 </r>
       <r>   -17.8916     0.0000     2.0000 </r>
       <r>   -17.7859     0.0000     2.0000 </r>
       <r>   -17.6802     0.0000     2.0000 </r>
       <r>   -17.5745     0.0000     2.0000 </r>
       <r>   -17.4687     0.0000     2.0000 </r>
       <r>   -17.3630     0.0000     2.0000 </r>
       <r>   -17.2573     0.0000     2.0000 </r>
       <r>   -17.1516     0.0000     2.0000 </r>
       <r>   -17.0458     0.0000     2.0000 </r>
       <r>   -16.9401     0.0000     2.0000 </r>
       <r>   -16.8344     0.0000     2.0000 </r>
       <r>   -16.7287     0.0000     2.0000 </r>
       <r>   -16.6230     0.0000     2.0000 </r>
       <r>   -16.5172     0.0000     2.0000 </r>
       <r>   -16.4115     0.0000     2.0000 </r>
       <r>   -16.3058     0.0000     2.0000 </r>
       <r>   -16.2001     0.0000     2.0000 </r>
       <r>   -16.0943     0.0000     2.0000 </r>
       <r>   -15.9886     0.0000     2.0000 </r>
       <r>   -15.8829     0.0000     2.0000 </r>
       <r>   -15.7772     0.0000     2.0000 </r>
       <r>   -15.6714     0.0000     2.0000 </r>
       <r>   -15.5657     0.0000     2.0000 </r>
       <r>   -15.4600     0.0000     2.0000 </r>
       <r>   -15.3543     0.0000     2.0000 </r>
       <r>   -15.2486     0.0000     2.0000 </r>
       <r>   -15.1428     0.0000     2.0000 </r>
       <r>   -15.0371     0.0000     2.0000 </r>
       <r>   -14.9314     0.0000     2.0000 </r>
       <r>   -14.8257     0.0000     2.0000 </r>
       <r>   -14.7199     0.0000     2.0000 </r>
       <r>   -14.6142     0.0000     2.0000 </r>
       <r>   -14.5085     0.0000     2.0000 </r>
       <r>   -14.4028     0.0000     2.0000 </r>
       <r>   -14.2970     0.0000     2.0000 </r>
       <r>   -14.1913     0.0000     2.0000 </r>
       <r>   -14.0856     0.0003     2.0000 </r>
       <r>   -13.9799     0.0047     2.0005 </r>
       <r>   -13.8741     0.0346     2.0042 </r>
       <r>   -13.7684     0.0520     2.0097 </r>
       <r>   -13.6627    -0.3872     1.9688 </r>
       <r>   -13.5570    -0.6654     1.8984 </r>
       <r>   -13.4513     3.5753     2.2764 </r>
       <r>   -13.3455     9.7263     3.3047 </r>
       <r>   -13.2398     6.8395     4.0278 </r>
       <r>   -13.1341     0.4451     4.0749 </r>
       <r>   -13.0284    -0.7284     3.9978 </r>
       <r>   -12.9226    -0.0513     3.9924 </r>
       <r>   -12.8169     0.0576     3.9985 </r>
       <r>   -12.7112     0.0129     3.9999 </r>
       <r>   -12.6055     0.0011     4.0000 </r>
       <r>   -12.4997     0.0000     4.0000 </r>
       <r>   -12.3940     0.0000     4.0000 </r>
       <r>   -12.2883     0.0000     4.0000 </r>
       <r>   -12.1826     0.0000     4.0000 </r>
       <r>   -12.0768     0.0000     4.0000 </r>
       <r>   -11.9711     0.0000     4.0000 </r>
       <r>   -11.8654     0.0001     4.0000 </r>
       <r>   -11.7597     0.0026     4.0003 </r>
       <r>   -11.6540     0.0239     4.0028 </r>
       <r>   -11.5482     0.0650     4.0097 </r>
       <r>   -11.4425    -0.2080     3.9877 </r>
       <r>   -11.3368    -0.7623     3.9071 </r>
       <r>   -11.2311     2.0340     4.1221 </r>
       <r>   -11.1253     8.1854     4.9875 </r>
       <r>   -11.0196     8.5243     5.8887 </r>
       <r>   -10.9139     7.4406     6.6754 </r>
       <r>   -10.8082     8.3218     7.5552 </r>
       <r>   -10.7024     6.7588     8.2698 </r>
       <r>   -10.5967     8.8230     9.2026 </r>
       <r>   -10.4910     7.2695     9.9711 </r>
       <r>   -10.3853     1.0474    10.0819 </r>
       <r>   -10.2796    -0.7532    10.0022 </r>
       <r>   -10.1738    -0.1020     9.9914 </r>
       <r>   -10.0681     0.0627     9.9981 </r>
       <r>    -9.9624     0.0167     9.9998 </r>
       <r>    -9.8567     0.0016    10.0000 </r>
       <r>    -9.7509     0.0001    10.0000 </r>
       <r>    -9.6452     0.0000    10.0000 </r>
       <r>    -9.5395     0.0000    10.0000 </r>
       <r>    -9.4338     0.0000    10.0000 </r>
       <r>    -9.3280     0.0000    10.0000 </r>
       <r>    -9.2223     0.0000    10.0000 </r>
       <r>    -9.1166     0.0000    10.0000 </r>
       <r>    -9.0109     0.0000    10.0000 </r>
       <r>    -8.9051     0.0000    10.0000 </r>
       <r>    -8.7994     0.0000    10.0000 </r>
       <r>    -8.6937     0.0000    10.0000 </r>
       <r>    -8.5880     0.0000    10.0000 </r>
       <r>    -8.4823     0.0000    10.0000 </r>
       <r>    -8.3765     0.0000    10.0000 </r>
       <r>    -8.2708     0.0000    10.0000 </r>
       <r>    -8.1651     0.0000    10.0000 </r>
       <r>    -8.0594     0.0000    10.0000 </r>
       <r>    -7.9536     0.0000    10.0000 </r>
       <r>    -7.8479     0.0000    10.0000 </r>
       <r>    -7.7422     0.0000    10.0000 </r>
       <r>    -7.6365     0.0000    10.0000 </r>
       <r>    -7.5307     0.0000    10.0000 </r>
       <r>    -7.4250     0.0001    10.0000 </r>
       <r>    -7.3193     0.0013    10.0001 </r>
       <r>    -7.2136     0.0151    10.0017 </r>
       <r>    -7.1078     0.0609    10.0082 </r>
       <r>    -7.0021    -0.0778    10.0000 </r>
       <r>    -6.8964    -0.7301     9.9228 </r>
       <r>    -6.7907     0.8487    10.0125 </r>
       <r>    -6.6850     7.0765    10.7607 </r>
       <r>    -6.5792     8.6747    11.6778 </r>
       <r>    -6.4735     5.5702    12.2667 </r>
       <r>    -6.3678    10.0088    13.3248 </r>
       <r>    -6.2621    20.2832    15.4692 </r>
       <r>    -6.1563    31.3748    18.7863 </r>
       <r>    -6.0506    25.0547    21.4352 </r>
       <r>    -5.9449     9.2677    22.4150 </r>
       <r>    -5.8392    22.6094    24.8053 </r>
       <r>    -5.7334    65.1916    31.6976 </r>
       <r>    -5.6277   138.4626    46.3363 </r>
       <r>    -5.5220   243.7657    72.1081 </r>
       <r>    -5.4163   293.9789   103.1885 </r>
       <r>    -5.3106   241.2711   128.6965 </r>
       <r>    -5.2048   208.1662   150.7046 </r>
       <r>    -5.0991   274.5334   179.7292 </r>
       <r>    -4.9934   352.9489   217.0441 </r>
       <r>    -4.8877   334.3274   252.3904 </r>
       <r>    -4.7819   293.5240   283.4227 </r>
       <r>    -4.6762   355.0256   320.9572 </r>
       <r>    -4.5705   423.9601   365.7798 </r>
       <r>    -4.4648   420.2000   410.2047 </r>
       <r>    -4.3590   472.3924   460.1477 </r>
       <r>    -4.2533   554.5723   518.7789 </r>
       <r>    -4.1476   426.7115   563.8923 </r>
       <r>    -4.0419   151.7671   579.9377 </r>
       <r>    -3.9361    13.3156   581.3454 </r>
       <r>    -3.8304    19.5355   583.4108 </r>
       <r>    -3.7247    27.6803   586.3372 </r>
       <r>    -3.6190    15.8007   588.0077 </r>
       <r>    -3.5133    19.4658   590.0657 </r>
       <r>    -3.4075    24.8749   592.6956 </r>
       <r>    -3.3018     9.6067   593.7112 </r>
       <r>    -3.1961     1.3390   593.8528 </r>
       <r>    -3.0904    31.9737   597.2332 </r>
       <r>    -2.9846    61.4718   603.7322 </r>
       <r>    -2.8789    43.3877   608.3193 </r>
       <r>    -2.7732    12.9687   609.6904 </r>
       <r>    -2.6675     2.8056   609.9870 </r>
       <r>    -2.5617    13.1769   611.3801 </r>
       <r>    -2.4560    26.1966   614.1497 </r>
       <r>    -2.3503    22.2404   616.5010 </r>
       <r>    -2.2446    14.7995   618.0657 </r>
       <r>    -2.1388    26.3925   620.8560 </r>
       <r>    -2.0331    40.5611   625.1442 </r>
       <r>    -1.9274    37.4161   629.1000 </r>
       <r>    -1.8217    33.3222   632.6229 </r>
       <r>    -1.7160    38.6735   636.7116 </r>
       <r>    -1.6102    40.0809   640.9491 </r>
       <r>    -1.5045    27.5525   643.8621 </r>
       <r>    -1.3988    19.8476   645.9604 </r>
       <r>    -1.2931    24.6830   648.5700 </r>
       <r>    -1.1873    26.2967   651.3502 </r>
       <r>    -1.0816    28.2184   654.3335 </r>
       <r>    -0.9759    54.0280   660.0455 </r>
       <r>    -0.8702    65.5816   666.9791 </r>
       <r>    -0.7644    32.0172   670.3640 </r>
       <r>    -0.6587     7.9153   671.2009 </r>
       <r>    -0.5530     5.9569   671.8306 </r>
       <r>    -0.4473     2.2080   672.0641 </r>
       <r>    -0.3416    -0.5254   672.0085 </r>
       <r>    -0.2358    -0.1790   671.9896 </r>
       <r>    -0.1301     0.0695   671.9970 </r>
       <r>    -0.0244     0.0257   671.9997 </r>
       <r>     0.0813     0.0029   672.0000 </r>
       <r>     0.1871     0.0001   672.0000 </r>
       <r>     0.2928     0.0000   672.0000 </r>
       <r>     0.3985     0.0000   672.0000 </r>
       <r>     0.5042     0.0000   672.0000 </r>
       <r>     0.6100     0.0000   672.0000 </r>
       <r>     0.7157     0.0000   672.0000 </r>
       <r>     0.8214     0.0000   672.0000 </r>
       <r>     0.9271     0.0000   672.0000 </r>
       <r>     1.0329     0.0000   672.0000 </r>
       <r>     1.1386     0.0000   672.0000 </r>
       <r>     1.2443     0.0000   672.0000 </r>
       <r>     1.3500     0.0000   672.0000 </r>
      </set>
     </set>
    </array>
   </total>
  </dos>
 </calculation>
 <structure name="finalpos" >
  <crystal>
   <varray name="basis" >
    <v>      30.00000000       0.00000000       0.00000000 </v>
    <v>       0.00000000      30.00000000       0.00000000 </v>
    <v>       0.00000000       0.00000000      30.00000000 </v>
   </varray>
   <i name="volume">  27000.00000000 </i>
   <varray name="rec_basis" >
    <v>       0.03333333       0.00000000       0.00000000 </v>
    <v>       0.00000000       0.03333333       0.00000000 </v>
    <v>       0.00000000       0.00000000       0.03333333 </v>
   </varray>
  </crystal>
  <varray name="positions" >
   <v>       0.44576020       0.32826710       0.41691983 </v>
   <v>       0.67173288       0.55423978       0.41691983 </v>
   <v>       0.55423980       0.32826710       0.41691983 </v>
   <v>       0.32826712       0.55423978       0.41691983 </v>
   <v>       0.50000000       0.38250690       0.34021317 </v>
   <v>       0.50000000       0.38250690       0.65978680 </v>
   <v>       0.50000000       0.27609440       0.50000000 </v>
   <v>       0.27609443       0.49999998       0.50000000 </v>
   <v>       0.72390557       0.49999998       0.50000000 </v>
   <v>       0.50000000       0.72390555       0.50000000 </v>
   <v>       0.61195280       0.38804720       0.34167483 </v>
   <v>       0.61195280       0.38804720       0.65832513 </v>
   <v>       0.38804722       0.61195278       0.34167483 </v>
   <v>       0.38804722       0.61195278       0.65832513 </v>
   <v>       0.38804720       0.38804720       0.34167483 </v>
   <v>       0.38804720       0.38804720       0.65832513 </v>
   <v>       0.61195278       0.61195278       0.34167483 </v>
   <v>       0.61195278       0.61195278       0.65832513 </v>
   <v>       0.44576020       0.32826710       0.58308023 </v>
   <v>       0.67173288       0.55423978       0.58308023 </v>
   <v>       0.55791699       0.44208301       0.41809300 </v>
   <v>       0.32826705       0.44576024       0.41691983 </v>
   <v>       0.55423973       0.67173293       0.41691983 </v>
   <v>       0.55423980       0.32826710       0.58308023 </v>
   <v>       0.32826712       0.55423978       0.58308023 </v>
   <v>       0.67173295       0.44576024       0.41691983 </v>
   <v>       0.44576027       0.67173293       0.41691983 </v>
   <v>       0.44208301       0.44208301       0.41809300 </v>
   <v>       0.50000000       0.38416601       0.50000000 </v>
   <v>       0.61749315       0.50000005       0.34021317 </v>
   <v>       0.61749315       0.50000005       0.65978680 </v>
   <v>       0.38250685       0.50000005       0.34021317 </v>
   <v>       0.38250685       0.50000005       0.65978680 </v>
   <v>       0.38317830       0.38317830       0.50000000 </v>
   <v>       0.61682172       0.61682172       0.50000000 </v>
   <v>       0.61682170       0.38317830       0.50000000 </v>
   <v>       0.38317828       0.61682172       0.50000000 </v>
   <v>       0.50000000       0.50000000       0.33478917 </v>
   <v>       0.50000000       0.50000000       0.66521087 </v>
   <v>       0.32826705       0.44576024       0.58308023 </v>
   <v>       0.55423973       0.67173293       0.58308023 </v>
   <v>       0.55791699       0.44208301       0.58190703 </v>
   <v>       0.44208298       0.55791702       0.41809300 </v>
   <v>       0.44208301       0.44208301       0.58190703 </v>
   <v>       0.67173295       0.44576024       0.58308023 </v>
   <v>       0.44576027       0.67173293       0.58308023 </v>
   <v>       0.55791702       0.55791702       0.41809300 </v>
   <v>       0.38416599       0.50000002       0.50000000 </v>
   <v>       0.61583401       0.50000002       0.50000000 </v>
   <v>       0.50000000       0.61749319       0.34021317 </v>
   <v>       0.50000000       0.61749319       0.65978680 </v>
   <v>       0.50000000       0.50000000       0.50000000 </v>
   <v>       0.44208298       0.55791702       0.58190703 </v>
   <v>       0.55791702       0.55791702       0.58190703 </v>
   <v>       0.50000000       0.61583404       0.50000000 </v>
   <v>       0.26650527       0.55154960       0.42821580 </v>
   <v>       0.23133983       0.55931323       0.41740477 </v>
  </varray>
  <varray name="selective"  type="logical" >
   <v type="logical" >  F  F  F </v>
   <v type="logical" >  F  F  F </v>
   <v type="logical" >  F  F  F </v>
   <v type="logical" >  F  F  F </v>
   <v type="logical" >  F  F  F </v>
   <v type="logical" >  F  F  F </v>
   <v type="logical" >  F  F  F </v>
   <v type="logical" >  F  F  F </v>
   <v type="logical" >  F  F  F </v>
   <v type="logical" >  F  F  F </v>
   <v type="logical" >  F  F  F </v>
   <v type="logical" >  F  F  F </v>
   <v type="logical" >  F  F  F </v>
   <v type="logical" >  F  F  F </v>
   <v type="logical" >  F  F  F </v>
   <v type="logical" >  F  F  F </v>
   <v type="logical" >  F  F  F </v>
   <v type="logical" >  F  F  F </v>
   <v type="logical" >  F  F  F </v>
   <v type="logical" >  F  F  F </v>
   <v type="logical" >  F  F  F </v>
   <v type="logical" >  F  F  F </v>
   <v type="logical" >  F  F  F </v>
   <v type="logical" >  F  F  F </v>
   <v type="logical" >  F  F  F </v>
   <v type="logical" >  F  F  F </v>
   <v type="logical" >  F  F  F </v>
   <v type="logical" >  F  F  F </v>
   <v type="logical" >  F  F  F </v>
   <v type="logical" >  F  F  F </v>
   <v type="logical" >  F  F  F </v>
   <v type="logical" >  F  F  F </v>
   <v type="logical" >  F  F  F </v>
   <v type="logical" >  F  F  F </v>
   <v type="logical" >  F  F  F </v>
   <v type="logical" >  F  F  F </v>
   <v type="logical" >  F  F  F </v>
   <v type="logical" >  F  F  F </v>
   <v type="logical" >  F  F  F </v>
   <v type="logical" >  F  F  F </v>
   <v type="logical" >  F  F  F </v>
   <v type="logical" >  F  F  F </v>
   <v type="logical" >  F  F  F </v>
   <v type="logical" >  F  F  F </v>
   <v type="logical" >  F  F  F </v>
   <v type="logical" >  F  F  F </v>
   <v type="logical" >  F  F  F </v>
   <v type="logical" >  F  F  F </v>
   <v type="logical" >  F  F  F </v>
   <v type="logical" >  F  F  F </v>
   <v type="logical" >  F  F  F </v>
   <v type="logical" >  F  F  F </v>
   <v type="logical" >  F  F  F </v>
   <v type="logical" >  F  F  F </v>
   <v type="logical" >  F  F  F </v>
   <v type="logical" >  F  F  F </v>
   <v type="logical" >  F  F  F </v>
  </varray>
  <nose>
   <v>      -3.00000000       0.00000000       0.00010000       0.00010000 </v>
  </nose>
 </structure>
</modeling>
