       N       E                     dE             d eps       ncg     rms          rms(c)
DAV:   1     0.438551357750E+04    0.43855E+04   -0.10047E+05   688   0.815E+02
DAV:   2     0.201077611896E+04   -0.23747E+04   -0.21358E+04  1224   0.105E+02
DAV:   3     0.230057744072E+03   -0.17807E+04   -0.16770E+04  1008   0.919E+01
DAV:   4    -0.134248551217E+03   -0.36431E+03   -0.31016E+03   832   0.433E+01
DAV:   5    -0.179168811897E+03   -0.44920E+02   -0.37272E+02  1048   0.144E+01    0.139E+01
RMM:   6    -0.177946033342E+03    0.12228E+01   -0.47461E+01   721   0.846E+00    0.194E+01
RMM:   7    -0.180930700599E+03   -0.29847E+01   -0.17170E+01   851   0.438E+00    0.200E+01
RMM:   8    -0.183426103378E+03   -0.24954E+01   -0.62183E+00   774   0.336E+00    0.268E+01
RMM:   9    -0.180225714701E+03    0.32004E+01   -0.46460E+00   732   0.303E+00    0.225E+01
RMM:  10    -0.178488643302E+03    0.17371E+01   -0.23639E+00   738   0.224E+00    0.220E+01
RMM:  11    -0.177367848230E+03    0.11208E+01   -0.15409E+00   735   0.180E+00    0.181E+01
RMM:  12    -0.176746102773E+03    0.62175E+00   -0.10081E+00   724   0.148E+00    0.147E+01
RMM:  13    -0.175717339587E+03    0.10288E+01   -0.83152E-01   719   0.135E+00    0.112E+01
RMM:  14    -0.176384973702E+03   -0.66763E+00   -0.12535E+00   715   0.165E+00    0.199E+01
RMM:  15    -0.175911657448E+03    0.47332E+00   -0.98086E-01   714   0.146E+00    0.212E+01
RMM:  16    -0.175288635093E+03    0.62302E+00   -0.67205E-01   721   0.119E+00    0.114E+01
RMM:  17    -0.175241570808E+03    0.47064E-01   -0.70909E-01   709   0.125E+00    0.135E+01
RMM:  18    -0.174986997295E+03    0.25457E+00   -0.30177E-01   715   0.843E-01    0.126E+01
RMM:  19    -0.174881348401E+03    0.10565E+00   -0.39955E-01   707   0.958E-01    0.109E+01
RMM:  20    -0.174731025579E+03    0.15032E+00   -0.35993E-01   707   0.923E-01    0.875E+00
RMM:  21    -0.174552701707E+03    0.17832E+00   -0.25976E-01   701   0.791E-01    0.629E+00
RMM:  22    -0.174477460411E+03    0.75241E-01   -0.16340E-01   707   0.631E-01    0.597E+00
RMM:  23    -0.174362073049E+03    0.11539E+00   -0.12069E-01   703   0.539E-01    0.473E+00
RMM:  24    -0.174307131356E+03    0.54942E-01   -0.84365E-02   707   0.452E-01    0.360E+00
RMM:  25    -0.174291249455E+03    0.15882E-01   -0.63802E-02   704   0.396E-01    0.348E+00
RMM:  26    -0.174284047619E+03    0.72018E-02   -0.57109E-02   704   0.378E-01    0.359E+00
RMM:  27    -0.174232181124E+03    0.51866E-01   -0.35498E-02   698   0.315E-01    0.232E+00
RMM:  28    -0.174225301887E+03    0.68792E-02   -0.23822E-02   699   0.251E-01    0.193E+00
RMM:  29    -0.174215607852E+03    0.96940E-02   -0.18452E-02   699   0.214E-01    0.177E+00
RMM:  30    -0.174203939148E+03    0.11669E-01   -0.11331E-02   697   0.176E-01    0.140E+00
RMM:  31    -0.174196482484E+03    0.74567E-02   -0.62819E-03   696   0.132E-01    0.887E-01
RMM:  32    -0.174192871014E+03    0.36115E-02   -0.46333E-03   698   0.114E-01    0.619E-01
RMM:  33    -0.174194664325E+03   -0.17933E-02   -0.39230E-03   696   0.977E-02    0.793E-01
RMM:  34    -0.174192948847E+03    0.17155E-02   -0.20774E-03   695   0.774E-02    0.488E-01
RMM:  35    -0.174192871868E+03    0.76979E-04   -0.11149E-03   694   0.568E-02    0.329E-01
RMM:  36    -0.174196016215E+03   -0.31443E-02   -0.16955E-03   695   0.637E-02    0.471E-01
RMM:  37    -0.174198825339E+03   -0.28091E-02   -0.15613E-03   693   0.608E-02    0.281E-01
RMM:  38    -0.174199858679E+03   -0.10333E-02   -0.43023E-04   525   0.344E-02    0.222E-01
RMM:  39    -0.174203470767E+03   -0.36121E-02   -0.63756E-04   612   0.354E-02    0.232E-01
RMM:  40    -0.174205182702E+03   -0.17119E-02   -0.33498E-04   455   0.286E-02    0.168E-01
RMM:  41    -0.174207506432E+03   -0.23237E-02   -0.38483E-04   487   0.276E-02    0.196E-01
RMM:  42    -0.174210611720E+03   -0.31053E-02   -0.53633E-04   550   0.299E-02    0.159E-01
RMM:  43    -0.174212093043E+03   -0.14813E-02   -0.28062E-04   442   0.223E-02    0.128E-01
RMM:  44    -0.174213594475E+03   -0.15014E-02   -0.21812E-04   420   0.193E-02    0.105E-01
RMM:  45    -0.174215229077E+03   -0.16346E-02   -0.23218E-04   436   0.185E-02    0.696E-02
RMM:  46    -0.174215870818E+03   -0.64174E-03   -0.10240E-04   418   0.128E-02    0.442E-02
RMM:  47    -0.174217063225E+03   -0.11924E-02   -0.80196E-05   411   0.109E-02    0.635E-02
RMM:  48    -0.174217900187E+03   -0.83696E-03   -0.56330E-05   410   0.933E-03    0.352E-02
RMM:  49    -0.174218330019E+03   -0.42983E-03   -0.30288E-05   395   0.673E-03    0.337E-02
RMM:  50    -0.174219335208E+03   -0.10052E-02   -0.36930E-05   403   0.699E-03    0.321E-02
RMM:  51    -0.174219544923E+03   -0.20971E-03   -0.13454E-05   280   0.498E-03    0.211E-02
RMM:  52    -0.174220058882E+03   -0.51396E-03   -0.12422E-05   272   0.486E-03    0.239E-02
RMM:  53    -0.174220331799E+03   -0.27292E-03   -0.45408E-06   166   0.415E-03    0.133E-02
RMM:  54    -0.174220567634E+03   -0.23583E-03   -0.78288E-06   212   0.420E-03    0.134E-02
RMM:  55    -0.174220887683E+03   -0.32005E-03   -0.10607E-05   220   0.426E-03    0.133E-02
RMM:  56    -0.174220975136E+03   -0.87453E-04   -0.24762E-06   123   0.356E-03
   1 F= -.17422098E+03 E0= -.17420214E+03  d E =-.753457E-01
