   57   57    1    1
  0.4736842E+03  0.3000000E-08  0.3000000E-08  0.3000000E-08  0.5000000E-15
  1.000000000000000E-004
  CAR 
 6_Pd100_top_free_z(O)                   
    560      1    336
 
  0.0000000E+00  0.0000000E+00  0.0000000E+00  0.1000000E+01
    1      -28.235969   1.000000
    2      -13.345347   1.000000
    3      -11.269685   1.000000
    4      -11.008335   1.000000
    5      -10.217882   1.000000
    6       -6.656299   1.000000
    7       -6.389110   1.000000
    8       -6.245204   1.000000
    9       -6.137560   1.000000
   10       -6.128557   1.000000
   11       -6.077850   1.000000
   12       -5.845389   1.000000
   13       -5.816772   1.000000
   14       -5.804737   1.000000
   15       -5.761928   1.000000
   16       -5.744539   1.000000
   17       -5.695465   1.000000
   18       -5.691980   1.000000
   19       -5.682706   1.000000
   20       -5.669443   1.000000
   21       -5.659315   1.000000
   22       -5.639640   1.000000
   23       -5.624204   1.000000
   24       -5.602985   1.000000
   25       -5.595661   1.000000
   26       -5.588090   1.000000
   27       -5.576226   1.000000
   28       -5.562369   1.000000
   29       -5.549020   1.000000
   30       -5.546817   1.000000
   31       -5.540202   1.000000
   32       -5.526005   1.000000
   33       -5.520375   1.000000
   34       -5.519198   1.000000
   35       -5.515471   1.000000
   36       -5.511930   1.000000
   37       -5.506984   1.000000
   38       -5.503960   1.000000
   39       -5.492480   1.000000
   40       -5.481227   1.000000
   41       -5.473766   1.000000
   42       -5.469152   1.000000
   43       -5.467951   1.000000
   44       -5.463999   1.000000
   45       -5.462415   1.000000
   46       -5.452887   1.000000
   47       -5.437904   1.000000
   48       -5.435739   1.000000
   49       -5.429387   1.000000
   50       -5.425962   1.000000
   51       -5.421723   1.000000
   52       -5.413678   1.000000
   53       -5.404315   1.000000
   54       -5.403013   1.000000
   55       -5.399217   1.000000
   56       -5.390633   1.000000
   57       -5.373088   1.000000
   58       -5.371991   1.000000
   59       -5.348750   1.000000
   60       -5.334415   1.000000
   61       -5.325570   1.000000
   62       -5.325011   1.000000
   63       -5.316197   1.000000
   64       -5.314251   1.000000
   65       -5.301368   1.000000
   66       -5.299277   1.000000
   67       -5.292900   1.000000
   68       -5.287923   1.000000
   69       -5.273441   1.000000
   70       -5.256771   1.000000
   71       -5.229695   1.000000
   72       -5.211347   1.000000
   73       -5.203348   1.000000
   74       -5.199190   1.000000
   75       -5.192366   1.000000
   76       -5.182943   1.000000
   77       -5.182197   1.000000
   78       -5.175533   1.000000
   79       -5.169359   1.000000
   80       -5.164529   1.000000
   81       -5.163493   1.000000
   82       -5.148941   1.000000
   83       -5.139413   1.000000
   84       -5.130770   1.000000
   85       -5.126524   1.000000
   86       -5.116149   1.000000
   87       -5.110922   1.000000
   88       -5.104367   1.000000
   89       -5.096958   1.000000
   90       -5.084038   1.000000
   91       -5.073551   1.000000
   92       -5.064044   1.000000
   93       -5.062950   1.000000
   94       -5.055538   1.000000
   95       -5.051855   1.000000
   96       -5.051100   1.000000
   97       -5.044577   1.000000
   98       -5.041276   1.000000
   99       -5.038379   1.000000
  100       -5.032592   1.000000
  101       -5.026975   1.000000
  102       -5.022824   1.000000
  103       -5.013554   1.000000
  104       -5.010006   1.000000
  105       -5.004781   1.000000
  106       -5.001534   1.000000
  107       -4.999377   1.000000
  108       -4.996098   1.000000
  109       -4.987653   1.000000
  110       -4.981839   1.000000
  111       -4.976922   1.000000
  112       -4.976101   1.000000
  113       -4.970296   1.000000
  114       -4.961771   1.000000
  115       -4.958907   0.999999
  116       -4.955193   0.999999
  117       -4.948896   0.999999
  118       -4.942478   0.999999
  119       -4.937019   0.999999
  120       -4.931258   0.999999
  121       -4.919531   0.999998
  122       -4.912079   0.999997
  123       -4.910114   0.999997
  124       -4.903964   0.999996
  125       -4.900422   0.999996
  126       -4.897090   0.999996
  127       -4.891141   0.999995
  128       -4.870543   0.999990
  129       -4.858217   0.999985
  130       -4.854460   0.999983
  131       -4.848529   0.999980
  132       -4.842870   0.999976
  133       -4.839487   0.999974
  134       -4.837516   0.999972
  135       -4.832076   0.999967
  136       -4.829253   0.999964
  137       -4.809526   0.999938
  138       -4.803564   0.999927
  139       -4.795448   0.999910
  140       -4.792173   0.999902
  141       -4.786602   0.999886
  142       -4.775957   0.999851
  143       -4.770653   0.999830
  144       -4.761473   0.999787
  145       -4.760575   0.999782
  146       -4.753233   0.999741
  147       -4.744867   0.999685
  148       -4.735715   0.999612
  149       -4.728651   0.999546
  150       -4.717368   0.999422
  151       -4.714166   0.999382
  152       -4.709697   0.999322
  153       -4.692240   0.999043
  154       -4.689882   0.998999
  155       -4.684258   0.998888
  156       -4.683008   0.998862
  157       -4.679618   0.998790
  158       -4.675194   0.998690
  159       -4.671093   0.998592
  160       -4.666997   0.998490
  161       -4.663078   0.998387
  162       -4.659799   0.998297
  163       -4.656586   0.998206
  164       -4.649297   0.997989
  165       -4.645630   0.997873
  166       -4.644508   0.997837
  167       -4.643960   0.997820
  168       -4.641503   0.997739
  169       -4.638961   0.997655
  170       -4.628370   0.997286
  171       -4.627842   0.997266
  172       -4.621093   0.997020
  173       -4.610341   0.996617
  174       -4.605780   0.996446
  175       -4.602968   0.996341
  176       -4.595643   0.996072
  177       -4.594797   0.996042
  178       -4.590962   0.995907
  179       -4.590339   0.995885
  180       -4.582942   0.995642
  181       -4.579044   0.995525
  182       -4.571043   0.995315
  183       -4.569144   0.995273
  184       -4.564700   0.995187
  185       -4.560285   0.995122
  186       -4.559181   0.995109
  187       -4.553534   0.995069
  188       -4.549381   0.995068
  189       -4.547368   0.995077
  190       -4.542083   0.995134
  191       -4.537233   0.995233
  192       -4.528119   0.995556
  193       -4.522703   0.995844
  194       -4.510957   0.996753
  195       -4.507374   0.997117
  196       -4.503092   0.997608
  197       -4.498343   0.998231
  198       -4.493966   0.998880
  199       -4.487780   0.999926
  200       -4.484256   1.000593
  201       -4.473415   1.002981
  202       -4.467314   1.004555
  203       -4.463838   1.005527
  204       -4.462263   1.005986
  205       -4.458562   1.007110
  206       -4.452088   1.009224
  207       -4.449359   1.010171
  208       -4.445141   1.011699
  209       -4.440679   1.013398
  210       -4.440407   1.013504
  211       -4.431615   1.017092
  212       -4.424210   1.020324
  213       -4.421304   1.021637
  214       -4.418504   1.022922
  215       -4.409747   1.027046
  216       -4.407218   1.028257
  217       -4.405027   1.029310
  218       -4.402727   1.030417
  219       -4.397576   1.032895
  220       -4.390568   1.036223
  221       -4.386427   1.038142
  222       -4.368324   1.045668
  223       -4.366081   1.046456
  224       -4.360821   1.048131
  225       -4.352774   1.050146
  226       -4.345519   1.051274
  227       -4.337434   1.051605
  228       -4.336797   1.051584
  229       -4.334238   1.051429
  230       -4.333185   1.051329
  231       -4.331979   1.051190
  232       -4.330869   1.051036
  233       -4.326896   1.050283
  234       -4.323888   1.049491
  235       -4.323469   1.049365
  236       -4.319979   1.048159
  237       -4.319198   1.047851
  238       -4.316747   1.046787
  239       -4.314362   1.045609
  240       -4.308429   1.042041
  241       -4.306933   1.040992
  242       -4.299007   1.034362
  243       -4.291255   1.026033
  244       -4.289188   1.023486
  245       -4.287654   1.021505
  246       -4.285852   1.019077
  247       -4.282101   1.013667
  248       -4.279786   1.010085
  249       -4.277183   1.005830
  250       -4.270839   0.994435
  251       -4.266163   0.985086
  252       -4.262074   0.976233
  253       -4.260327   0.972257
  254       -4.257177   0.964795
  255       -4.252886   0.954011
  256       -4.251234   0.949670
  257       -4.249198   0.944173
  258       -4.245548   0.933916
  259       -4.243533   0.928032
  260       -4.242229   0.924143
  261       -4.240149   0.917800
  262       -4.238934   0.914018
  263       -4.236540   0.906401
  264       -4.235326   0.902453
  265       -4.233632   0.896854
  266       -4.228119   0.877881
  267       -4.222036   0.855646
  268       -4.220267   0.848926
  269       -4.218132   0.840673
  270       -4.215337   0.829631
  271       -4.213975   0.824151
  272       -4.206747   0.794051
  273       -4.201967   0.773245
  274       -4.195530   0.744165
  275       -4.183698   0.687910
  276       -4.180780   0.673548
  277       -4.174852   0.643871
  278       -4.171561   0.627141
  279       -4.170851   0.623509
  280       -4.168498   0.611427
  281       -4.158847   0.561199
  282       -4.155306   0.542577
  283       -4.137024   0.446042
  284       -4.129274   0.405533
  285       -4.125893   0.388049
  286       -4.125083   0.383884
  287       -4.115021   0.332944
  288       -4.109039   0.303537
  289       -4.037578   0.035845
  290       -3.961860  -0.051269
  291       -3.902380  -0.035497
  292       -3.825168  -0.004018
  293       -3.813502  -0.001258
  294       -3.693601   0.003736
  295       -3.500468   0.000094
  296       -3.492616   0.000076
  297       -3.368345   0.000002
  298       -3.072359   0.000000
  299       -3.060941   0.000000
  300       -3.039717   0.000000
  301       -3.039375   0.000000
  302       -3.018507   0.000000
  303       -2.962924   0.000000
  304       -2.948934   0.000000
  305       -2.810891   0.000000
  306       -2.550186   0.000000
  307       -2.524495   0.000000
  308       -2.381836   0.000000
  309       -2.285941   0.000000
  310       -2.127162   0.000000
  311       -2.120209   0.000000
  312       -2.113532   0.000000
  313       -2.008884   0.000000
  314       -1.977481   0.000000
  315       -1.930444   0.000000
  316       -1.864655   0.000000
  317       -1.842171   0.000000
  318       -1.749439   0.000000
  319       -1.709157   0.000000
  320       -1.646182   0.000000
  321       -1.593977   0.000000
  322       -1.562013   0.000000
  323       -1.439700   0.000000
  324       -1.322240   0.000000
  325       -1.283569   0.000000
  326       -1.137866   0.000000
  327       -1.098497   0.000000
  328       -1.005074   0.000000
  329       -0.985589   0.000000
  330       -0.980507   0.000000
  331       -0.946907   0.000000
  332       -0.935282   0.000000
  333       -0.890434   0.000000
  334       -0.877899   0.000000
  335       -0.810529   0.000000
  336       -0.770367   0.000000
