 running on    1 total cores
 distrk:  each k-point on    1 cores,    1 groups
 distr:  one band on    1 cores,    1 groups
 using from now: INCAR     
 vasp.5.4.4.18Apr17-6-g9f103f2a35 (build Sep 03 2018 23:53:05) complex          
  
 POSCAR found type information on POSCAR  Pd C  O 
 POSCAR found :  3 types and      57 ions
 scaLAPACK will be used

 ----------------------------------------------------------------------------- 
|                                                                             |
|  ADVICE TO THIS USER RUNNING 'VASP/VAMP'   (HEAR YOUR MASTER'S VOICE ...):  |
|                                                                             |
|      You enforced a specific xc-type in the INCAR file,                     |
|      a different type was found on the POTCAR file                          |
|          I HOPE YOU KNOW, WHAT YOU ARE  DOING                               |
|                                                                             |
 ----------------------------------------------------------------------------- 

 LDA part: xc-table for Pade appr. of Perdew
 POSCAR, INCAR and KPOINTS ok, starting setup
 FFT: planning ...
 WAVECAR not read
 entering main loop
       N       E                     dE             d eps       ncg     rms          rms(c)
DAV:   1     0.440284472766E+04    0.44028E+04   -0.10052E+05   688   0.815E+02
DAV:   2     0.201370474361E+04   -0.23891E+04   -0.21496E+04  1224   0.105E+02
DAV:   3     0.239838083425E+03   -0.17739E+04   -0.16684E+04   976   0.922E+01
DAV:   4    -0.133577436715E+03   -0.37342E+03   -0.31852E+03   848   0.439E+01
DAV:   5    -0.180014120934E+03   -0.46437E+02   -0.38206E+02  1040   0.147E+01    0.205E+01
RMM:   6    -0.179165411878E+03    0.84871E+00   -0.68190E+01   723   0.942E+00    0.235E+01
RMM:   7    -0.184498292982E+03   -0.53329E+01   -0.26197E+01   836   0.558E+00    0.282E+01
RMM:   8    -0.189119991923E+03   -0.46217E+01   -0.12439E+01   786   0.435E+00    0.356E+01
RMM:   9    -0.185958656006E+03    0.31613E+01   -0.10134E+01   729   0.405E+00    0.282E+01
RMM:  10    -0.182445029811E+03    0.35136E+01   -0.66258E+00   722   0.373E+00    0.281E+01
RMM:  11    -0.179577105082E+03    0.28679E+01   -0.41986E+00   717   0.289E+00    0.191E+01
RMM:  12    -0.178810156377E+03    0.76695E+00   -0.30138E+00   720   0.257E+00    0.214E+01
RMM:  13    -0.177266658485E+03    0.15435E+01   -0.21101E+00   722   0.211E+00    0.203E+01
RMM:  14    -0.177855532067E+03   -0.58887E+00   -0.21216E+00   710   0.213E+00    0.310E+01
RMM:  15    -0.176624921061E+03    0.12306E+01   -0.16772E+00   714   0.189E+00    0.226E+01
RMM:  16    -0.176563160545E+03    0.61761E-01   -0.11909E+00   716   0.160E+00    0.236E+01
RMM:  17    -0.175745272509E+03    0.81789E+00   -0.69553E-01   713   0.122E+00    0.163E+01
RMM:  18    -0.175299632118E+03    0.44564E+00   -0.64748E-01   701   0.114E+00    0.113E+01
RMM:  19    -0.175527929079E+03   -0.22830E+00   -0.47301E-01   714   0.101E+00    0.141E+01
RMM:  20    -0.175020697835E+03    0.50723E+00   -0.38348E-01   701   0.941E-01    0.943E+00
RMM:  21    -0.174885882513E+03    0.13482E+00   -0.30984E-01   696   0.845E-01    0.101E+01
RMM:  22    -0.174753723433E+03    0.13216E+00   -0.25500E-01   697   0.775E-01    0.938E+00
RMM:  23    -0.174663202626E+03    0.90521E-01   -0.19483E-01   697   0.682E-01    0.877E+00
RMM:  24    -0.174451714340E+03    0.21149E+00   -0.18562E-01   697   0.659E-01    0.555E+00
RMM:  25    -0.174345040428E+03    0.10667E+00   -0.14712E-01   698   0.572E-01    0.456E+00
RMM:  26    -0.174344100962E+03    0.93947E-03   -0.10298E-01   698   0.488E-01    0.465E+00
RMM:  27    -0.174316293513E+03    0.27807E-01   -0.96249E-02   696   0.472E-01    0.434E+00
RMM:  28    -0.174255620644E+03    0.60673E-01   -0.67787E-02   699   0.417E-01    0.307E+00
RMM:  29    -0.174280775237E+03   -0.25155E-01   -0.70212E-02   693   0.406E-01    0.408E+00
RMM:  30    -0.174230877091E+03    0.49898E-01   -0.47350E-02   693   0.364E-01    0.307E+00
RMM:  31    -0.174208956432E+03    0.21921E-01   -0.25830E-02   695   0.276E-01    0.223E+00
RMM:  32    -0.174194363055E+03    0.14593E-01   -0.12323E-02   692   0.193E-01    0.155E+00
RMM:  33    -0.174185978667E+03    0.83844E-02   -0.82413E-03   695   0.145E-01    0.118E+00
RMM:  34    -0.174182202675E+03    0.37760E-02   -0.48882E-03   690   0.112E-01    0.775E-01
RMM:  35    -0.174180591550E+03    0.16111E-02   -0.37258E-03   690   0.982E-02    0.707E-01
RMM:  36    -0.174179992406E+03    0.59914E-03   -0.27121E-03   687   0.853E-02    0.558E-01
RMM:  37    -0.174181691380E+03   -0.16990E-02   -0.28119E-03   690   0.826E-02    0.638E-01
RMM:  38    -0.174181749985E+03   -0.58604E-04   -0.13855E-03   686   0.610E-02    0.484E-01
RMM:  39    -0.174182620527E+03   -0.87054E-03   -0.96700E-04   685   0.518E-02    0.361E-01
RMM:  40    -0.174183852436E+03   -0.12319E-02   -0.73591E-04   674   0.441E-02    0.285E-01
RMM:  41    -0.174186357456E+03   -0.25050E-02   -0.74362E-04   677   0.428E-02    0.322E-01
RMM:  42    -0.174189386855E+03   -0.30294E-02   -0.74327E-04   662   0.395E-02    0.344E-01
RMM:  43    -0.174190707894E+03   -0.13210E-02   -0.32114E-04   440   0.293E-02    0.252E-01
RMM:  44    -0.174193560696E+03   -0.28528E-02   -0.45912E-04   536   0.300E-02    0.164E-01
RMM:  45    -0.174195433306E+03   -0.18726E-02   -0.28979E-04   432   0.248E-02    0.151E-01
RMM:  46    -0.174198541958E+03   -0.31087E-02   -0.43719E-04   500   0.258E-02    0.156E-01
RMM:  47    -0.174199926219E+03   -0.13843E-02   -0.24299E-04   425   0.204E-02    0.805E-02
RMM:  48    -0.174201589421E+03   -0.16632E-02   -0.24276E-04   431   0.191E-02    0.106E-01
RMM:  49    -0.174203148885E+03   -0.15595E-02   -0.24719E-04   432   0.181E-02    0.674E-02
RMM:  50    -0.174203562729E+03   -0.41384E-03   -0.83282E-05   414   0.109E-02    0.487E-02
RMM:  51    -0.174204685415E+03   -0.11227E-02   -0.66924E-05   408   0.924E-03    0.427E-02
RMM:  52    -0.174205042258E+03   -0.35684E-03   -0.34374E-05   387   0.687E-03    0.298E-02
RMM:  53    -0.174205778049E+03   -0.73579E-03   -0.30942E-05   394   0.677E-03    0.413E-02
RMM:  54    -0.174206346552E+03   -0.56850E-03   -0.22416E-05   358   0.584E-03    0.226E-02
RMM:  55    -0.174206627158E+03   -0.28061E-03   -0.92297E-06   231   0.439E-03    0.240E-02
RMM:  56    -0.174207014535E+03   -0.38738E-03   -0.79272E-06   214   0.433E-03    0.179E-02
RMM:  57    -0.174207129937E+03   -0.11540E-03   -0.33980E-06   147   0.384E-03    0.116E-02
RMM:  58    -0.174207391728E+03   -0.26179E-03   -0.55206E-06   173   0.406E-03    0.118E-02
RMM:  59    -0.174207597520E+03   -0.20579E-03   -0.59274E-06   177   0.403E-03    0.100E-02
RMM:  60    -0.174207857217E+03   -0.25970E-03   -0.14417E-05   233   0.425E-03    0.979E-03
RMM:  61    -0.174207872246E+03   -0.15030E-04    0.14698E-08    79   0.310E-03
   1 F= -.17420787E+03 E0= -.17419906E+03  d E =-.352343E-01
================================= SLURM INFO ===================================
Command: run-cluster -n 1 -m 10000 -j 0087_vasp --same-node /opt/VASP/vasp
Exit code: 0
Job name: 0087_vasp
Job time: 0 days 4h:37m:46s
MPI task count: 1
Working dir: /home/pashkov/pyFitIt/pyfitit/data/random_pd_co_new/sample/0087
Job was running on nodes: h15
Task per node: 1
       JobID     MaxRSS  MaxDiskRead MaxDiskWrite    Elapsed    JobName 
------------ ---------- ------------ ------------ ---------- ---------- 
105145                                              04:37:46  0087_vasp 
105145.batch                                        04:37:46      batch 
