 vasp.5.4.4.18Apr17-6-g9f103f2a35 (build Sep 03 2018 23:53:05) complex          
  
 executed on             LinuxIFC date 2021.11.26  07:49:42
 running on    1 total cores
 distrk:  each k-point on    1 cores,    1 groups
 distr:  one band on NCORES_PER_BAND=   1 cores,    1 groups


--------------------------------------------------------------------------------------------------------


 INCAR:
 POTCAR:    PAW_PBE Pd 04Jan2005                  
 POTCAR:    PAW_PBE C 08Apr2002                   
 POTCAR:    PAW_PBE O 08Apr2002                   
 POTCAR:    PAW_PBE Pd 04Jan2005                  
   VRHFIN =Pd : s1 d9                                                           
   LEXCH  = PE                                                                  
   EATOM  =   809.7530 eV,   59.5152 Ry                                         
                                                                                
   TITEL  = PAW_PBE Pd 04Jan2005                                                
   LULTRA =        F    use ultrasoft PP ?                                      
   IUNSCR =        1    unscreen: 0-lin 1-nonlin 2-no                           
   RPACOR =    2.000    partial core radius                                     
   POMASS =  106.420; ZVAL   =   10.000    mass and valenz                      
   RCORE  =    2.600    outmost cutoff radius                                   
   RWIGS  =    2.710; RWIGS  =    1.434    wigner-seitz radius (au A)           
   ENMAX  =  250.925; ENMIN  =  188.194 eV                                      
   ICORE  =        3    local potential                                         
   LCOR   =        T    correct aug charges                                     
   LPAW   =        T    paw PP                                                  
   EAUG   =  416.230                                                            
   DEXC   =    0.000                                                            
   RMAX   =    2.653    core radius for proj-oper                               
   RAUG   =    1.300    factor for augmentation sphere                          
   RDEP   =    2.734    radius for radial grids                                 
   RDEPT  =    2.103    core radius for aug-charge                              
                                                                                
   Atomic configuration                                                         
   12 entries                                                                   
     n  l   j            E        occ.                                          
     1  0  0.50    -24164.6631   2.0000                                         
     2  0  0.50     -3530.9218   2.0000                                         
     2  1  1.50     -3165.6822   6.0000                                         
     3  0  0.50      -639.4577   2.0000                                         
     3  1  1.50      -519.4532   6.0000                                         
     3  2  2.50      -328.9757  10.0000                                         
     4  0  0.50       -88.7014   2.0000                                         
     4  1  1.50       -54.4540   6.0000                                         
     4  2  2.50        -6.6878   9.0000                                         
     5  0  0.50        -4.3543   1.0000                                         
     5  1  0.50        -1.3606   0.0000                                         
     4  3  2.50        -1.3606   0.0000                                         
   Description                                                                  
     l       E           TYP  RCUT    TYP  RCUT                                 
     2     -6.6878251     23  2.400                                             
     2     -8.0484077     23  2.400                                             
     0     -4.3542939     23  2.400                                             
     0      4.3406793     23  2.400                                             
     1     -4.0817478     23  2.600                                             
     1     15.8380318     23  2.600                                             
     3     -4.0817478     23  2.400                                             
  local pseudopotential read in
  partial core-charges read in
  partial kinetic energy density read in
  atomic valenz-charges read in
  non local Contribution for L=           2  read in
    real space projection operators read in
  non local Contribution for L=           2  read in
    real space projection operators read in
  non local Contribution for L=           0  read in
    real space projection operators read in
  non local Contribution for L=           0  read in
    real space projection operators read in
  non local Contribution for L=           1  read in
    real space projection operators read in
  non local Contribution for L=           1  read in
    real space projection operators read in
    PAW grid and wavefunctions read in
 
   number of l-projection  operators is LMAX  =           6
   number of lm-projection operators is LMMAX =          18
 
 POTCAR:    PAW_PBE C 08Apr2002                   
   VRHFIN =C: s2p2                                                              
   LEXCH  = PE                                                                  
   EATOM  =   147.1560 eV,   10.8157 Ry                                         
                                                                                
   TITEL  = PAW_PBE C 08Apr2002                                                 
   LULTRA =        F    use ultrasoft PP ?                                      
   IUNSCR =        1    unscreen: 0-lin 1-nonlin 2-no                           
   RPACOR =    1.200    partial core radius                                     
   POMASS =   12.011; ZVAL   =    4.000    mass and valenz                      
   RCORE  =    1.500    outmost cutoff radius                                   
   RWIGS  =    1.630; RWIGS  =    0.863    wigner-seitz radius (au A)           
   ENMAX  =  400.000; ENMIN  =  300.000 eV                                      
   ICORE  =        2    local potential                                         
   LCOR   =        T    correct aug charges                                     
   LPAW   =        T    paw PP                                                  
   EAUG   =  644.873                                                            
   DEXC   =    0.000                                                            
   RMAX   =    1.529    core radius for proj-oper                               
   RAUG   =    1.300    factor for augmentation sphere                          
   RDEP   =    1.501    radius for radial grids                                 
   RDEPT  =    1.300    core radius for aug-charge                              
                                                                                
   Atomic configuration                                                         
    4 entries                                                                   
     n  l   j            E        occ.                                          
     1  0  0.50      -273.3789   2.0000                                         
     2  0  0.50       -13.7508   2.0000                                         
     2  1  0.50        -5.2854   2.0000                                         
     3  2  1.50        -5.4423   0.0000                                         
   Description                                                                  
     l       E           TYP  RCUT    TYP  RCUT                                 
     0    -13.7508458     23  1.200                                             
     0     -8.2022199     23  1.200                                             
     1     -5.2854383     23  1.500                                             
     1     34.0145650     23  1.500                                             
     2     -5.4423304      7  1.500                                             
  local pseudopotential read in
  partial core-charges read in
  partial kinetic energy density read in
  atomic valenz-charges read in
  non local Contribution for L=           0  read in
    real space projection operators read in
  non local Contribution for L=           0  read in
    real space projection operators read in
  non local Contribution for L=           1  read in
    real space projection operators read in
  non local Contribution for L=           1  read in
    real space projection operators read in
    PAW grid and wavefunctions read in
 
   number of l-projection  operators is LMAX  =           4
   number of lm-projection operators is LMMAX =           8
 
 POTCAR:    PAW_PBE O 08Apr2002                   
   VRHFIN =O: s2p4                                                              
   LEXCH  = PE                                                                  
   EATOM  =   432.3788 eV,   31.7789 Ry                                         
                                                                                
   TITEL  = PAW_PBE O 08Apr2002                                                 
   LULTRA =        F    use ultrasoft PP ?                                      
   IUNSCR =        1    unscreen: 0-lin 1-nonlin 2-no                           
   RPACOR =    1.200    partial core radius                                     
   POMASS =   16.000; ZVAL   =    6.000    mass and valenz                      
   RCORE  =    1.520    outmost cutoff radius                                   
   RWIGS  =    1.550; RWIGS  =    0.820    wigner-seitz radius (au A)           
   ENMAX  =  400.000; ENMIN  =  300.000 eV                                      
   ICORE  =        2    local potential                                         
   LCOR   =        T    correct aug charges                                     
   LPAW   =        T    paw PP                                                  
   EAUG   =  605.392                                                            
   DEXC   =    0.000                                                            
   RMAX   =    1.553    core radius for proj-oper                               
   RAUG   =    1.300    factor for augmentation sphere                          
   RDEP   =    1.550    radius for radial grids                                 
   RDEPT  =    1.329    core radius for aug-charge                              
                                                                                
   Atomic configuration                                                         
    4 entries                                                                   
     n  l   j            E        occ.                                          
     1  0  0.50      -514.6923   2.0000                                         
     2  0  0.50       -23.9615   2.0000                                         
     2  1  0.50        -9.0305   4.0000                                         
     3  2  1.50        -9.5241   0.0000                                         
   Description                                                                  
     l       E           TYP  RCUT    TYP  RCUT                                 
     0    -23.9615318     23  1.200                                             
     0     -9.5240782     23  1.200                                             
     1     -9.0304911     23  1.520                                             
     1      8.1634956     23  1.520                                             
     2     -9.5240782      7  1.500                                             
  local pseudopotential read in
  partial core-charges read in
  partial kinetic energy density read in
  kinetic energy density of atom read in
  atomic valenz-charges read in
  non local Contribution for L=           0  read in
    real space projection operators read in
  non local Contribution for L=           0  read in
    real space projection operators read in
  non local Contribution for L=           1  read in
    real space projection operators read in
  non local Contribution for L=           1  read in
    real space projection operators read in
    PAW grid and wavefunctions read in
 
   number of l-projection  operators is LMAX  =           4
   number of lm-projection operators is LMMAX =           8
 
 Optimization of the real space projectors (new method)

 maximal supplied QI-value         = 14.36
 optimisation between [QCUT,QGAM] = [ 10.20, 20.39] = [ 29.12,116.47] Ry 
 Optimized for a Real-space Cutoff    1.51 Angstroem

   l    n(q)    QCUT    max X(q) W(low)/X(q) W(high)/X(q)  e(spline) 
   2      8    10.197    59.108    0.26E-03    0.14E-03    0.96E-07
   2      8    10.197    58.101    0.27E-03    0.14E-03    0.98E-07
   0      9    10.197   102.235    0.54E-04    0.60E-05    0.72E-07
   0      9    10.197    58.388    0.52E-04    0.60E-05    0.68E-07
   1      9    10.197    22.191    0.18E-03    0.25E-03    0.79E-07
   1      9    10.197    15.590    0.15E-03    0.21E-03    0.69E-07
 Optimization of the real space projectors (new method)

 maximal supplied QI-value         = 25.13
 optimisation between [QCUT,QGAM] = [ 10.05, 20.36] = [ 28.30,116.06] Ry 
 Optimized for a Real-space Cutoff    1.30 Angstroem

   l    n(q)    QCUT    max X(q) W(low)/X(q) W(high)/X(q)  e(spline) 
   0      8    10.053   115.676    0.49E-03    0.72E-03    0.18E-06
   0      8    10.053    87.132    0.49E-03    0.71E-03    0.18E-06
   1      7    10.053     4.429    0.32E-03    0.31E-03    0.18E-06
   1      7    10.053     2.733    0.23E-03    0.19E-03    0.20E-06
 Optimization of the real space projectors (new method)

 maximal supplied QI-value         = 24.76
 optimisation between [QCUT,QGAM] = [ 10.15, 20.30] = [ 28.85,115.39] Ry 
 Optimized for a Real-space Cutoff    1.38 Angstroem

   l    n(q)    QCUT    max X(q) W(low)/X(q) W(high)/X(q)  e(spline) 
   0      8    10.150    20.381    0.22E-03    0.32E-03    0.29E-06
   0      8    10.150    15.268    0.23E-03    0.35E-03    0.30E-06
   1      8    10.150     5.964    0.46E-03    0.53E-03    0.21E-06
   1      8    10.150     5.382    0.38E-03    0.45E-03    0.19E-06

 ----------------------------------------------------------------------------- 
|                                                                             |
|  ADVICE TO THIS USER RUNNING 'VASP/VAMP'   (HEAR YOUR MASTER'S VOICE ...):  |
|                                                                             |
|      You enforced a specific xc-type in the INCAR file,                     |
|      a different type was found on the POTCAR file                          |
|          I HOPE YOU KNOW, WHAT YOU ARE  DOING                               |
|                                                                             |
 ----------------------------------------------------------------------------- 

  PAW_PBE Pd 04Jan2005                  :
 energy of atom  1       EATOM= -809.7530
 kinetic energy error for atom=    0.0091 (will be added to EATOM!!)
  PAW_PBE C 08Apr2002                   :
 energy of atom  2       EATOM= -147.1560
 kinetic energy error for atom=    0.0288 (will be added to EATOM!!)
  PAW_PBE O 08Apr2002                   :
 energy of atom  3       EATOM= -432.3788
 kinetic energy error for atom=    0.1156 (will be added to EATOM!!)
 
 
 POSCAR: Pd55PES                                 
  positions in cartesian coordinates
  No initial velocities read in
 exchange correlation table for  LEXCH =        9
   RHO(1)=    0.500       N(1)  =     2000
   RHO(2)=  100.500       N(2)  =     4000
 


--------------------------------------------------------------------------------------------------------


 ion  position               nearest neighbor table
   1  0.446  0.328  0.417-   3 3.25   5 3.25   7 3.36  15 3.36  29 3.42  28 3.42
   2  0.672  0.554  0.417-  26 3.25  30 3.25  17 3.36   9 3.36  47 3.42  49 3.42
   3  0.554  0.328  0.417-   1 3.25   5 3.25   7 3.36  11 3.36  29 3.42  21 3.42
   4  0.328  0.554  0.417-  32 3.25  22 3.25  13 3.36   8 3.36  43 3.42  48 3.42
   5  0.500  0.383  0.340-   1 3.25   3 3.25  11 3.36  15 3.36  21 3.42  28 3.42
   6  0.500  0.383  0.660-  24 3.25  19 3.25  16 3.36  12 3.36  42 3.42  44 3.42
   7  0.500  0.276  0.500-  29 3.24   3 3.36   1 3.36  19 3.36  24 3.36
   8  0.276  0.500  0.500-  48 3.24  22 3.36  40 3.36   4 3.36  25 3.36
   9  0.724  0.500  0.500-  49 3.24  26 3.36  45 3.36   2 3.36  20 3.36
  10  0.500  0.724  0.500-  55 3.24  27 3.36  23 3.36  46 3.36  41 3.36
  11  0.612  0.388  0.342-  21 3.24   5 3.36   3 3.36  30 3.36  26 3.36
  12  0.612  0.388  0.658-  42 3.24  24 3.36  45 3.36   6 3.36  31 3.36
  13  0.388  0.612  0.342-  43 3.24  32 3.36  50 3.36   4 3.36  27 3.36
  14  0.388  0.612  0.658-  53 3.24  25 3.36  33 3.36  51 3.36  46 3.36
  15  0.388  0.388  0.342-  28 3.24   5 3.36   1 3.36  32 3.36  22 3.36
  16  0.388  0.388  0.658-  44 3.24  19 3.36  40 3.36   6 3.36  33 3.36
  17  0.612  0.612  0.342-  47 3.24  30 3.36  50 3.36   2 3.36  23 3.36
  18  0.612  0.612  0.658-  54 3.24  31 3.36  20 3.36  51 3.36  41 3.36
  19  0.446  0.328  0.583-   6 3.25  24 3.25  16 3.36   7 3.36  44 3.42  29 3.42
  20  0.672  0.554  0.583-  31 3.25  45 3.25  18 3.36   9 3.36  54 3.42  49 3.42
  21  0.558  0.442  0.418-  11 3.24   5 3.42   3 3.42  30 3.42  26 3.42
  22  0.328  0.446  0.417-   4 3.25  32 3.25   8 3.36  15 3.36  48 3.42  28 3.42
  23  0.554  0.672  0.417-  27 3.25  50 3.25  10 3.36  17 3.36  55 3.42  47 3.42
  24  0.554  0.328  0.583-   6 3.25  19 3.25  12 3.36   7 3.36  42 3.42  29 3.42
  25  0.328  0.554  0.583-  33 3.25  40 3.25  14 3.36   8 3.36  53 3.42  48 3.42
  26  0.672  0.446  0.417-   2 3.25  30 3.25   9 3.36  11 3.36  49 3.42  21 3.42
  27  0.446  0.672  0.417-  23 3.25  50 3.25  10 3.36  13 3.36  55 3.42  43 3.42
  28  0.442  0.442  0.418-  15 3.24   5 3.42   1 3.42  32 3.42  22 3.42
  29  0.500  0.384  0.500-   7 3.24   3 3.42   1 3.42  24 3.42  19 3.42
  30  0.617  0.500  0.340-   2 3.25  26 3.25  17 3.36  11 3.36  47 3.42  21 3.42
  31  0.617  0.500  0.660-  20 3.25  45 3.25  18 3.36  12 3.36  54 3.42  42 3.42
  32  0.383  0.500  0.340-   4 3.25  22 3.25  13 3.36  15 3.36  43 3.42  28 3.42
  33  0.383  0.500  0.660-  25 3.25  40 3.25  14 3.36  16 3.36  53 3.42  44 3.42
  34  0.383  0.383  0.500-
  35  0.617  0.617  0.500-
  36  0.617  0.383  0.500-
  37  0.383  0.617  0.500-
  38  0.500  0.500  0.335-
  39  0.500  0.500  0.665-
  40  0.328  0.446  0.583-  33 3.25  25 3.25  16 3.36   8 3.36  44 3.42  48 3.42
  41  0.554  0.672  0.583-  46 3.25  51 3.25  10 3.36  18 3.36  54 3.42  55 3.42
  42  0.558  0.442  0.582-  12 3.24   6 3.42  24 3.42  31 3.42  45 3.42
  43  0.442  0.558  0.418-  13 3.24   4 3.42  32 3.42  27 3.42  50 3.42
  44  0.442  0.442  0.582-  16 3.24   6 3.42  19 3.42  33 3.42  40 3.42
  45  0.672  0.446  0.583-  20 3.25  31 3.25   9 3.36  12 3.36  49 3.42  42 3.42
  46  0.446  0.672  0.583-  41 3.25  51 3.25  10 3.36  14 3.36  53 3.42  55 3.42
  47  0.558  0.558  0.418-  17 3.24   2 3.42  30 3.42  23 3.42  50 3.42
  48  0.384  0.500  0.500-   8 3.24   4 3.42  22 3.42  25 3.42  40 3.42
  49  0.616  0.500  0.500-   9 3.24   2 3.42  26 3.42  20 3.42  45 3.42
  50  0.500  0.617  0.340-  27 3.25  23 3.25  13 3.36  17 3.36  43 3.42  47 3.42
  51  0.500  0.617  0.660-  56 2.70  46 3.25  41 3.25  18 3.36  14 3.36  53 3.42  54 3.42
  52  0.500  0.500  0.500-
  53  0.442  0.558  0.582-  14 3.24  25 3.42  33 3.42  51 3.42  46 3.42
  54  0.558  0.558  0.582-  18 3.24  31 3.42  20 3.42  51 3.42  41 3.42
  55  0.500  0.616  0.500-  10 3.24  23 3.42  27 3.42  41 3.42  46 3.42
  56  0.477  0.655  0.738-  57 1.13  51 2.70
  57  0.474  0.676  0.769-  56 1.13
 
  LATTYP: Found a simple cubic cell.
 ALAT       =    30.0000000000
  
  Lattice vectors:
  
 A1 = (  30.0000000000,   0.0000000000,   0.0000000000)
 A2 = (   0.0000000000,  30.0000000000,   0.0000000000)
 A3 = (   0.0000000000,   0.0000000000,  30.0000000000)


Analysis of symmetry for initial positions (statically):
=====================================================================
 Subroutine PRICEL returns:
 Original cell was already a primitive cell.
 

 Routine SETGRP: Setting up the symmetry group for a 
 simple cubic supercell.


 Subroutine GETGRP returns: Found  1 space group operations
 (whereof  1 operations were pure point group operations)
 out of a pool of 48 trial point group operations.


The static configuration has the point symmetry C_1 .


Analysis of symmetry for dynamics (positions and initial velocities):
=====================================================================
 Subroutine PRICEL returns:
 Original cell was already a primitive cell.
 

 Routine SETGRP: Setting up the symmetry group for a 
 simple cubic supercell.


 Subroutine GETGRP returns: Found  1 space group operations
 (whereof  1 operations were pure point group operations)
 out of a pool of 48 trial point group operations.


The dynamic configuration has the point symmetry C_1 .


Analysis of constrained symmetry for selective dynamics:
=====================================================================
 Subroutine PRICEL returns:
 Original cell was already a primitive cell.
 

 Routine SETGRP: Setting up the symmetry group for a 
 simple cubic supercell.


 Subroutine GETGRP returns: Found  1 space group operations
 (whereof  1 operations were pure point group operations)
 out of a pool of 48 trial point group operations.


The constrained configuration has the point symmetry C_1 .


 Subroutine INISYM returns: Found  1 space group operations
 (whereof  1 operations are pure point group operations),
 and found     1 'primitive' translations

 
 
 KPOINTS: K-points                                

Automatic generation of k-mesh.
Space group operators:
 irot       det(A)        alpha          n_x          n_y          n_z        tau_x        tau_y        tau_z
    1     1.000000     0.000000     1.000000     0.000000     0.000000     0.000000     0.000000     0.000000
 
 Subroutine IBZKPT returns following result:
 ===========================================
 
 Found      1 irreducible k-points:
 
 Following reciprocal coordinates:
            Coordinates               Weight
  0.000000  0.000000  0.000000      1.000000
 
 Following cartesian coordinates:
            Coordinates               Weight
  0.000000  0.000000  0.000000      1.000000
 


--------------------------------------------------------------------------------------------------------




 Dimension of arrays:
   k-points           NKPTS =      1   k-points in BZ     NKDIM =      1   number of bands    NBANDS=    336
   number of dos      NEDOS =    301   number of ions     NIONS =     57
   non local maximal  LDIM  =      6   non local SUM 2l+1 LMDIM =     18
   total plane-waves  NPLWV = ******
   max r-space proj   IRMAX =   1847   max aug-charges    IRDMAX=   6262
   dimension x,y,z NGX =   150 NGY =  150 NGZ =  150
   dimension x,y,z NGXF=   300 NGYF=  300 NGZF=  300
   support grid    NGXF=   300 NGYF=  300 NGZF=  300
   ions per type =              55   1   1
   NGX,Y,Z   is equivalent  to a cutoff of   8.31,  8.31,  8.31 a.u.
   NGXF,Y,Z  is equivalent  to a cutoff of  16.62, 16.62, 16.62 a.u.

 SYSTEM =  6_Pd100_top_free_z(O)                   
 POSCAR =  Pd55PES                                 

 Startparameter for this run:
   NWRITE =      2    write-flag & timer
   PREC   = normal    normal or accurate (medium, high low for compatibility)
   ISTART =      0    job   : 0-new  1-cont  2-samecut
   ICHARG =      2    charge: 1-file 2-atom 10-const
   ISPIN  =      1    spin polarized calculation?
   LNONCOLLINEAR =      F non collinear calculations
   LSORBIT =      F    spin-orbit coupling
   INIWAV =      1    electr: 0-lowe 1-rand  2-diag
   LASPH  =      F    aspherical Exc in radial PAW
   METAGGA=      F    non-selfconsistent MetaGGA calc.

 Electronic Relaxation 1
   ENCUT  =  400.0 eV  29.40 Ry    5.42 a.u.  48.92 48.92 48.92*2*pi/ulx,y,z
   ENINI  =  400.0     initial cutoff
   ENAUG  =  644.9 eV  augmentation charge cutoff
   NELM   =    100;   NELMIN=  6; NELMDL= -5     # of ELM steps 
   EDIFF  = 0.1E-03   stopping-criterion for ELM
   LREAL  =      T    real-space projection
   NLSPLINE    = F    spline interpolate recip. space projectors
   LCOMPAT=      F    compatible to vasp.4.4
   GGA_COMPAT  = T    GGA compatible to vasp.4.4-vasp.4.6
   LMAXPAW     = -100 max onsite density
   LMAXMIX     =    2 max onsite mixed and CHGCAR
   VOSKOWN=      0    Vosko Wilk Nusair interpolation
   ROPT   =   -0.00050  -0.00050  -0.00050
 Ionic relaxation
   EDIFFG = -.5E-01   stopping-criterion for IOM
   NSW    =      0    number of steps for IOM
   NBLOCK =      1;   KBLOCK =      1    inner block; outer block 
   IBRION =     -1    ionic relax: 0-MD 1-quasi-New 2-CG
   NFREE  =      1    steps in history (QN), initial steepest desc. (CG)
   ISIF   =      2    stress and relaxation
   IWAVPR =     10    prediction:  0-non 1-charg 2-wave 3-comb
   ISYM   =      2    0-nonsym 1-usesym 2-fastsym
   LCORR  =      T    Harris-Foulkes like correction to forces

   POTIM  = 0.5000    time-step for ionic-motion
   TEIN   =    0.0    initial temperature
   TEBEG  =    0.0;   TEEND  =   0.0 temperature during run
   SMASS  =  -3.00    Nose mass-parameter (am)
   estimated Nose-frequenzy (Omega)   =  0.10E-29 period in steps =****** mass=  -0.206E-25a.u.
   SCALEE = 1.0000    scale energy and forces
   NPACO  =    256;   APACO  = 16.0  distance and # of slots for P.C.
   PSTRESS=    0.0 pullay stress

  Mass of Ions in am
   POMASS = 106.42 12.01 16.00
  Ionic Valenz
   ZVAL   =  10.00  4.00  6.00
  Atomic Wigner-Seitz radii
   RWIGS  =  -1.00 -1.00 -1.00
  virtual crystal weights 
   VCA    =   1.00  1.00  1.00
   NELECT =     560.0000    total number of electrons
   NUPDOWN=      -1.0000    fix difference up-down

 DOS related values:
   EMIN   =  10.00;   EMAX   =-10.00  energy-range for DOS
   EFERMI =   0.00
   ISMEAR =     2;   SIGMA  =   0.20  broadening in eV -4-tet -1-fermi 0-gaus

 Electronic relaxation 2 (details)
   IALGO  =     68    algorithm
   LDIAG  =      T    sub-space diagonalisation (order eigenvalues)
   LSUBROT=      F    optimize rotation matrix (better conditioning)
   TURBO    =      0    0=normal 1=particle mesh
   IRESTART =      0    0=no restart 2=restart with 2 vectors
   NREBOOT  =      0    no. of reboots
   NMIN     =      0    reboot dimension
   EREF     =   0.00    reference energy to select bands
   IMIX   =      4    mixing-type and parameters
     AMIX     =   0.40;   BMIX     =  1.00
     AMIX_MAG =   1.60;   BMIX_MAG =  1.00
     AMIN     =   0.10
     WC   =   100.;   INIMIX=   1;  MIXPRE=   1;  MAXMIX= -45

 Intra band minimization:
   WEIMIN = 0.0000     energy-eigenvalue tresh-hold
   EBREAK =  0.74E-07  absolut break condition
   DEPER  =   0.30     relativ break condition  

   TIME   =   0.40     timestep for ELM

  volume/ion in A,a.u.               =     473.68      3196.58
  Fermi-wavevector in a.u.,A,eV,Ry     =   0.449797  0.849992  2.752691  0.202317
  Thomas-Fermi vector in A             =   1.430086
 
 Write flags
   LWAVE        =      F    write WAVECAR
   LDOWNSAMPLE  =      F    k-point downsampling of WAVECAR
   LCHARG       =      F    write CHGCAR
   LVTOT        =      F    write LOCPOT, total local potential
   LVHAR        =      F    write LOCPOT, Hartree potential only
   LELF         =      F    write electronic localiz. function (ELF)
   LORBIT       =      0    0 simple, 1 ext, 2 COOP (PROOUT), +10 PAW based schemes


 Dipole corrections
   LMONO  =      F    monopole corrections only (constant potential shift)
   LDIPOL =      F    correct potential (dipole corrections)
   IDIPOL =      0    1-x, 2-y, 3-z, 4-all directions 
   EPSILON=  1.0000000 bulk dielectric constant

 Exchange correlation treatment:
   GGA     =    RP    GGA type
   LEXCH   =     9    internal setting for exchange type
   VOSKOWN=      0    Vosko Wilk Nusair interpolation
   LHFCALC =     F    Hartree Fock is set to
   LHFONE  =     F    Hartree Fock one center treatment
   AEXX    =    0.0000 exact exchange contribution

 Linear response parameters
   LEPSILON=     F    determine dielectric tensor
   LRPA    =     F    only Hartree local field effects (RPA)
   LNABLA  =     F    use nabla operator in PAW spheres
   LVEL    =     F    velocity operator in full k-point grid
   LINTERFAST=   F  fast interpolation
   KINTER  =     0    interpolate to denser k-point grid
   CSHIFT  =0.1000    complex shift for real part using Kramers Kronig
   OMEGAMAX=  -1.0    maximum frequency
   DEG_THRESHOLD= 0.2000000E-02 threshold for treating states as degnerate
   RTIME   =   -0.100 relaxation time in fs
  (WPLASMAI=    0.000 imaginary part of plasma frequency in eV, 0.658/RTIME)
   DFIELD  = 0.0000000 0.0000000 0.0000000 field for delta impulse in time
 
 Orbital magnetization related:
   ORBITALMAG=     F  switch on orbital magnetization
   LCHIMAG   =     F  perturbation theory with respect to B field
   DQ        =  0.001000  dq finite difference perturbation B field
   LLRAUG    =     F  two centre corrections for induced B field



--------------------------------------------------------------------------------------------------------


 Static calculation
 charge density and potential will be updated during run
 non-spin polarized calculation
 RMM-DIIS sequential band-by-band and
  variant of blocked Davidson during initial phase
 perform sub-space diagonalisation
    before iterative eigenvector-optimisation
 modified Broyden-mixing scheme, WC =      100.0
 initial mixing is a Kerker type mixing with AMIX =  0.4000 and BMIX =      1.0000
 Hartree-type preconditioning will be used
 using additional bands           56
 real space projection scheme for non local part
 use partial core corrections
 calculate Harris-corrections to forces 
   (improved forces if not selfconsistent)
 use gradient corrections 
 use of overlap-Matrix (Vanderbilt PP)
 Methfessel and Paxton  Order N= 2 SIGMA  =   0.20


--------------------------------------------------------------------------------------------------------


  energy-cutoff  :      400.00
  volume of cell :    27000.00
      direct lattice vectors                 reciprocal lattice vectors
    30.000000000  0.000000000  0.000000000     0.033333333  0.000000000  0.000000000
     0.000000000 30.000000000  0.000000000     0.000000000  0.033333333  0.000000000
     0.000000000  0.000000000 30.000000000     0.000000000  0.000000000  0.033333333

  length of vectors
    30.000000000 30.000000000 30.000000000     0.033333333  0.033333333  0.033333333


 
 k-points in units of 2pi/SCALE and weight: K-points                                
   0.00000000  0.00000000  0.00000000       1.000
 
 k-points in reciprocal lattice and weights: K-points                                
   0.00000000  0.00000000  0.00000000       1.000
 
 position of ions in fractional coordinates (direct lattice) 
   0.44576020  0.32826710  0.41691983
   0.67173288  0.55423978  0.41691983
   0.55423980  0.32826710  0.41691983
   0.32826712  0.55423978  0.41691983
   0.50000000  0.38250690  0.34021317
   0.50000000  0.38250690  0.65978680
   0.50000000  0.27609440  0.50000000
   0.27609443  0.49999998  0.50000000
   0.72390557  0.49999998  0.50000000
   0.50000000  0.72390555  0.50000000
   0.61195280  0.38804720  0.34167483
   0.61195280  0.38804720  0.65832513
   0.38804722  0.61195278  0.34167483
   0.38804722  0.61195278  0.65832513
   0.38804720  0.38804720  0.34167483
   0.38804720  0.38804720  0.65832513
   0.61195278  0.61195278  0.34167483
   0.61195278  0.61195278  0.65832513
   0.44576020  0.32826710  0.58308023
   0.67173288  0.55423978  0.58308023
   0.55791699  0.44208301  0.41809300
   0.32826705  0.44576024  0.41691983
   0.55423973  0.67173293  0.41691983
   0.55423980  0.32826710  0.58308023
   0.32826712  0.55423978  0.58308023
   0.67173295  0.44576024  0.41691983
   0.44576027  0.67173293  0.41691983
   0.44208301  0.44208301  0.41809300
   0.50000000  0.38416601  0.50000000
   0.61749315  0.50000005  0.34021317
   0.61749315  0.50000005  0.65978680
   0.38250685  0.50000005  0.34021317
   0.38250685  0.50000005  0.65978680
   0.38317830  0.38317830  0.50000000
   0.61682172  0.61682172  0.50000000
   0.61682170  0.38317830  0.50000000
   0.38317828  0.61682172  0.50000000
   0.50000000  0.50000000  0.33478917
   0.50000000  0.50000000  0.66521087
   0.32826705  0.44576024  0.58308023
   0.55423973  0.67173293  0.58308023
   0.55791699  0.44208301  0.58190703
   0.44208298  0.55791702  0.41809300
   0.44208301  0.44208301  0.58190703
   0.67173295  0.44576024  0.58308023
   0.44576027  0.67173293  0.58308023
   0.55791702  0.55791702  0.41809300
   0.38416599  0.50000002  0.50000000
   0.61583401  0.50000002  0.50000000
   0.50000000  0.61749319  0.34021317
   0.50000000  0.61749319  0.65978680
   0.50000000  0.50000000  0.50000000
   0.44208298  0.55791702  0.58190703
   0.55791702  0.55791702  0.58190703
   0.50000000  0.61583404  0.50000000
   0.47685640  0.65531860  0.73802287
   0.47380473  0.67579850  0.76940793
 
 position of ions in cartesian coordinates  (Angst):
  13.37280588  9.84801292 12.50759500
  20.15198637 16.62719342 12.50759500
  16.62719412  9.84801292 12.50759500
   9.84801363 16.62719342 12.50759500
  15.00000000 11.47520705 10.20639500
  15.00000000 11.47520705 19.79360400
  15.00000000  8.28283206 15.00000000
   8.28283277 14.99999929 15.00000000
  21.71716723 14.99999929 15.00000000
  15.00000000 21.71716652 14.99999999
  18.35858397 11.64141603 10.25024500
  18.35858397 11.64141603 19.74975399
  11.64141674 18.35858326 10.25024500
  11.64141674 18.35858326 19.74975400
  11.64141603 11.64141603 10.25024500
  11.64141603 11.64141603 19.74975400
  18.35858326 18.35858326 10.25024500
  18.35858326 18.35858326 19.74975400
  13.37280588  9.84801291 17.49240700
  20.15198638 16.62719341 17.49240700
  16.73750985 13.26249015 12.54279000
   9.84801151 13.37280729 12.50759500
  16.62719200 20.15198779 12.50759500
  16.62719412  9.84801292 17.49240700
   9.84801363 16.62719342 17.49240700
  20.15198849 13.37280729 12.50759500
  13.37280800 20.15198779 12.50759500
  13.26249015 13.26249015 12.54279000
  15.00000000 11.52498029 15.00000000
  18.52479437 15.00000140 10.20639500
  18.52479437 15.00000141 19.79360400
  11.47520562 15.00000141 10.20639501
  11.47520563 15.00000141 19.79360400
  11.49534898 11.49534898 15.00000000
  18.50465172 18.50465172 15.00000000
  18.50465102 11.49534898 15.00000000
  11.49534828 18.50465172 15.00000000
  15.00000000 15.00000000 10.04367500
  15.00000000 15.00000000 19.95632599
   9.84801151 13.37280729 17.49240700
  16.62719200 20.15198779 17.49240700
  16.73750985 13.26249015 17.45721100
  13.26248944 16.73751056 12.54279001
  13.26249015 13.26249015 17.45721100
  20.15198849 13.37280729 17.49240699
  13.37280800 20.15198779 17.49240700
  16.73751056 16.73751056 12.54279000
  11.52497959 15.00000071 15.00000000
  18.47502041 15.00000071 15.00000000
  14.99999999 18.52479579 10.20639500
  15.00000000 18.52479578 19.79360400
  15.00000000 15.00000000 15.00000000
  13.26248944 16.73751057 17.45721101
  16.73751056 16.73751057 17.45721100
  15.00000000 18.47502112 15.00000000
  14.30569200 19.65955800 22.14068600
  14.21414200 20.27395500 23.08223800
 


--------------------------------------------------------------------------------------------------------


 k-point  1 :   0.0000 0.0000 0.0000  plane waves:  490521

 maximum and minimum number of plane-waves per node :    490521   490521

 maximum number of plane-waves:    490521
 maximum index in each direction: 
   IXMAX=   48   IYMAX=   48   IZMAX=   48
   IXMIN=  -48   IYMIN=  -48   IZMIN=  -48


 serial   3D FFT for wavefunctions
 parallel 3D FFT for charge:
    minimum data exchange during FFTs selected (reduces bandwidth)


 total amount of memory used by VASP MPI-rank0  5486940. kBytes
=======================================================================

   base      :      30000. kBytes
   nonlr-proj:      17125. kBytes
   fftplans  :     924480. kBytes
   grid      :    1872000. kBytes
   one-center:        886. kBytes
   wavefun   :    2642449. kBytes
 
     INWAV:  cpu time    0.0001: real time    0.0004
 Broyden mixing: mesh for mixing (old mesh)
   NGX = 97   NGY = 97   NGZ = 97
  (NGX  =300   NGY  =300   NGZ  =300)
  gives a total of 912673 points

 initial charge density was supplied:
 charge density of overlapping atoms calculated
 number of electron     560.0000000 magnetization 
 keeping initial charge density in first step


--------------------------------------------------------------------------------------------------------


 Maximum index for non-local projection operator         1763
 Maximum index for augmentation-charges         5898 (set IRDMAX)


--------------------------------------------------------------------------------------------------------


 First call to EWALD:  gamma=   0.059
 Maximum number of real-space cells 3x 3x 3
 Maximum number of reciprocal cells 3x 3x 3

    FEWALD:  cpu time    0.0150: real time    0.0150


--------------------------------------- Iteration      1(   1)  ---------------------------------------


    POTLOK:  cpu time   14.1820: real time   14.1864
    SETDIJ:  cpu time    0.1153: real time    0.1153
     EDDAV:  cpu time  358.9851: real time  359.0721
       DOS:  cpu time    0.0013: real time    0.0013
    --------------------------------------------
      LOOP:  cpu time  373.2838: real time  373.3751

 eigenvalue-minimisations  :   688
 total energy-change (2. order) : 0.4381221E+04  (-0.1004885E+05)
 number of electron     560.0000000 magnetization 
 augmentation part      560.0000000 magnetization 

 Free energy of the ion-electron system (eV)
  ---------------------------------------------------
  alpha Z        PSCENC =        75.25431677
  Ewald energy   TEWEN  =    137197.51202323
  -Hartree energ DENC   =   -180565.58657138
  -exchange      EXHF   =         0.00000000
  -V(xc)+E(xc)   XCENC  =     -1704.02499308
  PAW double counting   =     44873.02882129   -41398.84523641
  entropy T*S    EENTRO =        -0.02188833
  eigenvalues    EBANDS =       817.39920375
  atomic energy  EATOM  =     45086.50549395
  Solvation  Ediel_sol  =         0.00000000
  ---------------------------------------------------
  free energy    TOTEN  =      4381.22116980 eV

  energy without entropy =     4381.24305813  energy(sigma->0) =     4381.22664189


--------------------------------------------------------------------------------------------------------




--------------------------------------- Iteration      1(   2)  ---------------------------------------


     EDDAV:  cpu time  577.8376: real time  577.8731
       DOS:  cpu time    0.0013: real time    0.0013
    --------------------------------------------
      LOOP:  cpu time  577.8388: real time  577.8744

 eigenvalue-minimisations  :  1216
 total energy-change (2. order) :-0.2353674E+04  (-0.2115329E+04)
 number of electron     560.0000000 magnetization 
 augmentation part      560.0000000 magnetization 

 Free energy of the ion-electron system (eV)
  ---------------------------------------------------
  alpha Z        PSCENC =        75.25431677
  Ewald energy   TEWEN  =    137197.51202323
  -Hartree energ DENC   =   -180565.58657138
  -exchange      EXHF   =         0.00000000
  -V(xc)+E(xc)   XCENC  =     -1704.02499308
  PAW double counting   =     44873.02882129   -41398.84523641
  entropy T*S    EENTRO =        -0.08928222
  eigenvalues    EBANDS =     -1536.20778395
  atomic energy  EATOM  =     45086.50549395
  Solvation  Ediel_sol  =         0.00000000
  ---------------------------------------------------
  free energy    TOTEN  =      2027.54678821 eV

  energy without entropy =     2027.63607043  energy(sigma->0) =     2027.56910877


--------------------------------------------------------------------------------------------------------




--------------------------------------- Iteration      1(   3)  ---------------------------------------


     EDDAV:  cpu time  491.1062: real time  491.1183
       DOS:  cpu time    0.0011: real time    0.0011
    --------------------------------------------
      LOOP:  cpu time  491.1073: real time  491.1193

 eigenvalue-minimisations  :  1000
 total energy-change (2. order) :-0.1786407E+04  (-0.1674460E+04)
 number of electron     560.0000000 magnetization 
 augmentation part      560.0000000 magnetization 

 Free energy of the ion-electron system (eV)
  ---------------------------------------------------
  alpha Z        PSCENC =        75.25431677
  Ewald energy   TEWEN  =    137197.51202323
  -Hartree energ DENC   =   -180565.58657138
  -exchange      EXHF   =         0.00000000
  -V(xc)+E(xc)   XCENC  =     -1704.02499308
  PAW double counting   =     44873.02882129   -41398.84523641
  entropy T*S    EENTRO =        -0.01940611
  eigenvalues    EBANDS =     -3322.68476728
  atomic energy  EATOM  =     45086.50549395
  Solvation  Ediel_sol  =         0.00000000
  ---------------------------------------------------
  free energy    TOTEN  =       241.13968099 eV

  energy without entropy =      241.15908710  energy(sigma->0) =      241.14453252


--------------------------------------------------------------------------------------------------------




--------------------------------------- Iteration      1(   4)  ---------------------------------------


     EDDAV:  cpu time  418.3744: real time  418.3797
       DOS:  cpu time    0.0011: real time    0.0011
    --------------------------------------------
      LOOP:  cpu time  418.3756: real time  418.3808

 eigenvalue-minimisations  :   824
 total energy-change (2. order) :-0.3725634E+03  (-0.3153266E+03)
 number of electron     560.0000000 magnetization 
 augmentation part      560.0000000 magnetization 

 Free energy of the ion-electron system (eV)
  ---------------------------------------------------
  alpha Z        PSCENC =        75.25431677
  Ewald energy   TEWEN  =    137197.51202323
  -Hartree energ DENC   =   -180565.58657138
  -exchange      EXHF   =         0.00000000
  -V(xc)+E(xc)   XCENC  =     -1704.02499308
  PAW double counting   =     44873.02882129   -41398.84523641
  entropy T*S    EENTRO =        -0.01577197
  eigenvalues    EBANDS =     -3695.25180532
  atomic energy  EATOM  =     45086.50549395
  Solvation  Ediel_sol  =         0.00000000
  ---------------------------------------------------
  free energy    TOTEN  =      -131.42372291 eV

  energy without entropy =     -131.40795094  energy(sigma->0) =     -131.41977992


--------------------------------------------------------------------------------------------------------




--------------------------------------- Iteration      1(   5)  ---------------------------------------


     EDDAV:  cpu time  507.3182: real time  507.3262
       DOS:  cpu time    0.0015: real time    0.0015
    CHARGE:  cpu time   25.8848: real time   25.8847
    MIXING:  cpu time    0.4400: real time    0.4400
    --------------------------------------------
      LOOP:  cpu time  533.6445: real time  533.6524

 eigenvalue-minimisations  :  1040
 total energy-change (2. order) :-0.4651623E+02  (-0.3858052E+02)
 number of electron     559.9999892 magnetization 
 augmentation part      245.0815215 magnetization 

 Broyden mixing:
  rms(total) = 0.13767E+01    rms(broyden)= 0.13758E+01
  rms(prec ) = 0.14797E+01
  weight for this iteration     100.00

 Free energy of the ion-electron system (eV)
  ---------------------------------------------------
  alpha Z        PSCENC =        75.25431677
  Ewald energy   TEWEN  =    137197.51202323
  -Hartree energ DENC   =   -180565.58657138
  -exchange      EXHF   =         0.00000000
  -V(xc)+E(xc)   XCENC  =     -1704.02499308
  PAW double counting   =     44873.02882129   -41398.84523641
  entropy T*S    EENTRO =         0.44208982
  eigenvalues    EBANDS =     -3742.22589872
  atomic energy  EATOM  =     45086.50549395
  Solvation  Ediel_sol  =         0.00000000
  ---------------------------------------------------
  free energy    TOTEN  =      -177.93995452 eV

  energy without entropy =     -178.38204434  energy(sigma->0) =     -178.05047697


--------------------------------------------------------------------------------------------------------




--------------------------------------- Iteration      1(   6)  ---------------------------------------


    POTLOK:  cpu time   13.5699: real time   13.5737
    SETDIJ:  cpu time    0.1212: real time    0.1212
    EDDIAG:  cpu time   68.9225: real time   68.9244
  RMM-DIIS:  cpu time  188.6749: real time  188.6770
    ORTHCH:  cpu time   13.4809: real time   13.4808
       DOS:  cpu time    0.0014: real time    0.0014
    CHARGE:  cpu time   25.4119: real time   25.4117
    MIXING:  cpu time    0.4571: real time    0.4571
    --------------------------------------------
      LOOP:  cpu time  310.6398: real time  310.6472

 eigenvalue-minimisations  :   728
 total energy-change (2. order) : 0.2013745E-01  (-0.5403878E+01)
 number of electron     559.9999892 magnetization 
 augmentation part      240.7359882 magnetization 

 Broyden mixing:
  rms(total) = 0.19793E+01    rms(broyden)= 0.19791E+01
  rms(prec ) = 0.22692E+01
  weight for this iteration     100.00

 eigenvalues of (default mixing * dielectric matrix)
  average eigenvalue GAMMA=   0.3630
  0.3630

 Free energy of the ion-electron system (eV)
  ---------------------------------------------------
  alpha Z        PSCENC =        75.25431677
  Ewald energy   TEWEN  =    137197.51202323
  -Hartree energ DENC   =   -180966.52152748
  -exchange      EXHF   =         0.00000000
  -V(xc)+E(xc)   XCENC  =     -1697.91473558
  PAW double counting   =     45611.58543847   -42110.65744175
  entropy T*S    EENTRO =        -0.40772516
  eigenvalues    EBANDS =     -3373.27565952
  atomic energy  EATOM  =     45086.50549395
  Solvation  Ediel_sol  =         0.00000000
  ---------------------------------------------------
  free energy    TOTEN  =      -177.91981707 eV

  energy without entropy =     -177.51209190  energy(sigma->0) =     -177.81788578


--------------------------------------------------------------------------------------------------------




--------------------------------------- Iteration      1(   7)  ---------------------------------------


    POTLOK:  cpu time   13.4913: real time   13.4944
    SETDIJ:  cpu time    0.1228: real time    0.1228
    EDDIAG:  cpu time   68.2205: real time   68.2206
  RMM-DIIS:  cpu time  219.3409: real time  219.3424
    ORTHCH:  cpu time   13.3180: real time   13.3179
       DOS:  cpu time    0.0014: real time    0.0014
    CHARGE:  cpu time   25.4348: real time   25.4346
    MIXING:  cpu time    0.4884: real time    0.4884
    --------------------------------------------
      LOOP:  cpu time  340.4181: real time  340.4225

 eigenvalue-minimisations  :   842
 total energy-change (2. order) :-0.6000343E+00  (-0.1896447E+01)
 number of electron     559.9999876 magnetization 
 augmentation part      240.8444801 magnetization 

 Broyden mixing:
  rms(total) = 0.16499E+01    rms(broyden)= 0.16496E+01
  rms(prec ) = 0.18454E+01
  weight for this iteration     100.00

 eigenvalues of (default mixing * dielectric matrix)
  average eigenvalue GAMMA=   0.4212
  0.6650  0.1774

 Free energy of the ion-electron system (eV)
  ---------------------------------------------------
  alpha Z        PSCENC =        75.25431677
  Ewald energy   TEWEN  =    137197.51202323
  -Hartree energ DENC   =   -181063.20543926
  -exchange      EXHF   =         0.00000000
  -V(xc)+E(xc)   XCENC  =     -1698.05852800
  PAW double counting   =     45679.14669246   -42175.18615075
  entropy T*S    EENTRO =        -0.12610327
  eigenvalues    EBANDS =     -3280.36215652
  atomic energy  EATOM  =     45086.50549395
  Solvation  Ediel_sol  =         0.00000000
  ---------------------------------------------------
  free energy    TOTEN  =      -178.51985137 eV

  energy without entropy =     -178.39374811  energy(sigma->0) =     -178.48832556


--------------------------------------------------------------------------------------------------------




--------------------------------------- Iteration      1(   8)  ---------------------------------------


    POTLOK:  cpu time   13.4243: real time   13.4266
    SETDIJ:  cpu time    0.1274: real time    0.1274
    EDDIAG:  cpu time   68.7144: real time   68.7143
  RMM-DIIS:  cpu time  197.9132: real time  197.9143
    ORTHCH:  cpu time   13.9347: real time   13.9363
       DOS:  cpu time    0.0015: real time    0.0015
    CHARGE:  cpu time   26.5100: real time   26.5098
    MIXING:  cpu time    0.5274: real time    0.5274
    --------------------------------------------
      LOOP:  cpu time  321.1528: real time  321.1577

 eigenvalue-minimisations  :   746
 total energy-change (2. order) :-0.2102211E+01  (-0.7104835E+00)
 number of electron     559.9999886 magnetization 
 augmentation part      241.0461907 magnetization 

 Broyden mixing:
  rms(total) = 0.25077E+01    rms(broyden)= 0.25074E+01
  rms(prec ) = 0.29458E+01
  weight for this iteration     100.00

 eigenvalues of (default mixing * dielectric matrix)
  average eigenvalue GAMMA=   0.3562
  0.7650  0.1518  0.1518

 Free energy of the ion-electron system (eV)
  ---------------------------------------------------
  alpha Z        PSCENC =        75.25431677
  Ewald energy   TEWEN  =    137197.51202323
  -Hartree energ DENC   =   -181110.52581028
  -exchange      EXHF   =         0.00000000
  -V(xc)+E(xc)   XCENC  =     -1697.75328695
  PAW double counting   =     45778.54601225   -42269.57799055
  entropy T*S    EENTRO =        -0.08834508
  eigenvalues    EBANDS =     -3240.49447613
  atomic energy  EATOM  =     45086.50549395
  Solvation  Ediel_sol  =         0.00000000
  ---------------------------------------------------
  free energy    TOTEN  =      -180.62206279 eV

  energy without entropy =     -180.53371771  energy(sigma->0) =     -180.59997652


--------------------------------------------------------------------------------------------------------




--------------------------------------- Iteration      1(   9)  ---------------------------------------


    POTLOK:  cpu time   14.0020: real time   14.0048
    SETDIJ:  cpu time    0.1356: real time    0.1356
    EDDIAG:  cpu time   69.7875: real time   69.7882
  RMM-DIIS:  cpu time  205.5177: real time  205.5198
    ORTHCH:  cpu time   13.6017: real time   13.6016
       DOS:  cpu time    0.0014: real time    0.0014
    CHARGE:  cpu time   26.4136: real time   26.4153
    MIXING:  cpu time    0.5597: real time    0.5597
    --------------------------------------------
      LOOP:  cpu time  330.0192: real time  330.0264

 eigenvalue-minimisations  :   775
 total energy-change (2. order) : 0.8160183E+00  (-0.3055508E+00)
 number of electron     559.9999900 magnetization 
 augmentation part      241.0166922 magnetization 

 Broyden mixing:
  rms(total) = 0.23529E+01    rms(broyden)= 0.23526E+01
  rms(prec ) = 0.27410E+01
  weight for this iteration     100.00

 eigenvalues of (default mixing * dielectric matrix)
  average eigenvalue GAMMA=   0.3163
  0.8395  0.1703  0.1703  0.0853

 Free energy of the ion-electron system (eV)
  ---------------------------------------------------
  alpha Z        PSCENC =        75.25431677
  Ewald energy   TEWEN  =    137197.51202323
  -Hartree energ DENC   =   -181143.68893134
  -exchange      EXHF   =         0.00000000
  -V(xc)+E(xc)   XCENC  =     -1697.57727500
  PAW double counting   =     45821.75171279   -42310.71786342
  entropy T*S    EENTRO =        -0.09556306
  eigenvalues    EBANDS =     -3208.74995839
  atomic energy  EATOM  =     45086.50549395
  Solvation  Ediel_sol  =         0.00000000
  ---------------------------------------------------
  free energy    TOTEN  =      -179.80604446 eV

  energy without entropy =     -179.71048140  energy(sigma->0) =     -179.78215369


--------------------------------------------------------------------------------------------------------




--------------------------------------- Iteration      1(  10)  ---------------------------------------


    POTLOK:  cpu time   13.8010: real time   13.8038
    SETDIJ:  cpu time    0.1206: real time    0.1206
    EDDIAG:  cpu time   69.0293: real time   69.0293
  RMM-DIIS:  cpu time  197.0505: real time  197.0525
    ORTHCH:  cpu time   13.6353: real time   13.6352
       DOS:  cpu time    0.0015: real time    0.0015
    CHARGE:  cpu time   26.4002: real time   26.4000
    MIXING:  cpu time    0.6012: real time    0.6012
    --------------------------------------------
      LOOP:  cpu time  320.6395: real time  320.6439

 eigenvalue-minimisations  :   738
 total energy-change (2. order) : 0.1669163E+01  (-0.2169035E+00)
 number of electron     559.9999900 magnetization 
 augmentation part      241.1767061 magnetization 

 Broyden mixing:
  rms(total) = 0.18795E+01    rms(broyden)= 0.18792E+01
  rms(prec ) = 0.22349E+01
  weight for this iteration     100.00

 eigenvalues of (default mixing * dielectric matrix)
  average eigenvalue GAMMA=   0.2839
  0.8788  0.1773  0.1773  0.1077  0.0785

 Free energy of the ion-electron system (eV)
  ---------------------------------------------------
  alpha Z        PSCENC =        75.25431677
  Ewald energy   TEWEN  =    137197.51202323
  -Hartree energ DENC   =   -181167.81215454
  -exchange      EXHF   =         0.00000000
  -V(xc)+E(xc)   XCENC  =     -1697.44564117
  PAW double counting   =     45854.95278398   -42342.29713859
  entropy T*S    EENTRO =        -0.16694498
  eigenvalues    EBANDS =     -3184.63961969
  atomic energy  EATOM  =     45086.50549395
  Solvation  Ediel_sol  =         0.00000000
  ---------------------------------------------------
  free energy    TOTEN  =      -178.13688105 eV

  energy without entropy =     -177.96993607  energy(sigma->0) =     -178.09514481


--------------------------------------------------------------------------------------------------------




--------------------------------------- Iteration      1(  11)  ---------------------------------------


    POTLOK:  cpu time   13.4530: real time   13.4558
    SETDIJ:  cpu time    0.1225: real time    0.1225
    EDDIAG:  cpu time   69.9941: real time   69.9941
  RMM-DIIS:  cpu time  193.0749: real time  193.0774
    ORTHCH:  cpu time   13.7362: real time   13.7361
       DOS:  cpu time    0.0015: real time    0.0015
    CHARGE:  cpu time   26.5206: real time   26.5205
    MIXING:  cpu time    0.6366: real time    0.6366
    --------------------------------------------
      LOOP:  cpu time  317.5393: real time  317.5445

 eigenvalue-minimisations  :   731
 total energy-change (2. order) : 0.1165104E+01  (-0.1153502E+00)
 number of electron     559.9999896 magnetization 
 augmentation part      241.3413181 magnetization 

 Broyden mixing:
  rms(total) = 0.17373E+01    rms(broyden)= 0.17370E+01
  rms(prec ) = 0.21115E+01
  weight for this iteration     100.00

 eigenvalues of (default mixing * dielectric matrix)
  average eigenvalue GAMMA=   0.2615
  0.9030  0.2036  0.2036  0.0955  0.0955  0.0683

 Free energy of the ion-electron system (eV)
  ---------------------------------------------------
  alpha Z        PSCENC =        75.25431677
  Ewald energy   TEWEN  =    137197.51202323
  -Hartree energ DENC   =   -181182.42307020
  -exchange      EXHF   =         0.00000000
  -V(xc)+E(xc)   XCENC  =     -1697.32161175
  PAW double counting   =     45876.06163602   -42362.30389968
  entropy T*S    EENTRO =        -0.06484841
  eigenvalues    EBANDS =     -3170.19181689
  atomic energy  EATOM  =     45086.50549395
  Solvation  Ediel_sol  =         0.00000000
  ---------------------------------------------------
  free energy    TOTEN  =      -176.97177695 eV

  energy without entropy =     -176.90692855  energy(sigma->0) =     -176.95556485


--------------------------------------------------------------------------------------------------------




--------------------------------------- Iteration      1(  12)  ---------------------------------------


    POTLOK:  cpu time   13.5791: real time   13.5823
    SETDIJ:  cpu time    0.1240: real time    0.1240
    EDDIAG:  cpu time   69.9489: real time   69.9514
  RMM-DIIS:  cpu time  192.4962: real time  192.5000
    ORTHCH:  cpu time   13.7709: real time   13.7709
       DOS:  cpu time    0.0014: real time    0.0014
    CHARGE:  cpu time   26.3656: real time   26.3656
    MIXING:  cpu time    0.6455: real time    0.6455
    --------------------------------------------
      LOOP:  cpu time  316.9316: real time  316.9411

 eigenvalue-minimisations  :   731
 total energy-change (2. order) : 0.1220998E+01  (-0.7477375E-01)
 number of electron     559.9999879 magnetization 
 augmentation part      241.5521938 magnetization 

 Broyden mixing:
  rms(total) = 0.13721E+01    rms(broyden)= 0.13718E+01
  rms(prec ) = 0.16055E+01
  weight for this iteration     100.00

 eigenvalues of (default mixing * dielectric matrix)
  average eigenvalue GAMMA=   0.2550
  0.9239  0.2450  0.2450  0.1259  0.1259  0.0597  0.0597

 Free energy of the ion-electron system (eV)
  ---------------------------------------------------
  alpha Z        PSCENC =        75.25431677
  Ewald energy   TEWEN  =    137197.51202323
  -Hartree energ DENC   =   -181193.75390392
  -exchange      EXHF   =         0.00000000
  -V(xc)+E(xc)   XCENC  =     -1697.20585965
  PAW double counting   =     45892.36592011   -42377.72481134
  entropy T*S    EENTRO =        -0.08571500
  eigenvalues    EBANDS =     -3158.61824297
  atomic energy  EATOM  =     45086.50549395
  Solvation  Ediel_sol  =         0.00000000
  ---------------------------------------------------
  free energy    TOTEN  =      -175.75077882 eV

  energy without entropy =     -175.66506382  energy(sigma->0) =     -175.72935007


--------------------------------------------------------------------------------------------------------




--------------------------------------- Iteration      1(  13)  ---------------------------------------


    POTLOK:  cpu time   13.5364: real time   13.5381
    SETDIJ:  cpu time    0.1237: real time    0.1237
    EDDIAG:  cpu time   69.2415: real time   69.2455
  RMM-DIIS:  cpu time  190.9064: real time  190.9094
    ORTHCH:  cpu time   13.6525: real time   13.6524
       DOS:  cpu time    0.0015: real time    0.0015
    CHARGE:  cpu time   26.0453: real time   26.0451
    MIXING:  cpu time    0.6976: real time    0.6976
    --------------------------------------------
      LOOP:  cpu time  314.2048: real time  314.2131

 eigenvalue-minimisations  :   722
 total energy-change (2. order) : 0.5735288E+00  (-0.7974067E-01)
 number of electron     559.9999890 magnetization 
 augmentation part      241.5407867 magnetization 

 Broyden mixing:
  rms(total) = 0.10505E+01    rms(broyden)= 0.10502E+01
  rms(prec ) = 0.12151E+01
  weight for this iteration     100.00

 eigenvalues of (default mixing * dielectric matrix)
  average eigenvalue GAMMA=   0.2646
  0.9584  0.3320  0.3320  0.1365  0.1365  0.1024  0.0594  0.0594

 Free energy of the ion-electron system (eV)
  ---------------------------------------------------
  alpha Z        PSCENC =        75.25431677
  Ewald energy   TEWEN  =    137197.51202323
  -Hartree energ DENC   =   -181211.66170006
  -exchange      EXHF   =         0.00000000
  -V(xc)+E(xc)   XCENC  =     -1697.01168752
  PAW double counting   =     45914.15271996   -42398.27701960
  entropy T*S    EENTRO =        -0.16048436
  eigenvalues    EBANDS =     -3141.49091237
  atomic energy  EATOM  =     45086.50549395
  Solvation  Ediel_sol  =         0.00000000
  ---------------------------------------------------
  free energy    TOTEN  =      -175.17724998 eV

  energy without entropy =     -175.01676562  energy(sigma->0) =     -175.13712889


--------------------------------------------------------------------------------------------------------




--------------------------------------- Iteration      1(  14)  ---------------------------------------


    POTLOK:  cpu time   13.5818: real time   13.5854
    SETDIJ:  cpu time    0.1285: real time    0.1285
    EDDIAG:  cpu time   69.4413: real time   69.4421
  RMM-DIIS:  cpu time  191.1358: real time  191.1371
    ORTHCH:  cpu time   13.5456: real time   13.5455
       DOS:  cpu time    0.0015: real time    0.0015
    CHARGE:  cpu time   26.2506: real time   26.2503
    MIXING:  cpu time    0.7803: real time    0.7803
    --------------------------------------------
      LOOP:  cpu time  314.8653: real time  314.8706

 eigenvalue-minimisations  :   724
 total energy-change (2. order) :-0.5836899E+00  (-0.8947486E-01)
 number of electron     559.9999894 magnetization 
 augmentation part      241.4766292 magnetization 

 Broyden mixing:
  rms(total) = 0.19583E+01    rms(broyden)= 0.19581E+01
  rms(prec ) = 0.22993E+01
  weight for this iteration     100.00

 eigenvalues of (default mixing * dielectric matrix)
  average eigenvalue GAMMA=   0.3112
  1.1066  0.8752  0.2248  0.1396  0.1396  0.1036  0.1036  0.0539  0.0539

 Free energy of the ion-electron system (eV)
  ---------------------------------------------------
  alpha Z        PSCENC =        75.25431677
  Ewald energy   TEWEN  =    137197.51202323
  -Hartree energ DENC   =   -181236.09445245
  -exchange      EXHF   =         0.00000000
  -V(xc)+E(xc)   XCENC  =     -1696.62753211
  PAW double counting   =     45949.25921629   -42431.27050796
  entropy T*S    EENTRO =        -0.04382525
  eigenvalues    EBANDS =     -3120.25567234
  atomic energy  EATOM  =     45086.50549395
  Solvation  Ediel_sol  =         0.00000000
  ---------------------------------------------------
  free energy    TOTEN  =      -175.76093987 eV

  energy without entropy =     -175.71711462  energy(sigma->0) =     -175.74998356


--------------------------------------------------------------------------------------------------------




--------------------------------------- Iteration      1(  15)  ---------------------------------------


    POTLOK:  cpu time   13.3890: real time   13.3908
    SETDIJ:  cpu time    0.1223: real time    0.1223
    EDDIAG:  cpu time   68.9885: real time   68.9891
  RMM-DIIS:  cpu time  190.0162: real time  190.0188
    ORTHCH:  cpu time   13.6752: real time   13.6752
       DOS:  cpu time    0.0015: real time    0.0015
    CHARGE:  cpu time   25.9075: real time   25.9073
    MIXING:  cpu time    0.8078: real time    0.8078
    --------------------------------------------
      LOOP:  cpu time  312.9081: real time  312.9129

 eigenvalue-minimisations  :   717
 total energy-change (2. order) :-0.5958870E+00  (-0.1233092E+00)
 number of electron     559.9999888 magnetization 
 augmentation part      240.9991495 magnetization 

 Broyden mixing:
  rms(total) = 0.19000E+01    rms(broyden)= 0.18997E+01
  rms(prec ) = 0.22812E+01
  weight for this iteration     100.00

 eigenvalues of (default mixing * dielectric matrix)
  average eigenvalue GAMMA=   0.3134
  1.3477  0.8958  0.1737  0.1737  0.1338  0.1338  0.0848  0.0848  0.0528  0.0528

 Free energy of the ion-electron system (eV)
  ---------------------------------------------------
  alpha Z        PSCENC =        75.25431677
  Ewald energy   TEWEN  =    137197.51202323
  -Hartree energ DENC   =   -181297.16647631
  -exchange      EXHF   =         0.00000000
  -V(xc)+E(xc)   XCENC  =     -1695.78528331
  PAW double counting   =     46023.22740847   -42500.85823806
  entropy T*S    EENTRO =        -0.11781116
  eigenvalues    EBANDS =     -3064.92826045
  atomic energy  EATOM  =     45086.50549395
  Solvation  Ediel_sol  =         0.00000000
  ---------------------------------------------------
  free energy    TOTEN  =      -176.35682686 eV

  energy without entropy =     -176.23901570  energy(sigma->0) =     -176.32737407


--------------------------------------------------------------------------------------------------------




--------------------------------------- Iteration      1(  16)  ---------------------------------------


    POTLOK:  cpu time   13.5295: real time   13.5326
    SETDIJ:  cpu time    0.1244: real time    0.1244
    EDDIAG:  cpu time   69.4707: real time   69.4725
  RMM-DIIS:  cpu time  191.6519: real time  191.6527
    ORTHCH:  cpu time   14.4348: real time   14.4372
       DOS:  cpu time    0.0015: real time    0.0015
    CHARGE:  cpu time   26.0286: real time   26.0285
    MIXING:  cpu time    0.8365: real time    0.8365
    --------------------------------------------
      LOOP:  cpu time  316.0779: real time  316.0858

 eigenvalue-minimisations  :   727
 total energy-change (2. order) : 0.1078066E+01  (-0.7050289E-01)
 number of electron     559.9999862 magnetization 
 augmentation part      241.1014540 magnetization 

 Broyden mixing:
  rms(total) = 0.20338E+01    rms(broyden)= 0.20336E+01
  rms(prec ) = 0.23423E+01
  weight for this iteration     100.00

 eigenvalues of (default mixing * dielectric matrix)
  average eigenvalue GAMMA=   0.3183
  1.6167  0.8655  0.2105  0.2105  0.1313  0.1313  0.0775  0.0775  0.0767  0.0522
  0.0522

 Free energy of the ion-electron system (eV)
  ---------------------------------------------------
  alpha Z        PSCENC =        75.25431677
  Ewald energy   TEWEN  =    137197.51202323
  -Hartree energ DENC   =   -181324.67294307
  -exchange      EXHF   =         0.00000000
  -V(xc)+E(xc)   XCENC  =     -1695.40549705
  PAW double counting   =     46055.98967140   -42531.68272317
  entropy T*S    EENTRO =         0.07708507
  eigenvalues    EBANDS =     -3038.85618773
  atomic energy  EATOM  =     45086.50549395
  Solvation  Ediel_sol  =         0.00000000
  ---------------------------------------------------
  free energy    TOTEN  =      -175.27876059 eV

  energy without entropy =     -175.35584566  energy(sigma->0) =     -175.29803186


--------------------------------------------------------------------------------------------------------




--------------------------------------- Iteration      1(  17)  ---------------------------------------


    POTLOK:  cpu time   13.8012: real time   13.8046
    SETDIJ:  cpu time    0.1285: real time    0.1285
    EDDIAG:  cpu time   69.0599: real time   69.0600
  RMM-DIIS:  cpu time  187.9652: real time  187.9674
    ORTHCH:  cpu time   13.6387: real time   13.6387
       DOS:  cpu time    0.0015: real time    0.0015
    CHARGE:  cpu time   25.7976: real time   25.7974
    MIXING:  cpu time    0.9038: real time    0.9038
    --------------------------------------------
      LOOP:  cpu time  311.2963: real time  311.3019

 eigenvalue-minimisations  :   715
 total energy-change (2. order) : 0.5342803E+00  (-0.6415374E-01)
 number of electron     559.9999887 magnetization 
 augmentation part      241.0717359 magnetization 

 Broyden mixing:
  rms(total) = 0.12504E+01    rms(broyden)= 0.12502E+01
  rms(prec ) = 0.14697E+01
  weight for this iteration     100.00

 eigenvalues of (default mixing * dielectric matrix)
  average eigenvalue GAMMA=   0.3202
  1.7205  0.8980  0.2601  0.2601  0.1386  0.1386  0.0972  0.0972  0.0660  0.0660
  0.0501  0.0501

 Free energy of the ion-electron system (eV)
  ---------------------------------------------------
  alpha Z        PSCENC =        75.25431677
  Ewald energy   TEWEN  =    137197.51202323
  -Hartree energ DENC   =   -181342.11730544
  -exchange      EXHF   =         0.00000000
  -V(xc)+E(xc)   XCENC  =     -1695.18321366
  PAW double counting   =     46079.88344373   -42554.12817699
  entropy T*S    EENTRO =         0.09404501
  eigenvalues    EBANDS =     -3022.56510694
  atomic energy  EATOM  =     45086.50549395
  Solvation  Ediel_sol  =         0.00000000
  ---------------------------------------------------
  free energy    TOTEN  =      -174.74448034 eV

  energy without entropy =     -174.83852535  energy(sigma->0) =     -174.76799159


--------------------------------------------------------------------------------------------------------




--------------------------------------- Iteration      1(  18)  ---------------------------------------


    POTLOK:  cpu time   13.5731: real time   13.5789
    SETDIJ:  cpu time    0.1242: real time    0.1242
    EDDIAG:  cpu time   69.0119: real time   69.0120
  RMM-DIIS:  cpu time  189.4296: real time  189.4328
    ORTHCH:  cpu time   13.6145: real time   13.6144
       DOS:  cpu time    0.0015: real time    0.0015
    CHARGE:  cpu time   25.7531: real time   25.7529
    MIXING:  cpu time    0.9154: real time    0.9154
    --------------------------------------------
      LOOP:  cpu time  312.4231: real time  312.4319

 eigenvalue-minimisations  :   721
 total energy-change (2. order) : 0.2108954E+00  (-0.3728474E-01)
 number of electron     559.9999886 magnetization 
 augmentation part      241.0979223 magnetization 

 Broyden mixing:
  rms(total) = 0.98775E+00    rms(broyden)= 0.98764E+00
  rms(prec ) = 0.11335E+01
  weight for this iteration     100.00

 eigenvalues of (default mixing * dielectric matrix)
  average eigenvalue GAMMA=   0.3335
  1.8469  1.0279  0.3293  0.3293  0.1352  0.1352  0.1085  0.0947  0.0947  0.0664
  0.0664  0.0502  0.0502

 Free energy of the ion-electron system (eV)
  ---------------------------------------------------
  alpha Z        PSCENC =        75.25431677
  Ewald energy   TEWEN  =    137197.51202323
  -Hartree energ DENC   =   -181354.65604780
  -exchange      EXHF   =         0.00000000
  -V(xc)+E(xc)   XCENC  =     -1695.06461735
  PAW double counting   =     46088.18820508   -42561.70873769
  entropy T*S    EENTRO =        -0.00486765
  eigenvalues    EBANDS =     -3010.55935351
  atomic energy  EATOM  =     45086.50549395
  Solvation  Ediel_sol  =         0.00000000
  ---------------------------------------------------
  free energy    TOTEN  =      -174.53358497 eV

  energy without entropy =     -174.52871732  energy(sigma->0) =     -174.53236806


--------------------------------------------------------------------------------------------------------




--------------------------------------- Iteration      1(  19)  ---------------------------------------


    POTLOK:  cpu time   13.3693: real time   13.3713
    SETDIJ:  cpu time    0.1226: real time    0.1226
    EDDIAG:  cpu time   68.7443: real time   68.7443
  RMM-DIIS:  cpu time  191.0887: real time  191.0974
    ORTHCH:  cpu time   13.5153: real time   13.5152
       DOS:  cpu time    0.0015: real time    0.0015
    CHARGE:  cpu time   26.3199: real time   26.3197
    MIXING:  cpu time    1.0842: real time    1.0842
    --------------------------------------------
      LOOP:  cpu time  314.2457: real time  314.2562

 eigenvalue-minimisations  :   721
 total energy-change (2. order) :-0.6970430E-01  (-0.4718322E-01)
 number of electron     559.9999899 magnetization 
 augmentation part      241.0090914 magnetization 

 Broyden mixing:
  rms(total) = 0.11231E+01    rms(broyden)= 0.11229E+01
  rms(prec ) = 0.13229E+01
  weight for this iteration     100.00

 eigenvalues of (default mixing * dielectric matrix)
  average eigenvalue GAMMA=   0.3447
  2.0122  1.1595  0.3652  0.3652  0.1358  0.1358  0.1465  0.0982  0.0982  0.0765
  0.0662  0.0662  0.0502  0.0502

 Free energy of the ion-electron system (eV)
  ---------------------------------------------------
  alpha Z        PSCENC =        75.25431677
  Ewald energy   TEWEN  =    137197.51202323
  -Hartree energ DENC   =   -181380.96385079
  -exchange      EXHF   =         0.00000000
  -V(xc)+E(xc)   XCENC  =     -1694.85330663
  PAW double counting   =     46099.14418008   -42571.39474999
  entropy T*S    EENTRO =        -0.05211749
  eigenvalues    EBANDS =     -2985.75527841
  atomic energy  EATOM  =     45086.50549395
  Solvation  Ediel_sol  =         0.00000000
  ---------------------------------------------------
  free energy    TOTEN  =      -174.60328927 eV

  energy without entropy =     -174.55117178  energy(sigma->0) =     -174.59025990


--------------------------------------------------------------------------------------------------------




--------------------------------------- Iteration      1(  20)  ---------------------------------------


    POTLOK:  cpu time   13.4970: real time   13.4986
    SETDIJ:  cpu time    0.1234: real time    0.1234
    EDDIAG:  cpu time   68.7335: real time   68.7356
  RMM-DIIS:  cpu time  190.8086: real time  190.8153
    ORTHCH:  cpu time   13.6794: real time   13.6797
       DOS:  cpu time    0.0015: real time    0.0015
    CHARGE:  cpu time   26.2749: real time   26.2755
    MIXING:  cpu time    1.0043: real time    1.0044
    --------------------------------------------
      LOOP:  cpu time  314.1226: real time  314.1339

 eigenvalue-minimisations  :   721
 total energy-change (2. order) :-0.3749644E-01  (-0.4410263E-01)
 number of electron     559.9999888 magnetization 
 augmentation part      240.9913741 magnetization 

 Broyden mixing:
  rms(total) = 0.88252E+00    rms(broyden)= 0.88235E+00
  rms(prec ) = 0.10142E+01
  weight for this iteration     100.00

 eigenvalues of (default mixing * dielectric matrix)
  average eigenvalue GAMMA=   0.3464
  2.1256  1.2561  0.4234  0.2505  0.2505  0.1431  0.1431  0.0997  0.0997  0.1065
  0.0668  0.0668  0.0635  0.0503  0.0503

 Free energy of the ion-electron system (eV)
  ---------------------------------------------------
  alpha Z        PSCENC =        75.25431677
  Ewald energy   TEWEN  =    137197.51202323
  -Hartree energ DENC   =   -181404.37812507
  -exchange      EXHF   =         0.00000000
  -V(xc)+E(xc)   XCENC  =     -1694.64026568
  PAW double counting   =     46105.18106821   -42576.33129950
  entropy T*S    EENTRO =        -0.11868708
  eigenvalues    EBANDS =     -2963.62531057
  atomic energy  EATOM  =     45086.50549395
  Solvation  Ediel_sol  =         0.00000000
  ---------------------------------------------------
  free energy    TOTEN  =      -174.64078572 eV

  energy without entropy =     -174.52209864  energy(sigma->0) =     -174.61111395


--------------------------------------------------------------------------------------------------------




--------------------------------------- Iteration      1(  21)  ---------------------------------------


    POTLOK:  cpu time   13.4608: real time   13.4629
    SETDIJ:  cpu time    0.1260: real time    0.1260
    EDDIAG:  cpu time   68.9833: real time   68.9887
  RMM-DIIS:  cpu time  189.9959: real time  190.0095
    ORTHCH:  cpu time   13.7564: real time   13.7567
       DOS:  cpu time    0.0015: real time    0.0015
    CHARGE:  cpu time   26.1020: real time   26.1034
    MIXING:  cpu time    1.1565: real time    1.1565
    --------------------------------------------
      LOOP:  cpu time  313.5824: real time  313.6052

 eigenvalue-minimisations  :   720
 total energy-change (2. order) : 0.1594897E+00  (-0.2806246E-01)
 number of electron     559.9999893 magnetization 
 augmentation part      241.0088576 magnetization 

 Broyden mixing:
  rms(total) = 0.83272E+00    rms(broyden)= 0.83258E+00
  rms(prec ) = 0.95964E+00
  weight for this iteration     100.00

 eigenvalues of (default mixing * dielectric matrix)
  average eigenvalue GAMMA=   0.3475
  2.1410  1.3377  0.5609  0.2632  0.2632  0.1435  0.1435  0.1110  0.1110  0.0950
  0.0950  0.0667  0.0667  0.0608  0.0504  0.0504

 Free energy of the ion-electron system (eV)
  ---------------------------------------------------
  alpha Z        PSCENC =        75.25431677
  Ewald energy   TEWEN  =    137197.51202323
  -Hartree energ DENC   =   -181422.26610503
  -exchange      EXHF   =         0.00000000
  -V(xc)+E(xc)   XCENC  =     -1694.47951911
  PAW double counting   =     46107.09547283   -42577.49967744
  entropy T*S    EENTRO =        -0.10004610
  eigenvalues    EBANDS =     -2946.50325515
  atomic energy  EATOM  =     45086.50549395
  Solvation  Ediel_sol  =         0.00000000
  ---------------------------------------------------
  free energy    TOTEN  =      -174.48129604 eV

  energy without entropy =     -174.38124994  energy(sigma->0) =     -174.45628452


--------------------------------------------------------------------------------------------------------




--------------------------------------- Iteration      1(  22)  ---------------------------------------


    POTLOK:  cpu time   13.5363: real time   13.5380
    SETDIJ:  cpu time    0.1227: real time    0.1227
    EDDIAG:  cpu time   69.1203: real time   69.1229
  RMM-DIIS:  cpu time  189.8906: real time  189.9061
    ORTHCH:  cpu time   13.8712: real time   13.8714
       DOS:  cpu time    0.0015: real time    0.0015
    CHARGE:  cpu time   26.2577: real time   26.2599
    MIXING:  cpu time    1.2940: real time    1.2941
    --------------------------------------------
      LOOP:  cpu time  314.0943: real time  314.1165

 eigenvalue-minimisations  :   720
 total energy-change (2. order) : 0.1514420E+00  (-0.1370872E-01)
 number of electron     559.9999897 magnetization 
 augmentation part      241.0565616 magnetization 

 Broyden mixing:
  rms(total) = 0.78551E+00    rms(broyden)= 0.78539E+00
  rms(prec ) = 0.91029E+00
  weight for this iteration     100.00

 eigenvalues of (default mixing * dielectric matrix)
  average eigenvalue GAMMA=   0.3423
  2.1513  1.3817  0.6201  0.2864  0.2864  0.1410  0.1410  0.1283  0.1283  0.0947
  0.0947  0.0783  0.0658  0.0658  0.0505  0.0505  0.0547

 Free energy of the ion-electron system (eV)
  ---------------------------------------------------
  alpha Z        PSCENC =        75.25431677
  Ewald energy   TEWEN  =    137197.51202323
  -Hartree energ DENC   =   -181429.82963270
  -exchange      EXHF   =         0.00000000
  -V(xc)+E(xc)   XCENC  =     -1694.39067534
  PAW double counting   =     46103.78811845   -42573.95176615
  entropy T*S    EENTRO =        -0.11553409
  eigenvalues    EBANDS =     -2939.10219814
  atomic energy  EATOM  =     45086.50549395
  Solvation  Ediel_sol  =         0.00000000
  ---------------------------------------------------
  free energy    TOTEN  =      -174.32985401 eV

  energy without entropy =     -174.21431992  energy(sigma->0) =     -174.30097048


--------------------------------------------------------------------------------------------------------




--------------------------------------- Iteration      1(  23)  ---------------------------------------


    POTLOK:  cpu time   13.4267: real time   13.4290
    SETDIJ:  cpu time    0.1274: real time    0.1274
    EDDIAG:  cpu time   68.9762: real time   68.9765
  RMM-DIIS:  cpu time  188.0352: real time  188.0363
    ORTHCH:  cpu time   13.7653: real time   13.7653
       DOS:  cpu time    0.0015: real time    0.0015
    CHARGE:  cpu time   26.0820: real time   26.0819
    MIXING:  cpu time    1.2741: real time    1.2741
    --------------------------------------------
      LOOP:  cpu time  311.6885: real time  311.6920

 eigenvalue-minimisations  :   714
 total energy-change (2. order) : 0.2314664E+00  (-0.8787750E-02)
 number of electron     559.9999892 magnetization 
 augmentation part      241.0982704 magnetization 

 Broyden mixing:
  rms(total) = 0.56596E+00    rms(broyden)= 0.56587E+00
  rms(prec ) = 0.67484E+00
  weight for this iteration     100.00

 eigenvalues of (default mixing * dielectric matrix)
  average eigenvalue GAMMA=   0.3400
  2.1095  1.4806  0.6878  0.3028  0.3028  0.1569  0.1569  0.1323  0.1323  0.1141
[...]
 -0.006  -0.012   0.004   0.004   0.005  -0.006  -0.011   0.004
 -0.011  -0.020   0.007   0.007   0.009  -0.010  -0.019   0.006
 -0.015  -0.005   0.013   0.000   0.022  -0.014  -0.005   0.012
  0.000  -0.023  -0.006  -0.015  -0.000   0.000  -0.022  -0.006
 -0.022   0.000   0.009  -0.005  -0.016  -0.022   0.000   0.008
 -0.017  -0.006   0.015   0.000   0.027  -0.017  -0.006   0.015
  0.000  -0.027  -0.007  -0.018   0.000   0.000  -0.027  -0.007
 -0.027   0.000   0.010  -0.006  -0.019  -0.026   0.000   0.010
 total augmentation occupancy for first ion, spin component:           1
  1.538  -0.030   0.005   0.016   0.023   0.075  -0.008  -0.002   0.036  -0.010   0.091  -0.031   0.012   0.002   0.002  -0.019
 -0.030   1.401   0.028   0.070  -0.000  -0.007   0.071   0.011  -0.014  -0.008   0.216  -0.065   0.019   0.002   0.002  -0.006
  0.005   0.028   1.543   0.001   0.002  -0.002   0.013   0.073  -0.012   0.017  -0.054   0.018  -0.003  -0.007  -0.005   0.016
  0.016   0.070   0.001   1.339   0.044   0.034  -0.013  -0.012   0.091  -0.023  -0.081   0.021  -0.001  -0.009  -0.004   0.001
  0.023  -0.000   0.002   0.044   1.440  -0.010  -0.008   0.016  -0.022   0.067  -0.095   0.031  -0.002  -0.010  -0.009   0.026
  0.075  -0.007  -0.002   0.034  -0.010   0.217   0.019  -0.002  -0.045   0.004  -0.048   0.002   0.017  -0.010   0.034  -0.004
 -0.008   0.071   0.013  -0.013  -0.008   0.019   0.262  -0.023  -0.003   0.006  -0.109   0.007  -0.001   0.051  -0.010  -0.000
 -0.002   0.011   0.073  -0.012   0.016  -0.002  -0.023   0.215   0.014  -0.020   0.028  -0.001  -0.012   0.009  -0.018   0.003
  0.036  -0.014  -0.012   0.091  -0.022  -0.045  -0.003   0.014   0.260   0.007   0.043  -0.004  -0.009   0.036   0.004   0.000
 -0.010  -0.008   0.017  -0.023   0.067   0.004   0.006  -0.020   0.007   0.258   0.046  -0.003  -0.038   0.002   0.049   0.007
  0.091   0.216  -0.054  -0.081  -0.095  -0.048  -0.109   0.028   0.043   0.046   0.949  -0.141   0.084   0.014   0.064  -0.013
 -0.031  -0.065   0.018   0.021   0.031   0.002   0.007  -0.001  -0.004  -0.003  -0.141   0.023  -0.014  -0.003  -0.010   0.003
  0.012   0.019  -0.003  -0.001  -0.002   0.017  -0.001  -0.012  -0.009  -0.038   0.084  -0.014   0.029  -0.008  -0.004  -0.003
  0.002   0.002  -0.007  -0.009  -0.010  -0.010   0.051   0.009   0.036   0.002   0.014  -0.003  -0.008   0.036   0.004   0.000
  0.002   0.002  -0.005  -0.004  -0.009   0.034  -0.010  -0.018   0.004   0.049   0.064  -0.010  -0.004   0.004   0.034  -0.000
 -0.019  -0.006   0.016   0.001   0.026  -0.004  -0.000   0.003   0.000   0.007  -0.013   0.003  -0.003   0.000  -0.000   0.001
  0.001  -0.028  -0.007  -0.018   0.001   0.001  -0.008  -0.001  -0.006  -0.000  -0.003   0.001   0.000  -0.003  -0.000   0.000
 -0.028   0.001   0.012  -0.005  -0.019  -0.006   0.001   0.003  -0.001  -0.007  -0.008   0.001  -0.000  -0.000  -0.003   0.000


------------------------ aborting loop because EDIFF is reached ----------------------------------------


    CHARGE:  cpu time   25.5021: real time   25.5020
    FORLOC:  cpu time    6.7771: real time    6.7771
    FORNL :  cpu time   66.6648: real time   66.6646
    STRESS:  cpu time  200.7689: real time  200.7756
    FORCOR:  cpu time   22.3407: real time   22.3415
    FORHAR:  cpu time    9.9083: real time    9.9084
    MIXING:  cpu time    4.0842: real time    4.0843
    OFIELD:  cpu time    0.0000: real time    0.0000

  FORCE on cell =-STRESS in cart. coord.  units (eV):
  Direction    XX          YY          ZZ          XY          YZ          ZX
  --------------------------------------------------------------------------------------
  Alpha Z    75.25432    75.25432    75.25432
  Ewald   43588.98109 45352.54547 48255.87999  -178.06804  2007.86989  -308.82096
  Hartree 58499.51218 60178.90894 62893.75908  -162.16794  1836.58579  -279.91403
  E(xc)   -2904.75979 -2904.28927 -2903.14821    -0.14072     1.02306    -0.24570
  Local  ************************************   338.28648 -3828.50681   585.80254
  n-local  -881.89485  -884.23998  -890.34127     0.83713    -5.57228     1.39665
  augment  4104.30022  4104.04300  4103.02057     0.10351    -0.89405     0.10842
  Kinetic  7809.85070  7804.42511  7794.23765     1.32001   -10.05504     2.09605
  Fock        0.00000     0.00000     0.00000     0.00000     0.00000     0.00000
  -------------------------------------------------------------------------------------
  Total    -113.91709  -113.34583  -113.61137     0.17043     0.45055     0.42298
  in kB      -6.75983    -6.72593    -6.74169     0.01011     0.02674     0.02510
  external pressure =       -6.74 kB  Pullay stress =        0.00 kB


 VOLUME and BASIS-vectors are now :
 -----------------------------------------------------------------------------
  energy-cutoff  :      400.00
  volume of cell :    27000.00
      direct lattice vectors                 reciprocal lattice vectors
    30.000000000  0.000000000  0.000000000     0.033333333  0.000000000  0.000000000
     0.000000000 30.000000000  0.000000000     0.000000000  0.033333333  0.000000000
     0.000000000  0.000000000 30.000000000     0.000000000  0.000000000  0.033333333

  length of vectors
    30.000000000 30.000000000 30.000000000     0.033333333  0.033333333  0.033333333


 FORCES acting on ions
    electron-ion (+dipol)            ewald-force                    non-local-force                 convergence-correction
 -----------------------------------------------------------------------------------------------
   0.394E+03 0.973E+03 0.419E+03   -.392E+03 -.970E+03 -.418E+03   -.149E+01 -.182E+01 -.224E+00   0.371E-02 0.169E-02 -.756E-03
   -.974E+03 -.391E+03 0.421E+03   0.971E+03 0.389E+03 -.421E+03   0.182E+01 0.150E+01 -.222E+00   0.359E-02 -.752E-02 -.328E-03
   -.395E+03 0.973E+03 0.419E+03   0.392E+03 -.970E+03 -.418E+03   0.149E+01 -.182E+01 -.222E+00   0.363E-02 0.799E-02 -.316E-02
   0.974E+03 -.391E+03 0.422E+03   -.971E+03 0.389E+03 -.422E+03   -.181E+01 0.150E+01 -.216E+00   -.238E-02 0.217E-02 0.526E-02
   -.306E+00 0.588E+03 0.966E+03   0.301E+00 -.588E+03 -.962E+03   -.260E-02 -.313E+00 -.235E+01   0.816E-02 0.207E-02 0.148E-02
   -.135E+01 0.600E+03 -.958E+03   0.135E+01 -.599E+03 0.955E+03   0.430E-03 -.308E+00 0.234E+01   -.516E-02 0.186E-02 0.969E-03
   -.362E+00 0.114E+04 0.318E+01   0.362E+00 -.113E+04 -.317E+01   -.380E-03 -.311E+01 -.725E-02   0.367E-03 0.345E-02 -.154E-02
   0.114E+04 0.475E+01 0.684E+01   -.113E+04 -.476E+01 -.687E+01   -.310E+01 0.662E-02 0.869E-02   0.347E-02 0.949E-03 0.110E-01
   -.114E+04 0.369E+01 0.527E+01   0.113E+04 -.370E+01 -.528E+01   0.311E+01 0.459E-02 0.898E-02   -.153E-02 -.860E-03 -.639E-02
   -.207E+01 -.114E+04 0.203E+02   0.206E+01 0.113E+04 -.203E+02   0.672E-02 0.311E+01 -.136E-01   -.111E-02 -.477E-03 0.112E-02
   -.579E+03 0.580E+03 0.813E+03   0.577E+03 -.578E+03 -.810E+03   0.156E+01 -.155E+01 -.220E+01   -.117E-03 0.561E-02 0.477E-02
   -.583E+03 0.588E+03 -.807E+03   0.581E+03 -.586E+03 0.804E+03   0.156E+01 -.156E+01 0.220E+01   0.596E-03 0.947E-03 0.424E-03
   0.579E+03 -.576E+03 0.816E+03   -.577E+03 0.574E+03 -.813E+03   -.156E+01 0.156E+01 -.220E+01   -.152E-02 0.185E-02 -.373E-02
   0.627E+03 -.547E+03 -.758E+03   -.625E+03 0.545E+03 0.755E+03   -.139E+01 0.152E+01 0.217E+01   -.425E-02 -.652E-02 -.403E-02
   0.578E+03 0.580E+03 0.814E+03   -.576E+03 -.578E+03 -.810E+03   -.156E+01 -.156E+01 -.220E+01   0.342E-02 -.249E-02 -.125E-02
   0.582E+03 0.590E+03 -.807E+03   -.580E+03 -.588E+03 0.803E+03   -.155E+01 -.155E+01 0.220E+01   -.310E-02 0.593E-02 -.185E-02
   -.580E+03 -.576E+03 0.815E+03   0.578E+03 0.574E+03 -.812E+03   0.156E+01 0.156E+01 -.220E+01   0.560E-02 -.486E-02 0.453E-05
   -.616E+03 -.562E+03 -.784E+03   0.614E+03 0.560E+03 0.781E+03   0.151E+01 0.156E+01 0.221E+01   0.169E-02 -.195E-02 0.170E-02
   0.394E+03 0.977E+03 -.411E+03   -.392E+03 -.974E+03 0.411E+03   -.150E+01 -.181E+01 0.221E+00   -.392E-02 0.467E-02 0.244E-02
   -.982E+03 -.386E+03 -.405E+03   0.980E+03 0.384E+03 0.404E+03   0.183E+01 0.149E+01 0.215E+00   0.423E-02 -.423E-02 -.569E-02
   -.322E+03 0.325E+03 0.458E+03   0.323E+03 -.325E+03 -.458E+03   -.362E+00 0.369E+00 0.516E+00   0.811E-02 -.312E-02 -.325E-02
   0.973E+03 0.397E+03 0.420E+03   -.970E+03 -.395E+03 -.420E+03   -.182E+01 -.150E+01 -.234E+00   -.102E-02 -.229E-02 0.393E-02
   -.396E+03 -.970E+03 0.425E+03   0.394E+03 0.967E+03 -.425E+03   0.149E+01 0.182E+01 -.215E+00   0.619E-02 -.913E-03 -.336E-02
   -.395E+03 0.977E+03 -.412E+03   0.393E+03 -.974E+03 0.411E+03   0.150E+01 -.181E+01 0.222E+00   -.935E-04 0.265E-02 -.741E-03
   0.984E+03 -.383E+03 -.400E+03   -.981E+03 0.381E+03 0.399E+03   -.184E+01 0.148E+01 0.207E+00   0.536E-02 -.137E-02 0.648E-02
   -.973E+03 0.397E+03 0.419E+03   0.970E+03 -.394E+03 -.419E+03   0.181E+01 -.150E+01 -.236E+00   -.235E-02 0.415E-02 0.105E-03
   0.395E+03 -.970E+03 0.426E+03   -.392E+03 0.967E+03 -.426E+03   -.149E+01 0.182E+01 -.220E+00   -.147E-02 0.658E-03 0.819E-03
   0.321E+03 0.325E+03 0.458E+03   -.322E+03 -.325E+03 -.459E+03   0.362E+00 0.371E+00 0.521E+00   0.811E-02 -.434E-02 0.157E-02
   -.639E+00 0.644E+03 0.592E+01   0.639E+00 -.645E+03 -.592E+01   -.149E-02 0.732E+00 -.174E-02   0.278E-02 0.345E-02 -.288E-02
   -.588E+03 0.236E+01 0.966E+03   0.587E+03 -.235E+01 -.963E+03   0.312E+00 -.850E-02 -.235E+01   0.350E-02 -.446E-02 0.491E-02
   -.601E+03 0.184E+02 -.953E+03   0.601E+03 -.183E+02 0.949E+03   0.319E+00 -.465E-02 0.235E+01   0.108E-02 -.141E-02 0.339E-03
   0.587E+03 0.258E+01 0.967E+03   -.586E+03 -.257E+01 -.963E+03   -.306E+00 -.553E-02 -.234E+01   0.170E-02 -.155E-02 -.380E-02
   0.600E+03 0.262E+02 -.948E+03   -.600E+03 -.263E+02 0.945E+03   -.316E+00 0.364E-02 0.235E+01   -.426E-02 0.335E-02 -.631E-02
   0.762E+03 0.765E+03 0.536E+01   -.760E+03 -.763E+03 -.537E+01   -.114E+01 -.114E+01 0.373E-02   -.510E-03 0.185E-02 0.668E-02
   -.767E+03 -.757E+03 0.138E+02   0.765E+03 0.755E+03 -.138E+02   0.114E+01 0.113E+01 -.162E-01   0.658E-02 -.471E-02 -.414E-02
   -.762E+03 0.764E+03 0.474E+01   0.760E+03 -.762E+03 -.473E+01   0.114E+01 -.114E+01 -.718E-03   0.188E-02 0.511E-02 -.773E-02
   0.766E+03 -.756E+03 0.174E+02   -.764E+03 0.754E+03 -.174E+02   -.115E+01 0.114E+01 -.217E-01   -.445E-02 -.279E-02 0.123E-01
   -.430E+00 0.268E+01 0.107E+04   0.421E+00 -.268E+01 -.107E+04   -.261E-03 -.208E-02 -.161E+01   0.912E-02 -.615E-02 -.206E-02
   -.558E+01 0.372E+02 -.105E+04   0.559E+01 -.373E+02 0.105E+04   -.468E-02 0.602E-01 0.164E+01   -.781E-02 0.235E-04 -.918E-03
   0.977E+03 0.403E+03 -.408E+03   -.974E+03 -.401E+03 0.407E+03   -.182E+01 -.150E+01 0.217E+00   0.274E-02 0.534E-02 0.616E-02
   -.412E+03 -.972E+03 -.377E+03   0.410E+03 0.969E+03 0.376E+03   0.149E+01 0.184E+01 0.276E+00   -.113E-02 -.143E-02 0.144E-02
   -.325E+03 0.333E+03 -.443E+03   0.326E+03 -.333E+03 0.443E+03   -.365E+00 0.357E+00 -.527E+00   -.495E-03 0.517E-04 -.292E-02
   0.321E+03 -.317E+03 0.461E+03   -.322E+03 0.317E+03 -.462E+03   0.368E+00 -.366E+00 0.531E+00   0.640E-03 -.187E-02 0.309E-02
   0.323E+03 0.334E+03 -.442E+03   -.323E+03 -.335E+03 0.442E+03   0.366E+00 0.348E+00 -.537E+00   -.781E-02 0.343E-02 0.372E-02
   -.977E+03 0.401E+03 -.410E+03   0.974E+03 -.399E+03 0.409E+03   0.182E+01 -.149E+01 0.223E+00   0.281E-02 0.175E-02 -.645E-02
   0.402E+03 -.972E+03 -.366E+03   -.400E+03 0.969E+03 0.365E+03   -.148E+01 0.178E+01 0.321E+00   -.928E-02 -.751E-02 0.449E-02
   -.323E+03 -.317E+03 0.461E+03   0.323E+03 0.318E+03 -.461E+03   -.372E+00 -.361E+00 0.533E+00   0.107E-01 -.755E-02 -.338E-02
   0.642E+03 0.739E+01 0.108E+02   -.643E+03 -.741E+01 -.109E+02   0.745E+00 0.137E-01 0.114E-01   -.219E-02 0.149E-02 0.151E-01
   -.643E+03 0.620E+01 0.905E+01   0.644E+03 -.622E+01 -.907E+01   -.741E+00 0.177E-01 0.164E-01   0.830E-02 -.493E-02 -.802E-02
   -.538E+00 -.584E+03 0.968E+03   0.533E+00 0.584E+03 -.964E+03   -.888E-04 0.316E+00 -.234E+01   0.553E-02 -.113E-02 -.504E-02
   -.325E+02 -.525E+03 -.842E+03   0.325E+02 0.524E+03 0.840E+03   -.147E+00 0.121E+00 0.200E+01   -.101E-01 -.321E-02 0.694E-03
   -.129E+01 0.845E+01 0.124E+02   0.128E+01 -.844E+01 -.124E+02   -.908E-04 -.141E-02 0.949E-03   0.117E-02 -.476E-02 0.307E-02
   0.326E+03 -.301E+03 -.422E+03   -.327E+03 0.302E+03 0.423E+03   0.326E+00 -.374E+00 -.507E+00   -.121E-01 -.102E-02 0.518E-02
   -.332E+03 -.305E+03 -.428E+03   0.333E+03 0.305E+03 0.428E+03   -.281E+00 -.448E+00 -.606E+00   -.246E-02 -.387E-02 -.798E-03
   -.211E+01 -.633E+03 0.208E+02   0.211E+01 0.634E+03 -.208E+02   0.393E-02 -.734E+00 -.293E-01   -.335E-02 -.362E-02 0.552E-02
   0.125E+02 -.711E+02 -.139E+03   -.101E+02 0.556E+02 0.116E+03   -.192E+01 0.136E+02 0.205E+02   -.197E-02 -.758E-03 -.328E-03
   0.514E+02 -.349E+03 -.544E+03   -.566E+02 0.384E+03 0.597E+03   0.490E+01 -.332E+02 -.508E+02   -.173E-02 -.825E-03 -.388E-03
 -----------------------------------------------------------------------------------------------
   -.305E+01 0.199E+02 0.307E+02   0.611E-12 -.125E-11 -.148E-11   0.302E+01 -.198E+02 -.307E+02   0.271E-01 -.320E-01 0.235E-01
 
 
 POSITION                                       TOTAL-FORCE (eV/Angst)
 -----------------------------------------------------------------------------------
     13.37281      9.84801     12.50759         0.703804      1.108091      0.291723
     20.15199     16.62719     12.50759        -1.104798     -0.704004      0.291169
     16.62719      9.84801     12.50759        -0.703891      1.109559      0.292550
      9.84801     16.62719     12.50759         1.106869     -0.706253      0.291404
     15.00000     11.47521     10.20639         0.000364      0.413853      1.281130
     15.00000     11.47521     19.79360         0.000029      0.410757     -1.286295
     15.00000      8.28283     15.00000        -0.000093      1.516838      0.004032
      8.28283     15.00000     15.00000         1.516632     -0.002385     -0.007903
     21.71717     15.00000     15.00000        -1.519540     -0.002150     -0.005884
     15.00000     21.71717     15.00000        -0.006347     -1.517473      0.008297
     18.35858     11.64142     10.25025        -0.756555      0.753929      1.071421
     18.35858     11.64142     19.74975        -0.756910      0.756064     -1.073289
     11.64142     18.35858     10.25025         0.755822     -0.757108      1.073155
     11.64142     18.35858     19.74975         0.714699     -0.757041     -1.075746
     11.64142     11.64142     10.25025         0.756065      0.755863      1.072587
     11.64142     11.64142     19.74975         0.757394      0.756243     -1.073449
     18.35858     18.35858     10.25025        -0.755540     -0.756677      1.073110
     18.35858     18.35858     19.74975        -0.740289     -0.765496     -1.089386
     13.37281      9.84801     17.49241         0.707093      1.107289     -0.292117
     20.15199     16.62719     17.49241        -1.111099     -0.699127     -0.288377
     16.73751     13.26249     12.54279         0.108068     -0.112616     -0.156926
      9.84801     13.37281     12.50759         1.106441      0.707457      0.299039
     16.62719     20.15199     12.50759        -0.702731     -1.110736      0.289812
     16.62719      9.84801     17.49241        -0.705728      1.106610     -0.292511
      9.84801     16.62719     17.49241         1.113731     -0.694897     -0.283536
     20.15199     13.37281     12.50759        -1.105662      0.705248      0.297827
     13.37281     20.15199     12.50759         0.703133     -1.109481      0.290308
     13.26249     13.26249     12.54279        -0.109955     -0.113661     -0.159295
     15.00000     11.52498     15.00000         0.001483     -0.231750      0.000524
     18.52479     15.00000     10.20639        -0.415318      0.004691      1.282425
     18.52479     15.00000     19.79360        -0.413173     -0.000906     -1.282263
     11.47521     15.00000     10.20640         0.413409      0.002656      1.281553
     11.47521     15.00000     19.79360         0.409671     -0.007917     -1.283982
     11.49535     11.49535     15.00000         0.828344      0.827647     -0.001537
     18.50465     18.50465     15.00000        -0.834676     -0.825318      0.006742
     18.50465     11.49535     15.00000        -0.828526      0.828670      0.000638
     11.49535     18.50465     15.00000         0.833397     -0.824827      0.002047
     15.00000     15.00000     10.04368         0.000119      0.000472      1.179451
     15.00000     15.00000     19.95633        -0.000071     -0.030184     -1.190210
      9.84801     13.37281     17.49241         1.110050      0.705823     -0.289316
     16.62719     20.15199     17.49241        -0.687729     -1.115229     -0.323533
     16.73751     13.26249     17.45721         0.113235     -0.110013      0.159713
     13.26249     16.73751     12.54279        -0.113010      0.112019     -0.156914
     13.26249     13.26249     17.45721        -0.112708     -0.110616      0.158638
     20.15199     13.37281     17.49241        -1.109059      0.704217     -0.292166
     13.37281     20.15199     17.49241         0.691751     -1.096121     -0.338969
     16.73751     16.73751     12.54279         0.113840      0.110401     -0.159131
     11.52498     15.00000     15.00000        -0.236555     -0.006315     -0.014629
     18.47502     15.00000     15.00000         0.242592     -0.004557     -0.010322
     15.00000     18.52480     10.20639         0.000545     -0.414164      1.279979
     15.00000     18.52480     19.79360        -0.174531     -0.002182     -0.390146
     15.00000     15.00000     15.00000        -0.000534      0.007880      0.006722
     13.26249     16.73751     17.45721        -0.104019      0.094201      0.131742
     16.73751     16.73751     17.45721         0.071123      0.146785      0.187422
     15.00000     18.47502     15.00000        -0.000428      0.226022      0.003291
     14.30569     19.65956     22.14069         0.468805     -1.860524     -3.038753
     14.21414     20.27395     23.08224        -0.239036      1.470443      2.248136
 -----------------------------------------------------------------------------------
    total drift:                               -0.005949     -0.003403      0.001905


--------------------------------------------------------------------------------------------------------



  FREE ENERGIE OF THE ION-ELECTRON SYSTEM (eV)
  ---------------------------------------------------
  free  energy   TOTEN  =      -173.87363650 eV

  energy  without entropy=     -173.76357355  energy(sigma->0) =     -173.84612077
 


--------------------------------------------------------------------------------------------------------


    POTLOK:  cpu time   14.3739: real time   14.3743


--------------------------------------------------------------------------------------------------------


     LOOP+:  cpu time18520.0067: real time18520.6749
    4ORBIT:  cpu time    0.0000: real time    0.0000

 total amount of memory used by VASP MPI-rank0  5486940. kBytes
=======================================================================

   base      :      30000. kBytes
   nonlr-proj:      17125. kBytes
   fftplans  :     924480. kBytes
   grid      :    1872000. kBytes
   one-center:        886. kBytes
   wavefun   :    2642449. kBytes
 
  
  
 General timing and accounting informations for this job:
 ========================================================
  
                  Total CPU time used (sec):    18594.824
                            User time (sec):    17538.566
                          System time (sec):     1056.259
                         Elapsed time (sec):    18595.582
  
                   Maximum memory used (kb):     7179236.
                   Average memory used (kb):           0.
  
                          Minor page faults:    825913947
                          Major page faults:            0
                 Voluntary context switches:          572
