   57   57    1    1
  0.4736842E+03  0.3000000E-08  0.3000000E-08  0.3000000E-08  0.5000000E-15
  1.000000000000000E-004
  CAR 
 6_Pd100_top_free_z(O)                   
    560      1    336
 
  0.0000000E+00  0.0000000E+00  0.0000000E+00  0.1000000E+01
    1      -28.580119   1.000000
    2      -13.866686   1.000000
    3      -12.294577   1.000000
    4      -12.039218   1.000000
    5      -10.588414   1.000000
    6       -6.995775   1.000000
    7       -6.690721   1.000000
    8       -6.634524   1.000000
    9       -6.298571   1.000000
   10       -6.211868   1.000000
   11       -6.119355   1.000000
   12       -6.096574   1.000000
   13       -6.055014   1.000000
   14       -5.933238   1.000000
   15       -5.909387   1.000000
   16       -5.805869   1.000000
   17       -5.788037   1.000000
   18       -5.759449   1.000000
   19       -5.708491   1.000000
   20       -5.684900   1.000000
   21       -5.668284   1.000000
   22       -5.665161   1.000000
   23       -5.649896   1.000000
   24       -5.639211   1.000000
   25       -5.631163   1.000000
   26       -5.609392   1.000000
   27       -5.577595   1.000000
   28       -5.570241   1.000000
   29       -5.563223   1.000000
   30       -5.544701   1.000000
   31       -5.536779   1.000000
   32       -5.528303   1.000000
   33       -5.524827   1.000000
   34       -5.524087   1.000000
   35       -5.505936   1.000000
   36       -5.499430   1.000000
   37       -5.495434   1.000000
   38       -5.494834   1.000000
   39       -5.489090   1.000000
   40       -5.488605   1.000000
   41       -5.473176   1.000000
   42       -5.463795   1.000000
   43       -5.457379   1.000000
   44       -5.455459   1.000000
   45       -5.451441   1.000000
   46       -5.449836   1.000000
   47       -5.440143   1.000000
   48       -5.438597   1.000000
   49       -5.429323   1.000000
   50       -5.423293   1.000000
   51       -5.419240   1.000000
   52       -5.406349   1.000000
   53       -5.404481   1.000000
   54       -5.394068   1.000000
   55       -5.390712   1.000000
   56       -5.386129   1.000000
   57       -5.383773   1.000000
   58       -5.379760   1.000000
   59       -5.376383   1.000000
   60       -5.363223   1.000000
   61       -5.331545   1.000000
   62       -5.310537   1.000000
   63       -5.304229   1.000000
   64       -5.303706   1.000000
   65       -5.295080   1.000000
   66       -5.293108   1.000000
   67       -5.284011   1.000000
   68       -5.282022   1.000000
   69       -5.276449   1.000000
   70       -5.275213   1.000000
   71       -5.270577   1.000000
   72       -5.265069   1.000000
   73       -5.250758   1.000000
   74       -5.218574   1.000000
   75       -5.206298   1.000000
   76       -5.204555   1.000000
   77       -5.181297   1.000000
   78       -5.176285   1.000000
   79       -5.171106   1.000000
   80       -5.160437   1.000000
   81       -5.153693   1.000000
   82       -5.150553   1.000000
   83       -5.141523   1.000000
   84       -5.137406   1.000000
   85       -5.136438   1.000000
   86       -5.133136   1.000000
   87       -5.126583   1.000000
   88       -5.121408   1.000000
   89       -5.118795   1.000000
   90       -5.106768   1.000000
   91       -5.100001   1.000000
   92       -5.079877   1.000000
   93       -5.073674   1.000000
   94       -5.052346   1.000000
   95       -5.050698   1.000000
   96       -5.047526   1.000000
   97       -5.028203   1.000000
   98       -5.026261   1.000000
   99       -5.024317   1.000000
  100       -5.017487   1.000000
  101       -5.017420   1.000000
  102       -5.007066   1.000000
  103       -5.006878   1.000000
  104       -5.005572   1.000000
  105       -5.004008   1.000000
  106       -4.985701   1.000000
  107       -4.981852   1.000000
  108       -4.981657   1.000000
  109       -4.975645   1.000000
  110       -4.973749   1.000000
  111       -4.968295   1.000000
  112       -4.964777   1.000000
  113       -4.960559   1.000000
  114       -4.958988   1.000000
  115       -4.958493   1.000000
  116       -4.952904   1.000000
  117       -4.943517   1.000000
  118       -4.943117   1.000000
  119       -4.931233   0.999999
  120       -4.924281   0.999999
  121       -4.922108   0.999999
  122       -4.909385   0.999999
  123       -4.908572   0.999999
  124       -4.895930   0.999998
  125       -4.884127   0.999997
  126       -4.883976   0.999997
  127       -4.879555   0.999996
  128       -4.877822   0.999996
  129       -4.864611   0.999994
  130       -4.863748   0.999994
  131       -4.841564   0.999987
  132       -4.836435   0.999985
  133       -4.830619   0.999982
  134       -4.820475   0.999976
  135       -4.814759   0.999971
  136       -4.814184   0.999971
  137       -4.809094   0.999966
  138       -4.796861   0.999952
  139       -4.792880   0.999947
  140       -4.785687   0.999935
  141       -4.782480   0.999929
  142       -4.770223   0.999902
  143       -4.765891   0.999890
  144       -4.765633   0.999889
  145       -4.748181   0.999828
  146       -4.746813   0.999822
  147       -4.743924   0.999809
  148       -4.719222   0.999657
  149       -4.718335   0.999650
  150       -4.693427   0.999398
  151       -4.687138   0.999314
  152       -4.686756   0.999309
  153       -4.679634   0.999202
  154       -4.678379   0.999182
  155       -4.674853   0.999124
  156       -4.673794   0.999105
  157       -4.653625   0.998699
  158       -4.646384   0.998524
  159       -4.646080   0.998516
  160       -4.641734   0.998403
  161       -4.641161   0.998388
  162       -4.636402   0.998257
  163       -4.623214   0.997859
  164       -4.622842   0.997847
  165       -4.622729   0.997843
  166       -4.622316   0.997830
  167       -4.619843   0.997749
  168       -4.616034   0.997622
  169       -4.615936   0.997619
  170       -4.614169   0.997558
  171       -4.611192   0.997455
  172       -4.608783   0.997370
  173       -4.607844   0.997337
  174       -4.587745   0.996593
  175       -4.587391   0.996580
  176       -4.576142   0.996161
  177       -4.572727   0.996038
  178       -4.572605   0.996033
  179       -4.568537   0.995891
  180       -4.559025   0.995582
  181       -4.557919   0.995549
  182       -4.551295   0.995368
  183       -4.550155   0.995341
  184       -4.544634   0.995221
  185       -4.543137   0.995194
  186       -4.532283   0.995071
  187       -4.531438   0.995068
  188       -4.531004   0.995067
  189       -4.525366   0.995077
  190       -4.523442   0.995093
  191       -4.522910   0.995098
  192       -4.514037   0.995266
  193       -4.513611   0.995278
  194       -4.497085   0.996084
  195       -4.492769   0.996416
  196       -4.480068   0.997741
  197       -4.479693   0.997788
  198       -4.470892   0.999057
  199       -4.465900   0.999912
  200       -4.465587   0.999969
  201       -4.455957   1.001927
  202       -4.448013   1.003848
  203       -4.447592   1.003958
  204       -4.441442   1.005654
  205       -4.440920   1.005806
  206       -4.430659   1.009043
  207       -4.426262   1.010576
  208       -4.425369   1.010897
  209       -4.424335   1.011274
  210       -4.419319   1.013165
  211       -4.413718   1.015398
  212       -4.413168   1.015624
  213       -4.411530   1.016303
  214       -4.400818   1.020968
  215       -4.386023   1.027890
  216       -4.385625   1.028081
  217       -4.379365   1.031093
  218       -4.379148   1.031198
  219       -4.379088   1.031226
  220       -4.375991   1.032716
  221       -4.375615   1.032896
  222       -4.358123   1.040971
  223       -4.356050   1.041858
  224       -4.346726   1.045538
  225       -4.338133   1.048343
  226       -4.328521   1.050579
  227       -4.326437   1.050913
  228       -4.319552   1.051570
  229       -4.317590   1.051622
  230       -4.315618   1.051608
  231       -4.310229   1.051216
  232       -4.310124   1.051203
  233       -4.309348   1.051100
  234       -4.301533   1.049372
  235       -4.301460   1.049349
  236       -4.301212   1.049273
  237       -4.299678   1.048767
  238       -4.299471   1.048695
  239       -4.291084   1.044896
  240       -4.288051   1.043084
  241       -4.287905   1.042990
  242       -4.287637   1.042817
  243       -4.269559   1.026346
  244       -4.268462   1.025022
  245       -4.263798   1.018946
  246       -4.263468   1.018488
  247       -4.261261   1.015331
  248       -4.257826   1.010083
  249       -4.249072   0.994801
  250       -4.248548   0.993798
  251       -4.244792   0.986305
  252       -4.244222   0.985122
  253       -4.241673   0.979681
  254       -4.240870   0.977916
  255       -4.233565   0.960723
  256       -4.233055   0.959448
  257       -4.229212   0.949500
  258       -4.228728   0.948208
  259       -4.228089   0.946486
  260       -4.220997   0.926318
  261       -4.220918   0.926085
  262       -4.217137   0.914525
  263       -4.217049   0.914249
  264       -4.213306   0.902255
  265       -4.210803   0.893935
  266       -4.200724   0.858074
  267       -4.200171   0.855999
  268       -4.199508   0.853496
  269       -4.193991   0.832076
  270       -4.192471   0.825987
  271       -4.192326   0.825404
  272       -4.180019   0.773294
  273       -4.174472   0.748306
  274       -4.173674   0.744642
  275       -4.169131   0.723456
  276       -4.156780   0.663402
  277       -4.156674   0.662877
  278       -4.149836   0.628335
  279       -4.149652   0.627394
  280       -4.149379   0.625999
  281       -4.134364   0.547930
  282       -4.114022   0.440564
  283       -4.112718   0.433721
  284       -4.110092   0.419990
  285       -4.109703   0.417957
  286       -4.100954   0.372762
  287       -4.092778   0.331533
  288       -4.092572   0.330509
  289       -4.009447   0.021514
  290       -3.942939  -0.050830
  291       -3.803390  -0.004065
  292       -3.802132  -0.003737
  293       -3.792960  -0.001561
  294       -3.567557   0.000746
  295       -3.498883   0.000158
  296       -3.492853   0.000136
  297       -3.212231   0.000000
  298       -3.038757   0.000000
  299       -3.037840   0.000000
  300       -3.037309   0.000000
  301       -2.999159   0.000000
  302       -2.995992   0.000000
  303       -2.915461   0.000000
  304       -2.915417   0.000000
  305       -2.547549   0.000000
  306       -2.545411   0.000000
  307       -2.511124   0.000000
  308       -2.501033   0.000000
  309       -2.198921   0.000000
  310       -2.097520   0.000000
  311       -2.096821   0.000000
  312       -2.093688   0.000000
  313       -1.952111   0.000000
  314       -1.946084   0.000000
  315       -1.863431   0.000000
  316       -1.860164   0.000000
  317       -1.846565   0.000000
  318       -1.656229   0.000000
  319       -1.652330   0.000000
  320       -1.626847   0.000000
  321       -1.557209   0.000000
  322       -1.556315   0.000000
  323       -1.555690   0.000000
  324       -1.245320   0.000000
  325       -1.244736   0.000000
  326       -1.027589   0.000000
  327       -1.015455   0.000000
  328       -1.001419   0.000000
  329       -0.944128   0.000000
  330       -0.941194   0.000000
  331       -0.934390   0.000000
  332       -0.912808   0.000000
  333       -0.846915   0.000000
  334       -0.836491   0.000000
  335       -0.798141   0.000000
  336       -0.711610   0.000000
