  57  57   0   0
  0.4736842E+03  0.3000000E-08  0.3000000E-08  0.3000000E-08  0.5000000E-15
  1.000000000000000E-004
  CAR 
 6_Pd100_top_free_z(O)                   
      1.29344938    -31.23897430  301     -4.12156579      1.00000000
    -31.239  0.0000E+00  0.0000E+00
    -31.131  0.0000E+00  0.0000E+00
    -31.022  0.0000E+00  0.0000E+00
    -30.914  0.5150E-27  0.5584E-28
    -30.805  0.2735E-23  0.2967E-24
    -30.697  0.7940E-20  0.8613E-21
    -30.588  0.1256E-16  0.1363E-17
    -30.480  0.1078E-13  0.1170E-14
    -30.371  0.5007E-11  0.5442E-12
    -30.263  0.1245E-08  0.1355E-09
    -30.155  0.1641E-06  0.1793E-07
    -30.046  0.1128E-04  0.1241E-05
    -29.938  0.3918E-03  0.4373E-04
    -29.829  0.6469E-02  0.7452E-03
    -29.721  0.4273E-01  0.5379E-02
    -29.612  0.2462E-01  0.8049E-02
    -29.504 -0.5516E+00 -0.5177E-01
    -29.395 -0.2334E+00 -0.7708E-01
    -29.287  0.5449E+01  0.5138E+00
    -29.179  0.9977E+01  0.1596E+01
    -29.070  0.4586E+01  0.2093E+01
    -28.962 -0.4847E+00  0.2040E+01
    -28.853 -0.4579E+00  0.1991E+01
    -28.745  0.4379E-01  0.1995E+01
    -28.636  0.3658E-01  0.1999E+01
    -28.528  0.4900E-02  0.2000E+01
    -28.419  0.2713E-03  0.2000E+01
    -28.311  0.7210E-05  0.2000E+01
    -28.203  0.9731E-07  0.2000E+01
    -28.094  0.6862E-09  0.2000E+01
    -27.986  0.2568E-11  0.2000E+01
    -27.877  0.6143E-14  0.2000E+01
    -27.769  0.0000E+00  0.2000E+01
    -27.660  0.0000E+00  0.2000E+01
    -27.552  0.0000E+00  0.2000E+01
    -27.444  0.0000E+00  0.2000E+01
    -27.335  0.0000E+00  0.2000E+01
    -27.227  0.0000E+00  0.2000E+01
    -27.118  0.0000E+00  0.2000E+01
    -27.010  0.0000E+00  0.2000E+01
    -26.901  0.0000E+00  0.2000E+01
    -26.793  0.0000E+00  0.2000E+01
    -26.684  0.0000E+00  0.2000E+01
    -26.576  0.0000E+00  0.2000E+01
    -26.468  0.0000E+00  0.2000E+01
    -26.359  0.0000E+00  0.2000E+01
    -26.251  0.0000E+00  0.2000E+01
    -26.142  0.0000E+00  0.2000E+01
    -26.034  0.0000E+00  0.2000E+01
    -25.925  0.0000E+00  0.2000E+01
    -25.817  0.0000E+00  0.2000E+01
    -25.708  0.0000E+00  0.2000E+01
    -25.600  0.0000E+00  0.2000E+01
    -25.492  0.0000E+00  0.2000E+01
    -25.383  0.0000E+00  0.2000E+01
    -25.275  0.0000E+00  0.2000E+01
    -25.166  0.0000E+00  0.2000E+01
    -25.058  0.0000E+00  0.2000E+01
    -24.949  0.0000E+00  0.2000E+01
    -24.841  0.0000E+00  0.2000E+01
    -24.732  0.0000E+00  0.2000E+01
    -24.624  0.0000E+00  0.2000E+01
    -24.516  0.0000E+00  0.2000E+01
    -24.407  0.0000E+00  0.2000E+01
    -24.299  0.0000E+00  0.2000E+01
    -24.190  0.0000E+00  0.2000E+01
    -24.082  0.0000E+00  0.2000E+01
    -23.973  0.0000E+00  0.2000E+01
    -23.865  0.0000E+00  0.2000E+01
    -23.757  0.0000E+00  0.2000E+01
    -23.648  0.0000E+00  0.2000E+01
    -23.540  0.0000E+00  0.2000E+01
    -23.431  0.0000E+00  0.2000E+01
    -23.323  0.0000E+00  0.2000E+01
    -23.214  0.0000E+00  0.2000E+01
    -23.106  0.0000E+00  0.2000E+01
    -22.997  0.0000E+00  0.2000E+01
    -22.889  0.0000E+00  0.2000E+01
    -22.781  0.0000E+00  0.2000E+01
    -22.672  0.0000E+00  0.2000E+01
    -22.564  0.0000E+00  0.2000E+01
    -22.455  0.0000E+00  0.2000E+01
    -22.347  0.0000E+00  0.2000E+01
    -22.238  0.0000E+00  0.2000E+01
    -22.130  0.0000E+00  0.2000E+01
    -22.021  0.0000E+00  0.2000E+01
    -21.913  0.0000E+00  0.2000E+01
    -21.805  0.0000E+00  0.2000E+01
    -21.696  0.0000E+00  0.2000E+01
    -21.588  0.0000E+00  0.2000E+01
    -21.479  0.0000E+00  0.2000E+01
    -21.371  0.0000E+00  0.2000E+01
    -21.262  0.0000E+00  0.2000E+01
    -21.154  0.0000E+00  0.2000E+01
    -21.045  0.0000E+00  0.2000E+01
    -20.937  0.0000E+00  0.2000E+01
    -20.829  0.0000E+00  0.2000E+01
    -20.720  0.0000E+00  0.2000E+01
    -20.612  0.0000E+00  0.2000E+01
    -20.503  0.0000E+00  0.2000E+01
    -20.395  0.0000E+00  0.2000E+01
    -20.286  0.0000E+00  0.2000E+01
    -20.178  0.0000E+00  0.2000E+01
    -20.070  0.0000E+00  0.2000E+01
    -19.961  0.0000E+00  0.2000E+01
    -19.853  0.0000E+00  0.2000E+01
    -19.744  0.0000E+00  0.2000E+01
    -19.636  0.0000E+00  0.2000E+01
    -19.527  0.0000E+00  0.2000E+01
    -19.419  0.0000E+00  0.2000E+01
    -19.310  0.0000E+00  0.2000E+01
    -19.202  0.0000E+00  0.2000E+01
    -19.094  0.0000E+00  0.2000E+01
    -18.985  0.0000E+00  0.2000E+01
    -18.877  0.0000E+00  0.2000E+01
    -18.768  0.0000E+00  0.2000E+01
    -18.660  0.0000E+00  0.2000E+01
    -18.551  0.0000E+00  0.2000E+01
    -18.443  0.0000E+00  0.2000E+01
    -18.334  0.0000E+00  0.2000E+01
    -18.226  0.0000E+00  0.2000E+01
    -18.118  0.0000E+00  0.2000E+01
    -18.009  0.0000E+00  0.2000E+01
    -17.901  0.0000E+00  0.2000E+01
    -17.792  0.0000E+00  0.2000E+01
    -17.684  0.0000E+00  0.2000E+01
    -17.575  0.0000E+00  0.2000E+01
    -17.467  0.0000E+00  0.2000E+01
    -17.358  0.0000E+00  0.2000E+01
    -17.250  0.0000E+00  0.2000E+01
    -17.142  0.0000E+00  0.2000E+01
    -17.033  0.0000E+00  0.2000E+01
    -16.925  0.0000E+00  0.2000E+01
    -16.816  0.0000E+00  0.2000E+01
    -16.708  0.0000E+00  0.2000E+01
    -16.599  0.0000E+00  0.2000E+01
    -16.491  0.0000E+00  0.2000E+01
    -16.383  0.0000E+00  0.2000E+01
    -16.274  0.0000E+00  0.2000E+01
    -16.166  0.0000E+00  0.2000E+01
    -16.057  0.0000E+00  0.2000E+01
    -15.949  0.0000E+00  0.2000E+01
    -15.840  0.0000E+00  0.2000E+01
    -15.732  0.0000E+00  0.2000E+01
    -15.623  0.0000E+00  0.2000E+01
    -15.515  0.0000E+00  0.2000E+01
    -15.407  0.3350E-26  0.2000E+01
    -15.298  0.1565E-22  0.2000E+01
    -15.190  0.3995E-19  0.2000E+01
    -15.081  0.5552E-16  0.2000E+01
    -14.973  0.4183E-13  0.2000E+01
    -14.864  0.1703E-10  0.2000E+01
    -14.756  0.3705E-08  0.2000E+01
    -14.647  0.4260E-06  0.2000E+01
    -14.539  0.2541E-04  0.2000E+01
    -14.431  0.7589E-03  0.2000E+01
    -14.322  0.1054E-01  0.2001E+01
    -14.214  0.5406E-01  0.2007E+01
    -14.105 -0.3472E-01  0.2003E+01
    -13.997 -0.7110E+00  0.1926E+01
    -13.888  0.4677E+00  0.1977E+01
    -13.780  0.7023E+01  0.2739E+01
    -13.671  0.9545E+01  0.3774E+01
    -13.563  0.3040E+01  0.4103E+01
    -13.455 -0.7526E+00  0.4022E+01
    -13.346 -0.2902E+00  0.3990E+01
    -13.238  0.6163E-01  0.3997E+01
    -13.129  0.2612E-01  0.4000E+01
    -13.021  0.2831E-02  0.4000E+01
    -12.912  0.1331E-03  0.4000E+01
    -12.804  0.3053E-05  0.4000E+01
    -12.695  0.3584E-07  0.4000E+01
    -12.587  0.8449E-09  0.4000E+01
    -12.479  0.9729E-07  0.4000E+01
    -12.370  0.7947E-05  0.4000E+01
    -12.262  0.3314E-03  0.4000E+01
    -12.153  0.6712E-02  0.4001E+01
    -12.045  0.5819E-01  0.4007E+01
    -11.936  0.1166E+00  0.4020E+01
    -11.828 -0.6775E+00  0.3946E+01
    -11.720 -0.1393E+01  0.3795E+01
    -11.611  0.6985E+01  0.4553E+01
    -11.503  0.1947E+02  0.6664E+01
    -11.394  0.1312E+02  0.8086E+01
    -11.286  0.4446E+00  0.8134E+01
    -11.177 -0.1334E+01  0.7990E+01
    -11.069 -0.2637E-01  0.7987E+01
    -10.960  0.1015E+00  0.7998E+01
    -10.852  0.1826E-01  0.8000E+01
    -10.744  0.1247E-02  0.8000E+01
    -10.635  0.3987E-04  0.8000E+01
    -10.527  0.6403E-06  0.8000E+01
    -10.418  0.5665E-08  0.8000E+01
    -10.310  0.5014E-07  0.8000E+01
    -10.201  0.4076E-05  0.8000E+01
    -10.093  0.1693E-03  0.8000E+01
     -9.984  0.3412E-02  0.8000E+01
     -9.876  0.2940E-01  0.8004E+01
     -9.768  0.5791E-01  0.8010E+01
     -9.659 -0.3437E+00  0.7973E+01
     -9.551 -0.6901E+00  0.7898E+01
     -9.442  0.3538E+01  0.8281E+01
     -9.334  0.9749E+01  0.9339E+01
     -9.225  0.6513E+01  0.1004E+02
     -9.117  0.1998E+00  0.1007E+02
     -9.008 -0.6623E+00  0.9995E+01
     -8.900 -0.1125E-01  0.9993E+01
     -8.792  0.5043E-01  0.9999E+01
     -8.683  0.9002E-02  0.1000E+02
     -8.575  0.6115E-03  0.1000E+02
     -8.466  0.1946E-04  0.1000E+02
     -8.358  0.3113E-06  0.1000E+02
     -8.249  0.2586E-08  0.1000E+02
     -8.141  0.1137E-10  0.1000E+02
     -8.033  0.2662E-13  0.1000E+02
     -7.924  0.2246E-15  0.1000E+02
     -7.816  0.1493E-12  0.1000E+02
     -7.707  0.5358E-10  0.1000E+02
     -7.599  0.1025E-07  0.1000E+02
     -7.490  0.1033E-05  0.1000E+02
     -7.382  0.5372E-04  0.1000E+02
     -7.273  0.1384E-02  0.1000E+02
     -7.165  0.1616E-01  0.1000E+02
     -7.057  0.6218E-01  0.1001E+02
     -6.948 -0.1254E+00  0.9995E+01
     -6.840 -0.8044E+00  0.9908E+01
     -6.731  0.1442E+01  0.1006E+02
     -6.623  0.8421E+01  0.1098E+02
     -6.514  0.8844E+01  0.1194E+02
     -6.406  0.9919E+00  0.1204E+02
     -6.297 -0.3053E+01  0.1171E+02
     -6.189  0.8267E+01  0.1261E+02
     -6.081  0.2770E+02  0.1561E+02
     -5.972  0.1969E+02  0.1775E+02
     -5.864  0.8046E+01  0.1862E+02
     -5.755  0.3088E+02  0.2197E+02
     -5.647  0.7970E+02  0.3061E+02
     -5.538  0.1837E+03  0.5054E+02
     -5.430  0.2980E+03  0.8285E+02
     -5.321  0.2845E+03  0.1137E+03
     -5.213  0.2082E+03  0.1363E+03
     -5.105  0.2346E+03  0.1617E+03
     -4.996  0.3378E+03  0.1984E+03
     -4.888  0.3652E+03  0.2379E+03
     -4.779  0.3024E+03  0.2707E+03
     -4.671  0.3234E+03  0.3058E+03
     -4.562  0.4128E+03  0.3506E+03
     -4.454  0.4200E+03  0.3961E+03
     -4.346  0.4506E+03  0.4450E+03
     -4.237  0.5568E+03  0.5054E+03
     -4.129  0.4818E+03  0.5576E+03
     -4.020  0.1983E+03  0.5791E+03
     -3.912  0.2317E+02  0.5816E+03
     -3.803  0.2320E+02  0.5841E+03
     -3.695  0.2908E+02  0.5873E+03
     -3.586  0.8608E+01  0.5882E+03
     -3.478  0.1799E+02  0.5902E+03
     -3.370  0.2785E+02  0.5932E+03
     -3.261  0.6825E+01  0.5939E+03
     -3.153 -0.2560E+01  0.5937E+03
     -3.044  0.3372E+02  0.5973E+03
     -2.936  0.6856E+02  0.6048E+03
     -2.827  0.4401E+02  0.6095E+03
     -2.719  0.5030E+01  0.6101E+03
     -2.610  0.4418E+01  0.6106E+03
     -2.502  0.2582E+02  0.6134E+03
     -2.394  0.2290E+02  0.6158E+03
     -2.285  0.8167E+01  0.6167E+03
     -2.177  0.1531E+02  0.6184E+03
     -2.068  0.2901E+02  0.6215E+03
     -1.960  0.3473E+02  0.6253E+03
     -1.851  0.5051E+02  0.6308E+03
     -1.743  0.5558E+02  0.6368E+03
     -1.634  0.3829E+02  0.6409E+03
     -1.526  0.4003E+02  0.6453E+03
     -1.418  0.3636E+02  0.6492E+03
     -1.309  0.8779E+01  0.6502E+03
     -1.201  0.6265E+01  0.6509E+03
     -1.092  0.2655E+02  0.6537E+03
     -0.984  0.4664E+02  0.6588E+03
     -0.875  0.5874E+02  0.6652E+03
     -0.767  0.4322E+02  0.6699E+03
     -0.658  0.1779E+02  0.6718E+03
     -0.550  0.3131E+01  0.6721E+03
     -0.442 -0.1021E+01  0.6720E+03
     -0.333 -0.3423E+00  0.6720E+03
     -0.225  0.1293E+00  0.6720E+03
     -0.116  0.5718E-01  0.6720E+03
     -0.008  0.7358E-02  0.6720E+03
      0.101  0.4189E-03  0.6720E+03
      0.209  0.1170E-04  0.6720E+03
      0.317  0.1676E-06  0.6720E+03
      0.426  0.1260E-08  0.6720E+03
      0.534  0.5045E-11  0.6720E+03
      0.643  0.1024E-13  0.6720E+03
      0.751  0.0000E+00  0.6720E+03
      0.860  0.0000E+00  0.6720E+03
      0.968  0.0000E+00  0.6720E+03
      1.077  0.0000E+00  0.6720E+03
      1.185  0.0000E+00  0.6720E+03
      1.293  0.0000E+00  0.6720E+03
