 running on    1 total cores
 distrk:  each k-point on    1 cores,    1 groups
 distr:  one band on    1 cores,    1 groups
 using from now: INCAR     
 vasp.5.4.4.18Apr17-6-g9f103f2a35 (build Sep 03 2018 23:53:05) complex          
  
 POSCAR found type information on POSCAR  Pd C  O 
 POSCAR found :  3 types and      57 ions
 scaLAPACK will be used

 ----------------------------------------------------------------------------- 
|                                                                             |
|  ADVICE TO THIS USER RUNNING 'VASP/VAMP'   (HEAR YOUR MASTER'S VOICE ...):  |
|                                                                             |
|      You enforced a specific xc-type in the INCAR file,                     |
|      a different type was found on the POTCAR file                          |
|          I HOPE YOU KNOW, WHAT YOU ARE  DOING                               |
|                                                                             |
 ----------------------------------------------------------------------------- 

 LDA part: xc-table for Pade appr. of Perdew
 POSCAR, INCAR and KPOINTS ok, starting setup
 FFT: planning ...
 WAVECAR not read
 entering main loop
       N       E                     dE             d eps       ncg     rms          rms(c)
DAV:   1     0.439453227278E+04    0.43945E+04   -0.10055E+05   688   0.815E+02
DAV:   2     0.201272608362E+04   -0.23818E+04   -0.21425E+04  1224   0.105E+02
DAV:   3     0.241145623844E+03   -0.17716E+04   -0.16669E+04   984   0.918E+01
DAV:   4    -0.134374701296E+03   -0.37552E+03   -0.32265E+03   840   0.439E+01
DAV:   5    -0.179635742958E+03   -0.45261E+02   -0.37228E+02  1056   0.146E+01    0.160E+01
RMM:   6    -0.178816642263E+03    0.81910E+00   -0.58049E+01   726   0.904E+00    0.204E+01
RMM:   7    -0.182704688195E+03   -0.38880E+01   -0.20100E+01   841   0.499E+00    0.229E+01
RMM:   8    -0.184868942267E+03   -0.21643E+01   -0.76568E+00   776   0.368E+00    0.286E+01
RMM:   9    -0.182002747782E+03    0.28662E+01   -0.58008E+00   724   0.343E+00    0.273E+01
RMM:  10    -0.178930094286E+03    0.30727E+01   -0.31783E+00   737   0.250E+00    0.180E+01
RMM:  11    -0.177073020583E+03    0.18571E+01   -0.24015E+00   722   0.232E+00    0.155E+01
RMM:  12    -0.176803911832E+03    0.26911E+00   -0.14654E+00   722   0.178E+00    0.167E+01
RMM:  13    -0.176290605282E+03    0.51331E+00   -0.11490E+00   721   0.157E+00    0.134E+01
RMM:  14    -0.177330872560E+03   -0.10403E+01   -0.13944E+00   714   0.175E+00    0.245E+01
RMM:  15    -0.176505986334E+03    0.82489E+00   -0.12328E+00   713   0.167E+00    0.182E+01
RMM:  16    -0.175739857991E+03    0.76613E+00   -0.67203E-01   710   0.125E+00    0.125E+01
RMM:  17    -0.175456551106E+03    0.28331E+00   -0.50932E-01   709   0.108E+00    0.143E+01
RMM:  18    -0.175294848437E+03    0.16170E+00   -0.45868E-01   706   0.100E+00    0.127E+01
RMM:  19    -0.175096675725E+03    0.19817E+00   -0.43995E-01   705   0.977E-01    0.859E+00
RMM:  20    -0.174982425312E+03    0.11425E+00   -0.41957E-01   696   0.988E-01    0.840E+00
RMM:  21    -0.174901531200E+03    0.80894E-01   -0.25687E-01   701   0.803E-01    0.753E+00
RMM:  22    -0.174709969096E+03    0.19156E+00   -0.14300E-01   695   0.600E-01    0.498E+00
RMM:  23    -0.174603895866E+03    0.10607E+00   -0.10548E-01   694   0.497E-01    0.404E+00
RMM:  24    -0.174597636839E+03    0.62590E-02   -0.67060E-02   705   0.397E-01    0.388E+00
RMM:  25    -0.174552875261E+03    0.44762E-01   -0.58292E-02   698   0.375E-01    0.301E+00
RMM:  26    -0.174521274795E+03    0.31600E-01   -0.41667E-02   693   0.331E-01    0.209E+00
RMM:  27    -0.174519522162E+03    0.17526E-02   -0.31895E-02   693   0.288E-01    0.233E+00
RMM:  28    -0.174503507425E+03    0.16015E-01   -0.21987E-02   693   0.239E-01    0.197E+00
RMM:  29    -0.174488183873E+03    0.15324E-01   -0.12602E-02   690   0.194E-01    0.125E+00
RMM:  30    -0.174487001372E+03    0.11825E-02   -0.92160E-03   691   0.157E-01    0.125E+00
RMM:  31    -0.174480628655E+03    0.63727E-02   -0.57208E-03   693   0.126E-01    0.909E-01
RMM:  32    -0.174478748705E+03    0.18800E-02   -0.42288E-03   690   0.108E-01    0.711E-01
RMM:  33    -0.174479955426E+03   -0.12067E-02   -0.41453E-03   689   0.102E-01    0.820E-01
RMM:  34    -0.174478212936E+03    0.17425E-02   -0.25507E-03   686   0.861E-02    0.481E-01
RMM:  35    -0.174478258365E+03   -0.45428E-04   -0.14331E-03   689   0.654E-02    0.292E-01
RMM:  36    -0.174480396838E+03   -0.21385E-02   -0.11298E-03   687   0.532E-02    0.360E-01
RMM:  37    -0.174482965073E+03   -0.25682E-02   -0.11049E-03   685   0.525E-02    0.272E-01
RMM:  38    -0.174484755681E+03   -0.17906E-02   -0.58682E-04   611   0.383E-02    0.256E-01
RMM:  39    -0.174488598276E+03   -0.38426E-02   -0.72951E-04   674   0.385E-02    0.290E-01
RMM:  40    -0.174490368370E+03   -0.17701E-02   -0.38348E-04   481   0.302E-02    0.161E-01
RMM:  41    -0.174492346167E+03   -0.19778E-02   -0.31659E-04   437   0.263E-02    0.171E-01
RMM:  42    -0.174495796518E+03   -0.34504E-02   -0.58106E-04   565   0.304E-02    0.157E-01
RMM:  43    -0.174497074342E+03   -0.12778E-02   -0.25539E-04   430   0.221E-02    0.920E-02
RMM:  44    -0.174498409777E+03   -0.13354E-02   -0.18123E-04   412   0.179E-02    0.981E-02
RMM:  45    -0.174500674880E+03   -0.22651E-02   -0.28026E-04   444   0.197E-02    0.863E-02
RMM:  46    -0.174501459700E+03   -0.78482E-03   -0.12801E-04   412   0.142E-02    0.544E-02
RMM:  47    -0.174502355120E+03   -0.89542E-03   -0.90673E-05   411   0.113E-02    0.647E-02
RMM:  48    -0.174503159143E+03   -0.80402E-03   -0.73264E-05   407   0.101E-02    0.413E-02
RMM:  49    -0.174503544461E+03   -0.38532E-03   -0.33644E-05   387   0.682E-03    0.291E-02
RMM:  50    -0.174504282216E+03   -0.73776E-03   -0.26407E-05   377   0.596E-03    0.293E-02
RMM:  51    -0.174504408089E+03   -0.12587E-03   -0.99431E-06   265   0.466E-03    0.279E-02
RMM:  52    -0.174504869712E+03   -0.46162E-03   -0.69235E-06   204   0.427E-03    0.204E-02
RMM:  53    -0.174505313435E+03   -0.44372E-03   -0.10888E-05   253   0.474E-03    0.190E-02
RMM:  54    -0.174505692971E+03   -0.37954E-03   -0.11894E-05   250   0.452E-03    0.151E-02
RMM:  55    -0.174506004283E+03   -0.31131E-03   -0.10298E-05   208   0.424E-03    0.157E-02
RMM:  56    -0.174506154022E+03   -0.14974E-03   -0.52491E-06   150   0.372E-03    0.130E-02
RMM:  57    -0.174506317678E+03   -0.16366E-03   -0.81253E-06   172   0.400E-03    0.742E-03
RMM:  58    -0.174506448946E+03   -0.13127E-03   -0.74135E-06   167   0.398E-03    0.860E-03
RMM:  59    -0.174506566364E+03   -0.11742E-03   -0.91755E-06   183   0.400E-03    0.562E-03
RMM:  60    -0.174506636051E+03   -0.69688E-04   -0.49824E-06   138   0.350E-03
   1 F= -.17450664E+03 E0= -.17449843E+03  d E =-.328079E-01
================================= SLURM INFO ===================================
Command: run-cluster -n 1 -m 10000 -j 0030_vasp --same-node /opt/VASP/vasp
Exit code: 0
Job name: 0030_vasp
Job time: 0 days 4h:30m:43s
MPI task count: 1
Working dir: /home/pashkov/pyFitIt/pyfitit/data/random_pd_co_new/sample/0030
Job was running on nodes: h13
Task per node: 1
       JobID     MaxRSS  MaxDiskRead MaxDiskWrite    Elapsed    JobName 
------------ ---------- ------------ ------------ ---------- ---------- 
105144                                              04:30:43  0030_vasp 
105144.batch                                        04:30:43      batch 
