  57  57   0   0
  0.4736842E+03  0.3000000E-08  0.3000000E-08  0.3000000E-08  0.5000000E-15
  1.000000000000000E-004
  CAR 
 6_Pd100_top_free_z(O)                   
      1.35354744    -30.36917702  301     -4.14487906      1.00000000
    -30.369  0.0000E+00  0.0000E+00
    -30.263  0.0000E+00  0.0000E+00
    -30.158  0.0000E+00  0.0000E+00
    -30.052  0.2717E-27  0.2873E-28
    -29.946  0.1227E-23  0.1298E-24
    -29.840  0.3120E-20  0.3300E-21
    -29.735  0.4455E-17  0.4715E-18
    -29.629  0.3561E-14  0.3770E-15
    -29.523  0.1588E-11  0.1683E-12
    -29.417  0.3917E-09  0.4159E-10
    -29.312  0.5298E-07  0.5644E-08
    -29.206  0.3875E-05  0.4154E-06
    -29.100  0.1496E-03  0.1623E-04
    -28.995  0.2911E-02  0.3241E-03
    -28.889  0.2557E-01  0.3028E-02
    -28.783  0.6343E-01  0.9735E-02
    -28.677 -0.2458E+00 -0.1626E-01
    -28.572 -0.8056E+00 -0.1014E+00
    -28.466  0.2301E+01  0.1419E+00
    -28.360  0.9025E+01  0.1096E+01
    -28.254  0.8099E+01  0.1953E+01
    -28.149  0.1316E+01  0.2092E+01
    -28.043 -0.8114E+00  0.2006E+01
    -27.937 -0.1401E+00  0.1991E+01
    -27.831  0.6377E-01  0.1998E+01
    -27.726  0.1880E-01  0.2000E+01
    -27.620  0.1839E-02  0.2000E+01
    -27.514  0.8359E-04  0.2000E+01
    -27.408  0.1935E-05  0.2000E+01
    -27.303  0.2376E-07  0.2000E+01
    -27.197  0.1583E-09  0.2000E+01
    -27.091  0.5775E-12  0.2000E+01
    -26.985  0.2100E-14  0.2000E+01
    -26.880  0.0000E+00  0.2000E+01
    -26.774  0.0000E+00  0.2000E+01
    -26.668  0.0000E+00  0.2000E+01
    -26.562  0.0000E+00  0.2000E+01
    -26.457  0.0000E+00  0.2000E+01
    -26.351  0.0000E+00  0.2000E+01
    -26.245  0.0000E+00  0.2000E+01
    -26.139  0.0000E+00  0.2000E+01
    -26.034  0.0000E+00  0.2000E+01
    -25.928  0.0000E+00  0.2000E+01
    -25.822  0.0000E+00  0.2000E+01
    -25.717  0.0000E+00  0.2000E+01
    -25.611  0.0000E+00  0.2000E+01
    -25.505  0.0000E+00  0.2000E+01
    -25.399  0.0000E+00  0.2000E+01
    -25.294  0.0000E+00  0.2000E+01
    -25.188  0.0000E+00  0.2000E+01
    -25.082  0.0000E+00  0.2000E+01
    -24.976  0.0000E+00  0.2000E+01
    -24.871  0.0000E+00  0.2000E+01
    -24.765  0.0000E+00  0.2000E+01
    -24.659  0.0000E+00  0.2000E+01
    -24.553  0.0000E+00  0.2000E+01
    -24.448  0.0000E+00  0.2000E+01
    -24.342  0.0000E+00  0.2000E+01
    -24.236  0.0000E+00  0.2000E+01
    -24.130  0.0000E+00  0.2000E+01
    -24.025  0.0000E+00  0.2000E+01
    -23.919  0.0000E+00  0.2000E+01
    -23.813  0.0000E+00  0.2000E+01
    -23.707  0.0000E+00  0.2000E+01
    -23.602  0.0000E+00  0.2000E+01
    -23.496  0.0000E+00  0.2000E+01
    -23.390  0.0000E+00  0.2000E+01
    -23.284  0.0000E+00  0.2000E+01
    -23.179  0.0000E+00  0.2000E+01
    -23.073  0.0000E+00  0.2000E+01
    -22.967  0.0000E+00  0.2000E+01
    -22.861  0.0000E+00  0.2000E+01
    -22.756  0.0000E+00  0.2000E+01
    -22.650  0.0000E+00  0.2000E+01
    -22.544  0.0000E+00  0.2000E+01
    -22.438  0.0000E+00  0.2000E+01
    -22.333  0.0000E+00  0.2000E+01
    -22.227  0.0000E+00  0.2000E+01
    -22.121  0.0000E+00  0.2000E+01
    -22.016  0.0000E+00  0.2000E+01
    -21.910  0.0000E+00  0.2000E+01
    -21.804  0.0000E+00  0.2000E+01
    -21.698  0.0000E+00  0.2000E+01
    -21.593  0.0000E+00  0.2000E+01
    -21.487  0.0000E+00  0.2000E+01
    -21.381  0.0000E+00  0.2000E+01
    -21.275  0.0000E+00  0.2000E+01
    -21.170  0.0000E+00  0.2000E+01
    -21.064  0.0000E+00  0.2000E+01
    -20.958  0.0000E+00  0.2000E+01
    -20.852  0.0000E+00  0.2000E+01
    -20.747  0.0000E+00  0.2000E+01
    -20.641  0.0000E+00  0.2000E+01
    -20.535  0.0000E+00  0.2000E+01
    -20.429  0.0000E+00  0.2000E+01
    -20.324  0.0000E+00  0.2000E+01
    -20.218  0.0000E+00  0.2000E+01
    -20.112  0.0000E+00  0.2000E+01
    -20.006  0.0000E+00  0.2000E+01
    -19.901  0.0000E+00  0.2000E+01
    -19.795  0.0000E+00  0.2000E+01
    -19.689  0.0000E+00  0.2000E+01
    -19.583  0.0000E+00  0.2000E+01
    -19.478  0.0000E+00  0.2000E+01
    -19.372  0.0000E+00  0.2000E+01
    -19.266  0.0000E+00  0.2000E+01
    -19.160  0.0000E+00  0.2000E+01
    -19.055  0.0000E+00  0.2000E+01
    -18.949  0.0000E+00  0.2000E+01
    -18.843  0.0000E+00  0.2000E+01
    -18.738  0.0000E+00  0.2000E+01
    -18.632  0.0000E+00  0.2000E+01
    -18.526  0.0000E+00  0.2000E+01
    -18.420  0.0000E+00  0.2000E+01
    -18.315  0.0000E+00  0.2000E+01
    -18.209  0.0000E+00  0.2000E+01
    -18.103  0.0000E+00  0.2000E+01
    -17.997  0.0000E+00  0.2000E+01
    -17.892  0.0000E+00  0.2000E+01
    -17.786  0.0000E+00  0.2000E+01
    -17.680  0.0000E+00  0.2000E+01
    -17.574  0.0000E+00  0.2000E+01
    -17.469  0.0000E+00  0.2000E+01
    -17.363  0.0000E+00  0.2000E+01
    -17.257  0.0000E+00  0.2000E+01
    -17.151  0.0000E+00  0.2000E+01
    -17.046  0.0000E+00  0.2000E+01
    -16.940  0.0000E+00  0.2000E+01
    -16.834  0.0000E+00  0.2000E+01
    -16.728  0.0000E+00  0.2000E+01
    -16.623  0.0000E+00  0.2000E+01
    -16.517  0.0000E+00  0.2000E+01
    -16.411  0.0000E+00  0.2000E+01
    -16.305  0.0000E+00  0.2000E+01
    -16.200  0.0000E+00  0.2000E+01
    -16.094  0.0000E+00  0.2000E+01
    -15.988  0.0000E+00  0.2000E+01
    -15.882  0.0000E+00  0.2000E+01
    -15.777  0.0000E+00  0.2000E+01
    -15.671  0.0000E+00  0.2000E+01
    -15.565  0.0000E+00  0.2000E+01
    -15.459  0.0000E+00  0.2000E+01
    -15.354  0.0000E+00  0.2000E+01
    -15.248  0.0000E+00  0.2000E+01
    -15.142  0.3304E-27  0.2000E+01
    -15.037  0.1473E-23  0.2000E+01
    -14.931  0.3697E-20  0.2000E+01
    -14.825  0.5211E-17  0.2000E+01
    -14.719  0.4111E-14  0.2000E+01
    -14.614  0.1809E-11  0.2000E+01
    -14.508  0.4403E-09  0.2000E+01
    -14.402  0.5875E-07  0.2000E+01
    -14.296  0.4237E-05  0.2000E+01
    -14.191  0.1612E-03  0.2000E+01
    -14.085  0.3086E-02  0.2000E+01
    -13.979  0.2656E-01  0.2003E+01
    -13.873  0.6278E-01  0.2010E+01
    -13.768 -0.2613E+00  0.1982E+01
    -13.662 -0.7973E+00  0.1898E+01
    -13.556  0.2442E+01  0.2156E+01
    -13.450  0.9127E+01  0.3121E+01
    -13.345  0.7961E+01  0.3963E+01
    -13.239  0.1200E+01  0.4090E+01
    -13.133 -0.8057E+00  0.4005E+01
    -13.027 -0.1281E+00  0.3991E+01
    -12.922  0.6332E-01  0.3998E+01
    -12.816  0.1802E-01  0.4000E+01
    -12.710  0.1730E-02  0.4000E+01
    -12.604  0.7735E-04  0.4000E+01
    -12.499  0.1765E-05  0.4000E+01
    -12.393  0.2137E-07  0.4000E+01
    -12.287  0.1412E-09  0.4000E+01
    -12.181  0.2096E-09  0.4000E+01
    -12.076  0.3040E-07  0.4000E+01
    -11.970  0.2396E-05  0.4000E+01
    -11.864  0.1001E-03  0.4000E+01
    -11.759  0.2123E-02  0.4000E+01
    -11.653  0.2081E-01  0.4002E+01
    -11.547  0.6665E-01  0.4009E+01
    -11.441 -0.1438E+00  0.3994E+01
    -11.336 -0.7062E+00  0.3920E+01
    -11.230  0.1488E+01  0.4077E+01
    -11.124  0.6980E+01  0.4815E+01
    -11.018  0.9706E+01  0.5841E+01
    -10.913  0.1551E+02  0.7482E+01
    -10.807  0.1850E+02  0.9438E+01
    -10.701  0.7080E+01  0.1019E+02
    -10.595 -0.1174E+01  0.1006E+02
    -10.490 -0.7660E+00  0.9981E+01
    -10.384  0.9814E-01  0.9991E+01
    -10.278  0.7045E-01  0.9999E+01
    -10.172  0.9958E-02  0.1000E+02
    -10.067  0.6102E-03  0.1000E+02
     -9.961  0.1863E-04  0.1000E+02
     -9.855  0.2991E-06  0.1000E+02
     -9.749  0.2595E-08  0.1000E+02
     -9.644  0.1235E-10  0.1000E+02
     -9.538  0.3360E-13  0.1000E+02
     -9.432  0.0000E+00  0.1000E+02
     -9.326  0.0000E+00  0.1000E+02
     -9.221  0.0000E+00  0.1000E+02
     -9.115  0.0000E+00  0.1000E+02
     -9.009  0.0000E+00  0.1000E+02
     -8.903  0.0000E+00  0.1000E+02
     -8.798  0.0000E+00  0.1000E+02
     -8.692  0.0000E+00  0.1000E+02
     -8.586  0.0000E+00  0.1000E+02
     -8.480  0.0000E+00  0.1000E+02
     -8.375  0.0000E+00  0.1000E+02
     -8.269  0.1074E-24  0.1000E+02
     -8.163  0.3243E-21  0.1000E+02
     -8.058  0.5509E-18  0.1000E+02
     -7.952  0.5251E-15  0.1000E+02
     -7.846  0.2797E-12  0.1000E+02
     -7.740  0.8312E-10  0.1000E+02
     -7.635  0.1364E-07  0.1000E+02
     -7.529  0.1226E-05  0.1000E+02
     -7.423  0.5953E-04  0.1000E+02
     -7.317  0.1521E-02  0.1000E+02
     -7.212  0.1933E-01  0.1000E+02
     -7.106  0.1038E+00  0.1001E+02
     -7.000  0.5043E-01  0.1002E+02
     -6.894 -0.1137E+01  0.9898E+01
     -6.789 -0.9160E+00  0.9801E+01
     -6.683  0.1085E+02  0.1095E+02
     -6.577  0.2681E+02  0.1378E+02
     -6.471  0.1999E+02  0.1590E+02
     -6.366  0.7753E+00  0.1598E+02
     -6.260  0.1843E+01  0.1617E+02
     -6.154  0.2263E+02  0.1857E+02
     -6.048  0.2463E+02  0.2117E+02
     -5.943  0.6813E+01  0.2189E+02
     -5.837  0.2457E+02  0.2449E+02
     -5.731  0.7277E+02  0.3219E+02
     -5.625  0.1291E+03  0.4583E+02
     -5.520  0.2279E+03  0.6993E+02
     -5.414  0.2966E+03  0.1013E+03
     -5.308  0.2488E+03  0.1276E+03
     -5.202  0.2000E+03  0.1487E+03
     -5.097  0.2616E+03  0.1764E+03
     -4.991  0.3555E+03  0.2140E+03
     -4.885  0.3465E+03  0.2506E+03
     -4.780  0.2884E+03  0.2811E+03
     -4.674  0.3337E+03  0.3164E+03
     -4.568  0.4087E+03  0.3596E+03
     -4.462  0.4164E+03  0.4037E+03
     -4.357  0.4682E+03  0.4532E+03
     -4.251  0.5568E+03  0.5120E+03
     -4.145  0.4530E+03  0.5599E+03
     -4.039  0.1785E+03  0.5788E+03
     -3.934  0.2451E+02  0.5814E+03
     -3.828  0.2697E+02  0.5843E+03
     -3.722  0.2938E+02  0.5874E+03
     -3.616  0.8051E+01  0.5882E+03
     -3.511  0.1345E+02  0.5896E+03
     -3.405  0.2571E+02  0.5924E+03
     -3.299  0.1262E+02  0.5937E+03
     -3.193 -0.1449E+00  0.5937E+03
     -3.088  0.2719E+02  0.5966E+03
     -2.982  0.6275E+02  0.6032E+03
     -2.876  0.4639E+02  0.6081E+03
     -2.770  0.1264E+02  0.6094E+03
     -2.665  0.6554E+01  0.6101E+03
     -2.559  0.2278E+02  0.6125E+03
     -2.453  0.2601E+02  0.6153E+03
     -2.347  0.6866E+01  0.6160E+03
     -2.242  0.9207E+01  0.6170E+03
     -2.136  0.3149E+02  0.6203E+03
     -2.030  0.3396E+02  0.6239E+03
     -1.924  0.3288E+02  0.6274E+03
     -1.819  0.4406E+02  0.6320E+03
     -1.713  0.4822E+02  0.6371E+03
     -1.607  0.4223E+02  0.6416E+03
     -1.501  0.2821E+02  0.6446E+03
     -1.396  0.1803E+02  0.6465E+03
     -1.290  0.1751E+02  0.6483E+03
     -1.184  0.1001E+02  0.6494E+03
     -1.079  0.1616E+02  0.6511E+03
     -0.973  0.5884E+02  0.6573E+03
     -0.867  0.7734E+02  0.6655E+03
     -0.761  0.4245E+02  0.6700E+03
     -0.656  0.1211E+02  0.6713E+03
     -0.550  0.5618E+01  0.6719E+03
     -0.444  0.1746E+01  0.6721E+03
     -0.338 -0.4995E+00  0.6720E+03
     -0.233 -0.1364E+00  0.6720E+03
     -0.127  0.7718E-01  0.6720E+03
     -0.021  0.2640E-01  0.6720E+03
      0.085  0.2937E-02  0.6720E+03
      0.190  0.1500E-03  0.6720E+03
      0.296  0.3879E-05  0.6720E+03
      0.402  0.5300E-07  0.6720E+03
      0.508  0.3918E-09  0.6720E+03
      0.613  0.1590E-11  0.6720E+03
      0.719  0.4200E-14  0.6720E+03
      0.825  0.0000E+00  0.6720E+03
      0.931  0.0000E+00  0.6720E+03
      1.036  0.0000E+00  0.6720E+03
      1.142  0.0000E+00  0.6720E+03
      1.248  0.0000E+00  0.6720E+03
      1.354  0.0000E+00  0.6720E+03
