       N       E                     dE             d eps       ncg     rms          rms(c)
DAV:   1     0.439440912102E+04    0.43944E+04   -0.10050E+05   688   0.815E+02
DAV:   2     0.202874418316E+04   -0.23657E+04   -0.21241E+04  1208   0.106E+02
DAV:   3     0.238139048229E+03   -0.17906E+04   -0.16830E+04  1008   0.922E+01
DAV:   4    -0.133403583561E+03   -0.37154E+03   -0.31347E+03   824   0.438E+01
DAV:   5    -0.180010669742E+03   -0.46607E+02   -0.37960E+02  1064   0.147E+01    0.175E+01
RMM:   6    -0.181007432994E+03   -0.99676E+00   -0.75190E+01   732   0.959E+00    0.248E+01
RMM:   7    -0.182449741252E+03   -0.14423E+01   -0.22242E+01   848   0.487E+00    0.209E+01
RMM:   8    -0.186169780007E+03   -0.37200E+01   -0.82268E+00   758   0.375E+00    0.307E+01
RMM:   9    -0.182421650458E+03    0.37481E+01   -0.63550E+00   737   0.331E+00    0.233E+01
RMM:  10    -0.181662356071E+03    0.75929E+00   -0.45544E+00   736   0.300E+00    0.247E+01
RMM:  11    -0.179535064284E+03    0.21273E+01   -0.27313E+00   735   0.242E+00    0.227E+01
RMM:  12    -0.178590123862E+03    0.94494E+00   -0.24749E+00   729   0.223E+00    0.186E+01
RMM:  13    -0.178722299608E+03   -0.13218E+00   -0.25541E+00   717   0.234E+00    0.201E+01
RMM:  14    -0.178273480500E+03    0.44882E+00   -0.16947E+00   726   0.194E+00    0.223E+01
RMM:  15    -0.176760914423E+03    0.15126E+01   -0.18594E+00   706   0.202E+00    0.124E+01
RMM:  16    -0.176409812406E+03    0.35110E+00   -0.10202E+00   713   0.153E+00    0.131E+01
RMM:  17    -0.176126652108E+03    0.28316E+00   -0.50135E-01   715   0.107E+00    0.114E+01
RMM:  18    -0.175859143243E+03    0.26751E+00   -0.38125E-01   710   0.941E-01    0.881E+00
RMM:  19    -0.175646060367E+03    0.21308E+00   -0.32104E-01   703   0.880E-01    0.806E+00
RMM:  20    -0.175490219281E+03    0.15584E+00   -0.23213E-01   703   0.747E-01    0.628E+00
RMM:  21    -0.175527921215E+03   -0.37702E-01   -0.23225E-01   700   0.733E-01    0.658E+00
RMM:  22    -0.175431668110E+03    0.96253E-01   -0.21095E-01   697   0.705E-01    0.631E+00
RMM:  23    -0.175368093267E+03    0.63575E-01   -0.15556E-01   701   0.622E-01    0.577E+00
RMM:  24    -0.175359238904E+03    0.88544E-02   -0.13881E-01   697   0.568E-01    0.494E+00
RMM:  25    -0.175320704547E+03    0.38534E-01   -0.10977E-01   699   0.514E-01    0.534E+00
RMM:  26    -0.175261944116E+03    0.58760E-01   -0.58478E-02   701   0.390E-01    0.363E+00
RMM:  27    -0.175228059347E+03    0.33885E-01   -0.41248E-02   694   0.322E-01    0.316E+00
RMM:  28    -0.175191613221E+03    0.36446E-01   -0.24673E-02   697   0.246E-01    0.202E+00
RMM:  29    -0.175180112183E+03    0.11501E-01   -0.12577E-02   701   0.181E-01    0.159E+00
RMM:  30    -0.175174212341E+03    0.58998E-02   -0.98761E-03   700   0.151E-01    0.147E+00
RMM:  31    -0.175165075843E+03    0.91365E-02   -0.52254E-03   696   0.123E-01    0.973E-01
RMM:  32    -0.175167983396E+03   -0.29076E-02   -0.55025E-03   690   0.118E-01    0.122E+00
RMM:  33    -0.175161823570E+03    0.61598E-02   -0.38784E-03   692   0.106E-01    0.729E-01
RMM:  34    -0.175161169944E+03    0.65363E-03   -0.17730E-03   690   0.727E-02    0.611E-01
RMM:  35    -0.175162127485E+03   -0.95754E-03   -0.20433E-03   692   0.681E-02    0.548E-01
RMM:  36    -0.175161873480E+03    0.25401E-03   -0.10477E-03   689   0.537E-02    0.294E-01
RMM:  37    -0.175164658664E+03   -0.27852E-02   -0.11054E-03   686   0.513E-02    0.435E-01
RMM:  38    -0.175167927743E+03   -0.32691E-02   -0.12522E-03   688   0.518E-02    0.257E-01
RMM:  39    -0.175169585806E+03   -0.16581E-02   -0.54302E-04   578   0.361E-02    0.223E-01
RMM:  40    -0.175173222548E+03   -0.36367E-02   -0.68906E-04   604   0.363E-02    0.232E-01
RMM:  41    -0.175174780241E+03   -0.15577E-02   -0.32292E-04   445   0.272E-02    0.137E-01
RMM:  42    -0.175176781885E+03   -0.20016E-02   -0.28750E-04   438   0.241E-02    0.146E-01
RMM:  43    -0.175179418837E+03   -0.26370E-02   -0.37357E-04   483   0.255E-02    0.151E-01
RMM:  44    -0.175180816843E+03   -0.13980E-02   -0.21785E-04   431   0.192E-02    0.128E-01
RMM:  45    -0.175182839890E+03   -0.20230E-02   -0.25632E-04   435   0.195E-02    0.854E-02
RMM:  46    -0.175183650929E+03   -0.81104E-03   -0.11934E-04   412   0.140E-02    0.661E-02
RMM:  47    -0.175184911191E+03   -0.12603E-02   -0.10511E-04   411   0.124E-02    0.555E-02
RMM:  48    -0.175185463398E+03   -0.55221E-03   -0.60128E-05   410   0.945E-03    0.420E-02
RMM:  49    -0.175186390076E+03   -0.92668E-03   -0.48880E-05   404   0.822E-03    0.502E-02
RMM:  50    -0.175186935936E+03   -0.54586E-03   -0.30224E-05   384   0.670E-03    0.322E-02
RMM:  51    -0.175187294212E+03   -0.35828E-03   -0.14057E-05   297   0.507E-03    0.270E-02
RMM:  52    -0.175187989143E+03   -0.69493E-03   -0.18825E-05   319   0.524E-03    0.154E-02
RMM:  53    -0.175188240131E+03   -0.25099E-03   -0.50929E-06   172   0.399E-03    0.139E-02
RMM:  54    -0.175188688866E+03   -0.44874E-03   -0.16363E-05   267   0.463E-03    0.130E-02
RMM:  55    -0.175188859329E+03   -0.17046E-03   -0.39552E-06   144   0.363E-03    0.901E-03
RMM:  56    -0.175189127569E+03   -0.26824E-03   -0.15937E-05   249   0.441E-03    0.112E-02
RMM:  57    -0.175189258337E+03   -0.13077E-03   -0.55117E-06   153   0.363E-03    0.629E-03
RMM:  58    -0.175189374702E+03   -0.11636E-03   -0.61437E-06   150   0.376E-03    0.645E-03
RMM:  59    -0.175189472047E+03   -0.97346E-04   -0.10204E-05   188   0.384E-03
   1 F= -.17518947E+03 E0= -.17517814E+03  d E =-.453097E-01
