   57   57    1    1
  0.4736842E+03  0.3000000E-08  0.3000000E-08  0.3000000E-08  0.5000000E-15
  1.000000000000000E-004
  CAR 
 6_Pd100_top_free_z(O)                   
    560      1    336
 
  0.0000000E+00  0.0000000E+00  0.0000000E+00  0.1000000E+01
    1      -29.692444   1.000000
    2      -14.539597   1.000000
    3      -12.938130   1.000000
    4      -12.667373   1.000000
    5      -11.028355   1.000000
    6       -6.996076   1.000000
    7       -6.632022   1.000000
    8       -6.591617   1.000000
    9       -6.187693   1.000000
   10       -6.107922   1.000000
   11       -6.095652   1.000000
   12       -5.976231   1.000000
   13       -5.914737   1.000000
   14       -5.865160   1.000000
   15       -5.829170   1.000000
   16       -5.785810   1.000000
   17       -5.732513   1.000000
   18       -5.712285   1.000000
   19       -5.698985   1.000000
   20       -5.664775   1.000000
   21       -5.656087   1.000000
   22       -5.649332   1.000000
   23       -5.645837   1.000000
   24       -5.636178   1.000000
   25       -5.606050   1.000000
   26       -5.581500   1.000000
   27       -5.557667   1.000000
   28       -5.551923   1.000000
   29       -5.548956   1.000000
   30       -5.534120   1.000000
   31       -5.527399   1.000000
   32       -5.519435   1.000000
   33       -5.504622   1.000000
   34       -5.500416   1.000000
   35       -5.497837   1.000000
   36       -5.490254   1.000000
   37       -5.483982   1.000000
   38       -5.478547   1.000000
   39       -5.473344   1.000000
   40       -5.466940   1.000000
   41       -5.461856   1.000000
   42       -5.452719   1.000000
   43       -5.442895   1.000000
   44       -5.437310   1.000000
   45       -5.434607   1.000000
   46       -5.432448   1.000000
   47       -5.429808   1.000000
   48       -5.426446   1.000000
   49       -5.414883   1.000000
   50       -5.401628   1.000000
   51       -5.395912   1.000000
   52       -5.388136   1.000000
   53       -5.386889   1.000000
   54       -5.374269   1.000000
   55       -5.371426   1.000000
   56       -5.367520   1.000000
   57       -5.359561   1.000000
   58       -5.349147   1.000000
   59       -5.330578   1.000000
   60       -5.316668   1.000000
   61       -5.307298   1.000000
   62       -5.293230   1.000000
   63       -5.290494   1.000000
   64       -5.282289   1.000000
   65       -5.280579   1.000000
   66       -5.267003   1.000000
   67       -5.262032   1.000000
   68       -5.254385   1.000000
   69       -5.251518   1.000000
   70       -5.241407   1.000000
   71       -5.224710   1.000000
   72       -5.217835   1.000000
   73       -5.210787   1.000000
   74       -5.190899   1.000000
   75       -5.173861   1.000000
   76       -5.168905   1.000000
   77       -5.164475   1.000000
   78       -5.152185   1.000000
   79       -5.147417   1.000000
   80       -5.142633   1.000000
   81       -5.140005   1.000000
   82       -5.122680   1.000000
   83       -5.107744   1.000000
   84       -5.105019   1.000000
   85       -5.096601   1.000000
   86       -5.092249   1.000000
   87       -5.085732   1.000000
   88       -5.079196   1.000000
   89       -5.073697   1.000000
   90       -5.068370   1.000000
   91       -5.060023   1.000000
   92       -5.058645   1.000000
   93       -5.044839   1.000000
   94       -5.042519   1.000000
   95       -5.029565   1.000000
   96       -5.025834   1.000000
   97       -5.017225   1.000000
   98       -5.015267   1.000000
   99       -5.011318   1.000000
  100       -5.004470   1.000000
  101       -5.001419   1.000000
  102       -4.990374   1.000000
  103       -4.983564   1.000000
  104       -4.978144   1.000000
  105       -4.976901   1.000000
  106       -4.970789   1.000000
  107       -4.968809   1.000000
  108       -4.964856   1.000000
  109       -4.957311   1.000000
  110       -4.953592   1.000000
  111       -4.950059   1.000000
  112       -4.942549   1.000000
  113       -4.938347   1.000000
  114       -4.931598   1.000000
  115       -4.925574   1.000000
  116       -4.923689   0.999999
  117       -4.916104   0.999999
  118       -4.912940   0.999999
  119       -4.908681   0.999999
  120       -4.905120   0.999999
  121       -4.896016   0.999999
  122       -4.891644   0.999998
  123       -4.890324   0.999998
  124       -4.875545   0.999997
  125       -4.870290   0.999997
  126       -4.868526   0.999996
  127       -4.866224   0.999996
  128       -4.860412   0.999995
  129       -4.852435   0.999994
  130       -4.839744   0.999991
  131       -4.829924   0.999988
  132       -4.824141   0.999986
  133       -4.821480   0.999984
  134       -4.819298   0.999983
  135       -4.806850   0.999976
  136       -4.798506   0.999969
  137       -4.793888   0.999965
  138       -4.786522   0.999957
  139       -4.777032   0.999944
  140       -4.766341   0.999925
  141       -4.760553   0.999912
  142       -4.754287   0.999896
  143       -4.745509   0.999870
  144       -4.732013   0.999818
  145       -4.724455   0.999781
  146       -4.713010   0.999712
  147       -4.710140   0.999692
  148       -4.706824   0.999668
  149       -4.704147   0.999647
  150       -4.688392   0.999500
  151       -4.679979   0.999402
  152       -4.677524   0.999371
  153       -4.674030   0.999324
  154       -4.671244   0.999285
  155       -4.662581   0.999150
  156       -4.653822   0.998994
  157       -4.650318   0.998925
  158       -4.645423   0.998824
  159       -4.642670   0.998764
  160       -4.640104   0.998706
  161       -4.635226   0.998590
  162       -4.629418   0.998443
  163       -4.624034   0.998298
  164       -4.620686   0.998203
  165       -4.617256   0.998102
  166       -4.611368   0.997922
  167       -4.608854   0.997841
  168       -4.607046   0.997783
  169       -4.603886   0.997678
  170       -4.601929   0.997612
  171       -4.595420   0.997386
  172       -4.589812   0.997185
  173       -4.582329   0.996909
  174       -4.578488   0.996765
  175       -4.573119   0.996563
  176       -4.566855   0.996328
  177       -4.562883   0.996182
  178       -4.559731   0.996067
  179       -4.555151   0.995906
  180       -4.551252   0.995774
  181       -4.548751   0.995692
  182       -4.542443   0.995501
  183       -4.538697   0.995400
  184       -4.531789   0.995240
  185       -4.521660   0.995092
  186       -4.519458   0.995076
  187       -4.517776   0.995069
  188       -4.514989   0.995065
  189       -4.512176   0.995074
  190       -4.506099   0.995138
  191       -4.496766   0.995376
  192       -4.489649   0.995690
  193       -4.481101   0.996243
  194       -4.476269   0.996651
  195       -4.469578   0.997340
  196       -4.466706   0.997683
  197       -4.461814   0.998336
  198       -4.459920   0.998614
  199       -4.449825   1.000332
  200       -4.448609   1.000567
  201       -4.444609   1.001385
  202       -4.439146   1.002616
  203       -4.432204   1.004373
  204       -4.425474   1.006286
  205       -4.423785   1.006798
  206       -4.420910   1.007701
  207       -4.416625   1.009115
  208       -4.414679   1.009785
  209       -4.410391   1.011318
  210       -4.407978   1.012216
  211       -4.404206   1.013669
  212       -4.400398   1.015192
  213       -4.389680   1.019765
  214       -4.386323   1.021273
  215       -4.375328   1.026396
  216       -4.373468   1.027284
  217       -4.368094   1.029864
  218       -4.364545   1.031573
  219       -4.363700   1.031980
  220       -4.360217   1.033650
  221       -4.358941   1.034259
  222       -4.343563   1.041289
  223       -4.338149   1.043535
  224       -4.332910   1.045535
  225       -4.315436   1.050447
  226       -4.312381   1.050947
  227       -4.308902   1.051356
  228       -4.304868   1.051601
  229       -4.303910   1.051620
  230       -4.299637   1.051515
  231       -4.295497   1.051096
  232       -4.295133   1.051043
  233       -4.292241   1.050530
  234       -4.291501   1.050371
  235       -4.290141   1.050048
  236       -4.286756   1.049070
  237       -4.284601   1.048313
  238       -4.282000   1.047254
  239       -4.277745   1.045163
  240       -4.274999   1.043567
  241       -4.271064   1.040928
  242       -4.266158   1.037029
  243       -4.263494   1.034617
  244       -4.261607   1.032778
  245       -4.259955   1.031079
  246       -4.256695   1.027472
  247       -4.249682   1.018539
  248       -4.245718   1.012755
  249       -4.243545   1.009352
  250       -4.239143   1.001942
  251       -4.234512   0.993388
  252       -4.233523   0.991457
  253       -4.228080   0.980181
  254       -4.222629   0.967763
  255       -4.219748   0.960740
  256       -4.214629   0.947465
  257       -4.212223   0.940877
  258       -4.209543   0.933273
  259       -4.208159   0.929237
  260       -4.206489   0.924269
  261       -4.205111   0.920087
  262       -4.203208   0.914191
  263       -4.200977   0.907106
  264       -4.197022   0.894077
  265       -4.195991   0.890583
  266       -4.191055   0.873304
  267       -4.188768   0.864996
  268       -4.185682   0.853483
  269       -4.179819   0.830682
  270       -4.178437   0.825135
  271       -4.177153   0.819926
  272       -4.172747   0.801628
  273       -4.163579   0.761610
  274       -4.159338   0.742273
  275       -4.149258   0.694456
  276       -4.142904   0.663138
  277       -4.140415   0.650659
  278       -4.136322   0.629914
  279       -4.133689   0.616432
  280       -4.129426   0.594413
  281       -4.122327   0.557322
  282       -4.120635   0.548425
  283       -4.107655   0.479856
  284       -4.096438   0.420868
  285       -4.090871   0.391970
  286       -4.084294   0.358331
  287       -4.080600   0.339737
  288       -4.074057   0.307427
  289       -3.955165  -0.038382
  290       -3.871066  -0.037583
  291       -3.862446  -0.033523
  292       -3.781957  -0.002190
  293       -3.778904  -0.001511
  294       -3.624053   0.002492
  295       -3.466933   0.000099
  296       -3.437186   0.000044
  297       -3.201346   0.000000
  298       -3.035089   0.000000
  299       -3.019099   0.000000
  300       -3.013391   0.000000
  301       -2.989741   0.000000
  302       -2.977383   0.000000
  303       -2.940166   0.000000
  304       -2.871474   0.000000
  305       -2.743115   0.000000
  306       -2.492765   0.000000
  307       -2.469413   0.000000
  308       -2.374941   0.000000
  309       -2.340153   0.000000
  310       -2.174877   0.000000
  311       -2.088087   0.000000
  312       -2.009099   0.000000
  313       -1.947611   0.000000
  314       -1.907877   0.000000
  315       -1.852780   0.000000
  316       -1.825108   0.000000
  317       -1.776708   0.000000
  318       -1.754808   0.000000
  319       -1.664528   0.000000
  320       -1.604452   0.000000
  321       -1.551645   0.000000
  322       -1.493094   0.000000
  323       -1.400694   0.000000
  324       -1.352359   0.000000
  325       -1.264672   0.000000
  326       -1.205781   0.000000
  327       -1.186031   0.000000
  328       -1.059820   0.000000
  329       -0.963811   0.000000
  330       -0.951263   0.000000
  331       -0.902906   0.000000
  332       -0.880537   0.000000
  333       -0.848354   0.000000
  334       -0.778752   0.000000
  335       -0.758658   0.000000
  336       -0.684531   0.000000
