   57   57    1    1
  0.4736842E+03  0.3000000E-08  0.3000000E-08  0.3000000E-08  0.5000000E-15
  1.000000000000000E-004
  CAR 
 6_Pd100_top_free_z(O)                   
    560      1    336
 
  0.0000000E+00  0.0000000E+00  0.0000000E+00  0.1000000E+01
    1      -28.093305   1.000000
    2      -13.681463   1.000000
    3      -11.361903   1.000000
    4      -10.880312   1.000000
    5      -10.777839   1.000000
    6       -7.011932   1.000000
    7       -6.951089   1.000000
    8       -6.676859   1.000000
    9       -6.225012   1.000000
   10       -6.144882   1.000000
   11       -6.140298   1.000000
   12       -6.018795   1.000000
   13       -5.975497   1.000000
   14       -5.864286   1.000000
   15       -5.813766   1.000000
   16       -5.803367   1.000000
   17       -5.772910   1.000000
   18       -5.731150   1.000000
   19       -5.694354   1.000000
   20       -5.687620   1.000000
   21       -5.687123   1.000000
   22       -5.686017   1.000000
   23       -5.616704   1.000000
   24       -5.602949   1.000000
   25       -5.601349   1.000000
   26       -5.598078   1.000000
   27       -5.597797   1.000000
   28       -5.590570   1.000000
   29       -5.549971   1.000000
   30       -5.538939   1.000000
   31       -5.536960   1.000000
   32       -5.533195   1.000000
   33       -5.523597   1.000000
   34       -5.520928   1.000000
   35       -5.520291   1.000000
   36       -5.514482   1.000000
   37       -5.510705   1.000000
   38       -5.508408   1.000000
   39       -5.505906   1.000000
   40       -5.488970   1.000000
   41       -5.480597   1.000000
   42       -5.477178   1.000000
   43       -5.473258   1.000000
   44       -5.470561   1.000000
   45       -5.469295   1.000000
   46       -5.467389   1.000000
   47       -5.460763   1.000000
   48       -5.445337   1.000000
   49       -5.431867   1.000000
   50       -5.431011   1.000000
   51       -5.428242   1.000000
   52       -5.420473   1.000000
   53       -5.410872   1.000000
   54       -5.410280   1.000000
   55       -5.400127   1.000000
   56       -5.398823   1.000000
   57       -5.395486   1.000000
   58       -5.388410   1.000000
   59       -5.359871   1.000000
   60       -5.337051   1.000000
   61       -5.325454   1.000000
   62       -5.320296   1.000000
   63       -5.318629   1.000000
   64       -5.317120   1.000000
   65       -5.315463   1.000000
   66       -5.312860   1.000000
   67       -5.312143   1.000000
   68       -5.303822   1.000000
   69       -5.295001   1.000000
   70       -5.289379   1.000000
   71       -5.261234   1.000000
   72       -5.211590   1.000000
   73       -5.191054   1.000000
   74       -5.189057   1.000000
   75       -5.186118   1.000000
   76       -5.182850   1.000000
   77       -5.182477   1.000000
   78       -5.180480   1.000000
   79       -5.179833   1.000000
   80       -5.164379   1.000000
   81       -5.155515   1.000000
   82       -5.151193   1.000000
   83       -5.150482   1.000000
   84       -5.145079   1.000000
   85       -5.125471   1.000000
   86       -5.125035   1.000000
   87       -5.113924   1.000000
   88       -5.106100   1.000000
   89       -5.102879   1.000000
   90       -5.101814   1.000000
   91       -5.083892   1.000000
   92       -5.061029   1.000000
   93       -5.059444   1.000000
   94       -5.054778   1.000000
   95       -5.053818   1.000000
   96       -5.051085   1.000000
   97       -5.049190   1.000000
   98       -5.041723   1.000000
   99       -5.031159   1.000000
  100       -5.026554   1.000000
  101       -5.024333   1.000000
  102       -5.019539   1.000000
  103       -5.014813   1.000000
  104       -5.012268   1.000000
  105       -5.007861   1.000000
  106       -5.007313   1.000000
  107       -5.006612   1.000000
  108       -4.992749   1.000000
  109       -4.988271   1.000000
  110       -4.984147   1.000000
  111       -4.981624   1.000000
  112       -4.979746   1.000000
  113       -4.975084   1.000000
  114       -4.969120   1.000000
  115       -4.965561   1.000000
  116       -4.960735   0.999999
  117       -4.952202   0.999999
  118       -4.951669   0.999999
  119       -4.933162   0.999999
  120       -4.928118   0.999998
  121       -4.919490   0.999998
  122       -4.918965   0.999998
  123       -4.915581   0.999998
  124       -4.913167   0.999997
  125       -4.910429   0.999997
  126       -4.902975   0.999996
  127       -4.901100   0.999996
  128       -4.882425   0.999993
  129       -4.880111   0.999992
  130       -4.872334   0.999990
  131       -4.845553   0.999977
  132       -4.841415   0.999974
  133       -4.838922   0.999972
  134       -4.834401   0.999969
  135       -4.832977   0.999967
  136       -4.832033   0.999966
  137       -4.823389   0.999957
  138       -4.805783   0.999930
  139       -4.803495   0.999925
  140       -4.795206   0.999907
  141       -4.791010   0.999896
  142       -4.777192   0.999852
  143       -4.763997   0.999795
  144       -4.758509   0.999766
  145       -4.739798   0.999639
  146       -4.738754   0.999630
  147       -4.736459   0.999611
  148       -4.735833   0.999605
  149       -4.719931   0.999442
  150       -4.711008   0.999328
  151       -4.708169   0.999288
  152       -4.705723   0.999252
  153       -4.685545   0.998895
  154       -4.684477   0.998873
  155       -4.681352   0.998807
  156       -4.679513   0.998767
  157       -4.674651   0.998656
  158       -4.673838   0.998636
  159       -4.668680   0.998509
  160       -4.663710   0.998379
  161       -4.661135   0.998309
  162       -4.655718   0.998154
  163       -4.653496   0.998088
  164       -4.652268   0.998051
  165       -4.650241   0.997989
  166       -4.646021   0.997856
  167       -4.644843   0.997818
  168       -4.636848   0.997551
  169       -4.634794   0.997480
  170       -4.632528   0.997401
  171       -4.630716   0.997336
  172       -4.625123   0.997134
  173       -4.617977   0.996869
  174       -4.598241   0.996132
  175       -4.597230   0.996096
  176       -4.593435   0.995961
  177       -4.592564   0.995930
  178       -4.588757   0.995800
  179       -4.587354   0.995754
  180       -4.578996   0.995497
  181       -4.575906   0.995413
  182       -4.568951   0.995250
  183       -4.556014   0.995076
  184       -4.554871   0.995070
  185       -4.552836   0.995065
  186       -4.552662   0.995065
  187       -4.552320   0.995065
  188       -4.550593   0.995067
  189       -4.548993   0.995073
  190       -4.546610   0.995090
  191       -4.517322   0.996281
  192       -4.516383   0.996356
  193       -4.511470   0.996793
  194       -4.508362   0.997110
  195       -4.503546   0.997667
  196       -4.491384   0.999454
  197       -4.484603   1.000708
  198       -4.482437   1.001149
  199       -4.480169   1.001633
  200       -4.474447   1.002955
  201       -4.468838   1.004393
  202       -4.467880   1.004653
  203       -4.466914   1.004919
  204       -4.462918   1.006066
  205       -4.460644   1.006752
  206       -4.459413   1.007133
  207       -4.453583   1.009030
  208       -4.446921   1.011384
  209       -4.445088   1.012065
  210       -4.440196   1.013951
  211       -4.431080   1.017715
  212       -4.422232   1.021636
  213       -4.412962   1.025956
  214       -4.409467   1.027622
  215       -4.406999   1.028806
  216       -4.406838   1.028884
  217       -4.403935   1.030281
  218       -4.401380   1.031512
  219       -4.398851   1.032727
  220       -4.397723   1.033268
  221       -4.394756   1.034684
  222       -4.392449   1.035775
  223       -4.364700   1.047221
  224       -4.355056   1.049858
  225       -4.352278   1.050422
  226       -4.343393   1.051522
  227       -4.338317   1.051604
  228       -4.337494   1.051575
  229       -4.335897   1.051485
  230       -4.334606   1.051379
  231       -4.329538   1.050648
  232       -4.329426   1.050626
  233       -4.327083   1.050106
  234       -4.326125   1.049860
  235       -4.324772   1.049479
  236       -4.321112   1.048239
  237       -4.320485   1.047995
  238       -4.315353   1.045643
  239       -4.314593   1.045239
  240       -4.309319   1.042017
  241       -4.308414   1.041388
  242       -4.302038   1.036303
  243       -4.299629   1.034070
  244       -4.298684   1.033147
  245       -4.293062   1.027075
  246       -4.289896   1.023209
  247       -4.284150   1.015339
  248       -4.284034   1.015168
  249       -4.282094   1.012246
  250       -4.281767   1.011741
  251       -4.268761   0.988523
  252       -4.260353   0.970165
  253       -4.259564   0.968305
  254       -4.255417   0.958129
  255       -4.251111   0.946858
  256       -4.250955   0.946436
  257       -4.250005   0.943846
  258       -4.249361   0.942072
  259       -4.243476   0.925105
  260       -4.242952   0.923531
  261       -4.238054   0.908293
  262       -4.237435   0.906302
  263       -4.235438   0.899779
  264       -4.234823   0.897737
  265       -4.232989   0.891573
  266       -4.220825   0.847517
  267       -4.220337   0.845640
  268       -4.217524   0.834647
  269       -4.217433   0.834285
  270       -4.214910   0.824188
  271       -4.214123   0.820995
  272       -4.199462   0.757893
  273       -4.195876   0.741492
  274       -4.195000   0.737431
  275       -4.188282   0.705658
  276       -4.183465   0.682228
  277       -4.180363   0.666881
  278       -4.177045   0.650268
  279       -4.168870   0.608572
  280       -4.168253   0.605385
  281       -4.167745   0.602759
  282       -4.154279   0.532277
  283       -4.151494   0.517570
  284       -4.131787   0.413784
  285       -4.130934   0.409350
  286       -4.125487   0.381204
  287       -4.119479   0.350636
  288       -4.109170   0.299685
  289       -4.006923  -0.022601
  290       -3.962821  -0.051265
  291       -3.907318  -0.037372
  292       -3.828457  -0.004651
  293       -3.821934  -0.002964
  294       -3.800951   0.001198
  295       -3.500334   0.000091
  296       -3.494282   0.000077
  297       -3.333078   0.000000
  298       -3.067749   0.000000
  299       -3.064864   0.000000
  300       -3.033387   0.000000
  301       -3.025851   0.000000
  302       -3.014049   0.000000
  303       -3.013298   0.000000
  304       -2.934903   0.000000
  305       -2.797980   0.000000
  306       -2.565272   0.000000
  307       -2.534560   0.000000
  308       -2.519637   0.000000
  309       -2.212650   0.000000
  310       -2.148236   0.000000
  311       -2.118250   0.000000
  312       -2.111758   0.000000
  313       -1.957954   0.000000
  314       -1.949556   0.000000
  315       -1.887099   0.000000
  316       -1.849433   0.000000
  317       -1.846177   0.000000
  318       -1.746226   0.000000
  319       -1.706268   0.000000
  320       -1.647643   0.000000
  321       -1.639251   0.000000
  322       -1.554621   0.000000
  323       -1.499796   0.000000
  324       -1.361092   0.000000
  325       -1.293654   0.000000
  326       -1.045708   0.000000
  327       -1.020348   0.000000
  328       -1.015223   0.000000
  329       -0.959117   0.000000
  330       -0.945721   0.000000
  331       -0.940117   0.000000
  332       -0.935037   0.000000
  333       -0.908582   0.000000
  334       -0.848915   0.000000
  335       -0.793192   0.000000
  336       -0.728102   0.000000
