       N       E                     dE             d eps       ncg     rms          rms(c)
DAV:   1     0.441356236236E+04    0.44136E+04   -0.10060E+05   688   0.815E+02
DAV:   2     0.203084945495E+04   -0.23827E+04   -0.21432E+04  1208   0.106E+02
DAV:   3     0.241922253546E+03   -0.17889E+04   -0.16781E+04  1000   0.923E+01
DAV:   4    -0.131929938297E+03   -0.37385E+03   -0.31672E+03   824   0.440E+01
DAV:   5    -0.177941469727E+03   -0.46012E+02   -0.37966E+02  1056   0.147E+01    0.235E+01
RMM:   6    -0.179275093937E+03   -0.13336E+01   -0.75569E+01   734   0.102E+01    0.267E+01
RMM:   7    -0.182865062633E+03   -0.35900E+01   -0.25879E+01   833   0.585E+00    0.285E+01
RMM:   8    -0.184987058186E+03   -0.21220E+01   -0.15066E+01   764   0.506E+00    0.331E+01
RMM:   9    -0.182842954445E+03    0.21441E+01   -0.12026E+01   736   0.442E+00    0.286E+01
RMM:  10    -0.181290164648E+03    0.15528E+01   -0.96744E+00   721   0.418E+00    0.347E+01
RMM:  11    -0.179175882744E+03    0.21143E+01   -0.73903E+00   719   0.335E+00    0.239E+01
RMM:  12    -0.178654316402E+03    0.52157E+00   -0.57732E+00   722   0.318E+00    0.271E+01
RMM:  13    -0.178627104352E+03    0.27212E-01   -0.41417E+00   722   0.291E+00    0.351E+01
RMM:  14    -0.176201384385E+03    0.24257E+01   -0.37009E+00   715   0.254E+00    0.291E+01
RMM:  15    -0.174447412900E+03    0.17540E+01   -0.81537E-01   730   0.125E+00    0.149E+01
RMM:  16    -0.174392997869E+03    0.54415E-01   -0.10566E+00   712   0.149E+00    0.193E+01
RMM:  17    -0.175182834628E+03   -0.78984E+00   -0.13586E+00   711   0.172E+00    0.254E+01
RMM:  18    -0.173948303950E+03    0.12345E+01   -0.77359E-01   708   0.132E+00    0.149E+01
RMM:  19    -0.173511437582E+03    0.43687E+00   -0.67185E-01   697   0.123E+00    0.130E+01
RMM:  20    -0.173241668421E+03    0.26977E+00   -0.33225E-01   700   0.846E-01    0.102E+01
RMM:  21    -0.172990610361E+03    0.25106E+00   -0.25572E-01   699   0.742E-01    0.107E+01
RMM:  22    -0.172663780886E+03    0.32683E+00   -0.23042E-01   700   0.721E-01    0.819E+00
RMM:  23    -0.172601470777E+03    0.62310E-01   -0.19734E-01   695   0.668E-01    0.910E+00
RMM:  24    -0.172484517771E+03    0.11695E+00   -0.17264E-01   700   0.635E-01    0.763E+00
RMM:  25    -0.172362289601E+03    0.12223E+00   -0.12468E-01   705   0.541E-01    0.664E+00
RMM:  26    -0.172272812811E+03    0.89477E-01   -0.12439E-01   691   0.525E-01    0.501E+00
RMM:  27    -0.172253941796E+03    0.18871E-01   -0.11631E-01   692   0.515E-01    0.451E+00
RMM:  28    -0.172295009903E+03   -0.41068E-01   -0.11789E-01   691   0.517E-01    0.582E+00
RMM:  29    -0.172195349150E+03    0.99661E-01   -0.10433E-01   693   0.496E-01    0.424E+00
RMM:  30    -0.172140511099E+03    0.54838E-01   -0.82349E-02   691   0.443E-01    0.343E+00
RMM:  31    -0.172119156272E+03    0.21355E-01   -0.47338E-02   692   0.338E-01    0.293E+00
RMM:  32    -0.172082271153E+03    0.36885E-01   -0.25228E-02   689   0.260E-01    0.192E+00
RMM:  33    -0.172079217753E+03    0.30534E-02   -0.23752E-02   691   0.241E-01    0.199E+00
RMM:  34    -0.172071337824E+03    0.78799E-02   -0.22523E-02   692   0.235E-01    0.179E+00
RMM:  35    -0.172058191076E+03    0.13147E-01   -0.12908E-02   689   0.194E-01    0.103E+00
RMM:  36    -0.172056911886E+03    0.12792E-02   -0.73530E-03   690   0.146E-01    0.943E-01
RMM:  37    -0.172055419352E+03    0.14925E-02   -0.57463E-03   690   0.124E-01    0.767E-01
RMM:  38    -0.172055063311E+03    0.35604E-03   -0.38179E-03   687   0.102E-01    0.727E-01
RMM:  39    -0.172054381080E+03    0.68223E-03   -0.29247E-03   688   0.906E-02    0.493E-01
RMM:  40    -0.172056527475E+03   -0.21464E-02   -0.23937E-03   682   0.756E-02    0.523E-01
RMM:  41    -0.172056909868E+03   -0.38239E-03   -0.12131E-03   682   0.566E-02    0.319E-01
RMM:  42    -0.172058741381E+03   -0.18315E-02   -0.81410E-04   685   0.446E-02    0.319E-01
RMM:  43    -0.172060748377E+03   -0.20070E-02   -0.61089E-04   652   0.397E-02    0.260E-01
RMM:  44    -0.172063063693E+03   -0.23153E-02   -0.55018E-04   578   0.356E-02    0.208E-01
RMM:  45    -0.172065593880E+03   -0.25302E-02   -0.43294E-04   517   0.318E-02    0.199E-01
RMM:  46    -0.172067251509E+03   -0.16576E-02   -0.28856E-04   428   0.255E-02    0.186E-01
RMM:  47    -0.172070199334E+03   -0.29478E-02   -0.40444E-04   495   0.273E-02    0.152E-01
RMM:  48    -0.172071502764E+03   -0.13034E-02   -0.19687E-04   413   0.195E-02    0.121E-01
RMM:  49    -0.172074092022E+03   -0.25893E-02   -0.35848E-04   468   0.216E-02    0.109E-01
RMM:  50    -0.172075425952E+03   -0.13339E-02   -0.19633E-04   412   0.172E-02    0.114E-01
RMM:  51    -0.172076398891E+03   -0.97294E-03   -0.14310E-04   408   0.144E-02    0.772E-02
RMM:  52    -0.172077120199E+03   -0.72131E-03   -0.99645E-05   411   0.122E-02    0.584E-02
RMM:  53    -0.172077897914E+03   -0.77772E-03   -0.78339E-05   399   0.102E-02    0.588E-02
RMM:  54    -0.172078530053E+03   -0.63214E-03   -0.60554E-05   402   0.902E-03    0.421E-02
RMM:  55    -0.172078777368E+03   -0.24731E-03   -0.29381E-05   384   0.618E-03    0.369E-02
RMM:  56    -0.172079384642E+03   -0.60727E-03   -0.20335E-05   361   0.595E-03    0.344E-02
RMM:  57    -0.172079628884E+03   -0.24424E-03   -0.10983E-05   293   0.491E-03    0.236E-02
RMM:  58    -0.172079971782E+03   -0.34290E-03   -0.71986E-06   218   0.441E-03    0.185E-02
RMM:  59    -0.172080115614E+03   -0.14383E-03   -0.37457E-06   172   0.405E-03    0.132E-02
RMM:  60    -0.172080490020E+03   -0.37441E-03   -0.12225E-05   259   0.462E-03    0.192E-02
RMM:  61    -0.172080607198E+03   -0.11718E-03   -0.15635E-06   125   0.368E-03    0.126E-02
RMM:  62    -0.172080794410E+03   -0.18721E-03   -0.50104E-06   161   0.378E-03    0.900E-03
RMM:  63    -0.172080934447E+03   -0.14004E-03   -0.52608E-06   151   0.364E-03    0.775E-03
RMM:  64    -0.172081094954E+03   -0.16051E-03   -0.47227E-06   140   0.367E-03    0.557E-03
RMM:  65    -0.172081215656E+03   -0.12070E-03   -0.49341E-06   139   0.374E-03    0.674E-03
RMM:  66    -0.172081279987E+03   -0.64331E-04   -0.47792E-06   136   0.359E-03
   1 F= -.17208128E+03 E0= -.17208118E+03  d E =-.393472E-03
