<?xml version="1.0" encoding="ISO-8859-1"?>
<modeling>
 <generator>
  <i name="program" type="string">vasp </i>
  <i name="version" type="string">5.4.4.18Apr17-6-g9f103f2a35  </i>
  <i name="subversion" type="string">(build Sep 03 2018 23:53:05) complex            parallel </i>
  <i name="platform" type="string">LinuxIFC </i>
  <i name="date" type="string">2021 12 01 </i>
  <i name="time" type="string">15:20:35 </i>
 </generator>
 <incar>
  <i type="string" name="SYSTEM"> 6_Pd100_top_free_z(O)</i>
  <i type="int" name="ISTART">     0</i>
  <i type="string" name="PREC">normal   			! encut=max(enmax), ngx,y,z</i>
  <i type="string" name="ALGO"> Fast     			! Mix RMM-DIIS and Dav</i>
  <i type="logical" name="ADDGRID"> F  </i>
  <i type="int" name="ISPIN">     1</i>
  <i type="int" name="ICHARG">     2</i>
  <i type="int" name="NELM">   100</i>
  <i type="int" name="NELMIN">     6</i>
  <i type="int" name="IBRION">     2</i>
  <i name="EDIFF">      0.00010000</i>
  <i name="EDIFFG">     -0.05000000</i>
  <i type="int" name="NSW">     0</i>
  <i type="int" name="ISIF">     2</i>
  <i type="int" name="ISYM">     2</i>
  <i name="ENCUT">    400.00000000</i>
  <i type="string" name="LREAL"> Auto     			! Auto or A projection done</i>
  <i type="int" name="ISMEAR">     2</i>
  <i name="SIGMA">      0.20000000</i>
  <i type="logical" name="LWAVE"> F  </i>
  <i type="logical" name="LCHARG"> F  </i>
  <v type="int" name="KPOINT_BSE">    -1     0     0     0</v>
  <i type="int" name="MAXMEM"> 10000</i>
  <i type="int" name="NELM">   100</i>
  <i type="string" name="GGA"> RP         			! Revised PBE</i>
 </incar>
 <structure name="primitive_cell" >
  <crystal>
   <varray name="basis" >
    <v>      30.00000000       0.00000000       0.00000000 </v>
    <v>       0.00000000      30.00000000       0.00000000 </v>
    <v>       0.00000000       0.00000000      30.00000000 </v>
   </varray>
   <i name="volume">  27000.00000000 </i>
   <varray name="rec_basis" >
    <v>       0.03333333       0.00000000       0.00000000 </v>
    <v>       0.00000000       0.03333333       0.00000000 </v>
    <v>       0.00000000       0.00000000       0.03333333 </v>
   </varray>
  </crystal>
  <varray name="positions" >
   <v>       0.44576020       0.32826710       0.41691983 </v>
   <v>      -0.44576020       0.32826710       0.41691983 </v>
   <v>      -0.50000000       0.38250690       0.34021317 </v>
   <v>      -0.50000000       0.27609440      -0.50000000 </v>
   <v>       0.38804720       0.38804720       0.34167483 </v>
   <v>      -0.50000000       0.38416601      -0.50000000 </v>
   <v>       0.44208300       0.44208300       0.41809300 </v>
   <v>       0.38317830       0.38317830      -0.50000000 </v>
   <v>      -0.44208300       0.44208300       0.41809300 </v>
   <v>       0.44576020       0.32826710      -0.41691977 </v>
   <v>       0.32826705       0.44576024       0.41691983 </v>
   <v>      -0.38804720       0.38804720       0.34167483 </v>
   <v>      -0.38317830       0.38317830      -0.50000000 </v>
   <v>      -0.50000000      -0.50000000       0.33478917 </v>
   <v>      -0.50000000      -0.50000000      -0.50000000 </v>
   <v>      -0.44576020       0.32826710      -0.41691977 </v>
   <v>       0.38250685      -0.49999995       0.34021317 </v>
   <v>       0.44208300       0.44208300      -0.41809297 </v>
   <v>       0.38416599      -0.49999998      -0.50000000 </v>
   <v>      -0.44208300       0.44208300      -0.41809297 </v>
   <v>       0.44208298      -0.44208298       0.41809300 </v>
   <v>       0.32826705       0.44576024      -0.41691977 </v>
   <v>      -0.50000000       0.38250690      -0.34021320 </v>
   <v>       0.32826712      -0.44576022       0.41691983 </v>
   <v>      -0.38250685      -0.49999995       0.34021317 </v>
   <v>      -0.32826705       0.44576024       0.41691983 </v>
   <v>       0.27609443       0.49999998      -0.50000000 </v>
   <v>       0.38804720       0.38804720      -0.34167487 </v>
   <v>      -0.38416599      -0.49999998      -0.50000000 </v>
   <v>      -0.44208298      -0.44208298       0.41809300 </v>
   <v>       0.44208298      -0.44208298      -0.41809297 </v>
   <v>      -0.38804720       0.38804720      -0.34167487 </v>
   <v>       0.38804722      -0.38804722       0.34167483 </v>
   <v>       0.38250685      -0.49999995      -0.34021320 </v>
   <v>       0.32826712      -0.44576022      -0.41691977 </v>
   <v>      -0.32826705       0.44576024      -0.41691977 </v>
   <v>       0.50000000      -0.38250681       0.34021317 </v>
   <v>      -0.50000000      -0.38416596      -0.50000000 </v>
   <v>      -0.44208298      -0.44208298      -0.41809297 </v>
   <v>      -0.50000000      -0.50000000      -0.33478913 </v>
   <v>       0.38317828      -0.38317828      -0.50000000 </v>
   <v>       0.20327117      -0.47016330       0.45903433 </v>
   <v>      -0.32826712      -0.44576022       0.41691983 </v>
   <v>      -0.27609443       0.49999998      -0.50000000 </v>
   <v>      -0.38804722      -0.38804722       0.34167483 </v>
   <v>      -0.38250685      -0.49999995      -0.34021320 </v>
   <v>       0.44576027      -0.32826707       0.41691983 </v>
   <v>      -0.38317828      -0.38317828      -0.50000000 </v>
   <v>       0.16620783      -0.46643653       0.45391747 </v>
   <v>      -0.32826712      -0.44576022      -0.41691977 </v>
   <v>      -0.44576027      -0.32826707       0.41691983 </v>
   <v>       0.38804722      -0.38804722      -0.34167487 </v>
   <v>      -0.50000000      -0.38250681      -0.34021320 </v>
   <v>       0.44576027      -0.32826707      -0.41691977 </v>
   <v>      -0.44576027      -0.32826707      -0.41691977 </v>
   <v>      -0.50000000      -0.27609445       0.50000000 </v>
   <v>      -0.38804722      -0.38804722      -0.34167487 </v>
  </varray>
 </structure>
 <varray name="primitive_index" >
  <v type="int" >        1 </v>
  <v type="int" >        3 </v>
  <v type="int" >        5 </v>
  <v type="int" >        7 </v>
  <v type="int" >       15 </v>
  <v type="int" >       29 </v>
  <v type="int" >       28 </v>
  <v type="int" >       34 </v>
  <v type="int" >       21 </v>
  <v type="int" >       19 </v>
  <v type="int" >       22 </v>
  <v type="int" >       11 </v>
  <v type="int" >       36 </v>
  <v type="int" >       38 </v>
  <v type="int" >       52 </v>
  <v type="int" >       24 </v>
  <v type="int" >       32 </v>
  <v type="int" >       44 </v>
  <v type="int" >       48 </v>
  <v type="int" >       42 </v>
  <v type="int" >       43 </v>
  <v type="int" >       40 </v>
  <v type="int" >        6 </v>
  <v type="int" >        4 </v>
  <v type="int" >       30 </v>
  <v type="int" >       26 </v>
  <v type="int" >        8 </v>
  <v type="int" >       16 </v>
  <v type="int" >       49 </v>
  <v type="int" >       47 </v>
  <v type="int" >       53 </v>
  <v type="int" >       12 </v>
  <v type="int" >       13 </v>
  <v type="int" >       33 </v>
  <v type="int" >       25 </v>
  <v type="int" >       45 </v>
  <v type="int" >       50 </v>
  <v type="int" >       55 </v>
  <v type="int" >       54 </v>
  <v type="int" >       39 </v>
  <v type="int" >       37 </v>
  <v type="int" >       56 </v>
  <v type="int" >        2 </v>
  <v type="int" >        9 </v>
  <v type="int" >       17 </v>
  <v type="int" >       31 </v>
  <v type="int" >       27 </v>
  <v type="int" >       35 </v>
  <v type="int" >       57 </v>
  <v type="int" >       20 </v>
  <v type="int" >       23 </v>
  <v type="int" >       14 </v>
  <v type="int" >       51 </v>
  <v type="int" >       46 </v>
  <v type="int" >       41 </v>
  <v type="int" >       10 </v>
  <v type="int" >       18 </v>
 </varray>
 <kpoints>
  <generation param="Monkhorst-Pack">
   <v type="int" name="divisions">       1        1        1 </v>
   <v name="usershift">      0.00000000       0.00000000       0.00000000 </v>
   <v name="genvec1">      1.00000000       0.00000000       0.00000000 </v>
   <v name="genvec2">      0.00000000       1.00000000       0.00000000 </v>
   <v name="genvec3">      0.00000000       0.00000000       1.00000000 </v>
   <v name="shift">      0.00000000       0.00000000       0.00000000 </v>
  </generation>
  <varray name="kpointlist" >
   <v>       0.00000000       0.00000000       0.00000000 </v>
  </varray>
  <varray name="weights" >
   <v>       1.00000000 </v>
  </varray>
 </kpoints>
 <parameters>
  <separator name="general" >
   <i type="string" name="SYSTEM">6_Pd100_top_free_z(O)</i>
   <i type="logical" name="LCOMPAT"> F  </i>
  </separator>
  <separator name="electronic" >
   <i type="string" name="PREC">normal</i>
   <i name="ENMAX">    400.00000000</i>
   <i name="ENAUG">    644.87300000</i>
   <i name="EDIFF">      0.00010000</i>
   <i type="int" name="IALGO">    68</i>
   <i type="int" name="IWAVPR">    10</i>
   <i type="int" name="NBANDS">   336</i>
   <i name="NELECT">    560.00000000</i>
   <i type="int" name="TURBO">     0</i>
   <i type="int" name="IRESTART">     0</i>
   <i type="int" name="NREBOOT">     0</i>
   <i type="int" name="NMIN">     0</i>
   <i name="EREF">      0.00000000</i>
   <separator name="electronic smearing" >
    <i type="int" name="ISMEAR">     2</i>
    <i name="SIGMA">      0.20000000</i>
    <i name="KSPACING">      0.50000000</i>
    <i type="logical" name="KGAMMA"> T  </i>
   </separator>
   <separator name="electronic projectors" >
    <i type="logical" name="LREAL"> T  </i>
    <v name="ROPT">     -0.00050000     -0.00050000     -0.00050000</v>
    <i type="int" name="LMAXPAW">  -100</i>
    <i type="int" name="LMAXMIX">     2</i>
    <i type="logical" name="NLSPLINE"> F  </i>
   </separator>
   <separator name="electronic startup" >
    <i type="int" name="ISTART">     0</i>
    <i type="int" name="ICHARG">     2</i>
    <i type="int" name="INIWAV">     1</i>
   </separator>
   <separator name="electronic spin" >
    <i type="int" name="ISPIN">     1</i>
    <i type="logical" name="LNONCOLLINEAR"> F  </i>
    <v name="MAGMOM">      1.00000000      1.00000000      1.00000000      1.00000000      1.00000000      1.00000000      1.00000000      1.00000000      1.00000000      1.00000000      1.00000000      1.00000000      1.00000000      1.00000000      1.00000000      1.00000000      1.00000000      1.00000000      1.00000000      1.00000000
      1.00000000      1.00000000      1.00000000      1.00000000      1.00000000      1.00000000      1.00000000      1.00000000      1.00000000      1.00000000      1.00000000      1.00000000      1.00000000      1.00000000      1.00000000      1.00000000      1.00000000      1.00000000      1.00000000      1.00000000
      1.00000000      1.00000000      1.00000000      1.00000000      1.00000000      1.00000000      1.00000000      1.00000000      1.00000000      1.00000000      1.00000000      1.00000000      1.00000000      1.00000000      1.00000000      1.00000000      1.00000000</v>
    <i name="NUPDOWN">     -1.00000000</i>
    <i type="logical" name="LSORBIT"> F  </i>
    <v name="SAXIS">      0.00000000      0.00000000      1.00000000</v>
    <i type="logical" name="LSPIRAL"> F  </i>
    <v name="QSPIRAL">      0.00000000      0.00000000      0.00000000</v>
    <i type="logical" name="LZEROZ"> F  </i>
   </separator>
   <separator name="electronic exchange-correlation" >
    <i type="logical" name="LASPH"> F  </i>
    <i type="logical" name="LMETAGGA"> F  </i>
   </separator>
   <separator name="electronic convergence" >
    <i type="int" name="NELM">   100</i>
    <i type="int" name="NELMDL">    -5</i>
    <i type="int" name="NELMIN">     6</i>
    <i name="ENINI">    400.00000000</i>
    <separator name="electronic convergence detail" >
     <i type="logical" name="LDIAG"> T  </i>
     <i type="logical" name="LSUBROT"> F  </i>
     <i name="WEIMIN">      0.00000000</i>
     <i name="EBREAK">      0.00000007</i>
     <i name="DEPER">      0.30000000</i>
     <i type="int" name="NRMM">     4</i>
     <i name="TIME">      0.40000000</i>
    </separator>
   </separator>
   <separator name="electronic mixer" >
    <i name="AMIX">      0.40000000</i>
    <i name="BMIX">      1.00000000</i>
    <i name="AMIN">      0.10000000</i>
    <i name="AMIX_MAG">      1.60000000</i>
    <i name="BMIX_MAG">      1.00000000</i>
    <separator name="electronic mixer details" >
     <i type="int" name="IMIX">     4</i>
     <i type="logical" name="MIXFIRST"> F  </i>
     <i type="int" name="MAXMIX">   -45</i>
     <i name="WC">    100.00000000</i>
     <i type="int" name="INIMIX">     1</i>
     <i type="int" name="MIXPRE">     1</i>
     <i type="int" name="MREMOVE">     5</i>
    </separator>
   </separator>
   <separator name="electronic dipolcorrection" >
    <i type="logical" name="LDIPOL"> F  </i>
    <i type="logical" name="LMONO"> F  </i>
    <i type="int" name="IDIPOL">     0</i>
    <i name="EPSILON">      1.00000000</i>
    <v name="DIPOL">   -100.00000000   -100.00000000   -100.00000000</v>
    <i name="EFIELD">      0.00000000</i>
   </separator>
  </separator>
  <separator name="grids" >
   <i type="int" name="NGX">   150</i>
   <i type="int" name="NGY">   150</i>
   <i type="int" name="NGZ">   150</i>
   <i type="int" name="NGXF">   300</i>
   <i type="int" name="NGYF">   300</i>
   <i type="int" name="NGZF">   300</i>
   <i type="logical" name="ADDGRID"> F  </i>
  </separator>
  <separator name="ionic" >
   <i type="int" name="NSW">     0</i>
   <i type="int" name="IBRION">    -1</i>
   <i type="int" name="MDALGO">     0</i>
   <i type="int" name="ISIF">     2</i>
   <i name="PSTRESS">      0.00000000</i>
   <i name="EDIFFG">     -0.05000000</i>
   <i type="int" name="NFREE">     1</i>
   <i name="POTIM">      0.50000000</i>
   <i name="SMASS">     -3.00000000</i>
   <i name="SCALEE">      1.00000000</i>
  </separator>
  <separator name="ionic md" >
   <i name="TEBEG">      0.00010000</i>
   <i name="TEEND">      0.00010000</i>
   <i type="int" name="NBLOCK">     1</i>
   <i type="int" name="KBLOCK">     1</i>
   <i type="int" name="NPACO">   256</i>
   <i name="APACO">     16.00000000</i>
  </separator>
  <separator name="symmetry" >
   <i type="int" name="ISYM">     2</i>
   <i name="SYMPREC">      0.00001000</i>
  </separator>
  <separator name="dos" >
   <i type="int" name="LORBIT">     0</i>
   <v name="RWIGS">     -1.00000000     -1.00000000     -1.00000000</v>
   <i type="int" name="NEDOS">   301</i>
   <i name="EMIN">     10.00000000</i>
   <i name="EMAX">    -10.00000000</i>
   <i name="EFERMI">      0.00000000</i>
  </separator>
  <separator name="writing" >
   <i type="int" name="NWRITE">     2</i>
   <i type="logical" name="LWAVE"> F  </i>
   <i type="logical" name="LDOWNSAMPLE"> F  </i>
   <i type="logical" name="LCHARG"> F  </i>
   <i type="logical" name="LPARD"> F  </i>
   <i type="logical" name="LVTOT"> F  </i>
   <i type="logical" name="LVHAR"> F  </i>
   <i type="logical" name="LELF"> F  </i>
   <i type="logical" name="LOPTICS"> F  </i>
   <v name="STM">      0.00000000      0.00000000      0.00000000      0.00000000      0.00000000      0.00000000      0.00000000</v>
  </separator>
  <separator name="performance" >
   <i type="int" name="NPAR">     1</i>
   <i type="int" name="NSIM">     4</i>
   <i type="int" name="NBLK">    -1</i>
   <i type="logical" name="LPLANE"> T  </i>
   <i type="logical" name="LSCALAPACK"> T  </i>
   <i type="logical" name="LSCAAWARE"> F  </i>
   <i type="logical" name="LSCALU"> F  </i>
   <i type="logical" name="LASYNC"> F  </i>
   <i type="logical" name="LORBITALREAL"> F  </i>
  </separator>
  <separator name="miscellaneous" >
   <i type="int" name="IDIOT">     3</i>
   <i type="int" name="ISPECIAL">     0</i>
   <i type="logical" name="LMUSIC"> F  </i>
   <v name="POMASS">    106.42000000     12.01100000     16.00000000</v>
   <v name="DARWINR">      0.00000000      0.00000000      0.00000000</v>
   <v name="DARWINV">      1.00000000      1.00000000      1.00000000</v>
   <i type="logical" name="LCORR"> T  </i>
  </separator>
  <i type="logical" name="GGA_COMPAT"> T  </i>
  <i type="logical" name="LBERRY"> F  </i>
  <i type="int" name="ICORELEVEL">     0</i>
  <i type="logical" name="LDAU"> F  </i>
  <i type="int" name="I_CONSTRAINED_M">     0</i>
  <separator name="electronic exchange-correlation" >
   <i type="string" name="GGA">RP</i>
   <i type="int" name="VOSKOWN">     0</i>
   <i type="logical" name="LHFCALC"> F  </i>
   <i type="string" name="PRECFOCK"></i>
   <i type="logical" name="LSYMGRAD"> F  </i>
   <i type="logical" name="LHFONE"> F  </i>
   <i type="logical" name="LRHFCALC"> F  </i>
   <i type="logical" name="LTHOMAS"> F  </i>
   <i type="logical" name="LMODELHF"> F  </i>
   <i name="ENCUT4O">     -1.00000000</i>
   <i type="int" name="EXXOEP">     0</i>
   <i type="int" name="FOURORBIT">     0</i>
   <i name="AEXX">      0.00000000</i>
   <i name="HFALPHA">      0.00000000</i>
   <i name="MCALPHA">      0.00000000</i>
   <i name="ALDAX">      1.00000000</i>
   <i name="AGGAX">      1.00000000</i>
   <i name="ALDAC">      1.00000000</i>
   <i name="AGGAC">      1.00000000</i>
   <i type="int" name="NKREDX">     1</i>
   <i type="int" name="NKREDY">     1</i>
   <i type="int" name="NKREDZ">     1</i>
   <i type="logical" name="SHIFTRED"> F  </i>
   <i type="logical" name="ODDONLY"> F  </i>
   <i type="logical" name="EVENONLY"> F  </i>
   <i type="int" name="LMAXFOCK">     0</i>
   <i type="int" name="NMAXFOCKAE">     0</i>
   <i type="logical" name="LFOCKAEDFT"> F  </i>
   <i name="HFSCREEN">      0.00000000</i>
   <i name="HFSCREENC">      0.00000000</i>
   <i type="int" name="NBANDSGWLOW">     0</i>
  </separator>
  <separator name="vdW DFT" >
   <i type="logical" name="LUSE_VDW"> F  </i>
   <i name="Zab_VDW">     -0.84910000</i>
   <i name="PARAM1">      0.12340000</i>
   <i name="PARAM2">      1.00000000</i>
   <i name="PARAM3">      0.00000000</i>
  </separator>
  <separator name="model GW" >
   <i type="int" name="MODEL_GW">     0</i>
   <i name="MODEL_EPS0">    284.21052632</i>
   <i name="MODEL_ALPHA">      1.00000000</i>
  </separator>
  <separator name="linear response parameters" >
   <i type="logical" name="LEPSILON"> F  </i>
   <i type="logical" name="LRPA"> F  </i>
   <i type="logical" name="LNABLA"> F  </i>
   <i type="logical" name="LVEL"> F  </i>
   <i type="int" name="KINTER">     0</i>
   <i name="CSHIFT">      0.10000000</i>
   <i name="OMEGAMAX">     -1.00000000</i>
   <i name="DEG_THRESHOLD">      0.00200000</i>
   <i name="RTIME">     -0.10000000</i>
   <i name="WPLASMAI">      0.00000000</i>
   <v name="DFIELD">      0.00000000      0.00000000      0.00000000</v>
   <v name="WPLASMA">      0.00000000      0.00000000      0.00000000      0.00000000      0.00000000      0.00000000      0.00000000      0.00000000      0.00000000</v>
  </separator>
  <separator name="orbital magnetization" >
   <i type="logical" name="NUCIND"> F  </i>
   <v name="MAGPOS">      0.00000000      0.00000000      0.00000000</v>
   <i type="logical" name="LNICSALL"> T  </i>
   <i type="logical" name="ORBITALMAG"> F  </i>
   <i type="logical" name="LMAGBLOCH"> F  </i>
   <i type="logical" name="LCHIMAG"> F  </i>
   <i type="logical" name="LGAUGE"> T  </i>
   <i type="int" name="MAGATOM">     0</i>
   <v name="MAGDIPOL">      0.00000000      0.00000000      0.00000000</v>
   <v name="AVECCONST">      0.00000000      0.00000000      0.00000000</v>
  </separator>
  <separator name="response functions" >
   <i type="logical" name="LADDER"> F  </i>
   <i type="logical" name="LRPAFORCE"> F  </i>
   <i type="logical" name="LFXC"> F  </i>
   <i type="logical" name="LHARTREE"> T  </i>
   <i type="int" name="IBSE">     0</i>
   <v type="int" name="KPOINT">    -1     0     0     0</v>
   <i type="logical" name="LTCTE"> F  </i>
   <i type="logical" name="LTETE"> F  </i>
   <i type="logical" name="LTRIPLET"> F  </i>
   <i type="logical" name="LFXCEPS"> F  </i>
   <i type="logical" name="LFXHEG"> F  </i>
   <i type="int" name="NATURALO">     2</i>
   <i type="logical" name="L2ORDER"> F  </i>
   <i type="logical" name="LMP2LT"> F  </i>
   <i type="logical" name="LUSEW"> F  </i>
   <i name="ENCUTGW">     -2.00000000</i>
   <i name="ENCUTGWSOFT">     -2.00000000</i>
   <i name="ENCUTLF">     -1.00000000</i>
   <i type="int" name="LMAXMP2">    -1</i>
   <i name="SCISSOR">      0.00000000</i>
   <i type="int" name="NOMEGA">     0</i>
   <i type="int" name="NOMEGAR">     0</i>
   <i type="int" name="NBANDSGW">    -1</i>
   <i type="int" name="NBANDSO">    -1</i>
   <i type="int" name="NBANDSV">    -1</i>
   <i type="int" name="NELM">   100</i>
   <i type="int" name="NELMHF">     1</i>
   <i type="int" name="DIM">     3</i>
   <i type="int" name="ANTIRES">     0</i>
   <i name="OMEGAMAX">    -30.00000000</i>
   <i name="OMEGAMIN">    -30.00000000</i>
   <i name="OMEGATL">   -200.00000000</i>
   <i type="int" name="OMEGAGRID">   140</i>
   <i name="CSHIFT">     -0.10000000</i>
   <i type="logical" name="SELFENERGY"> F  </i>
   <i type="logical" name="LSPECTRAL"> F  </i>
   <i type="logical" name="LSPECTRALGW"> F  </i>
   <i type="logical" name="LSINGLES"> F  </i>
   <i type="logical" name="LFERMIGW"> F  </i>
   <i type="logical" name="ODDONLYGW"> F  </i>
   <i type="logical" name="EVENONLYGW"> F  </i>
   <i type="int" name="NKREDLFX">     1</i>
   <i type="int" name="NKREDLFY">     1</i>
   <i type="int" name="NKREDLFZ">     1</i>
   <i type="int" name="MAXMEM"> 10000</i>
   <i type="int" name="TELESCOPE">     0</i>
   <i type="int" name="TAUPAR">     1</i>
   <i type="int" name="OMEGAPAR">    -1</i>
   <i name="LAMBDA">      1.00000000</i>
  </separator>
  <separator name="External order field" >
   <i name="OFIELD_KAPPA">      0.00000000</i>
   <v name="OFIELD_K">      0.00000000      0.00000000      0.00000000</v>
   <i name="OFIELD_Q6_NEAR">      0.00000000</i>
   <i name="OFIELD_Q6_FAR">      0.00000000</i>
   <i name="OFIELD_A">      0.00000000</i>
  </separator>
 </parameters>
 <atominfo>
  <atoms>      57 </atoms>
  <types>       3 </types>
  <array name="atoms" >
   <dimension dim="1">ion</dimension>
   <field type="string">element</field>
   <field type="int">atomtype</field>
   <set>
    <rc><c>Pd</c><c>   1</c></rc>
    <rc><c>Pd</c><c>   1</c></rc>
    <rc><c>Pd</c><c>   1</c></rc>
    <rc><c>Pd</c><c>   1</c></rc>
    <rc><c>Pd</c><c>   1</c></rc>
    <rc><c>Pd</c><c>   1</c></rc>
    <rc><c>Pd</c><c>   1</c></rc>
    <rc><c>Pd</c><c>   1</c></rc>
    <rc><c>Pd</c><c>   1</c></rc>
    <rc><c>Pd</c><c>   1</c></rc>
    <rc><c>Pd</c><c>   1</c></rc>
    <rc><c>Pd</c><c>   1</c></rc>
    <rc><c>Pd</c><c>   1</c></rc>
    <rc><c>Pd</c><c>   1</c></rc>
    <rc><c>Pd</c><c>   1</c></rc>
    <rc><c>Pd</c><c>   1</c></rc>
    <rc><c>Pd</c><c>   1</c></rc>
    <rc><c>Pd</c><c>   1</c></rc>
    <rc><c>Pd</c><c>   1</c></rc>
    <rc><c>Pd</c><c>   1</c></rc>
    <rc><c>Pd</c><c>   1</c></rc>
    <rc><c>Pd</c><c>   1</c></rc>
    <rc><c>Pd</c><c>   1</c></rc>
    <rc><c>Pd</c><c>   1</c></rc>
    <rc><c>Pd</c><c>   1</c></rc>
    <rc><c>Pd</c><c>   1</c></rc>
    <rc><c>Pd</c><c>   1</c></rc>
    <rc><c>Pd</c><c>   1</c></rc>
    <rc><c>Pd</c><c>   1</c></rc>
    <rc><c>Pd</c><c>   1</c></rc>
    <rc><c>Pd</c><c>   1</c></rc>
    <rc><c>Pd</c><c>   1</c></rc>
    <rc><c>Pd</c><c>   1</c></rc>
    <rc><c>Pd</c><c>   1</c></rc>
    <rc><c>Pd</c><c>   1</c></rc>
    <rc><c>Pd</c><c>   1</c></rc>
    <rc><c>Pd</c><c>   1</c></rc>
    <rc><c>Pd</c><c>   1</c></rc>
    <rc><c>Pd</c><c>   1</c></rc>
    <rc><c>Pd</c><c>   1</c></rc>
    <rc><c>Pd</c><c>   1</c></rc>
    <rc><c>Pd</c><c>   1</c></rc>
    <rc><c>Pd</c><c>   1</c></rc>
    <rc><c>Pd</c><c>   1</c></rc>
    <rc><c>Pd</c><c>   1</c></rc>
    <rc><c>Pd</c><c>   1</c></rc>
    <rc><c>Pd</c><c>   1</c></rc>
    <rc><c>Pd</c><c>   1</c></rc>
    <rc><c>Pd</c><c>   1</c></rc>
    <rc><c>Pd</c><c>   1</c></rc>
    <rc><c>Pd</c><c>   1</c></rc>
    <rc><c>Pd</c><c>   1</c></rc>
    <rc><c>Pd</c><c>   1</c></rc>
    <rc><c>Pd</c><c>   1</c></rc>
    <rc><c>Pd</c><c>   1</c></rc>
    <rc><c>C </c><c>   2</c></rc>
    <rc><c>O </c><c>   3</c></rc>
   </set>
  </array>
  <array name="atomtypes" >
   <dimension dim="1">type</dimension>
   <field type="int">atomspertype</field>
   <field type="string">element</field>
   <field>mass</field>
   <field>valence</field>
   <field type="string">pseudopotential</field>
   <set>
    <rc><c>  55</c><c>Pd</c><c>    106.42000000</c><c>     10.00000000</c><c>  PAW_PBE Pd 04Jan2005                  </c></rc>
    <rc><c>   1</c><c>C </c><c>     12.01100000</c><c>      4.00000000</c><c>  PAW_PBE C 08Apr2002                   </c></rc>
    <rc><c>   1</c><c>O </c><c>     16.00000000</c><c>      6.00000000</c><c>  PAW_PBE O 08Apr2002                   </c></rc>
   </set>
  </array>
 </atominfo>
 <structure name="initialpos" >
  <crystal>
   <varray name="basis" >
    <v>      30.00000000       0.00000000       0.00000000 </v>
    <v>       0.00000000      30.00000000       0.00000000 </v>
    <v>       0.00000000       0.00000000      30.00000000 </v>
   </varray>
   <i name="volume">  27000.00000000 </i>
   <varray name="rec_basis" >
    <v>       0.03333333       0.00000000       0.00000000 </v>
    <v>       0.00000000       0.03333333       0.00000000 </v>
    <v>       0.00000000       0.00000000       0.03333333 </v>
   </varray>
  </crystal>
  <varray name="positions" >
   <v>       0.44576020       0.32826710       0.41691983 </v>
   <v>       0.67173288       0.55423978       0.41691983 </v>
   <v>       0.55423980       0.32826710       0.41691983 </v>
   <v>       0.32826712       0.55423978       0.41691983 </v>
   <v>       0.50000000       0.38250690       0.34021317 </v>
   <v>       0.50000000       0.38250690       0.65978680 </v>
   <v>       0.50000000       0.27609440       0.50000000 </v>
   <v>       0.27609443       0.49999998       0.50000000 </v>
   <v>       0.72390557       0.49999998       0.50000000 </v>
   <v>       0.50000000       0.72390555       0.50000000 </v>
   <v>       0.61195280       0.38804720       0.34167483 </v>
   <v>       0.61195280       0.38804720       0.65832513 </v>
   <v>       0.38804722       0.61195278       0.34167483 </v>
   <v>       0.38804722       0.61195278       0.65832513 </v>
   <v>       0.38804720       0.38804720       0.34167483 </v>
   <v>       0.38804720       0.38804720       0.65832513 </v>
   <v>       0.61195278       0.61195278       0.34167483 </v>
   <v>       0.61195278       0.61195278       0.65832513 </v>
   <v>       0.44576020       0.32826710       0.58308023 </v>
   <v>       0.67173288       0.55423978       0.58308023 </v>
   <v>       0.55791699       0.44208301       0.41809300 </v>
   <v>       0.32826705       0.44576024       0.41691983 </v>
   <v>       0.55423973       0.67173293       0.41691983 </v>
   <v>       0.55423980       0.32826710       0.58308023 </v>
   <v>       0.32826712       0.55423978       0.58308023 </v>
   <v>       0.67173295       0.44576024       0.41691983 </v>
   <v>       0.44576027       0.67173293       0.41691983 </v>
   <v>       0.44208301       0.44208301       0.41809300 </v>
   <v>       0.50000000       0.38416601       0.50000000 </v>
   <v>       0.61749315       0.50000005       0.34021317 </v>
   <v>       0.61749315       0.50000005       0.65978680 </v>
   <v>       0.38250685       0.50000005       0.34021317 </v>
   <v>       0.38250685       0.50000005       0.65978680 </v>
   <v>       0.38317830       0.38317830       0.50000000 </v>
   <v>       0.61682172       0.61682172       0.50000000 </v>
   <v>       0.61682170       0.38317830       0.50000000 </v>
   <v>       0.38317828       0.61682172       0.50000000 </v>
   <v>       0.50000000       0.50000000       0.33478917 </v>
   <v>       0.50000000       0.50000000       0.66521087 </v>
   <v>       0.32826705       0.44576024       0.58308023 </v>
   <v>       0.55423973       0.67173293       0.58308023 </v>
   <v>       0.55791699       0.44208301       0.58190703 </v>
   <v>       0.44208298       0.55791702       0.41809300 </v>
   <v>       0.44208301       0.44208301       0.58190703 </v>
   <v>       0.67173295       0.44576024       0.58308023 </v>
   <v>       0.44576027       0.67173293       0.58308023 </v>
   <v>       0.55791702       0.55791702       0.41809300 </v>
   <v>       0.38416599       0.50000002       0.50000000 </v>
   <v>       0.61583401       0.50000002       0.50000000 </v>
   <v>       0.50000000       0.61749319       0.34021317 </v>
   <v>       0.50000000       0.61749319       0.65978680 </v>
   <v>       0.50000000       0.50000000       0.50000000 </v>
   <v>       0.44208298       0.55791702       0.58190703 </v>
   <v>       0.55791702       0.55791702       0.58190703 </v>
   <v>       0.50000000       0.61583404       0.50000000 </v>
   <v>       0.20327117       0.52983670       0.45903433 </v>
   <v>       0.16620783       0.53356347       0.45391747 </v>
  </varray>
  <varray name="selective"  type="logical" >
   <v type="logical" >  F  F  F </v>
   <v type="logical" >  F  F  F </v>
   <v type="logical" >  F  F  F </v>
   <v type="logical" >  F  F  F </v>
   <v type="logical" >  F  F  F </v>
   <v type="logical" >  F  F  F </v>
   <v type="logical" >  F  F  F </v>
   <v type="logical" >  F  F  F </v>
   <v type="logical" >  F  F  F </v>
   <v type="logical" >  F  F  F </v>
   <v type="logical" >  F  F  F </v>
   <v type="logical" >  F  F  F </v>
   <v type="logical" >  F  F  F </v>
   <v type="logical" >  F  F  F </v>
   <v type="logical" >  F  F  F </v>
   <v type="logical" >  F  F  F </v>
   <v type="logical" >  F  F  F </v>
   <v type="logical" >  F  F  F </v>
   <v type="logical" >  F  F  F </v>
   <v type="logical" >  F  F  F </v>
   <v type="logical" >  F  F  F </v>
   <v type="logical" >  F  F  F </v>
   <v type="logical" >  F  F  F </v>
   <v type="logical" >  F  F  F </v>
   <v type="logical" >  F  F  F </v>
   <v type="logical" >  F  F  F </v>
   <v type="logical" >  F  F  F </v>
   <v type="logical" >  F  F  F </v>
   <v type="logical" >  F  F  F </v>
   <v type="logical" >  F  F  F </v>
   <v type="logical" >  F  F  F </v>
   <v type="logical" >  F  F  F </v>
   <v type="logical" >  F  F  F </v>
   <v type="logical" >  F  F  F </v>
   <v type="logical" >  F  F  F </v>
   <v type="logical" >  F  F  F </v>
   <v type="logical" >  F  F  F </v>
   <v type="logical" >  F  F  F </v>
   <v type="logical" >  F  F  F </v>
   <v type="logical" >  F  F  F </v>
   <v type="logical" >  F  F  F </v>
   <v type="logical" >  F  F  F </v>
   <v type="logical" >  F  F  F </v>
   <v type="logical" >  F  F  F </v>
   <v type="logical" >  F  F  F </v>
   <v type="logical" >  F  F  F </v>
   <v type="logical" >  F  F  F </v>
   <v type="logical" >  F  F  F </v>
   <v type="logical" >  F  F  F </v>
   <v type="logical" >  F  F  F </v>
   <v type="logical" >  F  F  F </v>
   <v type="logical" >  F  F  F </v>
   <v type="logical" >  F  F  F </v>
   <v type="logical" >  F  F  F </v>
   <v type="logical" >  F  F  F </v>
   <v type="logical" >  F  F  F </v>
   <v type="logical" >  F  F  F </v>
  </varray>
  <nose>
   <v>      -3.00000000       0.00000000       0.00010000       0.00010000 </v>
  </nose>
 </structure>
 <calculation>
  <scstep>
   <time name="dav">  353.61  353.71</time>
   <time name="total">  367.63  367.74</time>
   <energy>
    <i name="alphaZ">     75.25431677 </i>
    <i name="ewald"> 136969.51541637 </i>
    <i name="hartreedc">-180337.51067709 </i>
    <i name="XCdc">  -1704.01689061 </i>
    <i name="pawpsdc">  44873.02882129 </i>
    <i name="pawaedc"> -41398.84523641 </i>
    <i name="eentropy">      0.01462285 </i>
    <i name="bandstr">    817.44375898 </i>
    <i name="atom">  45086.50549395 </i>
    <i name="e_fr_energy">   4381.38962610 </i>
    <i name="e_wo_entrp">   4381.37500325 </i>
    <i name="e_0_energy">   4381.38597039 </i>
   </energy>
  </scstep>
  <scstep>
   <time name="dav">  557.51  557.59</time>
   <time name="total">  557.51  557.59</time>
   <energy>
    <i name="e_fr_energy">   2012.11267661 </i>
    <i name="e_wo_entrp">   2012.09021111 </i>
    <i name="e_0_energy">   2012.10706023 </i>
   </energy>
  </scstep>
  <scstep>
   <time name="dav">  452.20  452.21</time>
   <time name="total">  452.20  452.21</time>
   <energy>
    <i name="e_fr_energy">    232.41030594 </i>
    <i name="e_wo_entrp">    232.37392004 </i>
    <i name="e_0_energy">    232.40120946 </i>
   </energy>
  </scstep>
  <scstep>
   <time name="dav">  389.09  389.10</time>
   <time name="total">  389.09  389.10</time>
   <energy>
    <i name="e_fr_energy">   -135.11318938 </i>
    <i name="e_wo_entrp">   -135.12946766 </i>
    <i name="e_0_energy">   -135.11725895 </i>
   </energy>
  </scstep>
  <scstep>
   <time name="dav">  465.43  465.44</time>
   <time name="total">  489.79  489.80</time>
   <energy>
    <i name="e_fr_energy">   -178.52134747 </i>
    <i name="e_wo_entrp">   -179.02910093 </i>
    <i name="e_0_energy">   -178.64828583 </i>
   </energy>
  </scstep>
  <scstep>
   <time name="diag">   63.92   63.92</time>
   <time name="diis">  173.11  173.12</time>
   <time name="orth">   12.69   12.69</time>
   <time name="total">  286.20  286.20</time>
   <energy>
    <i name="e_fr_energy">   -178.31032305 </i>
    <i name="e_wo_entrp">   -178.18497565 </i>
    <i name="e_0_energy">   -178.27898620 </i>
   </energy>
  </scstep>
  <scstep>
   <time name="diag">   64.07   64.08</time>
   <time name="diis">  204.68  204.68</time>
   <time name="orth">   12.78   12.78</time>
   <time name="total">  318.21  318.22</time>
   <energy>
    <i name="e_fr_energy">   -181.47519359 </i>
    <i name="e_wo_entrp">   -181.39197169 </i>
    <i name="e_0_energy">   -181.45438812 </i>
   </energy>
  </scstep>
  <scstep>
   <time name="diag">   63.63   63.63</time>
   <time name="diis">  189.76  189.77</time>
   <time name="orth">   12.84   12.84</time>
   <time name="total">  303.29  303.31</time>
   <energy>
    <i name="e_fr_energy">   -182.30371936 </i>
    <i name="e_wo_entrp">   -182.16260907 </i>
    <i name="e_0_energy">   -182.26844179 </i>
   </energy>
  </scstep>
  <scstep>
   <time name="diag">   64.74   64.74</time>
   <time name="diis">  175.07  175.09</time>
   <time name="orth">   12.91   12.91</time>
   <time name="total">  290.21  290.25</time>
   <energy>
    <i name="e_fr_energy">   -180.78474354 </i>
    <i name="e_wo_entrp">   -180.64369963 </i>
    <i name="e_0_energy">   -180.74948256 </i>
   </energy>
  </scstep>
  <scstep>
   <time name="diag">   64.18   64.18</time>
   <time name="diis">  174.67  174.67</time>
   <time name="orth">   12.82   12.82</time>
   <time name="total">  288.88  288.89</time>
   <energy>
    <i name="e_fr_energy">   -178.93020770 </i>
    <i name="e_wo_entrp">   -178.83473990 </i>
    <i name="e_0_energy">   -178.90634075 </i>
   </energy>
  </scstep>
  <scstep>
   <time name="diag">   64.12   64.12</time>
   <time name="diis">  176.73  176.73</time>
   <time name="orth">   12.80   12.80</time>
   <time name="total">  290.64  290.64</time>
   <energy>
    <i name="e_fr_energy">   -176.94141671 </i>
    <i name="e_wo_entrp">   -176.84581409 </i>
    <i name="e_0_energy">   -176.91751605 </i>
   </energy>
  </scstep>
  <scstep>
   <time name="diag">   64.18   64.18</time>
   <time name="diis">  174.85  174.85</time>
   <time name="orth">   12.67   12.67</time>
   <time name="total">  288.90  288.90</time>
   <energy>
    <i name="e_fr_energy">   -176.21219348 </i>
    <i name="e_wo_entrp">   -176.09155850 </i>
    <i name="e_0_energy">   -176.18203474 </i>
   </energy>
  </scstep>
  <scstep>
   <time name="diag">   64.12   64.12</time>
   <time name="diis">  174.62  174.63</time>
   <time name="orth">   12.73   12.73</time>
   <time name="total">  288.45  288.46</time>
   <energy>
    <i name="e_fr_energy">   -175.95536880 </i>
    <i name="e_wo_entrp">   -175.80483118 </i>
    <i name="e_0_energy">   -175.91773440 </i>
   </energy>
  </scstep>
  <scstep>
   <time name="diag">   64.03   64.03</time>
   <time name="diis">  173.21  173.21</time>
   <time name="orth">   12.67   12.67</time>
   <time name="total">  287.28  287.28</time>
   <energy>
    <i name="e_fr_energy">   -177.17998453 </i>
    <i name="e_wo_entrp">   -177.48963435 </i>
    <i name="e_0_energy">   -177.25739698 </i>
   </energy>
  </scstep>
  <scstep>
   <time name="diag">   64.33   64.33</time>
   <time name="diis">  173.90  173.90</time>
   <time name="orth">   12.61   12.61</time>
   <time name="total">  287.68  287.69</time>
   <energy>
    <i name="e_fr_energy">   -175.73714210 </i>
    <i name="e_wo_entrp">   -175.71895800 </i>
    <i name="e_0_energy">   -175.73259608 </i>
   </energy>
  </scstep>
  <scstep>
   <time name="diag">   63.78   63.79</time>
   <time name="diis">  171.42  171.43</time>
   <time name="orth">   12.71   12.71</time>
   <time name="total">  284.48  284.50</time>
   <energy>
    <i name="e_fr_energy">   -175.39351287 </i>
    <i name="e_wo_entrp">   -175.38647319 </i>
    <i name="e_0_energy">   -175.39175295 </i>
   </energy>
  </scstep>
  <scstep>
   <time name="diag">   63.63   63.63</time>
   <time name="diis">  172.25  172.25</time>
   <time name="orth">   12.59   12.59</time>
   <time name="total">  285.06  285.06</time>
   <energy>
    <i name="e_fr_energy">   -174.99910740 </i>
    <i name="e_wo_entrp">   -175.00433827 </i>
    <i name="e_0_energy">   -175.00041512 </i>
   </energy>
  </scstep>
  <scstep>
   <time name="diag">   63.88   63.88</time>
   <time name="diis">  172.20  172.20</time>
   <time name="orth">   12.62   12.62</time>
   <time name="total">  285.43  285.43</time>
   <energy>
    <i name="e_fr_energy">   -174.88313404 </i>
    <i name="e_wo_entrp">   -174.89527803 </i>
    <i name="e_0_energy">   -174.88617004 </i>
   </energy>
  </scstep>
  <scstep>
   <time name="diag">   63.82   63.82</time>
   <time name="diis">  173.61  173.61</time>
   <time name="orth">   12.58   12.58</time>
   <time name="total">  286.80  286.81</time>
   <energy>
    <i name="e_fr_energy">   -175.01494927 </i>
    <i name="e_wo_entrp">   -175.11504997 </i>
    <i name="e_0_energy">   -175.03997445 </i>
   </energy>
  </scstep>
  <scstep>
   <time name="diag">   63.80   63.80</time>
   <time name="diis">  170.90  170.91</time>
   <time name="orth">   12.60   12.60</time>
   <time name="total">  283.60  283.60</time>
   <energy>
    <i name="e_fr_energy">   -174.69318278 </i>
    <i name="e_wo_entrp">   -174.72673729 </i>
    <i name="e_0_energy">   -174.70157140 </i>
   </energy>
  </scstep>
  <scstep>
   <time name="diag">   63.72   63.72</time>
   <time name="diis">  173.94  173.95</time>
   <time name="orth">   12.58   12.58</time>
   <time name="total">  286.77  286.79</time>
   <energy>
    <i name="e_fr_energy">   -174.45181004 </i>
    <i name="e_wo_entrp">   -174.38820974 </i>
    <i name="e_0_energy">   -174.43590996 </i>
   </energy>
  </scstep>
  <scstep>
   <time name="diag">   63.95   63.95</time>
   <time name="diis">  172.56  172.57</time>
   <time name="orth">   12.58   12.58</time>
   <time name="total">  285.81  285.82</time>
   <energy>
    <i name="e_fr_energy">   -174.34372402 </i>
    <i name="e_wo_entrp">   -174.24751682 </i>
    <i name="e_0_energy">   -174.31967222 </i>
   </energy>
  </scstep>
  <scstep>
   <time name="diag">   63.66   63.66</time>
   <time name="diis">  172.25  172.25</time>
   <time name="orth">   12.59   12.59</time>
   <time name="total">  285.04  285.04</time>
   <energy>
    <i name="e_fr_energy">   -174.20212131 </i>
    <i name="e_wo_entrp">   -174.08366744 </i>
    <i name="e_0_energy">   -174.17250785 </i>
   </energy>
  </scstep>
  <scstep>
   <time name="diag">   63.68   63.68</time>
   <time name="diis">  171.82  171.82</time>
   <time name="orth">   12.52   12.52</time>
   <time name="total">  284.74  284.74</time>
   <energy>
    <i name="e_fr_energy">   -174.17789263 </i>
    <i name="e_wo_entrp">   -174.05404324 </i>
    <i name="e_0_energy">   -174.14693028 </i>
   </energy>
  </scstep>
  <scstep>
   <time name="diag">   63.73   63.73</time>
   <time name="diis">  171.88  171.88</time>
   <time name="orth">   12.41   12.41</time>
   <time name="total">  284.88  284.89</time>
   <energy>
    <i name="e_fr_energy">   -174.08930135 </i>
    <i name="e_wo_entrp">   -173.96858916 </i>
    <i name="e_0_energy">   -174.05912331 </i>
   </energy>
  </scstep>
  <scstep>
   <time name="diag">   63.97   63.97</time>
   <time name="diis">  170.13  170.13</time>
   <time name="orth">   12.41   12.41</time>
   <time name="total">  283.33  283.34</time>
   <energy>
    <i name="e_fr_energy">   -174.02341800 </i>
    <i name="e_wo_entrp">   -173.91509750 </i>
    <i name="e_0_energy">   -173.99633788 </i>
   </energy>
  </scstep>
  <scstep>
   <time name="diag">   63.41   63.41</time>
   <time name="diis">  170.42  170.42</time>
   <time name="orth">   12.50   12.49</time>
   <time name="total">  282.79  282.80</time>
   <energy>
    <i name="e_fr_energy">   -173.97039174 </i>
    <i name="e_wo_entrp">   -173.86645466 </i>
    <i name="e_0_energy">   -173.94440747 </i>
   </energy>
  </scstep>
  <scstep>
   <time name="diag">   63.90   63.90</time>
   <time name="diis">  172.03  172.03</time>
   <time name="orth">   12.66   12.66</time>
   <time name="total">  285.71  285.71</time>
   <energy>
    <i name="e_fr_energy">   -173.95894044 </i>
    <i name="e_wo_entrp">   -173.84649181 </i>
    <i name="e_0_energy">   -173.93082828 </i>
   </energy>
  </scstep>
  <scstep>
   <time name="diag">   64.12   64.12</time>
   <time name="diis">  171.43  171.43</time>
   <time name="orth">   12.73   12.73</time>
   <time name="total">  285.83  285.83</time>
   <energy>
    <i name="e_fr_energy">   -173.93940315 </i>
    <i name="e_wo_entrp">   -173.83885438 </i>
    <i name="e_0_energy">   -173.91426596 </i>
   </energy>
  </scstep>
  <scstep>
   <time name="diag">   64.18   64.18</time>
   <time name="diis">  172.82  172.82</time>
   <time name="orth">   12.68   12.68</time>
   <time name="total">  287.50  287.50</time>
   <energy>
    <i name="e_fr_energy">   -173.92048698 </i>
    <i name="e_wo_entrp">   -173.81410852 </i>
    <i name="e_0_energy">   -173.89389236 </i>
   </energy>
  </scstep>
  <scstep>
   <time name="diag">   64.30   64.31</time>
   <time name="diis">  171.73  171.73</time>
   <time name="orth">   12.79   12.79</time>
   <time name="total">  286.40  286.41</time>
   <energy>
    <i name="e_fr_energy">   -173.91775908 </i>
    <i name="e_wo_entrp">   -173.80537158 </i>
    <i name="e_0_energy">   -173.88966220 </i>
   </energy>
  </scstep>
  <scstep>
   <time name="diag">   64.43   64.43</time>
   <time name="diis">  172.04  172.04</time>
   <time name="orth">   12.69   12.69</time>
   <time name="total">  286.98  286.99</time>
   <energy>
    <i name="e_fr_energy">   -173.90976270 </i>
    <i name="e_wo_entrp">   -173.80735981 </i>
    <i name="e_0_energy">   -173.88416198 </i>
   </energy>
  </scstep>
  <scstep>
   <time name="diag">   64.31   64.31</time>
   <time name="diis">  170.86  170.86</time>
   <time name="orth">   12.78   12.78</time>
   <time name="total">  285.75  285.75</time>
   <energy>
    <i name="e_fr_energy">   -173.90477511 </i>
    <i name="e_wo_entrp">   -173.80178873 </i>
    <i name="e_0_energy">   -173.87902852 </i>
   </energy>
  </scstep>
  <scstep>
   <time name="diag">   63.99   63.99</time>
   <time name="diis">  170.08  170.08</time>
   <time name="orth">   12.69   12.69</time>
   <time name="total">  284.76  284.76</time>
   <energy>
    <i name="e_fr_energy">   -173.90715767 </i>
    <i name="e_wo_entrp">   -173.80220136 </i>
    <i name="e_0_energy">   -173.88091859 </i>
   </energy>
  </scstep>
  <scstep>
   <time name="diag">   64.31   64.31</time>
   <time name="diis">  169.25  169.25</time>
   <time name="orth">   12.58   12.58</time>
   <time name="total">  284.20  284.20</time>
   <energy>
    <i name="e_fr_energy">   -173.90659277 </i>
    <i name="e_wo_entrp">   -173.80070891 </i>
    <i name="e_0_energy">   -173.88012181 </i>
   </energy>
  </scstep>
  <scstep>
   <time name="diag">   64.30   64.30</time>
   <time name="diis">  167.74  167.75</time>
   <time name="orth">   12.43   12.43</time>
   <time name="total">  282.40  282.41</time>
   <energy>
    <i name="e_fr_energy">   -173.90633626 </i>
    <i name="e_wo_entrp">   -173.79968591 </i>
    <i name="e_0_energy">   -173.87967368 </i>
   </energy>
  </scstep>
  <scstep>
   <time name="diag">   64.17   64.17</time>
   <time name="diis">  168.44  168.44</time>
   <time name="orth">   12.41   12.41</time>
   <time name="total">  283.37  283.38</time>
   <energy>
    <i name="e_fr_energy">   -173.90924510 </i>
    <i name="e_wo_entrp">   -173.80448033 </i>
    <i name="e_0_energy">   -173.88305391 </i>
   </energy>
  </scstep>
  <scstep>
   <time name="diag">   64.57   64.57</time>
   <time name="diis">  167.18  167.18</time>
   <time name="orth">   12.75   12.75</time>
   <time name="total">  283.32  283.32</time>
   <energy>
    <i name="e_fr_energy">   -173.91009530 </i>
    <i name="e_wo_entrp">   -173.80687677 </i>
    <i name="e_0_energy">   -173.88429067 </i>
   </energy>
  </scstep>
  <scstep>
   <time name="diag">   63.90   63.90</time>
   <time name="diis">  165.37  165.37</time>
   <time name="orth">   12.81   12.81</time>
   <time name="total">  281.14  281.15</time>
   <energy>
    <i name="e_fr_energy">   -173.91121644 </i>
    <i name="e_wo_entrp">   -173.80691191 </i>
    <i name="e_0_energy">   -173.88514031 </i>
   </energy>
  </scstep>
  <scstep>
   <time name="diag">   64.00   64.00</time>
   <time name="diis">  159.59  159.59</time>
   <time name="orth">   12.61   12.61</time>
   <time name="total">  274.53  274.53</time>
   <energy>
    <i name="e_fr_energy">   -173.91450749 </i>
    <i name="e_wo_entrp">   -173.81080250 </i>
    <i name="e_0_energy">   -173.88858124 </i>
   </energy>
  </scstep>
  <scstep>
   <time name="diag">   63.48   63.48</time>
   <time name="diis">  121.83  121.83</time>
   <time name="orth">   12.47   12.47</time>
   <time name="total">  236.11  236.11</time>
   <energy>
    <i name="e_fr_energy">   -173.91586458 </i>
    <i name="e_wo_entrp">   -173.80969115 </i>
    <i name="e_0_energy">   -173.88932122 </i>
   </energy>
  </scstep>
  <scstep>
   <time name="diag">   63.20   63.20</time>
   <time name="diis">  108.97  108.97</time>
   <time name="orth">   12.79   12.79</time>
   <time name="total">  223.73  223.72</time>
   <energy>
    <i name="e_fr_energy">   -173.91752112 </i>
    <i name="e_wo_entrp">   -173.81081660 </i>
    <i name="e_0_energy">   -173.89084499 </i>
   </energy>
  </scstep>
  <scstep>
   <time name="diag">   63.08   63.08</time>
   <time name="diis">  107.89  107.89</time>
   <time name="orth">   12.79   12.79</time>
   <time name="total">  222.31  222.31</time>
   <energy>
    <i name="e_fr_energy">   -173.91929906 </i>
    <i name="e_wo_entrp">   -173.81302909 </i>
    <i name="e_0_energy">   -173.89273157 </i>
   </energy>
  </scstep>
  <scstep>
   <time name="diag">   63.36   63.36</time>
   <time name="diis">  108.70  108.70</time>
   <time name="orth">   12.63   12.63</time>
   <time name="total">  223.71  223.71</time>
   <energy>
    <i name="e_fr_energy">   -173.92014812 </i>
    <i name="e_wo_entrp">   -173.81390586 </i>
    <i name="e_0_energy">   -173.89358756 </i>
   </energy>
  </scstep>
  <scstep>
   <time name="diag">   63.39   63.39</time>
   <time name="diis">  109.96  109.96</time>
   <time name="orth">   12.91   12.91</time>
   <time name="total">  225.92  225.93</time>
   <energy>
    <i name="e_fr_energy">   -173.92293487 </i>
    <i name="e_wo_entrp">   -173.81754538 </i>
    <i name="e_0_energy">   -173.89658749 </i>
   </energy>
  </scstep>
  <scstep>
   <time name="diag">   63.44   63.44</time>
   <time name="diis">  108.65  108.65</time>
   <time name="orth">   12.77   12.77</time>
   <time name="total">  224.22  224.22</time>
   <energy>
    <i name="e_fr_energy">   -173.92403909 </i>
    <i name="e_wo_entrp">   -173.81833223 </i>
    <i name="e_0_energy">   -173.89761237 </i>
   </energy>
  </scstep>
  <scstep>
   <time name="diag">   63.72   63.72</time>
   <time name="diis">  113.31  113.31</time>
   <time name="orth">   12.51   12.51</time>
   <time name="total">  228.39  228.39</time>
   <energy>
    <i name="e_fr_energy">   -173.92669895 </i>
    <i name="e_wo_entrp">   -173.82096702 </i>
    <i name="e_0_energy">   -173.90026597 </i>
   </energy>
  </scstep>
  <scstep>
   <time name="diag">   63.88   63.88</time>
   <time name="diis">  107.85  107.85</time>
   <time name="orth">   12.64   12.63</time>
   <time name="total">  224.09  224.09</time>
   <energy>
    <i name="e_fr_energy">   -173.92770611 </i>
    <i name="e_wo_entrp">   -173.82181116 </i>
    <i name="e_0_energy">   -173.90123237 </i>
   </energy>
  </scstep>
  <scstep>
   <time name="diag">   63.87   63.87</time>
   <time name="diis">  108.20  108.20</time>
   <time name="orth">   12.62   12.62</time>
   <time name="total">  224.63  224.64</time>
   <energy>
    <i name="e_fr_energy">   -173.92908949 </i>
    <i name="e_wo_entrp">   -173.82305449 </i>
    <i name="e_0_energy">   -173.90258074 </i>
   </energy>
  </scstep>
  <scstep>
   <time name="diag">   63.82   63.82</time>
   <time name="diis">  106.45  106.45</time>
   <time name="orth">   12.75   12.75</time>
   <time name="total">  223.00  223.00</time>
   <energy>
    <i name="e_fr_energy">   -173.92989326 </i>
    <i name="e_wo_entrp">   -173.82427320 </i>
    <i name="e_0_energy">   -173.90348825 </i>
   </energy>
  </scstep>
  <scstep>
   <time name="diag">   63.56   63.56</time>
   <time name="diis">  107.73  107.74</time>
   <time name="orth">   12.85   12.85</time>
   <time name="total">  224.25  224.26</time>
   <energy>
    <i name="e_fr_energy">   -173.93027026 </i>
    <i name="e_wo_entrp">   -173.82493222 </i>
    <i name="e_0_energy">   -173.90393575 </i>
   </energy>
  </scstep>
  <scstep>
   <time name="diag">   63.59   63.60</time>
   <time name="diis">  106.62  106.62</time>
   <time name="orth">   12.90   12.90</time>
   <time name="total">  223.08  223.08</time>
   <energy>
    <i name="e_fr_energy">   -173.93083908 </i>
    <i name="e_wo_entrp">   -173.82516512 </i>
    <i name="e_0_energy">   -173.90442059 </i>
   </energy>
  </scstep>
  <scstep>
   <time name="diag">   63.17   63.17</time>
   <time name="diis">   93.67   93.67</time>
   <time name="orth">   12.74   12.74</time>
   <time name="total">  209.94  209.94</time>
   <energy>
    <i name="e_fr_energy">   -173.93104114 </i>
    <i name="e_wo_entrp">   -173.82542960 </i>
    <i name="e_0_energy">   -173.90463826 </i>
   </energy>
  </scstep>
  <scstep>
   <time name="diag">   63.46   63.46</time>
   <time name="diis">   93.18   93.18</time>
   <time name="orth">   12.43   12.43</time>
   <time name="total">  209.08  209.08</time>
   <energy>
    <i name="e_fr_energy">   -173.93148058 </i>
    <i name="e_wo_entrp">   -173.82586838 </i>
    <i name="e_0_energy">   -173.90507753 </i>
   </energy>
  </scstep>
  <scstep>
   <time name="diag">   63.41   63.41</time>
   <time name="diis">   79.59   79.59</time>
   <time name="orth">   12.57   12.57</time>
   <time name="total">  195.58  195.58</time>
   <energy>
    <i name="e_fr_energy">   -173.93174095 </i>
    <i name="e_wo_entrp">   -173.82610924 </i>
    <i name="e_0_energy">   -173.90533302 </i>
   </energy>
  </scstep>
  <scstep>
   <time name="diag">   63.87   63.87</time>
   <time name="diis">   81.36   81.37</time>
   <time name="orth">   12.80   12.80</time>
   <time name="total">  197.76  197.77</time>
   <energy>
    <i name="e_fr_energy">   -173.93200231 </i>
    <i name="e_wo_entrp">   -173.82650170 </i>
    <i name="e_0_energy">   -173.90562716 </i>
   </energy>
  </scstep>
  <scstep>
   <time name="diag">   63.80   63.80</time>
   <time name="diis">   79.19   79.19</time>
   <time name="orth">   12.74   12.74</time>
   <time name="total">  195.38  195.38</time>
   <energy>
    <i name="e_fr_energy">   -173.93225350 </i>
    <i name="e_wo_entrp">   -173.82653832 </i>
    <i name="e_0_energy">   -173.90582470 </i>
   </energy>
  </scstep>
  <scstep>
   <time name="diag">   63.54   63.54</time>
   <time name="diis">   77.10   77.10</time>
   <time name="orth">   12.62   12.62</time>
   <time name="total">  193.27  193.27</time>
   <energy>
    <i name="e_fr_energy">   -173.93246310 </i>
    <i name="e_wo_entrp">   -173.82680279 </i>
    <i name="e_0_energy">   -173.90604802 </i>
   </energy>
  </scstep>
  <scstep>
   <time name="diag">   63.59   63.59</time>
   <time name="diis">   81.45   81.45</time>
   <time name="orth">   12.87   12.88</time>
   <time name="total">  198.22  198.22</time>
   <energy>
    <i name="e_fr_energy">   -173.93271576 </i>
    <i name="e_wo_entrp">   -173.82708086 </i>
    <i name="e_0_energy">   -173.90630704 </i>
   </energy>
  </scstep>
  <scstep>
   <time name="diag">   63.72   63.72</time>
   <time name="diis">   72.80   72.80</time>
   <time name="orth">   12.72   12.72</time>
   <time name="total">  189.26  189.26</time>
   <energy>
    <i name="e_fr_energy">   -173.93282201 </i>
    <i name="e_wo_entrp">   -173.82719033 </i>
    <i name="e_0_energy">   -173.90641409 </i>
   </energy>
  </scstep>
  <scstep>
   <time name="diag">   63.58   63.58</time>
   <time name="diis">   77.82   77.82</time>
   <time name="orth">   12.60   12.60</time>
   <time name="total">  193.83  193.83</time>
   <energy>
    <i name="e_fr_energy">   -173.93299164 </i>
    <i name="e_wo_entrp">   -173.82740856 </i>
    <i name="e_0_energy">   -173.90659587 </i>
   </energy>
  </scstep>
  <scstep>
   <time name="diag">   62.97   62.97</time>
   <time name="diis">   71.46   71.46</time>
   <time name="orth">   12.71   12.71</time>
   <time name="total">  159.86  159.87</time>
   <energy>
    <i name="alphaZ">     75.25431677 </i>
    <i name="ewald"> 136969.51541637 </i>
    <i name="hartreedc">-181343.10595441 </i>
    <i name="XCdc">  -1693.37106564 </i>
    <i name="pawpsdc">  46038.78959351 </i>
    <i name="pawaedc"> -42508.31101237 </i>
    <i name="eentropy">     -0.10562996 </i>
    <i name="bandstr">  -2799.10421038 </i>
    <i name="atom">  45086.50549395 </i>
    <i name="e_fr_energy">   -173.93305215 </i>
    <i name="e_wo_entrp">   -173.82742219 </i>
    <i name="e_0_energy">   -173.90664466 </i>
   </energy>
  </scstep>
  <structure>
   <crystal>
    <varray name="basis" >
     <v>      30.00000000       0.00000000       0.00000000 </v>
     <v>       0.00000000      30.00000000       0.00000000 </v>
     <v>       0.00000000       0.00000000      30.00000000 </v>
    </varray>
    <i name="volume">  27000.00000000 </i>
    <varray name="rec_basis" >
     <v>       0.03333333       0.00000000       0.00000000 </v>
     <v>       0.00000000       0.03333333       0.00000000 </v>
     <v>       0.00000000       0.00000000       0.03333333 </v>
    </varray>
   </crystal>
   <varray name="positions" >
    <v>       0.44576020       0.32826710       0.41691983 </v>
    <v>       0.67173288       0.55423978       0.41691983 </v>
    <v>       0.55423980       0.32826710       0.41691983 </v>
    <v>       0.32826712       0.55423978       0.41691983 </v>
    <v>       0.50000000       0.38250690       0.34021317 </v>
    <v>       0.50000000       0.38250690       0.65978680 </v>
    <v>       0.50000000       0.27609440       0.50000000 </v>
    <v>       0.27609443       0.49999998       0.50000000 </v>
    <v>       0.72390557       0.49999998       0.50000000 </v>
    <v>       0.50000000       0.72390555       0.50000000 </v>
    <v>       0.61195280       0.38804720       0.34167483 </v>
    <v>       0.61195280       0.38804720       0.65832513 </v>
    <v>       0.38804722       0.61195278       0.34167483 </v>
    <v>       0.38804722       0.61195278       0.65832513 </v>
    <v>       0.38804720       0.38804720       0.34167483 </v>
    <v>       0.38804720       0.38804720       0.65832513 </v>
    <v>       0.61195278       0.61195278       0.34167483 </v>
    <v>       0.61195278       0.61195278       0.65832513 </v>
    <v>       0.44576020       0.32826710       0.58308023 </v>
    <v>       0.67173288       0.55423978       0.58308023 </v>
    <v>       0.55791699       0.44208301       0.41809300 </v>
    <v>       0.32826705       0.44576024       0.41691983 </v>
    <v>       0.55423973       0.67173293       0.41691983 </v>
    <v>       0.55423980       0.32826710       0.58308023 </v>
    <v>       0.32826712       0.55423978       0.58308023 </v>
    <v>       0.67173295       0.44576024       0.41691983 </v>
    <v>       0.44576027       0.67173293       0.41691983 </v>
    <v>       0.44208301       0.44208301       0.41809300 </v>
    <v>       0.50000000       0.38416601       0.50000000 </v>
    <v>       0.61749315       0.50000005       0.34021317 </v>
    <v>       0.61749315       0.50000005       0.65978680 </v>
    <v>       0.38250685       0.50000005       0.34021317 </v>
    <v>       0.38250685       0.50000005       0.65978680 </v>
    <v>       0.38317830       0.38317830       0.50000000 </v>
    <v>       0.61682172       0.61682172       0.50000000 </v>
    <v>       0.61682170       0.38317830       0.50000000 </v>
    <v>       0.38317828       0.61682172       0.50000000 </v>
    <v>       0.50000000       0.50000000       0.33478917 </v>
    <v>       0.50000000       0.50000000       0.66521087 </v>
    <v>       0.32826705       0.44576024       0.58308023 </v>
    <v>       0.55423973       0.67173293       0.58308023 </v>
    <v>       0.55791699       0.44208301       0.58190703 </v>
    <v>       0.44208298       0.55791702       0.41809300 </v>
    <v>       0.44208301       0.44208301       0.58190703 </v>
    <v>       0.67173295       0.44576024       0.58308023 </v>
    <v>       0.44576027       0.67173293       0.58308023 </v>
    <v>       0.55791702       0.55791702       0.41809300 </v>
    <v>       0.38416599       0.50000002       0.50000000 </v>
    <v>       0.61583401       0.50000002       0.50000000 </v>
    <v>       0.50000000       0.61749319       0.34021317 </v>
    <v>       0.50000000       0.61749319       0.65978680 </v>
    <v>       0.50000000       0.50000000       0.50000000 </v>
    <v>       0.44208298       0.55791702       0.58190703 </v>
    <v>       0.55791702       0.55791702       0.58190703 </v>
    <v>       0.50000000       0.61583404       0.50000000 </v>
    <v>       0.20327117       0.52983670       0.45903433 </v>
    <v>       0.16620783       0.53356347       0.45391747 </v>
   </varray>
  </structure>
  <varray name="forces" >
   <v>       0.70365239       1.10852725       0.29266947 </v>
   <v>      -1.11001363      -0.70132502       0.29242341 </v>
   <v>      -0.70239579       1.10819423       0.29247359 </v>
   <v>       1.14030438      -0.68498390       0.24096176 </v>
   <v>       0.00294035       0.41431446       1.28140340 </v>
   <v>       0.00006324       0.41278065      -1.28431232 </v>
   <v>      -0.00019583       1.51677939      -0.00029426 </v>
   <v>       0.59330831       0.36953095      -0.45860434 </v>
   <v>      -1.51861908       0.00042331       0.00145732 </v>
   <v>      -0.00060222      -1.51636790       0.00030307 </v>
   <v>      -0.75648214       0.75690478       1.07256745 </v>
   <v>      -0.75772372       0.75629230      -1.07257997 </v>
   <v>       0.75183289      -0.75760648       1.07563061 </v>
   <v>       0.75856474      -0.75338755      -1.06837838 </v>
   <v>       0.74785781       0.75591593       1.07809911 </v>
   <v>       0.76533102       0.74747365      -1.06504711 </v>
   <v>      -0.75614873      -0.75694270       1.07320160 </v>
   <v>      -0.75719045      -0.75578256      -1.07247648 </v>
   <v>       0.70469802       1.10885394      -0.29086804 </v>
   <v>      -1.10823973      -0.70420088      -0.29281414 </v>
   <v>       0.11523780      -0.11319790      -0.15908361 </v>
   <v>       1.13889207       0.68527914       0.25160532 </v>
   <v>      -0.70203618      -1.10867582       0.29314133 </v>
   <v>      -0.70413428       1.10818076      -0.29065391 </v>
   <v>       1.13398888      -0.70863508      -0.26320476 </v>
   <v>      -1.11017390       0.70148241       0.29146316 </v>
   <v>       0.70293531      -1.10890316       0.29292633 </v>
   <v>      -0.11352499      -0.11234224      -0.15290569 </v>
   <v>      -0.00083668      -0.22841823       0.00060287 </v>
   <v>      -0.41265203      -0.00047505       1.27871568 </v>
   <v>      -0.41413504      -0.00007861      -1.27939419 </v>
   <v>       0.41873365       0.00287438       1.28203102 </v>
   <v>       0.40413820       0.00709296      -1.28723760 </v>
   <v>       0.83053757       0.83078738       0.00062081 </v>
   <v>      -0.82993010      -0.82887136       0.00029781 </v>
   <v>      -0.82975516       0.82902161      -0.00004680 </v>
   <v>       0.83550182      -0.82665195       0.00319320 </v>
   <v>      -0.00384814       0.00097563       1.18070590 </v>
   <v>       0.00440839       0.00093114      -1.17904475 </v>
   <v>       1.10854953       0.71778808      -0.30691349 </v>
   <v>      -0.70310151      -1.10843593      -0.29141350 </v>
   <v>       0.11289399      -0.11356181       0.15936426 </v>
   <v>      -0.11771386       0.11135415      -0.15464356 </v>
   <v>      -0.12019198      -0.11040516       0.15074728 </v>
   <v>      -1.10764269       0.70455004      -0.29248516 </v>
   <v>       0.70405083      -1.10907327      -0.29165387 </v>
   <v>       0.11516095       0.11371567      -0.15945881 </v>
   <v>      -0.20131669      -0.01509888       0.03133788 </v>
   <v>       0.22944007      -0.00081143       0.00213017 </v>
   <v>      -0.00015340      -0.41645224       1.28250527 </v>
   <v>       0.00169696      -0.41337434      -1.28418185 </v>
   <v>       0.02393987       0.00066739      -0.00123374 </v>
   <v>      -0.11462677       0.11054166       0.15454480 </v>
   <v>       0.11428201       0.11435569       0.15869821 </v>
   <v>      -0.00084810       0.22844504       0.00021807 </v>
   <v>       3.50390057      -0.68482698       0.91134905 </v>
   <v>      -2.71260880       0.31485247      -0.42845889 </v>
  </varray>
  <varray name="stress" >
   <v>      -6.66312641       0.02688883      -0.03492611 </v>
   <v>       0.02688885      -6.77610485       0.02647498 </v>
   <v>      -0.03492608       0.02647498      -6.78598034 </v>
  </varray>
  <energy>
   <i name="e_fr_energy">   -173.93305215 </i>
   <i name="e_wo_entrp">   -173.90664466 </i>
   <i name="e_0_energy">     -0.10562996 </i>
  </energy>
  <time name="totalsc">17269.5017270.05</time>
  <eigenvalues>
   <array>
    <dimension dim="1">band</dimension>
    <dimension dim="2">kpoint</dimension>
    <dimension dim="3">spin</dimension>
    <field>eigene</field>
    <field>occ</field>
    <set>
     <set comment="spin 1">
      <set comment="kpoint 1">
       <r>  -29.2768    1.0000 </r>
       <r>  -13.7957    1.0000 </r>
       <r>  -11.5870    1.0000 </r>
       <r>  -11.5792    1.0000 </r>
       <r>   -9.3864    1.0000 </r>
       <r>   -6.6239    1.0000 </r>
       <r>   -6.1051    1.0000 </r>
       <r>   -6.1049    1.0000 </r>
       <r>   -6.0983    1.0000 </r>
       <r>   -5.7903    1.0000 </r>
       <r>   -5.7896    1.0000 </r>
       <r>   -5.7853    1.0000 </r>
       <r>   -5.7225    1.0000 </r>
       <r>   -5.6739    1.0000 </r>
       <r>   -5.6661    1.0000 </r>
       <r>   -5.6628    1.0000 </r>
       <r>   -5.6612    1.0000 </r>
       <r>   -5.6010    1.0000 </r>
       <r>   -5.5984    1.0000 </r>
       <r>   -5.5876    1.0000 </r>
       <r>   -5.5774    1.0000 </r>
       <r>   -5.5740    1.0000 </r>
       <r>   -5.5714    1.0000 </r>
       <r>   -5.5286    1.0000 </r>
       <r>   -5.5261    1.0000 </r>
       <r>   -5.5244    1.0000 </r>
       <r>   -5.5234    1.0000 </r>
       <r>   -5.4990    1.0000 </r>
       <r>   -5.4984    1.0000 </r>
       <r>   -5.4963    1.0000 </r>
       <r>   -5.4942    1.0000 </r>
       <r>   -5.4928    1.0000 </r>
       <r>   -5.4912    1.0000 </r>
       <r>   -5.4911    1.0000 </r>
       <r>   -5.4856    1.0000 </r>
       <r>   -5.4580    1.0000 </r>
       <r>   -5.4558    1.0000 </r>
       <r>   -5.4485    1.0000 </r>
       <r>   -5.4474    1.0000 </r>
       <r>   -5.4466    1.0000 </r>
       <r>   -5.4460    1.0000 </r>
       <r>   -5.4454    1.0000 </r>
       <r>   -5.4452    1.0000 </r>
       <r>   -5.4114    1.0000 </r>
       <r>   -5.4087    1.0000 </r>
       <r>   -5.4078    1.0000 </r>
       <r>   -5.4054    1.0000 </r>
       <r>   -5.4052    1.0000 </r>
       <r>   -5.4003    1.0000 </r>
       <r>   -5.3989    1.0000 </r>
       <r>   -5.3986    1.0000 </r>
       <r>   -5.3832    1.0000 </r>
       <r>   -5.3827    1.0000 </r>
       <r>   -5.3822    1.0000 </r>
       <r>   -5.3671    1.0000 </r>
       <r>   -5.3141    1.0000 </r>
       <r>   -5.3058    1.0000 </r>
       <r>   -5.3053    1.0000 </r>
       <r>   -5.3042    1.0000 </r>
       <r>   -5.2965    1.0000 </r>
       <r>   -5.2958    1.0000 </r>
       <r>   -5.2943    1.0000 </r>
       <r>   -5.2786    1.0000 </r>
       <r>   -5.2784    1.0000 </r>
       <r>   -5.2778    1.0000 </r>
       <r>   -5.2661    1.0000 </r>
       <r>   -5.2648    1.0000 </r>
       <r>   -5.1953    1.0000 </r>
       <r>   -5.1825    1.0000 </r>
       <r>   -5.1820    1.0000 </r>
       <r>   -5.1813    1.0000 </r>
       <r>   -5.1674    1.0000 </r>
       <r>   -5.1632    1.0000 </r>
       <r>   -5.1587    1.0000 </r>
       <r>   -5.1571    1.0000 </r>
       <r>   -5.1554    1.0000 </r>
       <r>   -5.1403    1.0000 </r>
       <r>   -5.1395    1.0000 </r>
       <r>   -5.1393    1.0000 </r>
       <r>   -5.1263    1.0000 </r>
       <r>   -5.1102    1.0000 </r>
       <r>   -5.1020    1.0000 </r>
       <r>   -5.1008    1.0000 </r>
       <r>   -5.0900    1.0000 </r>
       <r>   -5.0850    1.0000 </r>
       <r>   -5.0822    1.0000 </r>
       <r>   -5.0804    1.0000 </r>
       <r>   -5.0540    1.0000 </r>
       <r>   -5.0419    1.0000 </r>
       <r>   -5.0364    1.0000 </r>
       <r>   -5.0330    1.0000 </r>
       <r>   -5.0318    1.0000 </r>
       <r>   -5.0289    1.0000 </r>
       <r>   -5.0277    1.0000 </r>
       <r>   -5.0263    1.0000 </r>
       <r>   -5.0080    1.0000 </r>
       <r>   -5.0072    1.0000 </r>
       <r>   -5.0066    1.0000 </r>
       <r>   -4.9963    1.0000 </r>
       <r>   -4.9944    1.0000 </r>
       <r>   -4.9886    1.0000 </r>
       <r>   -4.9842    1.0000 </r>
       <r>   -4.9821    1.0000 </r>
       <r>   -4.9702    1.0000 </r>
       <r>   -4.9686    1.0000 </r>
       <r>   -4.9679    1.0000 </r>
       <r>   -4.9611    1.0000 </r>
       <r>   -4.9596    1.0000 </r>
       <r>   -4.9570    1.0000 </r>
       <r>   -4.9461    1.0000 </r>
       <r>   -4.9459    1.0000 </r>
       <r>   -4.9370    1.0000 </r>
       <r>   -4.9341    1.0000 </r>
       <r>   -4.9309    1.0000 </r>
       <r>   -4.9302    1.0000 </r>
       <r>   -4.9288    1.0000 </r>
       <r>   -4.9147    1.0000 </r>
       <r>   -4.9030    1.0000 </r>
       <r>   -4.8952    1.0000 </r>
       <r>   -4.8944    1.0000 </r>
       <r>   -4.8834    1.0000 </r>
       <r>   -4.8807    1.0000 </r>
       <r>   -4.8791    1.0000 </r>
       <r>   -4.8780    1.0000 </r>
       <r>   -4.8773    1.0000 </r>
       <r>   -4.8772    1.0000 </r>
       <r>   -4.8283    1.0000 </r>
       <r>   -4.8218    1.0000 </r>
       <r>   -4.8207    1.0000 </r>
       <r>   -4.8187    1.0000 </r>
       <r>   -4.8183    1.0000 </r>
       <r>   -4.8171    1.0000 </r>
       <r>   -4.8104    1.0000 </r>
       <r>   -4.8082    1.0000 </r>
       <r>   -4.8050    1.0000 </r>
       <r>   -4.7718    0.9999 </r>
       <r>   -4.7703    0.9999 </r>
       <r>   -4.7696    0.9999 </r>
       <r>   -4.7687    0.9999 </r>
       <r>   -4.7459    0.9998 </r>
       <r>   -4.7431    0.9998 </r>
       <r>   -4.7420    0.9998 </r>
       <r>   -4.7268    0.9997 </r>
       <r>   -4.7200    0.9997 </r>
       <r>   -4.7171    0.9996 </r>
       <r>   -4.7037    0.9995 </r>
       <r>   -4.7009    0.9995 </r>
       <r>   -4.6956    0.9994 </r>
       <r>   -4.6771    0.9992 </r>
       <r>   -4.6664    0.9990 </r>
       <r>   -4.6640    0.9989 </r>
       <r>   -4.6627    0.9989 </r>
       <r>   -4.6606    0.9988 </r>
       <r>   -4.6598    0.9988 </r>
       <r>   -4.6569    0.9988 </r>
       <r>   -4.6522    0.9986 </r>
       <r>   -4.6500    0.9986 </r>
       <r>   -4.6475    0.9985 </r>
       <r>   -4.6420    0.9984 </r>
       <r>   -4.6340    0.9982 </r>
       <r>   -4.6299    0.9980 </r>
       <r>   -4.6270    0.9980 </r>
       <r>   -4.6248    0.9979 </r>
       <r>   -4.6241    0.9979 </r>
       <r>   -4.6239    0.9979 </r>
       <r>   -4.6235    0.9978 </r>
       <r>   -4.6228    0.9978 </r>
       <r>   -4.6210    0.9978 </r>
       <r>   -4.6149    0.9976 </r>
       <r>   -4.6072    0.9973 </r>
       <r>   -4.5941    0.9968 </r>
       <r>   -4.5826    0.9964 </r>
       <r>   -4.5773    0.9962 </r>
       <r>   -4.5734    0.9960 </r>
       <r>   -4.5732    0.9960 </r>
       <r>   -4.5724    0.9960 </r>
       <r>   -4.5710    0.9960 </r>
       <r>   -4.5690    0.9959 </r>
       <r>   -4.5525    0.9954 </r>
       <r>   -4.5522    0.9954 </r>
       <r>   -4.5521    0.9954 </r>
       <r>   -4.5408    0.9951 </r>
       <r>   -4.5371    0.9951 </r>
       <r>   -4.5335    0.9951 </r>
       <r>   -4.5300    0.9951 </r>
       <r>   -4.5294    0.9951 </r>
       <r>   -4.5283    0.9951 </r>
       <r>   -4.5253    0.9951 </r>
       <r>   -4.5252    0.9951 </r>
       <r>   -4.5249    0.9951 </r>
       <r>   -4.4854    0.9972 </r>
       <r>   -4.4825    0.9975 </r>
       <r>   -4.4817    0.9976 </r>
       <r>   -4.4811    0.9977 </r>
       <r>   -4.4806    0.9978 </r>
       <r>   -4.4728    0.9989 </r>
       <r>   -4.4662    1.0000 </r>
       <r>   -4.4614    1.0009 </r>
       <r>   -4.4589    1.0014 </r>
       <r>   -4.4458    1.0046 </r>
       <r>   -4.4450    1.0048 </r>
       <r>   -4.4379    1.0069 </r>
       <r>   -4.4367    1.0073 </r>
       <r>   -4.4346    1.0080 </r>
       <r>   -4.4309    1.0092 </r>
       <r>   -4.4252    1.0112 </r>
       <r>   -4.4242    1.0116 </r>
       <r>   -4.4189    1.0136 </r>
       <r>   -4.4177    1.0141 </r>
       <r>   -4.4172    1.0143 </r>
       <r>   -4.4024    1.0206 </r>
       <r>   -4.3993    1.0220 </r>
       <r>   -4.3938    1.0245 </r>
       <r>   -4.3870    1.0277 </r>
       <r>   -4.3862    1.0281 </r>
       <r>   -4.3860    1.0282 </r>
       <r>   -4.3809    1.0307 </r>
       <r>   -4.3786    1.0318 </r>
       <r>   -4.3771    1.0325 </r>
       <r>   -4.3457    1.0461 </r>
       <r>   -4.3450    1.0464 </r>
       <r>   -4.3437    1.0468 </r>
       <r>   -4.3252    1.0512 </r>
       <r>   -4.3192    1.0516 </r>
       <r>   -4.3172    1.0516 </r>
       <r>   -4.3145    1.0515 </r>
       <r>   -4.3143    1.0515 </r>
       <r>   -4.3117    1.0513 </r>
       <r>   -4.3113    1.0513 </r>
       <r>   -4.3103    1.0511 </r>
       <r>   -4.3084    1.0508 </r>
       <r>   -4.3036    1.0498 </r>
       <r>   -4.3025    1.0494 </r>
       <r>   -4.3020    1.0493 </r>
       <r>   -4.2985    1.0481 </r>
       <r>   -4.2977    1.0477 </r>
       <r>   -4.2973    1.0476 </r>
       <r>   -4.2943    1.0462 </r>
       <r>   -4.2942    1.0462 </r>
       <r>   -4.2926    1.0453 </r>
       <r>   -4.2779    1.0345 </r>
       <r>   -4.2775    1.0341 </r>
       <r>   -4.2638    1.0180 </r>
       <r>   -4.2614    1.0144 </r>
       <r>   -4.2609    1.0137 </r>
       <r>   -4.2603    1.0128 </r>
       <r>   -4.2599    1.0122 </r>
       <r>   -4.2597    1.0119 </r>
       <r>   -4.2546    1.0035 </r>
       <r>   -4.2414    0.9774 </r>
       <r>   -4.2407    0.9760 </r>
       <r>   -4.2361    0.9651 </r>
       <r>   -4.2303    0.9506 </r>
       <r>   -4.2301    0.9499 </r>
       <r>   -4.2259    0.9384 </r>
       <r>   -4.2247    0.9350 </r>
       <r>   -4.2245    0.9344 </r>
       <r>   -4.2216    0.9260 </r>
       <r>   -4.2203    0.9222 </r>
       <r>   -4.2197    0.9201 </r>
       <r>   -4.2164    0.9099 </r>
       <r>   -4.2152    0.9062 </r>
       <r>   -4.2144    0.9035 </r>
       <r>   -4.2136    0.9010 </r>
       <r>   -4.2123    0.8964 </r>
       <r>   -4.2095    0.8870 </r>
       <r>   -4.1983    0.8461 </r>
       <r>   -4.1951    0.8337 </r>
       <r>   -4.1941    0.8297 </r>
       <r>   -4.1939    0.8291 </r>
       <r>   -4.1921    0.8218 </r>
       <r>   -4.1908    0.8163 </r>
       <r>   -4.1714    0.7309 </r>
       <r>   -4.1699    0.7237 </r>
       <r>   -4.1624    0.6879 </r>
       <r>   -4.1557    0.6547 </r>
       <r>   -4.1541    0.6465 </r>
       <r>   -4.1534    0.6428 </r>
       <r>   -4.1473    0.6115 </r>
       <r>   -4.1469    0.6097 </r>
       <r>   -4.1467    0.6085 </r>
       <r>   -4.1323    0.5332 </r>
       <r>   -4.1050    0.3899 </r>
       <r>   -4.1038    0.3837 </r>
       <r>   -4.1028    0.3785 </r>
       <r>   -4.1024    0.3767 </r>
       <r>   -4.0929    0.3288 </r>
       <r>   -4.0880    0.3048 </r>
       <r>   -4.0859    0.2946 </r>
       <r>   -3.9475   -0.0500 </r>
       <r>   -3.8729   -0.0316 </r>
       <r>   -3.7919   -0.0012 </r>
       <r>   -3.7917   -0.0011 </r>
       <r>   -3.7506    0.0042 </r>
       <r>   -3.4682    0.0001 </r>
       <r>   -3.4659    0.0001 </r>
       <r>   -3.4516    0.0000 </r>
       <r>   -3.0331    0.0000 </r>
       <r>   -3.0323    0.0000 </r>
       <r>   -3.0164    0.0000 </r>
       <r>   -3.0002    0.0000 </r>
       <r>   -2.9876    0.0000 </r>
       <r>   -2.9572    0.0000 </r>
       <r>   -2.9079    0.0000 </r>
       <r>   -2.8524    0.0000 </r>
       <r>   -2.5100    0.0000 </r>
       <r>   -2.4978    0.0000 </r>
       <r>   -2.4935    0.0000 </r>
       <r>   -2.3210    0.0000 </r>
       <r>   -2.1676    0.0000 </r>
       <r>   -2.0931    0.0000 </r>
       <r>   -2.0745    0.0000 </r>
       <r>   -2.0062    0.0000 </r>
       <r>   -1.9608    0.0000 </r>
       <r>   -1.9035    0.0000 </r>
       <r>   -1.8543    0.0000 </r>
       <r>   -1.8520    0.0000 </r>
       <r>   -1.8129    0.0000 </r>
       <r>   -1.7039    0.0000 </r>
       <r>   -1.6774    0.0000 </r>
       <r>   -1.6161    0.0000 </r>
       <r>   -1.5892    0.0000 </r>
       <r>   -1.5354    0.0000 </r>
       <r>   -1.4840    0.0000 </r>
       <r>   -1.4009    0.0000 </r>
       <r>   -1.2139    0.0000 </r>
       <r>   -1.2102    0.0000 </r>
       <r>   -1.1882    0.0000 </r>
       <r>   -0.9632    0.0000 </r>
       <r>   -0.9544    0.0000 </r>
       <r>   -0.9193    0.0000 </r>
       <r>   -0.9089    0.0000 </r>
       <r>   -0.8840    0.0000 </r>
       <r>   -0.8431    0.0000 </r>
       <r>   -0.7770    0.0000 </r>
       <r>   -0.5300    0.0000 </r>
      </set>
     </set>
    </set>
   </array>
  </eigenvalues>
  <separator name="orbital magnetization" >
   <v name="MAGDIPOLOUT">      0.00000000      0.00000000      0.00000000</v>
  </separator>
  <dos>
   <i name="efermi">     -4.12599170 </i>
   <total>
    <array>
     <dimension dim="1">gridpoints</dimension>
     <dimension dim="2">spin</dimension>
     <field>energy</field>
     <field>total</field>
     <field>integrated</field>
     <set>
      <set comment="spin 1">
       <r>   -31.2768     0.0000     0.0000 </r>
       <r>   -31.1676     0.0000     0.0000 </r>
       <r>   -31.0584     0.0000     0.0000 </r>
       <r>   -30.9493     0.0000     0.0000 </r>
       <r>   -30.8401     0.0000     0.0000 </r>
       <r>   -30.7310     0.0000     0.0000 </r>
       <r>   -30.6218     0.0000     0.0000 </r>
       <r>   -30.5127     0.0000     0.0000 </r>
       <r>   -30.4035     0.0000     0.0000 </r>
       <r>   -30.2944     0.0000     0.0000 </r>
       <r>   -30.1852     0.0000     0.0000 </r>
       <r>   -30.0760     0.0000     0.0000 </r>
       <r>   -29.9669     0.0005     0.0001 </r>
       <r>   -29.8577     0.0079     0.0009 </r>
       <r>   -29.7486     0.0476     0.0061 </r>
       <r>   -29.6394     0.0016     0.0063 </r>
       <r>   -29.5303    -0.6323    -0.0627 </r>
       <r>   -29.4211     0.0902    -0.0529 </r>
       <r>   -29.3120     6.3155     0.6365 </r>
       <r>   -29.2028     9.7889     1.7050 </r>
       <r>   -29.0936     3.6362     2.1019 </r>
       <r>   -28.9845    -0.6798     2.0277 </r>
       <r>   -28.8753    -0.3442     1.9901 </r>
       <r>   -28.7662     0.0581     1.9965 </r>
       <r>   -28.6570     0.0288     1.9996 </r>
       <r>   -28.5479     0.0033     2.0000 </r>
       <r>   -28.4387     0.0002     2.0000 </r>
       <r>   -28.3295     0.0000     2.0000 </r>
       <r>   -28.2204     0.0000     2.0000 </r>
       <r>   -28.1112     0.0000     2.0000 </r>
       <r>   -28.0021     0.0000     2.0000 </r>
       <r>   -27.8929     0.0000     2.0000 </r>
       <r>   -27.7838     0.0000     2.0000 </r>
       <r>   -27.6746     0.0000     2.0000 </r>
       <r>   -27.5655     0.0000     2.0000 </r>
       <r>   -27.4563     0.0000     2.0000 </r>
       <r>   -27.3471     0.0000     2.0000 </r>
       <r>   -27.2380     0.0000     2.0000 </r>
       <r>   -27.1288     0.0000     2.0000 </r>
       <r>   -27.0197     0.0000     2.0000 </r>
       <r>   -26.9105     0.0000     2.0000 </r>
       <r>   -26.8014     0.0000     2.0000 </r>
       <r>   -26.6922     0.0000     2.0000 </r>
       <r>   -26.5831     0.0000     2.0000 </r>
       <r>   -26.4739     0.0000     2.0000 </r>
       <r>   -26.3647     0.0000     2.0000 </r>
       <r>   -26.2556     0.0000     2.0000 </r>
       <r>   -26.1464     0.0000     2.0000 </r>
       <r>   -26.0373     0.0000     2.0000 </r>
       <r>   -25.9281     0.0000     2.0000 </r>
       <r>   -25.8190     0.0000     2.0000 </r>
       <r>   -25.7098     0.0000     2.0000 </r>
       <r>   -25.6007     0.0000     2.0000 </r>
       <r>   -25.4915     0.0000     2.0000 </r>
       <r>   -25.3823     0.0000     2.0000 </r>
       <r>   -25.2732     0.0000     2.0000 </r>
       <r>   -25.1640     0.0000     2.0000 </r>
       <r>   -25.0549     0.0000     2.0000 </r>
       <r>   -24.9457     0.0000     2.0000 </r>
       <r>   -24.8366     0.0000     2.0000 </r>
       <r>   -24.7274     0.0000     2.0000 </r>
       <r>   -24.6183     0.0000     2.0000 </r>
       <r>   -24.5091     0.0000     2.0000 </r>
       <r>   -24.3999     0.0000     2.0000 </r>
       <r>   -24.2908     0.0000     2.0000 </r>
       <r>   -24.1816     0.0000     2.0000 </r>
       <r>   -24.0725     0.0000     2.0000 </r>
       <r>   -23.9633     0.0000     2.0000 </r>
       <r>   -23.8542     0.0000     2.0000 </r>
       <r>   -23.7450     0.0000     2.0000 </r>
       <r>   -23.6359     0.0000     2.0000 </r>
       <r>   -23.5267     0.0000     2.0000 </r>
       <r>   -23.4175     0.0000     2.0000 </r>
       <r>   -23.3084     0.0000     2.0000 </r>
       <r>   -23.1992     0.0000     2.0000 </r>
       <r>   -23.0901     0.0000     2.0000 </r>
       <r>   -22.9809     0.0000     2.0000 </r>
       <r>   -22.8718     0.0000     2.0000 </r>
       <r>   -22.7626     0.0000     2.0000 </r>
       <r>   -22.6535     0.0000     2.0000 </r>
       <r>   -22.5443     0.0000     2.0000 </r>
       <r>   -22.4351     0.0000     2.0000 </r>
       <r>   -22.3260     0.0000     2.0000 </r>
       <r>   -22.2168     0.0000     2.0000 </r>
       <r>   -22.1077     0.0000     2.0000 </r>
       <r>   -21.9985     0.0000     2.0000 </r>
       <r>   -21.8894     0.0000     2.0000 </r>
       <r>   -21.7802     0.0000     2.0000 </r>
       <r>   -21.6711     0.0000     2.0000 </r>
       <r>   -21.5619     0.0000     2.0000 </r>
       <r>   -21.4527     0.0000     2.0000 </r>
       <r>   -21.3436     0.0000     2.0000 </r>
       <r>   -21.2344     0.0000     2.0000 </r>
       <r>   -21.1253     0.0000     2.0000 </r>
       <r>   -21.0161     0.0000     2.0000 </r>
       <r>   -20.9070     0.0000     2.0000 </r>
       <r>   -20.7978     0.0000     2.0000 </r>
       <r>   -20.6886     0.0000     2.0000 </r>
       <r>   -20.5795     0.0000     2.0000 </r>
       <r>   -20.4703     0.0000     2.0000 </r>
       <r>   -20.3612     0.0000     2.0000 </r>
       <r>   -20.2520     0.0000     2.0000 </r>
       <r>   -20.1429     0.0000     2.0000 </r>
       <r>   -20.0337     0.0000     2.0000 </r>
       <r>   -19.9246     0.0000     2.0000 </r>
       <r>   -19.8154     0.0000     2.0000 </r>
       <r>   -19.7062     0.0000     2.0000 </r>
       <r>   -19.5971     0.0000     2.0000 </r>
       <r>   -19.4879     0.0000     2.0000 </r>
       <r>   -19.3788     0.0000     2.0000 </r>
       <r>   -19.2696     0.0000     2.0000 </r>
       <r>   -19.1605     0.0000     2.0000 </r>
       <r>   -19.0513     0.0000     2.0000 </r>
       <r>   -18.9422     0.0000     2.0000 </r>
       <r>   -18.8330     0.0000     2.0000 </r>
       <r>   -18.7238     0.0000     2.0000 </r>
       <r>   -18.6147     0.0000     2.0000 </r>
       <r>   -18.5055     0.0000     2.0000 </r>
       <r>   -18.3964     0.0000     2.0000 </r>
       <r>   -18.2872     0.0000     2.0000 </r>
       <r>   -18.1781     0.0000     2.0000 </r>
       <r>   -18.0689     0.0000     2.0000 </r>
       <r>   -17.9598     0.0000     2.0000 </r>
       <r>   -17.8506     0.0000     2.0000 </r>
       <r>   -17.7414     0.0000     2.0000 </r>
       <r>   -17.6323     0.0000     2.0000 </r>
       <r>   -17.5231     0.0000     2.0000 </r>
       <r>   -17.4140     0.0000     2.0000 </r>
       <r>   -17.3048     0.0000     2.0000 </r>
       <r>   -17.1957     0.0000     2.0000 </r>
       <r>   -17.0865     0.0000     2.0000 </r>
       <r>   -16.9774     0.0000     2.0000 </r>
       <r>   -16.8682     0.0000     2.0000 </r>
       <r>   -16.7590     0.0000     2.0000 </r>
       <r>   -16.6499     0.0000     2.0000 </r>
       <r>   -16.5407     0.0000     2.0000 </r>
       <r>   -16.4316     0.0000     2.0000 </r>
       <r>   -16.3224     0.0000     2.0000 </r>
       <r>   -16.2133     0.0000     2.0000 </r>
       <r>   -16.1041     0.0000     2.0000 </r>
       <r>   -15.9950     0.0000     2.0000 </r>
       <r>   -15.8858     0.0000     2.0000 </r>
       <r>   -15.7766     0.0000     2.0000 </r>
       <r>   -15.6675     0.0000     2.0000 </r>
       <r>   -15.5583     0.0000     2.0000 </r>
       <r>   -15.4492     0.0000     2.0000 </r>
       <r>   -15.3400     0.0000     2.0000 </r>
       <r>   -15.2309     0.0000     2.0000 </r>
       <r>   -15.1217     0.0000     2.0000 </r>
       <r>   -15.0126     0.0000     2.0000 </r>
       <r>   -14.9034     0.0000     2.0000 </r>
       <r>   -14.7942     0.0000     2.0000 </r>
       <r>   -14.6851     0.0000     2.0000 </r>
       <r>   -14.5759     0.0000     2.0000 </r>
       <r>   -14.4668     0.0009     2.0001 </r>
       <r>   -14.3576     0.0117     2.0014 </r>
       <r>   -14.2485     0.0565     2.0075 </r>
       <r>   -14.1393    -0.0577     2.0012 </r>
       <r>   -14.0302    -0.7488     1.9195 </r>
       <r>   -13.9210     0.7794     2.0046 </r>
       <r>   -13.8118     7.5593     2.8297 </r>
       <r>   -13.7027     9.2193     3.8361 </r>
       <r>   -13.5935     2.4320     4.1015 </r>
       <r>   -13.4844    -0.7997     4.0142 </r>
       <r>   -13.3752    -0.2176     3.9905 </r>
       <r>   -13.2661     0.0639     3.9975 </r>
       <r>   -13.1569     0.0212     3.9998 </r>
       <r>   -13.0478     0.0020     4.0000 </r>
       <r>   -12.9386     0.0001     4.0000 </r>
       <r>   -12.8294     0.0000     4.0000 </r>
       <r>   -12.7203     0.0000     4.0000 </r>
       <r>   -12.6111     0.0000     4.0000 </r>
       <r>   -12.5020     0.0000     4.0000 </r>
       <r>   -12.3928     0.0000     4.0000 </r>
       <r>   -12.2837     0.0007     4.0001 </r>
       <r>   -12.1745     0.0126     4.0015 </r>
       <r>   -12.0653     0.0847     4.0107 </r>
       <r>   -11.9562     0.0478     4.0159 </r>
       <r>   -11.8470    -1.1128     3.8945 </r>
       <r>   -11.7379    -0.3836     3.8526 </r>
       <r>   -11.6287    11.1903     5.0741 </r>
       <r>   -11.5196    19.8766     7.2437 </r>
       <r>   -11.4104     8.6865     8.1919 </r>
       <r>   -11.3013    -1.0916     8.0727 </r>
       <r>   -11.1921    -0.8414     7.9809 </r>
       <r>   -11.0829     0.0991     7.9917 </r>
       <r>   -10.9738     0.0671     7.9990 </r>
       <r>   -10.8646     0.0084     8.0000 </r>
       <r>   -10.7555     0.0004     8.0000 </r>
       <r>   -10.6463     0.0000     8.0000 </r>
       <r>   -10.5372     0.0000     8.0000 </r>
       <r>   -10.4280     0.0000     8.0000 </r>
       <r>   -10.3189     0.0000     8.0000 </r>
       <r>   -10.2097     0.0000     8.0000 </r>
       <r>   -10.1005     0.0002     8.0000 </r>
       <r>    -9.9914     0.0046     8.0005 </r>
       <r>    -9.8822     0.0356     8.0044 </r>
       <r>    -9.7731     0.0451     8.0093 </r>
       <r>    -9.6639    -0.4532     7.9599 </r>
       <r>    -9.5548    -0.4799     7.9075 </r>
       <r>    -9.4456     4.6420     8.4142 </r>
       <r>    -9.3365     9.9781     9.5034 </r>
       <r>    -9.2273     5.2927    10.0811 </r>
       <r>    -9.1181    -0.2971    10.0487 </r>
       <r>    -9.0090    -0.5240     9.9915 </r>
       <r>    -8.8998     0.0320     9.9950 </r>
       <r>    -8.7907     0.0402     9.9993 </r>
       <r>    -8.6815     0.0057    10.0000 </r>
       <r>    -8.5724     0.0003    10.0000 </r>
       <r>    -8.4632     0.0000    10.0000 </r>
       <r>    -8.3541     0.0000    10.0000 </r>
       <r>    -8.2449     0.0000    10.0000 </r>
       <r>    -8.1357     0.0000    10.0000 </r>
       <r>    -8.0266     0.0000    10.0000 </r>
       <r>    -7.9174     0.0000    10.0000 </r>
       <r>    -7.8083     0.0000    10.0000 </r>
       <r>    -7.6991     0.0000    10.0000 </r>
       <r>    -7.5900     0.0000    10.0000 </r>
       <r>    -7.4808     0.0000    10.0000 </r>
       <r>    -7.3717     0.0001    10.0000 </r>
       <r>    -7.2625     0.0020    10.0002 </r>
       <r>    -7.1533     0.0213    10.0026 </r>
       <r>    -7.0442     0.0638    10.0095 </r>
       <r>    -6.9350    -0.2186     9.9857 </r>
       <r>    -6.8259    -0.7986     9.8985 </r>
       <r>    -6.7167     2.4535    10.1663 </r>
       <r>    -6.6076     9.3202    11.1837 </r>
       <r>    -6.4984     7.7112    12.0254 </r>
       <r>    -6.3893    -0.3693    11.9851 </r>
       <r>    -6.2801    -2.4391    11.7188 </r>
       <r>    -6.1709    12.3787    13.0700 </r>
       <r>    -6.0618    28.8689    16.2212 </r>
       <r>    -5.9526    15.4179    17.9042 </r>
       <r>    -5.8435     9.8400    18.9783 </r>
       <r>    -5.7343    39.6948    23.3112 </r>
       <r>    -5.6252    97.6669    33.9721 </r>
       <r>    -5.5160   214.0510    57.3370 </r>
       <r>    -5.4069   308.3138    90.9912 </r>
       <r>    -5.2977   264.5896   119.8727 </r>
       <r>    -5.1885   204.7051   142.2174 </r>
       <r>    -5.0794   260.5512   170.6581 </r>
       <r>    -4.9702   353.8248   209.2801 </r>
       <r>    -4.8611   347.3612   247.1965 </r>
       <r>    -4.7519   296.9308   279.6082 </r>
       <r>    -4.6428   355.8467   318.4509 </r>
       <r>    -4.5336   425.7053   364.9191 </r>
       <r>    -4.4244   418.1306   410.5604 </r>
       <r>    -4.3153   481.9917   463.1726 </r>
       <r>    -4.2061   563.6948   524.7031 </r>
       <r>    -4.0970   399.8701   568.3512 </r>
       <r>    -3.9878   115.3266   580.9397 </r>
       <r>    -3.8787     8.1571   581.8301 </r>
       <r>    -3.7695    28.0274   584.8895 </r>
       <r>    -3.6604    24.1344   587.5239 </r>
       <r>    -3.5512    11.7706   588.8087 </r>
       <r>    -3.4420    26.2318   591.6721 </r>
       <r>    -3.3329    20.9679   593.9608 </r>
       <r>    -3.2237    -2.4144   593.6973 </r>
       <r>    -3.1146     6.5888   594.4165 </r>
       <r>    -3.0054    51.2319   600.0087 </r>
       <r>    -2.8963    64.6454   607.0652 </r>
       <r>    -2.7871    27.2694   610.0418 </r>
       <r>    -2.6780    -0.8369   609.9504 </r>
       <r>    -2.5688     9.2574   610.9609 </r>
       <r>    -2.4596    29.5364   614.1850 </r>
       <r>    -2.3505    23.0931   616.7057 </r>
       <r>    -2.2413    11.6459   617.9769 </r>
       <r>    -2.1322    20.6493   620.2309 </r>
       <r>    -2.0230    36.5866   624.2246 </r>
       <r>    -1.9139    45.2798   629.1671 </r>
       <r>    -1.8047    44.7843   634.0556 </r>
       <r>    -1.6956    38.9735   638.3098 </r>
       <r>    -1.5864    41.2952   642.8174 </r>
       <r>    -1.4772    37.7239   646.9352 </r>
       <r>    -1.3681    21.9672   649.3330 </r>
       <r>    -1.2589    19.9079   651.5061 </r>
       <r>    -1.1498    24.9717   654.2319 </r>
       <r>    -1.0406    20.5738   656.4776 </r>
       <r>    -0.9315    41.2273   660.9778 </r>
       <r>    -0.8223    55.4155   667.0267 </r>
       <r>    -0.7132    26.8557   669.9582 </r>
       <r>    -0.6040     5.1960   670.5254 </r>
       <r>    -0.4948     7.5990   671.3548 </r>
       <r>    -0.3857     6.1344   672.0244 </r>
       <r>    -0.2765     0.2914   672.0562 </r>
       <r>    -0.1674    -0.5785   671.9931 </r>
       <r>    -0.0582     0.0070   671.9939 </r>
       <r>     0.0509     0.0478   671.9991 </r>
       <r>     0.1601     0.0079   671.9999 </r>
       <r>     0.2692     0.0005   672.0000 </r>
       <r>     0.3784     0.0000   672.0000 </r>
       <r>     0.4876     0.0000   672.0000 </r>
       <r>     0.5967     0.0000   672.0000 </r>
       <r>     0.7059     0.0000   672.0000 </r>
       <r>     0.8150     0.0000   672.0000 </r>
       <r>     0.9242     0.0000   672.0000 </r>
       <r>     1.0333     0.0000   672.0000 </r>
       <r>     1.1425     0.0000   672.0000 </r>
       <r>     1.2516     0.0000   672.0000 </r>
       <r>     1.3608     0.0000   672.0000 </r>
       <r>     1.4700     0.0000   672.0000 </r>
      </set>
     </set>
    </array>
   </total>
  </dos>
 </calculation>
 <structure name="finalpos" >
  <crystal>
   <varray name="basis" >
    <v>      30.00000000       0.00000000       0.00000000 </v>
    <v>       0.00000000      30.00000000       0.00000000 </v>
    <v>       0.00000000       0.00000000      30.00000000 </v>
   </varray>
   <i name="volume">  27000.00000000 </i>
   <varray name="rec_basis" >
    <v>       0.03333333       0.00000000       0.00000000 </v>
    <v>       0.00000000       0.03333333       0.00000000 </v>
    <v>       0.00000000       0.00000000       0.03333333 </v>
   </varray>
  </crystal>
  <varray name="positions" >
   <v>       0.44576020       0.32826710       0.41691983 </v>
   <v>       0.67173288       0.55423978       0.41691983 </v>
   <v>       0.55423980       0.32826710       0.41691983 </v>
   <v>       0.32826712       0.55423978       0.41691983 </v>
   <v>       0.50000000       0.38250690       0.34021317 </v>
   <v>       0.50000000       0.38250690       0.65978680 </v>
   <v>       0.50000000       0.27609440       0.50000000 </v>
   <v>       0.27609443       0.49999998       0.50000000 </v>
   <v>       0.72390557       0.49999998       0.50000000 </v>
   <v>       0.50000000       0.72390555       0.50000000 </v>
   <v>       0.61195280       0.38804720       0.34167483 </v>
   <v>       0.61195280       0.38804720       0.65832513 </v>
   <v>       0.38804722       0.61195278       0.34167483 </v>
   <v>       0.38804722       0.61195278       0.65832513 </v>
   <v>       0.38804720       0.38804720       0.34167483 </v>
   <v>       0.38804720       0.38804720       0.65832513 </v>
   <v>       0.61195278       0.61195278       0.34167483 </v>
   <v>       0.61195278       0.61195278       0.65832513 </v>
   <v>       0.44576020       0.32826710       0.58308023 </v>
   <v>       0.67173288       0.55423978       0.58308023 </v>
   <v>       0.55791699       0.44208301       0.41809300 </v>
   <v>       0.32826705       0.44576024       0.41691983 </v>
   <v>       0.55423973       0.67173293       0.41691983 </v>
   <v>       0.55423980       0.32826710       0.58308023 </v>
   <v>       0.32826712       0.55423978       0.58308023 </v>
   <v>       0.67173295       0.44576024       0.41691983 </v>
   <v>       0.44576027       0.67173293       0.41691983 </v>
   <v>       0.44208301       0.44208301       0.41809300 </v>
   <v>       0.50000000       0.38416601       0.50000000 </v>
   <v>       0.61749315       0.50000005       0.34021317 </v>
   <v>       0.61749315       0.50000005       0.65978680 </v>
   <v>       0.38250685       0.50000005       0.34021317 </v>
   <v>       0.38250685       0.50000005       0.65978680 </v>
   <v>       0.38317830       0.38317830       0.50000000 </v>
   <v>       0.61682172       0.61682172       0.50000000 </v>
   <v>       0.61682170       0.38317830       0.50000000 </v>
   <v>       0.38317828       0.61682172       0.50000000 </v>
   <v>       0.50000000       0.50000000       0.33478917 </v>
   <v>       0.50000000       0.50000000       0.66521087 </v>
   <v>       0.32826705       0.44576024       0.58308023 </v>
   <v>       0.55423973       0.67173293       0.58308023 </v>
   <v>       0.55791699       0.44208301       0.58190703 </v>
   <v>       0.44208298       0.55791702       0.41809300 </v>
   <v>       0.44208301       0.44208301       0.58190703 </v>
   <v>       0.67173295       0.44576024       0.58308023 </v>
   <v>       0.44576027       0.67173293       0.58308023 </v>
   <v>       0.55791702       0.55791702       0.41809300 </v>
   <v>       0.38416599       0.50000002       0.50000000 </v>
   <v>       0.61583401       0.50000002       0.50000000 </v>
   <v>       0.50000000       0.61749319       0.34021317 </v>
   <v>       0.50000000       0.61749319       0.65978680 </v>
   <v>       0.50000000       0.50000000       0.50000000 </v>
   <v>       0.44208298       0.55791702       0.58190703 </v>
   <v>       0.55791702       0.55791702       0.58190703 </v>
   <v>       0.50000000       0.61583404       0.50000000 </v>
   <v>       0.20327117       0.52983670       0.45903433 </v>
   <v>       0.16620783       0.53356347       0.45391747 </v>
  </varray>
  <varray name="selective"  type="logical" >
   <v type="logical" >  F  F  F </v>
   <v type="logical" >  F  F  F </v>
   <v type="logical" >  F  F  F </v>
   <v type="logical" >  F  F  F </v>
   <v type="logical" >  F  F  F </v>
   <v type="logical" >  F  F  F </v>
   <v type="logical" >  F  F  F </v>
   <v type="logical" >  F  F  F </v>
   <v type="logical" >  F  F  F </v>
   <v type="logical" >  F  F  F </v>
   <v type="logical" >  F  F  F </v>
   <v type="logical" >  F  F  F </v>
   <v type="logical" >  F  F  F </v>
   <v type="logical" >  F  F  F </v>
   <v type="logical" >  F  F  F </v>
   <v type="logical" >  F  F  F </v>
   <v type="logical" >  F  F  F </v>
   <v type="logical" >  F  F  F </v>
   <v type="logical" >  F  F  F </v>
   <v type="logical" >  F  F  F </v>
   <v type="logical" >  F  F  F </v>
   <v type="logical" >  F  F  F </v>
   <v type="logical" >  F  F  F </v>
   <v type="logical" >  F  F  F </v>
   <v type="logical" >  F  F  F </v>
   <v type="logical" >  F  F  F </v>
   <v type="logical" >  F  F  F </v>
   <v type="logical" >  F  F  F </v>
   <v type="logical" >  F  F  F </v>
   <v type="logical" >  F  F  F </v>
   <v type="logical" >  F  F  F </v>
   <v type="logical" >  F  F  F </v>
   <v type="logical" >  F  F  F </v>
   <v type="logical" >  F  F  F </v>
   <v type="logical" >  F  F  F </v>
   <v type="logical" >  F  F  F </v>
   <v type="logical" >  F  F  F </v>
   <v type="logical" >  F  F  F </v>
   <v type="logical" >  F  F  F </v>
   <v type="logical" >  F  F  F </v>
   <v type="logical" >  F  F  F </v>
   <v type="logical" >  F  F  F </v>
   <v type="logical" >  F  F  F </v>
   <v type="logical" >  F  F  F </v>
   <v type="logical" >  F  F  F </v>
   <v type="logical" >  F  F  F </v>
   <v type="logical" >  F  F  F </v>
   <v type="logical" >  F  F  F </v>
   <v type="logical" >  F  F  F </v>
   <v type="logical" >  F  F  F </v>
   <v type="logical" >  F  F  F </v>
   <v type="logical" >  F  F  F </v>
   <v type="logical" >  F  F  F </v>
   <v type="logical" >  F  F  F </v>
   <v type="logical" >  F  F  F </v>
   <v type="logical" >  F  F  F </v>
   <v type="logical" >  F  F  F </v>
  </varray>
  <nose>
   <v>      -3.00000000       0.00000000       0.00010000       0.00010000 </v>
  </nose>
 </structure>
</modeling>
