   57   57    1    1
  0.4736842E+03  0.3000000E-08  0.3000000E-08  0.3000000E-08  0.5000000E-15
  1.000000000000000E-004
  CAR 
 6_Pd100_top_free_z(O)                   
    560      1    336
 
  0.0000000E+00  0.0000000E+00  0.0000000E+00  0.1000000E+01
    1      -28.471252   1.000000
    2      -13.308447   1.000000
    3      -11.091045   1.000000
    4      -10.951981   1.000000
    5      -10.302885   1.000000
    6       -6.653907   1.000000
    7       -6.166995   1.000000
    8       -6.134620   1.000000
    9       -6.131441   1.000000
   10       -6.073919   1.000000
   11       -5.942058   1.000000
   12       -5.842415   1.000000
   13       -5.817982   1.000000
   14       -5.807098   1.000000
   15       -5.749515   1.000000
   16       -5.712864   1.000000
   17       -5.696971   1.000000
   18       -5.691896   1.000000
   19       -5.682913   1.000000
   20       -5.650404   1.000000
   21       -5.631812   1.000000
   22       -5.628316   1.000000
   23       -5.621749   1.000000
   24       -5.604395   1.000000
   25       -5.595235   1.000000
   26       -5.588443   1.000000
   27       -5.562706   1.000000
   28       -5.554618   1.000000
   29       -5.553762   1.000000
   30       -5.547246   1.000000
   31       -5.531774   1.000000
   32       -5.526550   1.000000
   33       -5.524766   1.000000
   34       -5.523600   1.000000
   35       -5.520468   1.000000
   36       -5.514748   1.000000
   37       -5.504352   1.000000
   38       -5.498887   1.000000
   39       -5.496436   1.000000
   40       -5.485616   1.000000
   41       -5.479660   1.000000
   42       -5.475286   1.000000
   43       -5.474078   1.000000
   44       -5.472221   1.000000
   45       -5.464643   1.000000
   46       -5.459014   1.000000
   47       -5.444227   1.000000
   48       -5.438423   1.000000
   49       -5.433646   1.000000
   50       -5.431300   1.000000
   51       -5.428252   1.000000
   52       -5.424352   1.000000
   53       -5.411555   1.000000
   54       -5.410392   1.000000
   55       -5.404729   1.000000
   56       -5.396215   1.000000
   57       -5.377995   1.000000
   58       -5.357362   1.000000
   59       -5.341774   1.000000
   60       -5.332793   1.000000
   61       -5.331279   1.000000
   62       -5.325280   1.000000
   63       -5.321886   1.000000
   64       -5.313906   1.000000
   65       -5.307731   1.000000
   66       -5.305684   1.000000
   67       -5.298076   1.000000
   68       -5.283290   1.000000
   69       -5.272279   1.000000
   70       -5.233761   1.000000
   71       -5.219249   1.000000
   72       -5.216028   1.000000
   73       -5.208038   1.000000
   74       -5.200892   1.000000
   75       -5.196575   1.000000
   76       -5.187598   1.000000
   77       -5.184890   1.000000
   78       -5.178868   1.000000
   79       -5.170286   1.000000
   80       -5.166600   1.000000
   81       -5.166380   1.000000
   82       -5.150959   1.000000
   83       -5.142111   1.000000
   84       -5.133659   1.000000
   85       -5.132020   1.000000
   86       -5.117698   1.000000
   87       -5.113219   1.000000
   88       -5.110695   1.000000
   89       -5.096671   1.000000
   90       -5.074839   1.000000
   91       -5.068652   1.000000
   92       -5.062356   1.000000
   93       -5.060398   1.000000
   94       -5.057418   1.000000
   95       -5.057199   1.000000
   96       -5.050515   1.000000
   97       -5.045273   1.000000
   98       -5.041586   1.000000
   99       -5.035452   1.000000
  100       -5.030355   1.000000
  101       -5.029155   1.000000
  102       -5.026666   1.000000
  103       -5.015092   1.000000
  104       -5.010996   1.000000
  105       -5.009432   1.000000
  106       -5.004393   1.000000
  107       -5.000569   1.000000
  108       -4.996745   1.000000
  109       -4.993244   1.000000
  110       -4.984937   1.000000
  111       -4.982725   1.000000
  112       -4.977380   1.000000
  113       -4.972404   1.000000
  114       -4.965378   0.999999
  115       -4.962929   0.999999
  116       -4.961736   0.999999
  117       -4.952111   0.999999
  118       -4.945360   0.999999
  119       -4.938756   0.999999
  120       -4.932053   0.999998
  121       -4.920620   0.999997
  122       -4.916747   0.999997
  123       -4.910013   0.999996
  124       -4.908141   0.999996
  125       -4.907516   0.999996
  126       -4.903119   0.999995
  127       -4.881506   0.999991
  128       -4.873142   0.999988
  129       -4.859519   0.999982
  130       -4.853172   0.999979
  131       -4.847621   0.999975
  132       -4.845249   0.999973
  133       -4.842241   0.999970
  134       -4.839110   0.999968
  135       -4.835441   0.999964
  136       -4.827831   0.999955
  137       -4.817235   0.999940
  138       -4.804210   0.999915
  139       -4.798710   0.999902
  140       -4.794593   0.999890
  141       -4.782365   0.999850
  142       -4.771821   0.999806
  143       -4.770728   0.999800
  144       -4.764658   0.999769
  145       -4.755222   0.999711
  146       -4.746085   0.999644
  147       -4.737804   0.999571
  148       -4.732782   0.999521
  149       -4.731255   0.999505
  150       -4.723844   0.999421
  151       -4.710565   0.999239
  152       -4.709145   0.999217
  153       -4.694746   0.998965
  154       -4.689468   0.998859
  155       -4.688121   0.998831
  156       -4.684746   0.998757
  157       -4.681325   0.998679
  158       -4.678453   0.998611
  159       -4.676702   0.998568
  160       -4.671717   0.998441
  161       -4.668796   0.998363
  162       -4.660186   0.998118
  163       -4.656961   0.998021
  164       -4.654058   0.997931
  165       -4.651323   0.997844
  166       -4.650511   0.997818
  167       -4.649844   0.997796
  168       -4.647236   0.997710
  169       -4.644659   0.997624
  170       -4.635966   0.997321
  171       -4.629285   0.997078
  172       -4.621683   0.996795
  173       -4.615061   0.996546
  174       -4.607515   0.996264
  175       -4.603753   0.996126
  176       -4.601123   0.996032
  177       -4.600045   0.995993
  178       -4.595969   0.995852
  179       -4.594637   0.995807
  180       -4.582190   0.995429
  181       -4.581332   0.995406
  182       -4.573880   0.995235
  183       -4.572039   0.995200
  184       -4.568835   0.995148
  185       -4.564363   0.995095
  186       -4.562638   0.995081
  187       -4.559788   0.995068
  188       -4.553574   0.995080
  189       -4.553067   0.995083
  190       -4.548832   0.995132
  191       -4.540235   0.995339
  192       -4.526693   0.996012
  193       -4.519559   0.996569
  194       -4.514608   0.997050
  195       -4.510430   0.997520
  196       -4.505691   0.998128
  197       -4.504331   0.998318
  198       -4.497093   0.999449
  199       -4.491780   1.000414
  200       -4.490346   1.000695
  201       -4.479345   1.003147
  202       -4.473210   1.004749
  203       -4.468877   1.005984
  204       -4.466844   1.006593
  205       -4.462435   1.007979
  206       -4.457375   1.009677
  207       -4.454473   1.010702
  208       -4.450647   1.012110
  209       -4.449054   1.012714
  210       -4.445003   1.014298
  211       -4.436372   1.017882
  212       -4.430619   1.020412
  213       -4.425856   1.022578
  214       -4.423192   1.023813
  215       -4.413739   1.028297
  216       -4.411877   1.029192
  217       -4.409808   1.030188
  218       -4.408604   1.030768
  219       -4.403310   1.033312
  220       -4.400537   1.034635
  221       -4.387660   1.040548
  222       -4.372069   1.046665
  223       -4.370695   1.047120
  224       -4.363542   1.049194
  225       -4.357507   1.050505
  226       -4.351976   1.051289
  227       -4.343061   1.051570
  228       -4.341953   1.051511
  229       -4.339141   1.051258
  230       -4.338585   1.051190
  231       -4.337746   1.051076
  232       -4.336949   1.050955
  233       -4.332746   1.050102
  234       -4.330605   1.049524
  235       -4.329622   1.049224
  236       -4.326023   1.047939
  237       -4.325452   1.047707
  238       -4.322752   1.046504
  239       -4.321335   1.045800
  240       -4.317938   1.043904
  241       -4.311963   1.039818
  242       -4.304587   1.033368
  243       -4.299457   1.027904
  244       -4.294565   1.021906
  245       -4.291034   1.017081
  246       -4.290056   1.015669
  247       -4.288971   1.014065
  248       -4.285780   1.009106
  249       -4.283201   1.004837
  250       -4.275001   0.989651
  251       -4.269910   0.978964
  252       -4.267224   0.972930
  253       -4.264295   0.966035
  254       -4.262027   0.960470
  255       -4.258208   0.950647
  256       -4.257194   0.947945
  257       -4.254383   0.940244
  258       -4.251695   0.932593
  259       -4.249610   0.926464
  260       -4.248061   0.921804
  261       -4.246345   0.916532
  262       -4.244713   0.911414
  263       -4.243586   0.907818
  264       -4.241975   0.902598
  265       -4.239758   0.895251
  266       -4.233503   0.873526
  267       -4.229526   0.858961
  268       -4.226186   0.846293
  269       -4.224800   0.840919
  270       -4.222893   0.833418
  271       -4.220979   0.825761
  272       -4.211528   0.786192
  273       -4.209031   0.775269
  274       -4.201201   0.739849
  275       -4.189699   0.684951
  276       -4.186239   0.667861
  277       -4.180084   0.636911
  278       -4.178049   0.626541
  279       -4.177069   0.621525
  280       -4.175043   0.611115
  281       -4.164605   0.556752
  282       -4.159856   0.531739
  283       -4.140377   0.428979
  284       -4.133783   0.394677
  285       -4.131886   0.384901
  286       -4.131022   0.380463
  287       -4.120502   0.327362
  288       -4.115645   0.303538
  289       -4.080578   0.150106
  290       -3.968048  -0.051315
  291       -3.897224  -0.029865
  292       -3.828769  -0.003249
  293       -3.818103  -0.000845
  294       -3.712174   0.004163
  295       -3.504117   0.000087
  296       -3.494330   0.000067
  297       -3.404800   0.000005
  298       -3.071881   0.000000
  299       -3.066029   0.000000
  300       -3.047699   0.000000
  301       -3.044328   0.000000
  302       -3.022019   0.000000
  303       -2.962062   0.000000
  304       -2.946723   0.000000
  305       -2.841131   0.000000
  306       -2.534050   0.000000
  307       -2.530874   0.000000
  308       -2.379667   0.000000
  309       -2.352079   0.000000
  310       -2.174943   0.000000
  311       -2.120201   0.000000
  312       -2.103017   0.000000
  313       -2.068164   0.000000
  314       -1.977762   0.000000
  315       -1.934542   0.000000
  316       -1.872079   0.000000
  317       -1.825196   0.000000
  318       -1.749314   0.000000
  319       -1.730913   0.000000
  320       -1.645481   0.000000
  321       -1.609665   0.000000
  322       -1.558958   0.000000
  323       -1.435486   0.000000
  324       -1.351766   0.000000
  325       -1.283312   0.000000
  326       -1.204289   0.000000
  327       -1.164440   0.000000
  328       -1.038696   0.000000
  329       -0.991687   0.000000
  330       -0.986149   0.000000
  331       -0.955526   0.000000
  332       -0.942968   0.000000
  333       -0.921366   0.000000
  334       -0.898771   0.000000
  335       -0.860714   0.000000
  336       -0.778399   0.000000
