 vasp.5.4.4.18Apr17-6-g9f103f2a35 (build Sep 03 2018 23:53:05) complex          
  
 executed on             LinuxIFC date 2021.11.26  18:16:09
 running on    1 total cores
 distrk:  each k-point on    1 cores,    1 groups
 distr:  one band on NCORES_PER_BAND=   1 cores,    1 groups


--------------------------------------------------------------------------------------------------------


 INCAR:
 POTCAR:    PAW_PBE Pd 04Jan2005                  
 POTCAR:    PAW_PBE C 08Apr2002                   
 POTCAR:    PAW_PBE O 08Apr2002                   
 POTCAR:    PAW_PBE Pd 04Jan2005                  
   VRHFIN =Pd : s1 d9                                                           
   LEXCH  = PE                                                                  
   EATOM  =   809.7530 eV,   59.5152 Ry                                         
                                                                                
   TITEL  = PAW_PBE Pd 04Jan2005                                                
   LULTRA =        F    use ultrasoft PP ?                                      
   IUNSCR =        1    unscreen: 0-lin 1-nonlin 2-no                           
   RPACOR =    2.000    partial core radius                                     
   POMASS =  106.420; ZVAL   =   10.000    mass and valenz                      
   RCORE  =    2.600    outmost cutoff radius                                   
   RWIGS  =    2.710; RWIGS  =    1.434    wigner-seitz radius (au A)           
   ENMAX  =  250.925; ENMIN  =  188.194 eV                                      
   ICORE  =        3    local potential                                         
   LCOR   =        T    correct aug charges                                     
   LPAW   =        T    paw PP                                                  
   EAUG   =  416.230                                                            
   DEXC   =    0.000                                                            
   RMAX   =    2.653    core radius for proj-oper                               
   RAUG   =    1.300    factor for augmentation sphere                          
   RDEP   =    2.734    radius for radial grids                                 
   RDEPT  =    2.103    core radius for aug-charge                              
                                                                                
   Atomic configuration                                                         
   12 entries                                                                   
     n  l   j            E        occ.                                          
     1  0  0.50    -24164.6631   2.0000                                         
     2  0  0.50     -3530.9218   2.0000                                         
     2  1  1.50     -3165.6822   6.0000                                         
     3  0  0.50      -639.4577   2.0000                                         
     3  1  1.50      -519.4532   6.0000                                         
     3  2  2.50      -328.9757  10.0000                                         
     4  0  0.50       -88.7014   2.0000                                         
     4  1  1.50       -54.4540   6.0000                                         
     4  2  2.50        -6.6878   9.0000                                         
     5  0  0.50        -4.3543   1.0000                                         
     5  1  0.50        -1.3606   0.0000                                         
     4  3  2.50        -1.3606   0.0000                                         
   Description                                                                  
     l       E           TYP  RCUT    TYP  RCUT                                 
     2     -6.6878251     23  2.400                                             
     2     -8.0484077     23  2.400                                             
     0     -4.3542939     23  2.400                                             
     0      4.3406793     23  2.400                                             
     1     -4.0817478     23  2.600                                             
     1     15.8380318     23  2.600                                             
     3     -4.0817478     23  2.400                                             
  local pseudopotential read in
  partial core-charges read in
  partial kinetic energy density read in
  atomic valenz-charges read in
  non local Contribution for L=           2  read in
    real space projection operators read in
  non local Contribution for L=           2  read in
    real space projection operators read in
  non local Contribution for L=           0  read in
    real space projection operators read in
  non local Contribution for L=           0  read in
    real space projection operators read in
  non local Contribution for L=           1  read in
    real space projection operators read in
  non local Contribution for L=           1  read in
    real space projection operators read in
    PAW grid and wavefunctions read in
 
   number of l-projection  operators is LMAX  =           6
   number of lm-projection operators is LMMAX =          18
 
 POTCAR:    PAW_PBE C 08Apr2002                   
   VRHFIN =C: s2p2                                                              
   LEXCH  = PE                                                                  
   EATOM  =   147.1560 eV,   10.8157 Ry                                         
                                                                                
   TITEL  = PAW_PBE C 08Apr2002                                                 
   LULTRA =        F    use ultrasoft PP ?                                      
   IUNSCR =        1    unscreen: 0-lin 1-nonlin 2-no                           
   RPACOR =    1.200    partial core radius                                     
   POMASS =   12.011; ZVAL   =    4.000    mass and valenz                      
   RCORE  =    1.500    outmost cutoff radius                                   
   RWIGS  =    1.630; RWIGS  =    0.863    wigner-seitz radius (au A)           
   ENMAX  =  400.000; ENMIN  =  300.000 eV                                      
   ICORE  =        2    local potential                                         
   LCOR   =        T    correct aug charges                                     
   LPAW   =        T    paw PP                                                  
   EAUG   =  644.873                                                            
   DEXC   =    0.000                                                            
   RMAX   =    1.529    core radius for proj-oper                               
   RAUG   =    1.300    factor for augmentation sphere                          
   RDEP   =    1.501    radius for radial grids                                 
   RDEPT  =    1.300    core radius for aug-charge                              
                                                                                
   Atomic configuration                                                         
    4 entries                                                                   
     n  l   j            E        occ.                                          
     1  0  0.50      -273.3789   2.0000                                         
     2  0  0.50       -13.7508   2.0000                                         
     2  1  0.50        -5.2854   2.0000                                         
     3  2  1.50        -5.4423   0.0000                                         
   Description                                                                  
     l       E           TYP  RCUT    TYP  RCUT                                 
     0    -13.7508458     23  1.200                                             
     0     -8.2022199     23  1.200                                             
     1     -5.2854383     23  1.500                                             
     1     34.0145650     23  1.500                                             
     2     -5.4423304      7  1.500                                             
  local pseudopotential read in
  partial core-charges read in
  partial kinetic energy density read in
  atomic valenz-charges read in
  non local Contribution for L=           0  read in
    real space projection operators read in
  non local Contribution for L=           0  read in
    real space projection operators read in
  non local Contribution for L=           1  read in
    real space projection operators read in
  non local Contribution for L=           1  read in
    real space projection operators read in
    PAW grid and wavefunctions read in
 
   number of l-projection  operators is LMAX  =           4
   number of lm-projection operators is LMMAX =           8
 
 POTCAR:    PAW_PBE O 08Apr2002                   
   VRHFIN =O: s2p4                                                              
   LEXCH  = PE                                                                  
   EATOM  =   432.3788 eV,   31.7789 Ry                                         
                                                                                
   TITEL  = PAW_PBE O 08Apr2002                                                 
   LULTRA =        F    use ultrasoft PP ?                                      
   IUNSCR =        1    unscreen: 0-lin 1-nonlin 2-no                           
   RPACOR =    1.200    partial core radius                                     
   POMASS =   16.000; ZVAL   =    6.000    mass and valenz                      
   RCORE  =    1.520    outmost cutoff radius                                   
   RWIGS  =    1.550; RWIGS  =    0.820    wigner-seitz radius (au A)           
   ENMAX  =  400.000; ENMIN  =  300.000 eV                                      
   ICORE  =        2    local potential                                         
   LCOR   =        T    correct aug charges                                     
   LPAW   =        T    paw PP                                                  
   EAUG   =  605.392                                                            
   DEXC   =    0.000                                                            
   RMAX   =    1.553    core radius for proj-oper                               
   RAUG   =    1.300    factor for augmentation sphere                          
   RDEP   =    1.550    radius for radial grids                                 
   RDEPT  =    1.329    core radius for aug-charge                              
                                                                                
   Atomic configuration                                                         
    4 entries                                                                   
     n  l   j            E        occ.                                          
     1  0  0.50      -514.6923   2.0000                                         
     2  0  0.50       -23.9615   2.0000                                         
     2  1  0.50        -9.0305   4.0000                                         
     3  2  1.50        -9.5241   0.0000                                         
   Description                                                                  
     l       E           TYP  RCUT    TYP  RCUT                                 
     0    -23.9615318     23  1.200                                             
     0     -9.5240782     23  1.200                                             
     1     -9.0304911     23  1.520                                             
     1      8.1634956     23  1.520                                             
     2     -9.5240782      7  1.500                                             
  local pseudopotential read in
  partial core-charges read in
  partial kinetic energy density read in
  kinetic energy density of atom read in
  atomic valenz-charges read in
  non local Contribution for L=           0  read in
    real space projection operators read in
  non local Contribution for L=           0  read in
    real space projection operators read in
  non local Contribution for L=           1  read in
    real space projection operators read in
  non local Contribution for L=           1  read in
    real space projection operators read in
    PAW grid and wavefunctions read in
 
   number of l-projection  operators is LMAX  =           4
   number of lm-projection operators is LMMAX =           8
 
 Optimization of the real space projectors (new method)

 maximal supplied QI-value         = 14.36
 optimisation between [QCUT,QGAM] = [ 10.20, 20.39] = [ 29.12,116.47] Ry 
 Optimized for a Real-space Cutoff    1.51 Angstroem

   l    n(q)    QCUT    max X(q) W(low)/X(q) W(high)/X(q)  e(spline) 
   2      8    10.197    59.108    0.26E-03    0.14E-03    0.96E-07
   2      8    10.197    58.101    0.27E-03    0.14E-03    0.98E-07
   0      9    10.197   102.235    0.54E-04    0.60E-05    0.72E-07
   0      9    10.197    58.388    0.52E-04    0.60E-05    0.68E-07
   1      9    10.197    22.191    0.18E-03    0.25E-03    0.79E-07
   1      9    10.197    15.590    0.15E-03    0.21E-03    0.69E-07
 Optimization of the real space projectors (new method)

 maximal supplied QI-value         = 25.13
 optimisation between [QCUT,QGAM] = [ 10.05, 20.36] = [ 28.30,116.06] Ry 
 Optimized for a Real-space Cutoff    1.30 Angstroem

   l    n(q)    QCUT    max X(q) W(low)/X(q) W(high)/X(q)  e(spline) 
   0      8    10.053   115.676    0.49E-03    0.72E-03    0.18E-06
   0      8    10.053    87.132    0.49E-03    0.71E-03    0.18E-06
   1      7    10.053     4.429    0.32E-03    0.31E-03    0.18E-06
   1      7    10.053     2.733    0.23E-03    0.19E-03    0.20E-06
 Optimization of the real space projectors (new method)

 maximal supplied QI-value         = 24.76
 optimisation between [QCUT,QGAM] = [ 10.15, 20.30] = [ 28.85,115.39] Ry 
 Optimized for a Real-space Cutoff    1.38 Angstroem

   l    n(q)    QCUT    max X(q) W(low)/X(q) W(high)/X(q)  e(spline) 
   0      8    10.150    20.381    0.22E-03    0.32E-03    0.29E-06
   0      8    10.150    15.268    0.23E-03    0.35E-03    0.30E-06
   1      8    10.150     5.964    0.46E-03    0.53E-03    0.21E-06
   1      8    10.150     5.382    0.38E-03    0.45E-03    0.19E-06

 ----------------------------------------------------------------------------- 
|                                                                             |
|  ADVICE TO THIS USER RUNNING 'VASP/VAMP'   (HEAR YOUR MASTER'S VOICE ...):  |
|                                                                             |
|      You enforced a specific xc-type in the INCAR file,                     |
|      a different type was found on the POTCAR file                          |
|          I HOPE YOU KNOW, WHAT YOU ARE  DOING                               |
|                                                                             |
 ----------------------------------------------------------------------------- 

  PAW_PBE Pd 04Jan2005                  :
 energy of atom  1       EATOM= -809.7530
 kinetic energy error for atom=    0.0091 (will be added to EATOM!!)
  PAW_PBE C 08Apr2002                   :
 energy of atom  2       EATOM= -147.1560
 kinetic energy error for atom=    0.0288 (will be added to EATOM!!)
  PAW_PBE O 08Apr2002                   :
 energy of atom  3       EATOM= -432.3788
 kinetic energy error for atom=    0.1156 (will be added to EATOM!!)
 
 
 POSCAR: Pd55PES                                 
  positions in cartesian coordinates
  No initial velocities read in
 exchange correlation table for  LEXCH =        9
   RHO(1)=    0.500       N(1)  =     2000
   RHO(2)=  100.500       N(2)  =     4000
 


--------------------------------------------------------------------------------------------------------


 ion  position               nearest neighbor table
   1  0.446  0.328  0.417-   3 3.25   5 3.25   7 3.36  15 3.36  29 3.42  28 3.42
   2  0.672  0.554  0.417-  26 3.25  30 3.25  17 3.36   9 3.36  47 3.42  49 3.42
   3  0.554  0.328  0.417-   1 3.25   5 3.25   7 3.36  11 3.36  29 3.42  21 3.42
   4  0.328  0.554  0.417-  32 3.25  22 3.25  13 3.36   8 3.36  43 3.42  48 3.42
   5  0.500  0.383  0.340-   1 3.25   3 3.25  11 3.36  15 3.36  21 3.42  28 3.42
   6  0.500  0.383  0.660-  24 3.25  19 3.25  16 3.36  12 3.36  42 3.42  44 3.42
   7  0.500  0.276  0.500-  29 3.24   3 3.36   1 3.36  19 3.36  24 3.36
   8  0.276  0.500  0.500-  48 3.24  22 3.36  40 3.36   4 3.36  25 3.36
   9  0.724  0.500  0.500-  49 3.24  26 3.36  45 3.36   2 3.36  20 3.36
  10  0.500  0.724  0.500-  55 3.24  27 3.36  23 3.36  46 3.36  41 3.36
  11  0.612  0.388  0.342-  21 3.24   5 3.36   3 3.36  30 3.36  26 3.36
  12  0.612  0.388  0.658-  56 1.76  42 3.24  24 3.36  45 3.36   6 3.36  31 3.36
  13  0.388  0.612  0.342-  43 3.24  32 3.36  50 3.36   4 3.36  27 3.36
  14  0.388  0.612  0.658-  53 3.24  25 3.36  33 3.36  51 3.36  46 3.36
  15  0.388  0.388  0.342-  28 3.24   5 3.36   1 3.36  32 3.36  22 3.36
  16  0.388  0.388  0.658-  44 3.24  19 3.36  40 3.36   6 3.36  33 3.36
  17  0.612  0.612  0.342-  47 3.24  30 3.36  50 3.36   2 3.36  23 3.36
  18  0.612  0.612  0.658-  54 3.24  31 3.36  20 3.36  51 3.36  41 3.36
  19  0.446  0.328  0.583-   6 3.25  24 3.25  16 3.36   7 3.36  44 3.42  29 3.42
  20  0.672  0.554  0.583-  31 3.25  45 3.25  18 3.36   9 3.36  54 3.42  49 3.42
  21  0.558  0.442  0.418-  11 3.24   5 3.42   3 3.42  30 3.42  26 3.42
  22  0.328  0.446  0.417-   4 3.25  32 3.25   8 3.36  15 3.36  48 3.42  28 3.42
  23  0.554  0.672  0.417-  27 3.25  50 3.25  10 3.36  17 3.36  55 3.42  47 3.42
  24  0.554  0.328  0.583-   6 3.25  19 3.25  12 3.36   7 3.36  42 3.42  29 3.42
  25  0.328  0.554  0.583-  33 3.25  40 3.25  14 3.36   8 3.36  53 3.42  48 3.42
  26  0.672  0.446  0.417-   2 3.25  30 3.25   9 3.36  11 3.36  49 3.42  21 3.42
  27  0.446  0.672  0.417-  23 3.25  50 3.25  10 3.36  13 3.36  55 3.42  43 3.42
  28  0.442  0.442  0.418-  15 3.24   5 3.42   1 3.42  32 3.42  22 3.42
  29  0.500  0.384  0.500-   7 3.24   3 3.42   1 3.42  24 3.42  19 3.42
  30  0.617  0.500  0.340-   2 3.25  26 3.25  17 3.36  11 3.36  47 3.42  21 3.42
  31  0.617  0.500  0.660-  20 3.25  45 3.25  18 3.36  12 3.36  54 3.42  42 3.42
  32  0.383  0.500  0.340-   4 3.25  22 3.25  13 3.36  15 3.36  43 3.42  28 3.42
  33  0.383  0.500  0.660-  25 3.25  40 3.25  14 3.36  16 3.36  53 3.42  44 3.42
  34  0.383  0.383  0.500-
  35  0.617  0.617  0.500-
  36  0.617  0.383  0.500-
  37  0.383  0.617  0.500-
  38  0.500  0.500  0.335-
  39  0.500  0.500  0.665-
  40  0.328  0.446  0.583-  33 3.25  25 3.25  16 3.36   8 3.36  44 3.42  48 3.42
  41  0.554  0.672  0.583-  46 3.25  51 3.25  10 3.36  18 3.36  54 3.42  55 3.42
  42  0.558  0.442  0.582-  12 3.24   6 3.42  24 3.42  31 3.42  45 3.42
  43  0.442  0.558  0.418-  13 3.24   4 3.42  32 3.42  27 3.42  50 3.42
  44  0.442  0.442  0.582-  16 3.24   6 3.42  19 3.42  33 3.42  40 3.42
  45  0.672  0.446  0.583-  20 3.25  31 3.25   9 3.36  12 3.36  49 3.42  42 3.42
  46  0.446  0.672  0.583-  41 3.25  51 3.25  10 3.36  14 3.36  53 3.42  55 3.42
  47  0.558  0.558  0.418-  17 3.24   2 3.42  30 3.42  23 3.42  50 3.42
  48  0.384  0.500  0.500-   8 3.24   4 3.42  22 3.42  25 3.42  40 3.42
  49  0.616  0.500  0.500-   9 3.24   2 3.42  26 3.42  20 3.42  45 3.42
  50  0.500  0.617  0.340-  27 3.25  23 3.25  13 3.36  17 3.36  43 3.42  47 3.42
  51  0.500  0.617  0.660-  41 3.25  46 3.25  14 3.36  18 3.36  53 3.42  54 3.42
  52  0.500  0.500  0.500-
  53  0.442  0.558  0.582-  14 3.24  25 3.42  33 3.42  51 3.42  46 3.42
  54  0.558  0.558  0.582-  18 3.24  31 3.42  20 3.42  51 3.42  41 3.42
  55  0.500  0.616  0.500-  10 3.24  23 3.42  27 3.42  41 3.42  46 3.42
  56  0.620  0.379  0.716-  57 1.13  12 1.76
  57  0.636  0.363  0.745-  56 1.13
 
  LATTYP: Found a simple cubic cell.
 ALAT       =    30.0000000000
  
  Lattice vectors:
  
 A1 = (  30.0000000000,   0.0000000000,   0.0000000000)
 A2 = (   0.0000000000,  30.0000000000,   0.0000000000)
 A3 = (   0.0000000000,   0.0000000000,  30.0000000000)


Analysis of symmetry for initial positions (statically):
=====================================================================
 Subroutine PRICEL returns:
 Original cell was already a primitive cell.
 

 Routine SETGRP: Setting up the symmetry group for a 
 simple cubic supercell.


 Subroutine GETGRP returns: Found  1 space group operations
 (whereof  1 operations were pure point group operations)
 out of a pool of 48 trial point group operations.


The static configuration has the point symmetry C_1 .


Analysis of symmetry for dynamics (positions and initial velocities):
=====================================================================
 Subroutine PRICEL returns:
 Original cell was already a primitive cell.
 

 Routine SETGRP: Setting up the symmetry group for a 
 simple cubic supercell.


 Subroutine GETGRP returns: Found  1 space group operations
 (whereof  1 operations were pure point group operations)
 out of a pool of 48 trial point group operations.


The dynamic configuration has the point symmetry C_1 .


Analysis of constrained symmetry for selective dynamics:
=====================================================================
 Subroutine PRICEL returns:
 Original cell was already a primitive cell.
 

 Routine SETGRP: Setting up the symmetry group for a 
 simple cubic supercell.


 Subroutine GETGRP returns: Found  1 space group operations
 (whereof  1 operations were pure point group operations)
 out of a pool of 48 trial point group operations.


The constrained configuration has the point symmetry C_1 .


 Subroutine INISYM returns: Found  1 space group operations
 (whereof  1 operations are pure point group operations),
 and found     1 'primitive' translations

 
 
 KPOINTS: K-points                                

Automatic generation of k-mesh.
Space group operators:
 irot       det(A)        alpha          n_x          n_y          n_z        tau_x        tau_y        tau_z
    1     1.000000     0.000000     1.000000     0.000000     0.000000     0.000000     0.000000     0.000000
 
 Subroutine IBZKPT returns following result:
 ===========================================
 
 Found      1 irreducible k-points:
 
 Following reciprocal coordinates:
            Coordinates               Weight
  0.000000  0.000000  0.000000      1.000000
 
 Following cartesian coordinates:
            Coordinates               Weight
  0.000000  0.000000  0.000000      1.000000
 


--------------------------------------------------------------------------------------------------------




 Dimension of arrays:
   k-points           NKPTS =      1   k-points in BZ     NKDIM =      1   number of bands    NBANDS=    336
   number of dos      NEDOS =    301   number of ions     NIONS =     57
   non local maximal  LDIM  =      6   non local SUM 2l+1 LMDIM =     18
   total plane-waves  NPLWV = ******
   max r-space proj   IRMAX =   1847   max aug-charges    IRDMAX=   6262
   dimension x,y,z NGX =   150 NGY =  150 NGZ =  150
   dimension x,y,z NGXF=   300 NGYF=  300 NGZF=  300
   support grid    NGXF=   300 NGYF=  300 NGZF=  300
   ions per type =              55   1   1
   NGX,Y,Z   is equivalent  to a cutoff of   8.31,  8.31,  8.31 a.u.
   NGXF,Y,Z  is equivalent  to a cutoff of  16.62, 16.62, 16.62 a.u.

 SYSTEM =  6_Pd100_top_free_z(O)                   
 POSCAR =  Pd55PES                                 

 Startparameter for this run:
   NWRITE =      2    write-flag & timer
   PREC   = normal    normal or accurate (medium, high low for compatibility)
   ISTART =      0    job   : 0-new  1-cont  2-samecut
   ICHARG =      2    charge: 1-file 2-atom 10-const
   ISPIN  =      1    spin polarized calculation?
   LNONCOLLINEAR =      F non collinear calculations
   LSORBIT =      F    spin-orbit coupling
   INIWAV =      1    electr: 0-lowe 1-rand  2-diag
   LASPH  =      F    aspherical Exc in radial PAW
   METAGGA=      F    non-selfconsistent MetaGGA calc.

 Electronic Relaxation 1
   ENCUT  =  400.0 eV  29.40 Ry    5.42 a.u.  48.92 48.92 48.92*2*pi/ulx,y,z
   ENINI  =  400.0     initial cutoff
   ENAUG  =  644.9 eV  augmentation charge cutoff
   NELM   =    100;   NELMIN=  6; NELMDL= -5     # of ELM steps 
   EDIFF  = 0.1E-03   stopping-criterion for ELM
   LREAL  =      T    real-space projection
   NLSPLINE    = F    spline interpolate recip. space projectors
   LCOMPAT=      F    compatible to vasp.4.4
   GGA_COMPAT  = T    GGA compatible to vasp.4.4-vasp.4.6
   LMAXPAW     = -100 max onsite density
   LMAXMIX     =    2 max onsite mixed and CHGCAR
   VOSKOWN=      0    Vosko Wilk Nusair interpolation
   ROPT   =   -0.00050  -0.00050  -0.00050
 Ionic relaxation
   EDIFFG = -.5E-01   stopping-criterion for IOM
   NSW    =      0    number of steps for IOM
   NBLOCK =      1;   KBLOCK =      1    inner block; outer block 
   IBRION =     -1    ionic relax: 0-MD 1-quasi-New 2-CG
   NFREE  =      1    steps in history (QN), initial steepest desc. (CG)
   ISIF   =      2    stress and relaxation
   IWAVPR =     10    prediction:  0-non 1-charg 2-wave 3-comb
   ISYM   =      2    0-nonsym 1-usesym 2-fastsym
   LCORR  =      T    Harris-Foulkes like correction to forces

   POTIM  = 0.5000    time-step for ionic-motion
   TEIN   =    0.0    initial temperature
   TEBEG  =    0.0;   TEEND  =   0.0 temperature during run
   SMASS  =  -3.00    Nose mass-parameter (am)
   estimated Nose-frequenzy (Omega)   =  0.10E-29 period in steps =****** mass=  -0.206E-25a.u.
   SCALEE = 1.0000    scale energy and forces
   NPACO  =    256;   APACO  = 16.0  distance and # of slots for P.C.
   PSTRESS=    0.0 pullay stress

  Mass of Ions in am
   POMASS = 106.42 12.01 16.00
  Ionic Valenz
   ZVAL   =  10.00  4.00  6.00
  Atomic Wigner-Seitz radii
   RWIGS  =  -1.00 -1.00 -1.00
  virtual crystal weights 
   VCA    =   1.00  1.00  1.00
   NELECT =     560.0000    total number of electrons
   NUPDOWN=      -1.0000    fix difference up-down

 DOS related values:
   EMIN   =  10.00;   EMAX   =-10.00  energy-range for DOS
   EFERMI =   0.00
   ISMEAR =     2;   SIGMA  =   0.20  broadening in eV -4-tet -1-fermi 0-gaus

 Electronic relaxation 2 (details)
   IALGO  =     68    algorithm
   LDIAG  =      T    sub-space diagonalisation (order eigenvalues)
   LSUBROT=      F    optimize rotation matrix (better conditioning)
   TURBO    =      0    0=normal 1=particle mesh
   IRESTART =      0    0=no restart 2=restart with 2 vectors
   NREBOOT  =      0    no. of reboots
   NMIN     =      0    reboot dimension
   EREF     =   0.00    reference energy to select bands
   IMIX   =      4    mixing-type and parameters
     AMIX     =   0.40;   BMIX     =  1.00
     AMIX_MAG =   1.60;   BMIX_MAG =  1.00
     AMIN     =   0.10
     WC   =   100.;   INIMIX=   1;  MIXPRE=   1;  MAXMIX= -45

 Intra band minimization:
   WEIMIN = 0.0000     energy-eigenvalue tresh-hold
   EBREAK =  0.74E-07  absolut break condition
   DEPER  =   0.30     relativ break condition  

   TIME   =   0.40     timestep for ELM

  volume/ion in A,a.u.               =     473.68      3196.58
  Fermi-wavevector in a.u.,A,eV,Ry     =   0.449797  0.849992  2.752691  0.202317
  Thomas-Fermi vector in A             =   1.430086
 
 Write flags
   LWAVE        =      F    write WAVECAR
   LDOWNSAMPLE  =      F    k-point downsampling of WAVECAR
   LCHARG       =      F    write CHGCAR
   LVTOT        =      F    write LOCPOT, total local potential
   LVHAR        =      F    write LOCPOT, Hartree potential only
   LELF         =      F    write electronic localiz. function (ELF)
   LORBIT       =      0    0 simple, 1 ext, 2 COOP (PROOUT), +10 PAW based schemes


 Dipole corrections
   LMONO  =      F    monopole corrections only (constant potential shift)
   LDIPOL =      F    correct potential (dipole corrections)
   IDIPOL =      0    1-x, 2-y, 3-z, 4-all directions 
   EPSILON=  1.0000000 bulk dielectric constant

 Exchange correlation treatment:
   GGA     =    RP    GGA type
   LEXCH   =     9    internal setting for exchange type
   VOSKOWN=      0    Vosko Wilk Nusair interpolation
   LHFCALC =     F    Hartree Fock is set to
   LHFONE  =     F    Hartree Fock one center treatment
   AEXX    =    0.0000 exact exchange contribution

 Linear response parameters
   LEPSILON=     F    determine dielectric tensor
   LRPA    =     F    only Hartree local field effects (RPA)
   LNABLA  =     F    use nabla operator in PAW spheres
   LVEL    =     F    velocity operator in full k-point grid
   LINTERFAST=   F  fast interpolation
   KINTER  =     0    interpolate to denser k-point grid
   CSHIFT  =0.1000    complex shift for real part using Kramers Kronig
   OMEGAMAX=  -1.0    maximum frequency
   DEG_THRESHOLD= 0.2000000E-02 threshold for treating states as degnerate
   RTIME   =   -0.100 relaxation time in fs
  (WPLASMAI=    0.000 imaginary part of plasma frequency in eV, 0.658/RTIME)
   DFIELD  = 0.0000000 0.0000000 0.0000000 field for delta impulse in time
 
 Orbital magnetization related:
   ORBITALMAG=     F  switch on orbital magnetization
   LCHIMAG   =     F  perturbation theory with respect to B field
   DQ        =  0.001000  dq finite difference perturbation B field
   LLRAUG    =     F  two centre corrections for induced B field



--------------------------------------------------------------------------------------------------------


 Static calculation
 charge density and potential will be updated during run
 non-spin polarized calculation
 RMM-DIIS sequential band-by-band and
  variant of blocked Davidson during initial phase
 perform sub-space diagonalisation
    before iterative eigenvector-optimisation
 modified Broyden-mixing scheme, WC =      100.0
 initial mixing is a Kerker type mixing with AMIX =  0.4000 and BMIX =      1.0000
 Hartree-type preconditioning will be used
 using additional bands           56
 real space projection scheme for non local part
 use partial core corrections
 calculate Harris-corrections to forces 
   (improved forces if not selfconsistent)
 use gradient corrections 
 use of overlap-Matrix (Vanderbilt PP)
 Methfessel and Paxton  Order N= 2 SIGMA  =   0.20


--------------------------------------------------------------------------------------------------------


  energy-cutoff  :      400.00
  volume of cell :    27000.00
      direct lattice vectors                 reciprocal lattice vectors
    30.000000000  0.000000000  0.000000000     0.033333333  0.000000000  0.000000000
     0.000000000 30.000000000  0.000000000     0.000000000  0.033333333  0.000000000
     0.000000000  0.000000000 30.000000000     0.000000000  0.000000000  0.033333333

  length of vectors
    30.000000000 30.000000000 30.000000000     0.033333333  0.033333333  0.033333333


 
 k-points in units of 2pi/SCALE and weight: K-points                                
   0.00000000  0.00000000  0.00000000       1.000
 
 k-points in reciprocal lattice and weights: K-points                                
   0.00000000  0.00000000  0.00000000       1.000
 
 position of ions in fractional coordinates (direct lattice) 
   0.44576020  0.32826710  0.41691983
   0.67173288  0.55423978  0.41691983
   0.55423980  0.32826710  0.41691983
   0.32826712  0.55423978  0.41691983
   0.50000000  0.38250690  0.34021317
   0.50000000  0.38250690  0.65978680
   0.50000000  0.27609440  0.50000000
   0.27609443  0.49999998  0.50000000
   0.72390557  0.49999998  0.50000000
   0.50000000  0.72390555  0.50000000
   0.61195280  0.38804720  0.34167483
   0.61195280  0.38804720  0.65832513
   0.38804722  0.61195278  0.34167483
   0.38804722  0.61195278  0.65832513
   0.38804720  0.38804720  0.34167483
   0.38804720  0.38804720  0.65832513
   0.61195278  0.61195278  0.34167483
   0.61195278  0.61195278  0.65832513
   0.44576020  0.32826710  0.58308023
   0.67173288  0.55423978  0.58308023
   0.55791699  0.44208301  0.41809300
   0.32826705  0.44576024  0.41691983
   0.55423973  0.67173293  0.41691983
   0.55423980  0.32826710  0.58308023
   0.32826712  0.55423978  0.58308023
   0.67173295  0.44576024  0.41691983
   0.44576027  0.67173293  0.41691983
   0.44208301  0.44208301  0.41809300
   0.50000000  0.38416601  0.50000000
   0.61749315  0.50000005  0.34021317
   0.61749315  0.50000005  0.65978680
   0.38250685  0.50000005  0.34021317
   0.38250685  0.50000005  0.65978680
   0.38317830  0.38317830  0.50000000
   0.61682172  0.61682172  0.50000000
   0.61682170  0.38317830  0.50000000
   0.38317828  0.61682172  0.50000000
   0.50000000  0.50000000  0.33478917
   0.50000000  0.50000000  0.66521087
   0.32826705  0.44576024  0.58308023
   0.55423973  0.67173293  0.58308023
   0.55791699  0.44208301  0.58190703
   0.44208298  0.55791702  0.41809300
   0.44208301  0.44208301  0.58190703
   0.67173295  0.44576024  0.58308023
   0.44576027  0.67173293  0.58308023
   0.55791702  0.55791702  0.41809300
   0.38416599  0.50000002  0.50000000
   0.61583401  0.50000002  0.50000000
   0.50000000  0.61749319  0.34021317
   0.50000000  0.61749319  0.65978680
   0.50000000  0.50000000  0.50000000
   0.44208298  0.55791702  0.58190703
   0.55791702  0.55791702  0.58190703
   0.50000000  0.61583404  0.50000000
   0.61983380  0.37925913  0.71587910
   0.63622730  0.36274153  0.74541180
 
 position of ions in cartesian coordinates  (Angst):
  13.37280588  9.84801292 12.50759500
  20.15198637 16.62719342 12.50759500
  16.62719412  9.84801292 12.50759500
   9.84801363 16.62719342 12.50759500
  15.00000000 11.47520705 10.20639500
  15.00000000 11.47520705 19.79360400
  15.00000000  8.28283206 15.00000000
   8.28283277 14.99999929 15.00000000
  21.71716723 14.99999929 15.00000000
  15.00000000 21.71716652 14.99999999
  18.35858397 11.64141603 10.25024500
  18.35858397 11.64141603 19.74975399
  11.64141674 18.35858326 10.25024500
  11.64141674 18.35858326 19.74975400
  11.64141603 11.64141603 10.25024500
  11.64141603 11.64141603 19.74975400
  18.35858326 18.35858326 10.25024500
  18.35858326 18.35858326 19.74975400
  13.37280588  9.84801291 17.49240700
  20.15198638 16.62719341 17.49240700
  16.73750985 13.26249015 12.54279000
   9.84801151 13.37280729 12.50759500
  16.62719200 20.15198779 12.50759500
  16.62719412  9.84801292 17.49240700
   9.84801363 16.62719342 17.49240700
  20.15198849 13.37280729 12.50759500
  13.37280800 20.15198779 12.50759500
  13.26249015 13.26249015 12.54279000
  15.00000000 11.52498029 15.00000000
  18.52479437 15.00000140 10.20639500
  18.52479437 15.00000141 19.79360400
  11.47520562 15.00000141 10.20639501
  11.47520563 15.00000141 19.79360400
  11.49534898 11.49534898 15.00000000
  18.50465172 18.50465172 15.00000000
  18.50465102 11.49534898 15.00000000
  11.49534828 18.50465172 15.00000000
  15.00000000 15.00000000 10.04367500
  15.00000000 15.00000000 19.95632599
   9.84801151 13.37280729 17.49240700
  16.62719200 20.15198779 17.49240700
  16.73750985 13.26249015 17.45721100
  13.26248944 16.73751056 12.54279001
  13.26249015 13.26249015 17.45721100
  20.15198849 13.37280729 17.49240699
  13.37280800 20.15198779 17.49240700
  16.73751056 16.73751056 12.54279000
  11.52497959 15.00000071 15.00000000
  18.47502041 15.00000071 15.00000000
  14.99999999 18.52479579 10.20639500
  15.00000000 18.52479578 19.79360400
  15.00000000 15.00000000 15.00000000
  13.26248944 16.73751057 17.45721101
  16.73751056 16.73751057 17.45721100
  15.00000000 18.47502112 15.00000000
  18.59501400 11.37777400 21.47637300
  19.08681900 10.88224600 22.36235400
 


--------------------------------------------------------------------------------------------------------


 k-point  1 :   0.0000 0.0000 0.0000  plane waves:  490521

 maximum and minimum number of plane-waves per node :    490521   490521

 maximum number of plane-waves:    490521
 maximum index in each direction: 
   IXMAX=   48   IYMAX=   48   IZMAX=   48
   IXMIN=  -48   IYMIN=  -48   IZMIN=  -48


 serial   3D FFT for wavefunctions
 parallel 3D FFT for charge:
    minimum data exchange during FFTs selected (reduces bandwidth)


 total amount of memory used by VASP MPI-rank0  5486942. kBytes
=======================================================================

   base      :      30000. kBytes
   nonlr-proj:      17127. kBytes
   fftplans  :     924480. kBytes
   grid      :    1872000. kBytes
   one-center:        886. kBytes
   wavefun   :    2642449. kBytes
 
     INWAV:  cpu time    0.0001: real time    0.0005
 Broyden mixing: mesh for mixing (old mesh)
   NGX = 97   NGY = 97   NGZ = 97
  (NGX  =300   NGY  =300   NGZ  =300)
  gives a total of 912673 points

 initial charge density was supplied:
 charge density of overlapping atoms calculated
 number of electron     560.0000000 magnetization 
 keeping initial charge density in first step


--------------------------------------------------------------------------------------------------------


 Maximum index for non-local projection operator         1763
 Maximum index for augmentation-charges         5898 (set IRDMAX)


--------------------------------------------------------------------------------------------------------


 First call to EWALD:  gamma=   0.059
 Maximum number of real-space cells 3x 3x 3
 Maximum number of reciprocal cells 3x 3x 3

    FEWALD:  cpu time    0.0147: real time    0.0147


--------------------------------------- Iteration      1(   1)  ---------------------------------------


    POTLOK:  cpu time   14.0752: real time   14.0791
    SETDIJ:  cpu time    0.1186: real time    0.1186
     EDDAV:  cpu time  357.1135: real time  357.2095
       DOS:  cpu time    0.0013: real time    0.0013
    --------------------------------------------
      LOOP:  cpu time  371.3086: real time  371.4085

 eigenvalue-minimisations  :   688
 total energy-change (2. order) : 0.4393662E+04  (-0.1005130E+05)
 number of electron     560.0000000 magnetization 
 augmentation part      560.0000000 magnetization 

 Free energy of the ion-electron system (eV)
  ---------------------------------------------------
  alpha Z        PSCENC =        75.25431677
  Ewald energy   TEWEN  =    137577.53349693
  -Hartree energ DENC   =   -180933.23294099
  -exchange      EXHF   =         0.00000000
  -V(xc)+E(xc)   XCENC  =     -1702.78703256
  PAW double counting   =     44873.02882129   -41398.84523641
  entropy T*S    EENTRO =         0.01577968
  eigenvalues    EBANDS =       816.18915931
  atomic energy  EATOM  =     45086.50549395
  Solvation  Ediel_sol  =         0.00000000
  ---------------------------------------------------
  free energy    TOTEN  =      4393.66185797 eV

  energy without entropy =     4393.64607829  energy(sigma->0) =     4393.65791305


--------------------------------------------------------------------------------------------------------




--------------------------------------- Iteration      1(   2)  ---------------------------------------


     EDDAV:  cpu time  570.1654: real time  570.1910
       DOS:  cpu time    0.0012: real time    0.0012
    --------------------------------------------
      LOOP:  cpu time  570.1666: real time  570.1922

 eigenvalue-minimisations  :  1208
 total energy-change (2. order) :-0.2363849E+04  (-0.2123383E+04)
 number of electron     560.0000000 magnetization 
 augmentation part      560.0000000 magnetization 

 Free energy of the ion-electron system (eV)
  ---------------------------------------------------
  alpha Z        PSCENC =        75.25431677
  Ewald energy   TEWEN  =    137577.53349693
  -Hartree energ DENC   =   -180933.23294099
  -exchange      EXHF   =         0.00000000
  -V(xc)+E(xc)   XCENC  =     -1702.78703256
  PAW double counting   =     44873.02882129   -41398.84523641
  entropy T*S    EENTRO =         0.00565793
  eigenvalues    EBANDS =     -1547.64943508
  atomic energy  EATOM  =     45086.50549395
  Solvation  Ediel_sol  =         0.00000000
  ---------------------------------------------------
  free energy    TOTEN  =      2029.81314183 eV

  energy without entropy =     2029.80748390  energy(sigma->0) =     2029.81172735


--------------------------------------------------------------------------------------------------------




--------------------------------------- Iteration      1(   3)  ---------------------------------------


     EDDAV:  cpu time  487.3578: real time  487.3645
       DOS:  cpu time    0.0011: real time    0.0011
    --------------------------------------------
      LOOP:  cpu time  487.3588: real time  487.3655

 eigenvalue-minimisations  :  1000
 total energy-change (2. order) :-0.1790888E+04  (-0.1683601E+04)
 number of electron     560.0000000 magnetization 
 augmentation part      560.0000000 magnetization 

 Free energy of the ion-electron system (eV)
  ---------------------------------------------------
  alpha Z        PSCENC =        75.25431677
  Ewald energy   TEWEN  =    137577.53349693
  -Hartree energ DENC   =   -180933.23294099
  -exchange      EXHF   =         0.00000000
  -V(xc)+E(xc)   XCENC  =     -1702.78703256
  PAW double counting   =     44873.02882129   -41398.84523641
  entropy T*S    EENTRO =        -0.02951262
  eigenvalues    EBANDS =     -3338.50201978
  atomic energy  EATOM  =     45086.50549395
  Solvation  Ediel_sol  =         0.00000000
  ---------------------------------------------------
  free energy    TOTEN  =       238.92538658 eV

  energy without entropy =      238.95489919  energy(sigma->0) =      238.93276473


--------------------------------------------------------------------------------------------------------




--------------------------------------- Iteration      1(   4)  ---------------------------------------


     EDDAV:  cpu time  418.0934: real time  418.0974
       DOS:  cpu time    0.0011: real time    0.0011
    --------------------------------------------
      LOOP:  cpu time  418.0945: real time  418.0985

 eigenvalue-minimisations  :   824
 total energy-change (2. order) :-0.3722853E+03  (-0.3135886E+03)
 number of electron     560.0000000 magnetization 
 augmentation part      560.0000000 magnetization 

 Free energy of the ion-electron system (eV)
  ---------------------------------------------------
  alpha Z        PSCENC =        75.25431677
  Ewald energy   TEWEN  =    137577.53349693
  -Hartree energ DENC   =   -180933.23294099
  -exchange      EXHF   =         0.00000000
  -V(xc)+E(xc)   XCENC  =     -1702.78703256
  PAW double counting   =     44873.02882129   -41398.84523641
  entropy T*S    EENTRO =        -0.03833223
  eigenvalues    EBANDS =     -3710.77854047
  atomic energy  EATOM  =     45086.50549395
  Solvation  Ediel_sol  =         0.00000000
  ---------------------------------------------------
  free energy    TOTEN  =      -133.35995373 eV

  energy without entropy =     -133.32162150  energy(sigma->0) =     -133.35037067


--------------------------------------------------------------------------------------------------------




--------------------------------------- Iteration      1(   5)  ---------------------------------------


     EDDAV:  cpu time  520.5747: real time  520.5864
       DOS:  cpu time    0.0014: real time    0.0014
    CHARGE:  cpu time   25.6529: real time   25.6532
    MIXING:  cpu time    0.4367: real time    0.4367
    --------------------------------------------
      LOOP:  cpu time  546.6658: real time  546.6778

 eigenvalue-minimisations  :  1056
 total energy-change (2. order) :-0.4668202E+02  (-0.3912160E+02)
 number of electron     559.9999880 magnetization 
 augmentation part      244.8686817 magnetization 

 Broyden mixing:
  rms(total) = 0.17624E+01    rms(broyden)= 0.17616E+01
  rms(prec ) = 0.18574E+01
  weight for this iteration     100.00

 Free energy of the ion-electron system (eV)
  ---------------------------------------------------
  alpha Z        PSCENC =        75.25431677
  Ewald energy   TEWEN  =    137577.53349693
  -Hartree energ DENC   =   -180933.23294099
  -exchange      EXHF   =         0.00000000
  -V(xc)+E(xc)   XCENC  =     -1702.78703256
  PAW double counting   =     44873.02882129   -41398.84523641
  entropy T*S    EENTRO =         0.51176554
  eigenvalues    EBANDS =     -3758.01065456
  atomic energy  EATOM  =     45086.50549395
  Solvation  Ediel_sol  =         0.00000000
  ---------------------------------------------------
  free energy    TOTEN  =      -180.04197004 eV

  energy without entropy =     -180.55373558  energy(sigma->0) =     -180.16991143


--------------------------------------------------------------------------------------------------------




--------------------------------------- Iteration      1(   6)  ---------------------------------------


    POTLOK:  cpu time   13.4466: real time   13.4489
    SETDIJ:  cpu time    0.1227: real time    0.1227
    EDDIAG:  cpu time   69.5110: real time   69.5145
  RMM-DIIS:  cpu time  191.5757: real time  191.5786
    ORTHCH:  cpu time   13.5171: real time   13.5171
       DOS:  cpu time    0.0015: real time    0.0015
    CHARGE:  cpu time   25.3162: real time   25.3163
    MIXING:  cpu time    0.4556: real time    0.4556
    --------------------------------------------
      LOOP:  cpu time  313.9463: real time  313.9552

 eigenvalue-minimisations  :   727
 total energy-change (2. order) :-0.6693672E-01  (-0.6503117E+01)
 number of electron     559.9999902 magnetization 
 augmentation part      240.5345152 magnetization 

 Broyden mixing:
  rms(total) = 0.25144E+01    rms(broyden)= 0.25142E+01
  rms(prec ) = 0.28947E+01
  weight for this iteration     100.00

 eigenvalues of (default mixing * dielectric matrix)
  average eigenvalue GAMMA=   0.3452
  0.3452

 Free energy of the ion-electron system (eV)
  ---------------------------------------------------
  alpha Z        PSCENC =        75.25431677
  Ewald energy   TEWEN  =    137577.53349693
  -Hartree energ DENC   =   -181328.37156397
  -exchange      EXHF   =         0.00000000
  -V(xc)+E(xc)   XCENC  =     -1696.48364967
  PAW double counting   =     45678.74445621   -42178.90241013
  entropy T*S    EENTRO =        -0.23368166
  eigenvalues    EBANDS =     -3394.15536518
  atomic energy  EATOM  =     45086.50549395
  Solvation  Ediel_sol  =         0.00000000
  ---------------------------------------------------
  free energy    TOTEN  =      -180.10890676 eV

  energy without entropy =     -179.87522510  energy(sigma->0) =     -180.05048635


--------------------------------------------------------------------------------------------------------




--------------------------------------- Iteration      1(   7)  ---------------------------------------


    POTLOK:  cpu time   13.3719: real time   13.3743
    SETDIJ:  cpu time    0.1242: real time    0.1242
    EDDIAG:  cpu time   69.3508: real time   69.3526
  RMM-DIIS:  cpu time  229.1986: real time  229.2027
    ORTHCH:  cpu time   13.4631: real time   13.4632
       DOS:  cpu time    0.0014: real time    0.0014
    CHARGE:  cpu time   25.7222: real time   25.7224
    MIXING:  cpu time    0.4895: real time    0.4895
    --------------------------------------------
      LOOP:  cpu time  351.7217: real time  351.7304

 eigenvalue-minimisations  :   865
 total energy-change (2. order) :-0.2595391E+01  (-0.2261672E+01)
 number of electron     559.9999853 magnetization 
 augmentation part      240.3128345 magnetization 

 Broyden mixing:
  rms(total) = 0.20457E+01    rms(broyden)= 0.20454E+01
  rms(prec ) = 0.24616E+01
  weight for this iteration     100.00

 eigenvalues of (default mixing * dielectric matrix)
  average eigenvalue GAMMA=   0.3977
  0.6169  0.1784

 Free energy of the ion-electron system (eV)
  ---------------------------------------------------
  alpha Z        PSCENC =        75.25431677
  Ewald energy   TEWEN  =    137577.53349693
  -Hartree energ DENC   =   -181414.12448680
  -exchange      EXHF   =         0.00000000
  -V(xc)+E(xc)   XCENC  =     -1696.68846540
  PAW double counting   =     45759.89108988   -42257.60650232
  entropy T*S    EENTRO =        -0.13120974
  eigenvalues    EBANDS =     -3313.33803068
  atomic energy  EATOM  =     45086.50549395
  Solvation  Ediel_sol  =         0.00000000
  ---------------------------------------------------
  free energy    TOTEN  =      -182.70429741 eV

  energy without entropy =     -182.57308767  energy(sigma->0) =     -182.67149497


--------------------------------------------------------------------------------------------------------




--------------------------------------- Iteration      1(   8)  ---------------------------------------


    POTLOK:  cpu time   13.4952: real time   13.4967
    SETDIJ:  cpu time    0.1201: real time    0.1201
    EDDIAG:  cpu time   69.6759: real time   69.6771
  RMM-DIIS:  cpu time  201.6427: real time  201.6524
    ORTHCH:  cpu time   13.5312: real time   13.5313
       DOS:  cpu time    0.0014: real time    0.0014
    CHARGE:  cpu time   25.8539: real time   25.8541
    MIXING:  cpu time    0.5064: real time    0.5064
    --------------------------------------------
      LOOP:  cpu time  324.8268: real time  324.8395

 eigenvalue-minimisations  :   751
 total energy-change (2. order) :-0.5958263E+01  (-0.9059637E+00)
 number of electron     559.9999836 magnetization 
 augmentation part      239.3031745 magnetization 

 Broyden mixing:
  rms(total) = 0.31721E+01    rms(broyden)= 0.31719E+01
  rms(prec ) = 0.37908E+01
  weight for this iteration     100.00

 eigenvalues of (default mixing * dielectric matrix)
  average eigenvalue GAMMA=   0.3594
  0.7739  0.1708  0.1334

 Free energy of the ion-electron system (eV)
  ---------------------------------------------------
  alpha Z        PSCENC =        75.25431677
  Ewald energy   TEWEN  =    137577.53349693
  -Hartree energ DENC   =   -181468.69174141
  -exchange      EXHF   =         0.00000000
  -V(xc)+E(xc)   XCENC  =     -1696.72048037
  PAW double counting   =     45864.76966991   -42359.17182849
  entropy T*S    EENTRO =        -0.14202975
  eigenvalues    EBANDS =     -3267.99945790
  atomic energy  EATOM  =     45086.50549395
  Solvation  Ediel_sol  =         0.00000000
  ---------------------------------------------------
  free energy    TOTEN  =      -188.66256035 eV

  energy without entropy =     -188.52053060  energy(sigma->0) =     -188.62705291


--------------------------------------------------------------------------------------------------------




--------------------------------------- Iteration      1(   9)  ---------------------------------------


    POTLOK:  cpu time   13.8229: real time   13.8248
    SETDIJ:  cpu time    0.1250: real time    0.1250
    EDDIAG:  cpu time   69.1256: real time   69.1423
  RMM-DIIS:  cpu time  198.1968: real time  198.2195
    ORTHCH:  cpu time   13.5695: real time   13.5698
       DOS:  cpu time    0.0014: real time    0.0014
    CHARGE:  cpu time   25.8717: real time   25.8732
    MIXING:  cpu time    0.5655: real time    0.5655
    --------------------------------------------
      LOOP:  cpu time  321.2784: real time  321.3214

 eigenvalue-minimisations  :   741
 total energy-change (2. order) : 0.4330911E+01  (-0.6921943E+00)
 number of electron     559.9999841 magnetization 
 augmentation part      240.7609312 magnetization 

 Broyden mixing:
  rms(total) = 0.31710E+01    rms(broyden)= 0.31707E+01
  rms(prec ) = 0.37058E+01
  weight for this iteration     100.00

 eigenvalues of (default mixing * dielectric matrix)
  average eigenvalue GAMMA=   0.3231
  0.8723  0.1561  0.1561  0.1078

 Free energy of the ion-electron system (eV)
  ---------------------------------------------------
  alpha Z        PSCENC =        75.25431677
  Ewald energy   TEWEN  =    137577.53349693
  -Hartree energ DENC   =   -181478.75016966
  -exchange      EXHF   =         0.00000000
  -V(xc)+E(xc)   XCENC  =     -1696.81834925
  PAW double counting   =     45928.88102234   -42421.63439132
  entropy T*S    EENTRO =        -0.04952221
  eigenvalues    EBANDS =     -3255.25354737
  atomic energy  EATOM  =     45086.50549395
  Solvation  Ediel_sol  =         0.00000000
  ---------------------------------------------------
  free energy    TOTEN  =      -184.33164981 eV

  energy without entropy =     -184.28212760  energy(sigma->0) =     -184.31926925


--------------------------------------------------------------------------------------------------------




--------------------------------------- Iteration      1(  10)  ---------------------------------------


    POTLOK:  cpu time   13.5707: real time   13.5735
    SETDIJ:  cpu time    0.1215: real time    0.1215
    EDDIAG:  cpu time   69.0393: real time   69.0456
  RMM-DIIS:  cpu time  196.9309: real time  196.9483
    ORTHCH:  cpu time   13.7739: real time   13.7744
       DOS:  cpu time    0.0014: real time    0.0014
    CHARGE:  cpu time   25.7852: real time   25.7859
    MIXING:  cpu time    0.5968: real time    0.5968
    --------------------------------------------
      LOOP:  cpu time  319.8197: real time  319.8474

 eigenvalue-minimisations  :   740
 total energy-change (2. order) : 0.3153190E+01  (-0.3971797E+00)
 number of electron     559.9999890 magnetization 
 augmentation part      241.3551954 magnetization 

 Broyden mixing:
  rms(total) = 0.23162E+01    rms(broyden)= 0.23159E+01
  rms(prec ) = 0.27561E+01
  weight for this iteration     100.00

 eigenvalues of (default mixing * dielectric matrix)
  average eigenvalue GAMMA=   0.3065
  0.9616  0.1821  0.1821  0.1103  0.0963

 Free energy of the ion-electron system (eV)
  ---------------------------------------------------
  alpha Z        PSCENC =        75.25431677
  Ewald energy   TEWEN  =    137577.53349693
  -Hartree energ DENC   =   -181497.73802034
  -exchange      EXHF   =         0.00000000
  -V(xc)+E(xc)   XCENC  =     -1696.72245292
  PAW double counting   =     45973.23227414   -42464.70463001
  entropy T*S    EENTRO =        -0.09285854
  eigenvalues    EBANDS =     -3234.44608005
  atomic energy  EATOM  =     45086.50549395
  Solvation  Ediel_sol  =         0.00000000
  ---------------------------------------------------
  free energy    TOTEN  =      -181.17846007 eV

  energy without entropy =     -181.08560153  energy(sigma->0) =     -181.15524544


--------------------------------------------------------------------------------------------------------




--------------------------------------- Iteration      1(  11)  ---------------------------------------


    POTLOK:  cpu time   13.4591: real time   13.4597
    SETDIJ:  cpu time    0.1235: real time    0.1235
    EDDIAG:  cpu time   69.0754: real time   69.0761
  RMM-DIIS:  cpu time  196.2984: real time  196.3087
    ORTHCH:  cpu time   13.7846: real time   13.7849
       DOS:  cpu time    0.0015: real time    0.0015
    CHARGE:  cpu time   25.8325: real time   25.8368
    MIXING:  cpu time    0.6172: real time    0.6173
    --------------------------------------------
      LOOP:  cpu time  319.1922: real time  319.2085

 eigenvalue-minimisations  :   738
 total energy-change (2. order) : 0.1391431E+01  (-0.2789309E+00)
 number of electron     559.9999871 magnetization 
 augmentation part      241.5842378 magnetization 

 Broyden mixing:
  rms(total) = 0.22599E+01    rms(broyden)= 0.22596E+01
  rms(prec ) = 0.26475E+01
  weight for this iteration     100.00

 eigenvalues of (default mixing * dielectric matrix)
  average eigenvalue GAMMA=   0.2956
  1.0528  0.2094  0.2094  0.1130  0.1130  0.0758

 Free energy of the ion-electron system (eV)
  ---------------------------------------------------
  alpha Z        PSCENC =        75.25431677
  Ewald energy   TEWEN  =    137577.53349693
  -Hartree energ DENC   =   -181521.23563002
  -exchange      EXHF   =         0.00000000
  -V(xc)+E(xc)   XCENC  =     -1696.52928878
  PAW double counting   =     46016.50294001   -42506.49830578
  entropy T*S    EENTRO =        -0.06136612
  eigenvalues    EBANDS =     -3211.25868568
  atomic energy  EATOM  =     45086.50549395
  Solvation  Ediel_sol  =         0.00000000
  ---------------------------------------------------
  free energy    TOTEN  =      -179.78702872 eV

  energy without entropy =     -179.72566260  energy(sigma->0) =     -179.77168719


--------------------------------------------------------------------------------------------------------




--------------------------------------- Iteration      1(  12)  ---------------------------------------


    POTLOK:  cpu time   13.5425: real time   13.5437
    SETDIJ:  cpu time    0.1223: real time    0.1223
    EDDIAG:  cpu time   69.0172: real time   69.0206
  RMM-DIIS:  cpu time  191.3914: real time  191.4017
    ORTHCH:  cpu time   13.7628: real time   13.7629
       DOS:  cpu time    0.0015: real time    0.0015
    CHARGE:  cpu time   25.8511: real time   25.8512
    MIXING:  cpu time    0.6472: real time    0.6472
    --------------------------------------------
      LOOP:  cpu time  314.3361: real time  314.3510

 eigenvalue-minimisations  :   718
 total energy-change (2. order) : 0.1586301E+01  (-0.2623298E+00)
 number of electron     559.9999878 magnetization 
 augmentation part      241.6198031 magnetization 

 Broyden mixing:
  rms(total) = 0.14854E+01    rms(broyden)= 0.14851E+01
  rms(prec ) = 0.17350E+01
  weight for this iteration     100.00

 eigenvalues of (default mixing * dielectric matrix)
  average eigenvalue GAMMA=   0.3270
  1.2573  0.3037  0.3037  0.1334  0.1334  0.0787  0.0787

 Free energy of the ion-electron system (eV)
  ---------------------------------------------------
  alpha Z        PSCENC =        75.25431677
  Ewald energy   TEWEN  =    137577.53349693
  -Hartree energ DENC   =   -181542.77629403
  -exchange      EXHF   =         0.00000000
  -V(xc)+E(xc)   XCENC  =     -1696.27459996
  PAW double counting   =     46062.06911170   -42550.41762756
  entropy T*S    EENTRO =        -0.09275617
  eigenvalues    EBANDS =     -3190.00186961
  atomic energy  EATOM  =     45086.50549395
  Solvation  Ediel_sol  =         0.00000000
  ---------------------------------------------------
  free energy    TOTEN  =      -178.20072797 eV

  energy without entropy =     -178.10797180  energy(sigma->0) =     -178.17753893


--------------------------------------------------------------------------------------------------------




--------------------------------------- Iteration      1(  13)  ---------------------------------------


    POTLOK:  cpu time   13.4768: real time   13.4774
    SETDIJ:  cpu time    0.1226: real time    0.1226
    EDDIAG:  cpu time   68.9639: real time   68.9643
  RMM-DIIS:  cpu time  189.7907: real time  189.7935
    ORTHCH:  cpu time   13.6398: real time   13.6398
       DOS:  cpu time    0.0015: real time    0.0015
    CHARGE:  cpu time   25.8274: real time   25.8297
    MIXING:  cpu time    0.6861: real time    0.6861
    --------------------------------------------
      LOOP:  cpu time  312.5088: real time  312.5150

 eigenvalue-minimisations  :   712
 total energy-change (2. order) :-0.2198818E+01  (-0.2610373E+00)
 number of electron     559.9999871 magnetization 
 augmentation part      241.4263665 magnetization 

 Broyden mixing:
  rms(total) = 0.35310E+01    rms(broyden)= 0.35308E+01
  rms(prec ) = 0.42194E+01
  weight for this iteration     100.00

 eigenvalues of (default mixing * dielectric matrix)
  average eigenvalue GAMMA=   0.3213
  1.3775  0.4013  0.2950  0.1370  0.1370  0.0808  0.0808  0.0611

 Free energy of the ion-electron system (eV)
  ---------------------------------------------------
  alpha Z        PSCENC =        75.25431677
  Ewald energy   TEWEN  =    137577.53349693
  -Hartree energ DENC   =   -181588.40931790
  -exchange      EXHF   =         0.00000000
  -V(xc)+E(xc)   XCENC  =     -1695.63693909
  PAW double counting   =     46150.83428499   -42635.85945573
  entropy T*S    EENTRO =         0.29879730
  eigenvalues    EBANDS =     -3150.92022311
  atomic energy  EATOM  =     45086.50549395
  Solvation  Ediel_sol  =         0.00000000
  ---------------------------------------------------
  free energy    TOTEN  =      -180.39954589 eV

  energy without entropy =     -180.69834319  energy(sigma->0) =     -180.47424522


--------------------------------------------------------------------------------------------------------




--------------------------------------- Iteration      1(  14)  ---------------------------------------


    POTLOK:  cpu time   13.5580: real time   13.5585
    SETDIJ:  cpu time    0.1258: real time    0.1258
    EDDIAG:  cpu time   68.8468: real time   68.8498
  RMM-DIIS:  cpu time  192.1897: real time  192.1920
    ORTHCH:  cpu time   13.7260: real time   13.7259
       DOS:  cpu time    0.0015: real time    0.0015
    CHARGE:  cpu time   25.8383: real time   25.8382
    MIXING:  cpu time    0.7489: real time    0.7489
    --------------------------------------------
      LOOP:  cpu time  315.0349: real time  315.0406

 eigenvalue-minimisations  :   721
 total energy-change (2. order) : 0.1846334E+01  (-0.1822817E+00)
 number of electron     559.9999842 magnetization 
 augmentation part      241.2107982 magnetization 

 Broyden mixing:
  rms(total) = 0.22968E+01    rms(broyden)= 0.22965E+01
  rms(prec ) = 0.26797E+01
  weight for this iteration     100.00

 eigenvalues of (default mixing * dielectric matrix)
  average eigenvalue GAMMA=   0.3183
  1.4821  0.5047  0.2715  0.1471  0.1471  0.0939  0.0939  0.0717  0.0524

 Free energy of the ion-electron system (eV)
  ---------------------------------------------------
  alpha Z        PSCENC =        75.25431677
  Ewald energy   TEWEN  =    137577.53349693
  -Hartree energ DENC   =   -181619.38179138
  -exchange      EXHF   =         0.00000000
  -V(xc)+E(xc)   XCENC  =     -1695.25942387
  PAW double counting   =     46204.00487537   -42687.06135809
  entropy T*S    EENTRO =        -0.00721018
  eigenvalues    EBANDS =     -3120.14161113
  atomic energy  EATOM  =     45086.50549395
  Solvation  Ediel_sol  =         0.00000000
  ---------------------------------------------------
  free energy    TOTEN  =      -178.55321162 eV

  energy without entropy =     -178.54600145  energy(sigma->0) =     -178.55140908


--------------------------------------------------------------------------------------------------------




--------------------------------------- Iteration      1(  15)  ---------------------------------------


    POTLOK:  cpu time   13.4347: real time   13.4350
    SETDIJ:  cpu time    0.1278: real time    0.1278
    EDDIAG:  cpu time   69.0515: real time   69.0516
  RMM-DIIS:  cpu time  190.3783: real time  190.3831
    ORTHCH:  cpu time   13.7744: real time   13.7744
       DOS:  cpu time    0.0015: real time    0.0015
    CHARGE:  cpu time   25.8950: real time   25.8948
    MIXING:  cpu time    0.8035: real time    0.8036
    --------------------------------------------
      LOOP:  cpu time  313.4667: real time  313.4718

 eigenvalue-minimisations  :   715
 total energy-change (2. order) : 0.1367865E+01  (-0.1395765E+00)
 number of electron     559.9999886 magnetization 
 augmentation part      241.2335357 magnetization 

 Broyden mixing:
  rms(total) = 0.19762E+01    rms(broyden)= 0.19759E+01
  rms(prec ) = 0.23506E+01
  weight for this iteration     100.00

 eigenvalues of (default mixing * dielectric matrix)
  average eigenvalue GAMMA=   0.3094
  1.5535  0.5731  0.2505  0.1576  0.1576  0.1035  0.1035  0.0730  0.0609  0.0609

 Free energy of the ion-electron system (eV)
  ---------------------------------------------------
  alpha Z        PSCENC =        75.25431677
  Ewald energy   TEWEN  =    137577.53349693
  -Hartree energ DENC   =   -181642.60050824
  -exchange      EXHF   =         0.00000000
  -V(xc)+E(xc)   XCENC  =     -1694.93794198
  PAW double counting   =     46246.06378664   -42727.62082498
  entropy T*S    EENTRO =         0.04112597
  eigenvalues    EBANDS =     -3097.42429188
  atomic energy  EATOM  =     45086.50549395
  Solvation  Ediel_sol  =         0.00000000
  ---------------------------------------------------
  free energy    TOTEN  =      -177.18534681 eV

  energy without entropy =     -177.22647278  energy(sigma->0) =     -177.19562831


--------------------------------------------------------------------------------------------------------




--------------------------------------- Iteration      1(  16)  ---------------------------------------


    POTLOK:  cpu time   13.4181: real time   13.4186
    SETDIJ:  cpu time    0.1273: real time    0.1273
    EDDIAG:  cpu time   69.3405: real time   69.3429
  RMM-DIIS:  cpu time  192.1313: real time  192.1346
    ORTHCH:  cpu time   13.8093: real time   13.8093
       DOS:  cpu time    0.0015: real time    0.0015
    CHARGE:  cpu time   25.7819: real time   25.7819
    MIXING:  cpu time    0.8333: real time    0.8333
    --------------------------------------------
      LOOP:  cpu time  315.4432: real time  315.4494

 eigenvalue-minimisations  :   720
 total energy-change (2. order) : 0.1003344E+01  (-0.9692700E-01)
 number of electron     559.9999872 magnetization 
 augmentation part      241.2652882 magnetization 

 Broyden mixing:
  rms(total) = 0.11062E+01    rms(broyden)= 0.11059E+01
  rms(prec ) = 0.12842E+01
  weight for this iteration     100.00

 eigenvalues of (default mixing * dielectric matrix)
  average eigenvalue GAMMA=   0.2996
  1.5853  0.6055  0.2126  0.2126  0.1521  0.1521  0.0918  0.0918  0.0677  0.0677
  0.0567

 Free energy of the ion-electron system (eV)
  ---------------------------------------------------
  alpha Z        PSCENC =        75.25431677
  Ewald energy   TEWEN  =    137577.53349693
  -Hartree energ DENC   =   -181659.18286932
  -exchange      EXHF   =         0.00000000
  -V(xc)+E(xc)   XCENC  =     -1694.69232947
  PAW double counting   =     46275.30434085   -42755.71996578
  entropy T*S    EENTRO =        -0.03682486
  eigenvalues    EBANDS =     -3081.14766162
  atomic energy  EATOM  =     45086.50549395
  Solvation  Ediel_sol  =         0.00000000
  ---------------------------------------------------
  free energy    TOTEN  =      -176.18200255 eV

  energy without entropy =     -176.14517769  energy(sigma->0) =     -176.17279634


--------------------------------------------------------------------------------------------------------




--------------------------------------- Iteration      1(  17)  ---------------------------------------


    POTLOK:  cpu time   13.4394: real time   13.4400
    SETDIJ:  cpu time    0.1212: real time    0.1212
    EDDIAG:  cpu time   69.2363: real time   69.2367
  RMM-DIIS:  cpu time  190.8332: real time  190.8377
    ORTHCH:  cpu time   13.7213: real time   13.7213
       DOS:  cpu time    0.0015: real time    0.0015
    CHARGE:  cpu time   25.7682: real time   25.7681
    MIXING:  cpu time    0.8781: real time    0.8781
    --------------------------------------------
      LOOP:  cpu time  313.9993: real time  314.0046

 eigenvalue-minimisations  :   715
 total energy-change (2. order) : 0.3343425E+00  (-0.4386425E-01)
 number of electron     559.9999870 magnetization 
 augmentation part      241.3194955 magnetization 

 Broyden mixing:
  rms(total) = 0.10744E+01    rms(broyden)= 0.10742E+01
  rms(prec ) = 0.13034E+01
  weight for this iteration     100.00

 eigenvalues of (default mixing * dielectric matrix)
  average eigenvalue GAMMA=   0.3000
  1.6305  0.6567  0.2789  0.2789  0.1475  0.1475  0.1003  0.1003  0.0745  0.0745
  0.0551  0.0551

 Free energy of the ion-electron system (eV)
  ---------------------------------------------------
  alpha Z        PSCENC =        75.25431677
  Ewald energy   TEWEN  =    137577.53349693
  -Hartree energ DENC   =   -181668.86545895
  -exchange      EXHF   =         0.00000000
  -V(xc)+E(xc)   XCENC  =     -1694.52558334
  PAW double counting   =     46288.55322796   -42768.27221575
  entropy T*S    EENTRO =        -0.01942022
  eigenvalues    EBANDS =     -3072.01151744
  atomic energy  EATOM  =     45086.50549395
  Solvation  Ediel_sol  =         0.00000000
  ---------------------------------------------------
  free energy    TOTEN  =      -175.84766008 eV

  energy without entropy =     -175.82823986  energy(sigma->0) =     -175.84280503


--------------------------------------------------------------------------------------------------------




--------------------------------------- Iteration      1(  18)  ---------------------------------------


    POTLOK:  cpu time   13.4445: real time   13.4461
    SETDIJ:  cpu time    0.1236: real time    0.1236
    EDDIAG:  cpu time   69.1353: real time   69.1355
  RMM-DIIS:  cpu time  190.1654: real time  190.1669
    ORTHCH:  cpu time   13.8536: real time   13.8536
       DOS:  cpu time    0.0015: real time    0.0015
    CHARGE:  cpu time   25.9354: real time   25.9352
    MIXING:  cpu time    0.9710: real time    0.9710
    --------------------------------------------
      LOOP:  cpu time  313.6303: real time  313.6333

 eigenvalue-minimisations  :   716
 total energy-change (2. order) :-0.1355434E+00  (-0.3888616E-01)
 number of electron     559.9999872 magnetization 
 augmentation part      241.2402249 magnetization 

 Broyden mixing:
  rms(total) = 0.13313E+01    rms(broyden)= 0.13311E+01
  rms(prec ) = 0.16380E+01
  weight for this iteration     100.00

 eigenvalues of (default mixing * dielectric matrix)
  average eigenvalue GAMMA=   0.3046
  1.6807  0.7364  0.3430  0.3430  0.1522  0.1522  0.1081  0.1081  0.0818  0.0818
  0.0641  0.0641  0.0446

 Free energy of the ion-electron system (eV)
  ---------------------------------------------------
  alpha Z        PSCENC =        75.25431677
  Ewald energy   TEWEN  =    137577.53349693
  -Hartree energ DENC   =   -181684.18451858
  -exchange      EXHF   =         0.00000000
  -V(xc)+E(xc)   XCENC  =     -1694.28571026
  PAW double counting   =     46307.02566072   -42785.66934986
  entropy T*S    EENTRO =         0.06516108
  eigenvalues    EBANDS =     -3058.22775429
  atomic energy  EATOM  =     45086.50549395
  Solvation  Ediel_sol  =         0.00000000
  ---------------------------------------------------
  free energy    TOTEN  =      -175.98320353 eV

  energy without entropy =     -176.04836462  energy(sigma->0) =     -175.99949380


--------------------------------------------------------------------------------------------------------




--------------------------------------- Iteration      1(  19)  ---------------------------------------


    POTLOK:  cpu time   13.4440: real time   13.4455
    SETDIJ:  cpu time    0.1328: real time    0.1328
    EDDIAG:  cpu time   69.4813: real time   69.4822
  RMM-DIIS:  cpu time  187.4596: real time  187.4598
    ORTHCH:  cpu time   13.9646: real time   13.9665
       DOS:  cpu time    0.0015: real time    0.0015
    CHARGE:  cpu time   25.8035: real time   25.8035
    MIXING:  cpu time    0.9909: real time    0.9909
    --------------------------------------------
      LOOP:  cpu time  311.2782: real time  311.2827

 eigenvalue-minimisations  :   707
 total energy-change (2. order) : 0.2497456E+00  (-0.3434321E-01)
 number of electron     559.9999886 magnetization 
 augmentation part      241.1314377 magnetization 

 Broyden mixing:
  rms(total) = 0.96559E+00    rms(broyden)= 0.96543E+00
  rms(prec ) = 0.11237E+01
  weight for this iteration     100.00

 eigenvalues of (default mixing * dielectric matrix)
  average eigenvalue GAMMA=   0.3097
  1.7517  0.8249  0.3807  0.3807  0.1546  0.1546  0.1539  0.1086  0.1086  0.0765
  0.0765  0.0595  0.0595  0.0453

 Free energy of the ion-electron system (eV)
  ---------------------------------------------------
  alpha Z        PSCENC =        75.25431677
  Ewald energy   TEWEN  =    137577.53349693
  -Hartree energ DENC   =   -181702.65311909
  -exchange      EXHF   =         0.00000000
  -V(xc)+E(xc)   XCENC  =     -1694.00388891
  PAW double counting   =     46324.13790095   -42801.58329708
  entropy T*S    EENTRO =        -0.02667465
  eigenvalues    EBANDS =     -3040.89768677
  atomic energy  EATOM  =     45086.50549395
  Solvation  Ediel_sol  =         0.00000000
  ---------------------------------------------------
  free energy    TOTEN  =      -175.73345791 eV

  energy without entropy =     -175.70678326  energy(sigma->0) =     -175.72678925


--------------------------------------------------------------------------------------------------------




--------------------------------------- Iteration      1(  20)  ---------------------------------------


    POTLOK:  cpu time   13.4096: real time   13.4114
    SETDIJ:  cpu time    0.1263: real time    0.1263
    EDDIAG:  cpu time   69.4050: real time   69.4048
  RMM-DIIS:  cpu time  186.3397: real time  186.3420
    ORTHCH:  cpu time   13.7563: real time   13.7563
       DOS:  cpu time    0.0015: real time    0.0015
    CHARGE:  cpu time   25.7589: real time   25.7588
    MIXING:  cpu time    1.0825: real time    1.0826
    --------------------------------------------
      LOOP:  cpu time  309.8799: real time  309.8837

 eigenvalue-minimisations  :   704
 total energy-change (2. order) : 0.2906661E+00  (-0.2660494E-01)
 number of electron     559.9999880 magnetization 
 augmentation part      241.0956452 magnetization 

 Broyden mixing:
  rms(total) = 0.82193E+00    rms(broyden)= 0.82178E+00
  rms(prec ) = 0.96818E+00
  weight for this iteration     100.00

 eigenvalues of (default mixing * dielectric matrix)
  average eigenvalue GAMMA=   0.3096
  1.7860  0.8376  0.4403  0.4403  0.1557  0.1557  0.1568  0.1568  0.0996  0.0996
  0.0756  0.0756  0.0593  0.0593  0.0453

 Free energy of the ion-electron system (eV)
  ---------------------------------------------------
  alpha Z        PSCENC =        75.25431677
  Ewald energy   TEWEN  =    137577.53349693
  -Hartree energ DENC   =   -181721.92924923
  -exchange      EXHF   =         0.00000000
  -V(xc)+E(xc)   XCENC  =     -1693.73652218
  PAW double counting   =     46340.40328095   -42816.61538560
  entropy T*S    EENTRO =        -0.00608425
  eigenvalues    EBANDS =     -3022.85213919
  atomic energy  EATOM  =     45086.50549395
  Solvation  Ediel_sol  =         0.00000000
  ---------------------------------------------------
  free energy    TOTEN  =      -175.44279186 eV

  energy without entropy =     -175.43670760  energy(sigma->0) =     -175.44127079


--------------------------------------------------------------------------------------------------------




--------------------------------------- Iteration      1(  21)  ---------------------------------------


    POTLOK:  cpu time   13.4977: real time   13.4991
    SETDIJ:  cpu time    0.1261: real time    0.1261
    EDDIAG:  cpu time   69.4035: real time   69.4040
  RMM-DIIS:  cpu time  185.3348: real time  185.3392
    ORTHCH:  cpu time   13.7362: real time   13.7362
       DOS:  cpu time    0.0015: real time    0.0015
    CHARGE:  cpu time   26.1415: real time   26.1414
    MIXING:  cpu time    1.1163: real time    1.1163
    --------------------------------------------
      LOOP:  cpu time  309.3575: real time  309.3638

 eigenvalue-minimisations  :   700
 total energy-change (2. order) : 0.1654044E+00  (-0.1839244E-01)
 number of electron     559.9999881 magnetization 
 augmentation part      241.1187638 magnetization 

 Broyden mixing:
  rms(total) = 0.55734E+00    rms(broyden)= 0.55717E+00
  rms(prec ) = 0.63913E+00
  weight for this iteration     100.00

 eigenvalues of (default mixing * dielectric matrix)
  average eigenvalue GAMMA=   0.3210
  1.8120  0.8436  0.5753  0.5753  0.2035  0.2035  0.1533  0.1533  0.1014  0.1014
  0.1010  0.0744  0.0744  0.0592  0.0592  0.0452

 Free energy of the ion-electron system (eV)
  ---------------------------------------------------
  alpha Z        PSCENC =        75.25431677
  Ewald energy   TEWEN  =    137577.53349693
  -Hartree energ DENC   =   -181731.05652660
  -exchange      EXHF   =         0.00000000
  -V(xc)+E(xc)   XCENC  =     -1693.60855936
  PAW double counting   =     46344.06925834   -42819.69538870
  entropy T*S    EENTRO =        -0.03182881
  eigenvalues    EBANDS =     -3014.24765000
  atomic energy  EATOM  =     45086.50549395
  Solvation  Ediel_sol  =         0.00000000
  ---------------------------------------------------
  free energy    TOTEN  =      -175.27738749 eV

  energy without entropy =     -175.24555867  energy(sigma->0) =     -175.26943028


--------------------------------------------------------------------------------------------------------




--------------------------------------- Iteration      1(  22)  ---------------------------------------


    POTLOK:  cpu time   13.5882: real time   13.5887
    SETDIJ:  cpu time    0.1224: real time    0.1224
    EDDIAG:  cpu time   69.4260: real time   69.4264
  RMM-DIIS:  cpu time  184.5606: real time  184.5640
    ORTHCH:  cpu time   13.9054: real time   13.9053
       DOS:  cpu time    0.0015: real time    0.0015
    CHARGE:  cpu time   26.1406: real time   26.1404
    MIXING:  cpu time    1.2470: real time    1.2470
    --------------------------------------------
      LOOP:  cpu time  308.9916: real time  308.9956

 eigenvalue-minimisations  :   699
 total energy-change (2. order) : 0.1260624E-01  (-0.1882840E-01)
 number of electron     559.9999875 magnetization 
 augmentation part      241.1074864 magnetization 

 Broyden mixing:
  rms(total) = 0.61982E+00    rms(broyden)= 0.61966E+00
  rms(prec ) = 0.72412E+00
  weight for this iteration     100.00

 eigenvalues of (default mixing * dielectric matrix)
  average eigenvalue GAMMA=   0.3379
  1.8670  1.0042  0.6816  0.6816  0.2916  0.1535  0.1535  0.1680  0.1277  0.0994
  0.0994  0.1036  0.0748  0.0748  0.0590  0.0590  0.0452

 Free energy of the ion-electron system (eV)
  ---------------------------------------------------
  alpha Z        PSCENC =        75.25431677
  Ewald energy   TEWEN  =    137577.53349693
  -Hartree energ DENC   =   -181747.76032687
  -exchange      EXHF   =         0.00000000
  -V(xc)+E(xc)   XCENC  =     -1693.41415284
  PAW double counting   =     46347.05522669   -42821.82192719
  entropy T*S    EENTRO =        -0.06635603
  eigenvalues    EBANDS =     -2998.55055266
  atomic energy  EATOM  =     45086.50549395
  Solvation  Ediel_sol  =         0.00000000
  ---------------------------------------------------
  free energy    TOTEN  =      -175.26478125 eV

  energy without entropy =     -175.19842522  energy(sigma->0) =     -175.24819224


--------------------------------------------------------------------------------------------------------




--------------------------------------- Iteration      1(  23)  ---------------------------------------


    POTLOK:  cpu time   13.6120: real time   13.6127
    SETDIJ:  cpu time    0.1260: real time    0.1260
    EDDIAG:  cpu time   68.8359: real time   68.8359
  RMM-DIIS:  cpu time  188.2322: real time  188.2335
    ORTHCH:  cpu time   13.6509: real time   13.6508
       DOS:  cpu time    0.0015: real time    0.0015
    CHARGE:  cpu time   25.9035: real time   25.9034
    MIXING:  cpu time    1.2540: real time    1.2540
    --------------------------------------------
      LOOP:  cpu time  311.6160: real time  311.6178

 eigenvalue-minimisations  :   712
 total energy-change (2. order) :-0.8326157E-01  (-0.1960999E-01)
 number of electron     559.9999881 magnetization 
 augmentation part      241.0217996 magnetization 

 Broyden mixing:
  rms(total) = 0.78009E+00    rms(broyden)= 0.77993E+00
  rms(prec ) = 0.93390E+00
  weight for this iteration     100.00

 eigenvalues of (default mixing * dielectric matrix)
  average eigenvalue GAMMA=   0.3458
  1.9678  1.1904  0.8385  0.4370  0.4370  0.1534  0.1534  0.1787  0.1787  0.1012
[...]
 -0.007  -0.012   0.003   0.004   0.006  -0.007  -0.012   0.003
 -0.012  -0.021   0.006   0.007   0.010  -0.011  -0.020   0.005
 -0.015  -0.004   0.013   0.000   0.022  -0.014  -0.004   0.012
  0.000  -0.023  -0.005  -0.015  -0.000   0.000  -0.022  -0.005
 -0.022   0.000   0.009  -0.004  -0.016  -0.022   0.000   0.008
 -0.018  -0.006   0.015   0.000   0.027  -0.017  -0.005   0.015
  0.000  -0.027  -0.007  -0.018  -0.000   0.000  -0.027  -0.007
 -0.027   0.000   0.010  -0.006  -0.019  -0.026   0.000   0.010
 total augmentation occupancy for first ion, spin component:           1
  1.534  -0.030   0.008   0.018   0.023   0.077  -0.008  -0.002   0.035  -0.010   0.095  -0.033   0.012   0.002   0.003  -0.019
 -0.030   1.400   0.034   0.075   0.003  -0.007   0.072   0.010  -0.015  -0.009   0.227  -0.069   0.019   0.001   0.003  -0.006
  0.008   0.034   1.540   0.002   0.003  -0.002   0.012   0.075  -0.012   0.017  -0.044   0.015  -0.003  -0.007  -0.005   0.016
  0.018   0.075   0.002   1.336   0.044   0.033  -0.014  -0.012   0.092  -0.023  -0.074   0.019  -0.001  -0.009  -0.004   0.001
  0.023   0.003   0.003   0.044   1.437  -0.010  -0.009   0.016  -0.022   0.068  -0.103   0.033  -0.002  -0.011  -0.009   0.026
  0.077  -0.007  -0.002   0.033  -0.010   0.217   0.019  -0.002  -0.045   0.004  -0.048   0.001   0.017  -0.010   0.034  -0.004
 -0.008   0.072   0.012  -0.014  -0.009   0.019   0.264  -0.022  -0.003   0.006  -0.110   0.007  -0.001   0.051  -0.010  -0.000
 -0.002   0.010   0.075  -0.012   0.016  -0.002  -0.022   0.215   0.014  -0.019   0.027  -0.001  -0.012   0.009  -0.018   0.003
  0.035  -0.015  -0.012   0.092  -0.022  -0.045  -0.003   0.014   0.261   0.007   0.042  -0.004  -0.009   0.036   0.004   0.000
 -0.010  -0.009   0.017  -0.023   0.068   0.004   0.006  -0.019   0.007   0.259   0.047  -0.002  -0.038   0.003   0.049   0.007
  0.095   0.227  -0.044  -0.074  -0.103  -0.048  -0.110   0.027   0.042   0.047   0.949  -0.141   0.084   0.013   0.064  -0.013
 -0.033  -0.069   0.015   0.019   0.033   0.001   0.007  -0.001  -0.004  -0.002  -0.141   0.023  -0.014  -0.003  -0.010   0.003
  0.012   0.019  -0.003  -0.001  -0.002   0.017  -0.001  -0.012  -0.009  -0.038   0.084  -0.014   0.029  -0.008  -0.004  -0.003
  0.002   0.001  -0.007  -0.009  -0.011  -0.010   0.051   0.009   0.036   0.003   0.013  -0.003  -0.008   0.036   0.004   0.000
  0.003   0.003  -0.005  -0.004  -0.009   0.034  -0.010  -0.018   0.004   0.049   0.064  -0.010  -0.004   0.004   0.035  -0.000
 -0.019  -0.006   0.016   0.001   0.026  -0.004  -0.000   0.003   0.000   0.007  -0.013   0.003  -0.003   0.000  -0.000   0.001
  0.001  -0.028  -0.007  -0.018   0.001   0.001  -0.008  -0.001  -0.006  -0.000  -0.004   0.001   0.000  -0.003  -0.000   0.000
 -0.028   0.001   0.012  -0.005  -0.019  -0.006   0.001   0.003  -0.001  -0.007  -0.008   0.001  -0.000  -0.000  -0.003   0.000


------------------------ aborting loop because EDIFF is reached ----------------------------------------


    CHARGE:  cpu time   25.4411: real time   25.4410
    FORLOC:  cpu time    6.8265: real time    6.8265
    FORNL :  cpu time   66.0459: real time   66.0455
    STRESS:  cpu time  198.0906: real time  198.0892
    FORCOR:  cpu time   21.9800: real time   21.9802
    FORHAR:  cpu time    9.7174: real time    9.7174
    MIXING:  cpu time    3.6105: real time    3.6106
    OFIELD:  cpu time    0.0000: real time    0.0000

  FORCE on cell =-STRESS in cart. coord.  units (eV):
  Direction    XX          YY          ZZ          XY          YZ          ZX
  --------------------------------------------------------------------------------------
  Alpha Z    75.25432    75.25432    75.25432
  Ewald   44800.07961 44818.94660 47958.40175  -778.68546 -1617.50505  1601.39816
  Hartree 59683.21787 59700.85464 62533.21330  -722.96722 -1475.98314  1463.31273
  E(xc)   -2906.01961 -2906.01286 -2903.87369    -0.31797    -0.60945     0.58307
  Local  ************************************  1494.26148  3079.64062 -3051.35934
  n-local  -878.57465  -878.50170  -877.46638     1.02503     0.76488    -0.85424
  augment  4106.14897  4106.10447  4097.45954     0.53380     1.09579    -0.93455
  Kinetic  7815.55622  7815.43253  7786.10206     5.10940     9.44588    -9.07072
  Fock        0.00000     0.00000     0.00000     0.00000     0.00000     0.00000
  -------------------------------------------------------------------------------------
  Total    -112.21385  -112.15884  -105.43778    -1.04093    -3.15048     3.07510
  in kB      -6.65876    -6.65549    -6.25667    -0.06177    -0.18695     0.18248
  external pressure =       -6.52 kB  Pullay stress =        0.00 kB


 VOLUME and BASIS-vectors are now :
 -----------------------------------------------------------------------------
  energy-cutoff  :      400.00
  volume of cell :    27000.00
      direct lattice vectors                 reciprocal lattice vectors
    30.000000000  0.000000000  0.000000000     0.033333333  0.000000000  0.000000000
     0.000000000 30.000000000  0.000000000     0.000000000  0.033333333  0.000000000
     0.000000000  0.000000000 30.000000000     0.000000000  0.000000000  0.033333333

  length of vectors
    30.000000000 30.000000000 30.000000000     0.033333333  0.033333333  0.033333333


 FORCES acting on ions
    electron-ion (+dipol)            ewald-force                    non-local-force                 convergence-correction
 -----------------------------------------------------------------------------------------------
   0.399E+03 0.971E+03 0.423E+03   -.396E+03 -.968E+03 -.423E+03   -.150E+01 -.182E+01 -.198E+00   0.748E-03 -.170E-02 0.639E-03
   -.971E+03 -.399E+03 0.423E+03   0.968E+03 0.396E+03 -.423E+03   0.182E+01 0.150E+01 -.199E+00   0.339E-02 -.947E-03 0.418E-02
   -.390E+03 0.972E+03 0.427E+03   0.388E+03 -.969E+03 -.427E+03   0.149E+01 -.183E+01 -.221E+00   -.966E-05 0.356E-03 0.237E-02
   0.973E+03 -.396E+03 0.419E+03   -.970E+03 0.394E+03 -.418E+03   -.183E+01 0.150E+01 -.234E+00   -.163E-02 0.159E-02 0.225E-02
   0.270E+01 0.585E+03 0.969E+03   -.270E+01 -.585E+03 -.965E+03   0.212E-02 -.314E+00 -.235E+01   0.288E-04 -.297E-02 0.473E-03
   0.624E+02 0.580E+03 -.929E+03   -.629E+02 -.580E+03 0.925E+03   0.381E+00 -.337E+00 0.244E+01   -.675E-03 0.413E-02 -.330E-04
   0.851E+01 0.114E+04 0.149E+02   -.849E+01 -.113E+04 -.149E+02   -.769E-02 -.310E+01 -.211E-02   0.369E-04 0.134E-02 0.132E-02
   0.114E+04 -.209E+01 0.343E+01   -.113E+04 0.209E+01 -.343E+01   -.312E+01 -.780E-03 0.372E-03   0.351E-03 0.741E-03 0.856E-02
   -.114E+04 -.849E+01 0.147E+02   0.113E+04 0.848E+01 -.147E+02   0.310E+01 0.583E-02 0.324E-03   -.289E-02 0.656E-05 0.203E-02
   0.207E+01 -.114E+04 0.342E+01   -.207E+01 0.113E+04 -.342E+01   0.856E-03 0.312E+01 0.271E-03   -.843E-03 0.472E-03 0.841E-02
   -.577E+03 0.577E+03 0.818E+03   0.575E+03 -.575E+03 -.815E+03   0.156E+01 -.156E+01 -.220E+01   0.403E-03 -.151E-02 0.119E-03
   -.523E+03 0.519E+03 -.518E+03   0.522E+03 -.518E+03 0.526E+03   -.652E+00 0.860E+00 -.112E+02   -.816E-04 0.322E-02 -.167E-02
   0.580E+03 -.580E+03 0.814E+03   -.577E+03 0.577E+03 -.810E+03   -.156E+01 0.156E+01 -.221E+01   -.257E-02 0.970E-03 -.261E-02
   0.585E+03 -.585E+03 -.809E+03   -.583E+03 0.583E+03 0.806E+03   -.156E+01 0.156E+01 0.220E+01   0.298E-02 -.540E-02 -.108E-02
   0.581E+03 0.577E+03 0.815E+03   -.578E+03 -.575E+03 -.812E+03   -.156E+01 -.156E+01 -.221E+01   0.189E-02 -.405E-02 -.110E-02
   0.599E+03 0.576E+03 -.805E+03   -.597E+03 -.573E+03 0.801E+03   -.160E+01 -.154E+01 0.221E+01   0.772E-03 0.415E-02 0.415E-03
   -.577E+03 -.581E+03 0.815E+03   0.575E+03 0.578E+03 -.812E+03   0.156E+01 0.156E+01 -.221E+01   0.709E-02 -.370E-02 -.713E-03
   -.576E+03 -.599E+03 -.805E+03   0.574E+03 0.597E+03 0.801E+03   0.154E+01 0.160E+01 0.221E+01   -.477E-02 -.285E-02 -.781E-03
   0.413E+03 0.975E+03 -.399E+03   -.411E+03 -.972E+03 0.399E+03   -.149E+01 -.187E+01 0.200E+00   0.438E-03 0.202E-02 0.266E-02
   -.975E+03 -.413E+03 -.400E+03   0.972E+03 0.411E+03 0.399E+03   0.187E+01 0.149E+01 0.198E+00   -.461E-02 -.281E-02 0.111E-02
   -.317E+03 0.317E+03 0.464E+03   0.318E+03 -.318E+03 -.464E+03   -.367E+00 0.367E+00 0.531E+00   0.236E-02 -.265E-02 0.462E-02
   0.974E+03 0.392E+03 0.420E+03   -.971E+03 -.390E+03 -.419E+03   -.184E+01 -.150E+01 -.224E+00   0.409E-03 -.341E-02 0.619E-03
   -.392E+03 -.974E+03 0.420E+03   0.390E+03 0.971E+03 -.419E+03   0.150E+01 0.184E+01 -.224E+00   0.362E-02 -.941E-03 0.346E-02
   -.371E+03 0.984E+03 -.370E+03   0.368E+03 -.981E+03 0.369E+03   0.147E+01 -.199E+01 0.437E+00   0.109E-02 0.300E-02 0.618E-03
   0.977E+03 -.398E+03 -.412E+03   -.974E+03 0.396E+03 0.411E+03   -.182E+01 0.149E+01 0.226E+00   0.452E-02 -.789E-03 0.759E-02
   -.972E+03 0.390E+03 0.427E+03   0.969E+03 -.388E+03 -.427E+03   0.183E+01 -.149E+01 -.221E+00   -.565E-04 0.167E-02 0.451E-02
   0.396E+03 -.973E+03 0.419E+03   -.394E+03 0.970E+03 -.418E+03   -.150E+01 0.183E+01 -.234E+00   -.495E-02 0.158E-02 0.279E-02
   0.325E+03 0.318E+03 0.460E+03   -.326E+03 -.319E+03 -.460E+03   0.371E+00 0.365E+00 0.529E+00   0.298E-02 -.464E-02 0.226E-02
   0.103E+02 0.636E+03 0.181E+02   -.103E+02 -.637E+03 -.180E+02   -.420E-01 0.724E+00 -.829E-01   0.239E-02 -.440E-03 0.357E-02
   -.585E+03 -.271E+01 0.969E+03   0.585E+03 0.271E+01 -.965E+03   0.313E+00 -.228E-02 -.235E+01   0.383E-02 -.115E-02 0.149E-02
   -.581E+03 -.619E+02 -.930E+03   0.580E+03 0.623E+02 0.926E+03   0.335E+00 -.374E+00 0.245E+01   -.379E-02 0.754E-03 -.214E-02
   0.588E+03 -.168E+01 0.966E+03   -.588E+03 0.167E+01 -.963E+03   -.314E+00 0.941E-02 -.236E+01   0.253E-04 -.287E-02 -.357E-02
   0.600E+03 -.801E+01 -.959E+03   -.599E+03 0.801E+01 0.955E+03   -.329E+00 -.144E-02 0.235E+01   0.249E-02 0.211E-02 -.149E-02
   0.768E+03 0.759E+03 0.819E+01   -.766E+03 -.757E+03 -.818E+01   -.114E+01 -.114E+01 -.643E-02   0.222E-02 -.174E-02 0.513E-02
   -.759E+03 -.768E+03 0.813E+01   0.757E+03 0.766E+03 -.813E+01   0.114E+01 0.114E+01 -.544E-02   0.329E-02 -.543E-02 0.735E-02
   -.758E+03 0.758E+03 0.276E+02   0.756E+03 -.756E+03 -.275E+02   0.116E+01 -.116E+01 -.742E-01   0.122E-02 0.135E-02 0.466E-02
   0.764E+03 -.764E+03 0.398E+01   -.762E+03 0.762E+03 -.399E+01   -.115E+01 0.115E+01 -.264E-02   -.794E-03 -.130E-02 0.104E-01
   0.226E+01 -.228E+01 0.107E+04   -.226E+01 0.227E+01 -.107E+04   -.328E-02 0.371E-02 -.162E+01   0.151E-02 -.439E-02 -.114E-02
   0.271E+02 -.273E+02 -.105E+04   -.271E+02 0.273E+02 0.105E+04   0.560E-01 -.567E-01 0.166E+01   -.112E-02 0.354E-02 -.143E-02
   0.980E+03 0.391E+03 -.410E+03   -.977E+03 -.389E+03 0.410E+03   -.180E+01 -.150E+01 0.221E+00   0.345E-02 0.298E-02 0.730E-02
   -.391E+03 -.979E+03 -.410E+03   0.389E+03 0.977E+03 0.410E+03   0.150E+01 0.180E+01 0.221E+00   0.137E-03 -.673E-02 0.705E-02
   -.301E+03 0.301E+03 -.413E+03   0.302E+03 -.302E+03 0.413E+03   -.476E+00 0.470E+00 -.391E+00   0.184E-02 0.329E-02 0.299E-02
   0.324E+03 -.324E+03 0.458E+03   -.324E+03 0.324E+03 -.458E+03   0.368E+00 -.368E+00 0.507E+00   0.438E-03 -.272E-02 0.492E-02
   0.338E+03 0.313E+03 -.438E+03   -.339E+03 -.314E+03 0.439E+03   0.330E+00 0.401E+00 -.548E+00   0.182E-03 0.374E-02 0.717E-02
   -.984E+03 0.371E+03 -.371E+03   0.981E+03 -.368E+03 0.370E+03   0.200E+01 -.146E+01 0.424E+00   -.253E-02 -.779E-04 0.272E-03
   0.398E+03 -.977E+03 -.412E+03   -.396E+03 0.974E+03 0.411E+03   -.149E+01 0.182E+01 0.226E+00   0.656E-03 -.631E-02 0.767E-02
   -.318E+03 -.325E+03 0.460E+03   0.319E+03 0.326E+03 -.460E+03   -.366E+00 -.371E+00 0.528E+00   0.641E-02 -.588E-02 0.620E-02
   0.644E+03 -.384E+01 0.652E+01   -.645E+03 0.386E+01 -.655E+01   0.736E+00 -.118E-01 0.130E-01   0.241E-02 0.619E-03 0.118E-01
   -.637E+03 -.103E+02 0.180E+02   0.638E+03 0.103E+02 -.179E+02   -.724E+00 0.422E-01 -.830E-01   0.187E-02 -.734E-03 0.601E-02
   0.167E+01 -.588E+03 0.966E+03   -.165E+01 0.588E+03 -.963E+03   -.917E-02 0.314E+00 -.236E+01   -.370E-03 -.147E-02 -.447E-02
   0.792E+01 -.600E+03 -.959E+03   -.792E+01 0.599E+03 0.955E+03   0.165E-02 0.329E+00 0.235E+01   -.839E-04 -.517E-02 -.105E-02
   0.729E+01 -.735E+01 0.127E+02   -.734E+01 0.739E+01 -.128E+02   0.207E-01 -.208E-01 0.398E-01   0.307E-02 -.749E-03 0.978E-02
   0.330E+03 -.330E+03 -.445E+03   -.330E+03 0.330E+03 0.445E+03   0.367E+00 -.367E+00 -.525E+00   0.101E-02 -.124E-02 0.956E-02
   -.314E+03 -.338E+03 -.438E+03   0.314E+03 0.339E+03 0.439E+03   -.401E+00 -.329E+00 -.548E+00   -.175E-02 -.104E-02 0.637E-02
   0.380E+01 -.644E+03 0.650E+01   -.382E+01 0.645E+03 -.653E+01   0.115E-01 -.735E+00 0.127E-01   0.957E-03 -.558E-02 0.135E-01
   -.734E+02 0.759E+02 -.255E+03   0.647E+02 -.672E+02 0.240E+03   0.755E+01 -.759E+01 0.126E+02   -.425E-03 0.970E-03 -.970E-03
   -.305E+03 0.308E+03 -.581E+03   0.334E+03 -.337E+03 0.632E+03   -.270E+02 0.272E+02 -.467E+02   -.598E-03 0.108E-02 -.148E-02
 -----------------------------------------------------------------------------------------------
   0.213E+02 -.216E+02 0.469E+02   0.796E-12 -.853E-12 -.171E-11   -.213E+02 0.217E+02 -.470E+02   0.380E-01 -.477E-01 0.169E+00
 
 
 POSITION                                       TOTAL-FORCE (eV/Angst)
 -----------------------------------------------------------------------------------
     13.37281      9.84801     12.50759         0.703509      1.110812      0.281698
     20.15199     16.62719     12.50759        -1.110718     -0.703642      0.281688
     16.62719      9.84801     12.50759        -0.707374      1.109166      0.286365
      9.84801     16.62719     12.50759         1.105354     -0.703436      0.300163
     15.00000     11.47521     10.20639         0.001281      0.413233      1.280105
     15.00000     11.47521     19.79360        -0.078300      0.373981     -1.300071
     15.00000      8.28283     15.00000         0.006875      1.505631     -0.013894
      8.28283     15.00000     15.00000         1.516117      0.001205     -0.000308
     21.71717     15.00000     15.00000        -1.504924     -0.005607     -0.015635
     15.00000     21.71717     15.00000        -0.001046     -1.515914     -0.000247
     18.35858     11.64142     10.25025        -0.757410      0.757530      1.070995
     18.35858     11.64142     19.74975        -1.336326      1.367207     -2.925466
     11.64142     18.35858     10.25025         0.755023     -0.754863      1.074863
     11.64142     18.35858     19.74975         0.755969     -0.755820     -1.072202
     11.64142     11.64142     10.25025         0.756603      0.755035      1.072522
     11.64142     11.64142     19.74975         0.766477      0.751975     -1.070093
     18.35858     18.35858     10.25025        -0.754759     -0.756478      1.072466
     18.35858     18.35858     19.74975        -0.751858     -0.765604     -1.070187
     13.37281      9.84801     17.49241         0.707357      1.121240     -0.279472
     20.15199     16.62719     17.49241        -1.120989     -0.707830     -0.278506
     16.73751     13.26249     12.54279         0.112903     -0.112694     -0.152263
      9.84801     13.37281     12.50759         1.101646      0.700815      0.287856
     16.62719     20.15199     12.50759        -0.700508     -1.101390      0.287967
     16.62719      9.84801     17.49241        -0.791032      1.045422     -0.355135
      9.84801     16.62719     17.49241         1.109390     -0.699955     -0.293300
     20.15199     13.37281     12.50759        -1.108944      0.707560      0.286340
     13.37281     20.15199     12.50759         0.703553     -1.105297      0.300008
     13.26249     13.26249     12.54279        -0.112511     -0.109657     -0.162298
     15.00000     11.52498     15.00000         0.013212     -0.220126      0.011425
     18.52479     15.00000     10.20639        -0.412951     -0.001129      1.280134
     18.52479     15.00000     19.79360        -0.373582      0.079084     -1.302094
     11.47521     15.00000     10.20640         0.414534     -0.008362      1.279331
     11.47521     15.00000     19.79360         0.413402      0.001621     -1.282046
     11.49535     11.49535     15.00000         0.834170      0.833319      0.006927
     18.50465     18.50465     15.00000        -0.833521     -0.833866      0.006599
     18.50465     11.49535     15.00000        -0.835643      0.836056      0.016218
     11.49535     18.50465     15.00000         0.827921     -0.827754      0.001639
     15.00000     15.00000     10.04368         0.002747     -0.002638      1.177862
     15.00000     15.00000     19.95633        -0.024020      0.024505     -1.187599
      9.84801     13.37281     17.49241         1.108616      0.704839     -0.294086
     16.62719     20.15199     17.49241        -0.704885     -1.108380     -0.294058
     16.73751     13.26249     17.45721         0.105699     -0.102973      0.047153
     13.26249     16.73751     12.54279        -0.109791      0.110124     -0.157811
     13.26249     13.26249     17.45721        -0.113324     -0.111409      0.149207
     20.15199     13.37281     17.49241        -1.048669      0.788765     -0.353060
     13.37281     20.15199     17.49241         0.700030     -1.109081     -0.293230
     16.73751     16.73751     12.54279         0.109924      0.112467     -0.162076
     11.52498     15.00000     15.00000        -0.234364      0.008112     -0.004718
     18.47502     15.00000     15.00000         0.220320     -0.013398      0.011865
     15.00000     18.52480     10.20639         0.008302     -0.414289      1.279277
     15.00000     18.52480     19.79360        -0.001476     -0.413261     -1.282013
     15.00000     15.00000     15.00000        -0.023974      0.024054     -0.029117
     13.26249     16.73751     17.45721        -0.106768      0.106925      0.160379
     16.73751     16.73751     17.45721         0.111672      0.113390      0.149304
     15.00000     18.47502     15.00000        -0.008000      0.234381     -0.004617
     18.59501     11.37777     21.47637        -1.150204      1.149777     -2.313124
     19.08682     10.88225     22.36235         1.845264     -1.883376      4.488373
 -----------------------------------------------------------------------------------
    total drift:                               -0.006893     -0.001625      0.007182


--------------------------------------------------------------------------------------------------------



  FREE ENERGIE OF THE ION-ELECTRON SYSTEM (eV)
  ---------------------------------------------------
  free  energy   TOTEN  =      -174.99532657 eV

  energy  without entropy=     -174.91914034  energy(sigma->0) =     -174.97628001
 


--------------------------------------------------------------------------------------------------------


    POTLOK:  cpu time   13.9805: real time   13.9806


--------------------------------------------------------------------------------------------------------


     LOOP+:  cpu time18519.8650: real time18520.4880
    4ORBIT:  cpu time    0.0000: real time    0.0000

 total amount of memory used by VASP MPI-rank0  5486942. kBytes
=======================================================================

   base      :      30000. kBytes
   nonlr-proj:      17127. kBytes
   fftplans  :     924480. kBytes
   grid      :    1872000. kBytes
   one-center:        886. kBytes
   wavefun   :    2642449. kBytes
 
  
  
 General timing and accounting informations for this job:
 ========================================================
  
                  Total CPU time used (sec):    18593.693
                            User time (sec):    17565.759
                          System time (sec):     1027.934
                         Elapsed time (sec):    18594.430
  
                   Maximum memory used (kb):     7178656.
                   Average memory used (kb):           0.
  
                          Minor page faults:    828026586
                          Major page faults:            0
                 Voluntary context switches:          438
