 vasp.5.4.4.18Apr17-6-g9f103f2a35 (build Sep 03 2018 23:53:05) complex          
  
 executed on             LinuxIFC date 2021.11.27  22:28:15
 running on    1 total cores
 distrk:  each k-point on    1 cores,    1 groups
 distr:  one band on NCORES_PER_BAND=   1 cores,    1 groups


--------------------------------------------------------------------------------------------------------


 INCAR:
 POTCAR:    PAW_PBE Pd 04Jan2005                  
 POTCAR:    PAW_PBE C 08Apr2002                   
 POTCAR:    PAW_PBE O 08Apr2002                   
 POTCAR:    PAW_PBE Pd 04Jan2005                  
   VRHFIN =Pd : s1 d9                                                           
   LEXCH  = PE                                                                  
   EATOM  =   809.7530 eV,   59.5152 Ry                                         
                                                                                
   TITEL  = PAW_PBE Pd 04Jan2005                                                
   LULTRA =        F    use ultrasoft PP ?                                      
   IUNSCR =        1    unscreen: 0-lin 1-nonlin 2-no                           
   RPACOR =    2.000    partial core radius                                     
   POMASS =  106.420; ZVAL   =   10.000    mass and valenz                      
   RCORE  =    2.600    outmost cutoff radius                                   
   RWIGS  =    2.710; RWIGS  =    1.434    wigner-seitz radius (au A)           
   ENMAX  =  250.925; ENMIN  =  188.194 eV                                      
   ICORE  =        3    local potential                                         
   LCOR   =        T    correct aug charges                                     
   LPAW   =        T    paw PP                                                  
   EAUG   =  416.230                                                            
   DEXC   =    0.000                                                            
   RMAX   =    2.653    core radius for proj-oper                               
   RAUG   =    1.300    factor for augmentation sphere                          
   RDEP   =    2.734    radius for radial grids                                 
   RDEPT  =    2.103    core radius for aug-charge                              
                                                                                
   Atomic configuration                                                         
   12 entries                                                                   
     n  l   j            E        occ.                                          
     1  0  0.50    -24164.6631   2.0000                                         
     2  0  0.50     -3530.9218   2.0000                                         
     2  1  1.50     -3165.6822   6.0000                                         
     3  0  0.50      -639.4577   2.0000                                         
     3  1  1.50      -519.4532   6.0000                                         
     3  2  2.50      -328.9757  10.0000                                         
     4  0  0.50       -88.7014   2.0000                                         
     4  1  1.50       -54.4540   6.0000                                         
     4  2  2.50        -6.6878   9.0000                                         
     5  0  0.50        -4.3543   1.0000                                         
     5  1  0.50        -1.3606   0.0000                                         
     4  3  2.50        -1.3606   0.0000                                         
   Description                                                                  
     l       E           TYP  RCUT    TYP  RCUT                                 
     2     -6.6878251     23  2.400                                             
     2     -8.0484077     23  2.400                                             
     0     -4.3542939     23  2.400                                             
     0      4.3406793     23  2.400                                             
     1     -4.0817478     23  2.600                                             
     1     15.8380318     23  2.600                                             
     3     -4.0817478     23  2.400                                             
  local pseudopotential read in
  partial core-charges read in
  partial kinetic energy density read in
  atomic valenz-charges read in
  non local Contribution for L=           2  read in
    real space projection operators read in
  non local Contribution for L=           2  read in
    real space projection operators read in
  non local Contribution for L=           0  read in
    real space projection operators read in
  non local Contribution for L=           0  read in
    real space projection operators read in
  non local Contribution for L=           1  read in
    real space projection operators read in
  non local Contribution for L=           1  read in
    real space projection operators read in
    PAW grid and wavefunctions read in
 
   number of l-projection  operators is LMAX  =           6
   number of lm-projection operators is LMMAX =          18
 
 POTCAR:    PAW_PBE C 08Apr2002                   
   VRHFIN =C: s2p2                                                              
   LEXCH  = PE                                                                  
   EATOM  =   147.1560 eV,   10.8157 Ry                                         
                                                                                
   TITEL  = PAW_PBE C 08Apr2002                                                 
   LULTRA =        F    use ultrasoft PP ?                                      
   IUNSCR =        1    unscreen: 0-lin 1-nonlin 2-no                           
   RPACOR =    1.200    partial core radius                                     
   POMASS =   12.011; ZVAL   =    4.000    mass and valenz                      
   RCORE  =    1.500    outmost cutoff radius                                   
   RWIGS  =    1.630; RWIGS  =    0.863    wigner-seitz radius (au A)           
   ENMAX  =  400.000; ENMIN  =  300.000 eV                                      
   ICORE  =        2    local potential                                         
   LCOR   =        T    correct aug charges                                     
   LPAW   =        T    paw PP                                                  
   EAUG   =  644.873                                                            
   DEXC   =    0.000                                                            
   RMAX   =    1.529    core radius for proj-oper                               
   RAUG   =    1.300    factor for augmentation sphere                          
   RDEP   =    1.501    radius for radial grids                                 
   RDEPT  =    1.300    core radius for aug-charge                              
                                                                                
   Atomic configuration                                                         
    4 entries                                                                   
     n  l   j            E        occ.                                          
     1  0  0.50      -273.3789   2.0000                                         
     2  0  0.50       -13.7508   2.0000                                         
     2  1  0.50        -5.2854   2.0000                                         
     3  2  1.50        -5.4423   0.0000                                         
   Description                                                                  
     l       E           TYP  RCUT    TYP  RCUT                                 
     0    -13.7508458     23  1.200                                             
     0     -8.2022199     23  1.200                                             
     1     -5.2854383     23  1.500                                             
     1     34.0145650     23  1.500                                             
     2     -5.4423304      7  1.500                                             
  local pseudopotential read in
  partial core-charges read in
  partial kinetic energy density read in
  atomic valenz-charges read in
  non local Contribution for L=           0  read in
    real space projection operators read in
  non local Contribution for L=           0  read in
    real space projection operators read in
  non local Contribution for L=           1  read in
    real space projection operators read in
  non local Contribution for L=           1  read in
    real space projection operators read in
    PAW grid and wavefunctions read in
 
   number of l-projection  operators is LMAX  =           4
   number of lm-projection operators is LMMAX =           8
 
 POTCAR:    PAW_PBE O 08Apr2002                   
   VRHFIN =O: s2p4                                                              
   LEXCH  = PE                                                                  
   EATOM  =   432.3788 eV,   31.7789 Ry                                         
                                                                                
   TITEL  = PAW_PBE O 08Apr2002                                                 
   LULTRA =        F    use ultrasoft PP ?                                      
   IUNSCR =        1    unscreen: 0-lin 1-nonlin 2-no                           
   RPACOR =    1.200    partial core radius                                     
   POMASS =   16.000; ZVAL   =    6.000    mass and valenz                      
   RCORE  =    1.520    outmost cutoff radius                                   
   RWIGS  =    1.550; RWIGS  =    0.820    wigner-seitz radius (au A)           
   ENMAX  =  400.000; ENMIN  =  300.000 eV                                      
   ICORE  =        2    local potential                                         
   LCOR   =        T    correct aug charges                                     
   LPAW   =        T    paw PP                                                  
   EAUG   =  605.392                                                            
   DEXC   =    0.000                                                            
   RMAX   =    1.553    core radius for proj-oper                               
   RAUG   =    1.300    factor for augmentation sphere                          
   RDEP   =    1.550    radius for radial grids                                 
   RDEPT  =    1.329    core radius for aug-charge                              
                                                                                
   Atomic configuration                                                         
    4 entries                                                                   
     n  l   j            E        occ.                                          
     1  0  0.50      -514.6923   2.0000                                         
     2  0  0.50       -23.9615   2.0000                                         
     2  1  0.50        -9.0305   4.0000                                         
     3  2  1.50        -9.5241   0.0000                                         
   Description                                                                  
     l       E           TYP  RCUT    TYP  RCUT                                 
     0    -23.9615318     23  1.200                                             
     0     -9.5240782     23  1.200                                             
     1     -9.0304911     23  1.520                                             
     1      8.1634956     23  1.520                                             
     2     -9.5240782      7  1.500                                             
  local pseudopotential read in
  partial core-charges read in
  partial kinetic energy density read in
  kinetic energy density of atom read in
  atomic valenz-charges read in
  non local Contribution for L=           0  read in
    real space projection operators read in
  non local Contribution for L=           0  read in
    real space projection operators read in
  non local Contribution for L=           1  read in
    real space projection operators read in
  non local Contribution for L=           1  read in
    real space projection operators read in
    PAW grid and wavefunctions read in
 
   number of l-projection  operators is LMAX  =           4
   number of lm-projection operators is LMMAX =           8
 
 Optimization of the real space projectors (new method)

 maximal supplied QI-value         = 14.36
 optimisation between [QCUT,QGAM] = [ 10.20, 20.39] = [ 29.12,116.47] Ry 
 Optimized for a Real-space Cutoff    1.51 Angstroem

   l    n(q)    QCUT    max X(q) W(low)/X(q) W(high)/X(q)  e(spline) 
   2      8    10.197    59.108    0.26E-03    0.14E-03    0.96E-07
   2      8    10.197    58.101    0.27E-03    0.14E-03    0.98E-07
   0      9    10.197   102.235    0.54E-04    0.60E-05    0.72E-07
   0      9    10.197    58.388    0.52E-04    0.60E-05    0.68E-07
   1      9    10.197    22.191    0.18E-03    0.25E-03    0.79E-07
   1      9    10.197    15.590    0.15E-03    0.21E-03    0.69E-07
 Optimization of the real space projectors (new method)

 maximal supplied QI-value         = 25.13
 optimisation between [QCUT,QGAM] = [ 10.05, 20.36] = [ 28.30,116.06] Ry 
 Optimized for a Real-space Cutoff    1.30 Angstroem

   l    n(q)    QCUT    max X(q) W(low)/X(q) W(high)/X(q)  e(spline) 
   0      8    10.053   115.676    0.49E-03    0.72E-03    0.18E-06
   0      8    10.053    87.132    0.49E-03    0.71E-03    0.18E-06
   1      7    10.053     4.429    0.32E-03    0.31E-03    0.18E-06
   1      7    10.053     2.733    0.23E-03    0.19E-03    0.20E-06
 Optimization of the real space projectors (new method)

 maximal supplied QI-value         = 24.76
 optimisation between [QCUT,QGAM] = [ 10.15, 20.30] = [ 28.85,115.39] Ry 
 Optimized for a Real-space Cutoff    1.38 Angstroem

   l    n(q)    QCUT    max X(q) W(low)/X(q) W(high)/X(q)  e(spline) 
   0      8    10.150    20.381    0.22E-03    0.32E-03    0.29E-06
   0      8    10.150    15.268    0.23E-03    0.35E-03    0.30E-06
   1      8    10.150     5.964    0.46E-03    0.53E-03    0.21E-06
   1      8    10.150     5.382    0.38E-03    0.45E-03    0.19E-06

 ----------------------------------------------------------------------------- 
|                                                                             |
|  ADVICE TO THIS USER RUNNING 'VASP/VAMP'   (HEAR YOUR MASTER'S VOICE ...):  |
|                                                                             |
|      You enforced a specific xc-type in the INCAR file,                     |
|      a different type was found on the POTCAR file                          |
|          I HOPE YOU KNOW, WHAT YOU ARE  DOING                               |
|                                                                             |
 ----------------------------------------------------------------------------- 

  PAW_PBE Pd 04Jan2005                  :
 energy of atom  1       EATOM= -809.7530
 kinetic energy error for atom=    0.0091 (will be added to EATOM!!)
  PAW_PBE C 08Apr2002                   :
 energy of atom  2       EATOM= -147.1560
 kinetic energy error for atom=    0.0288 (will be added to EATOM!!)
  PAW_PBE O 08Apr2002                   :
 energy of atom  3       EATOM= -432.3788
 kinetic energy error for atom=    0.1156 (will be added to EATOM!!)
 
 
 POSCAR: Pd55PES                                 
  positions in cartesian coordinates
  No initial velocities read in
 exchange correlation table for  LEXCH =        9
   RHO(1)=    0.500       N(1)  =     2000
   RHO(2)=  100.500       N(2)  =     4000
 


--------------------------------------------------------------------------------------------------------


 ion  position               nearest neighbor table
   1  0.446  0.328  0.417-   3 3.25   5 3.25   7 3.36  15 3.36  29 3.42  28 3.42
   2  0.672  0.554  0.417-  26 3.25  30 3.25  17 3.36   9 3.36  47 3.42  49 3.42
   3  0.554  0.328  0.417-   1 3.25   5 3.25   7 3.36  11 3.36  29 3.42  21 3.42
   4  0.328  0.554  0.417-  32 3.25  22 3.25  13 3.36   8 3.36  43 3.42  48 3.42
   5  0.500  0.383  0.340-   1 3.25   3 3.25  11 3.36  15 3.36  21 3.42  28 3.42
   6  0.500  0.383  0.660-  24 3.25  19 3.25  16 3.36  12 3.36  42 3.42  44 3.42
   7  0.500  0.276  0.500-  29 3.24   3 3.36   1 3.36  19 3.36  24 3.36
   8  0.276  0.500  0.500-  48 3.24  22 3.36  40 3.36   4 3.36  25 3.36
   9  0.724  0.500  0.500-  56 2.24  49 3.24  26 3.36  45 3.36   2 3.36  20 3.36
  10  0.500  0.724  0.500-  55 3.24  27 3.36  23 3.36  46 3.36  41 3.36
  11  0.612  0.388  0.342-  21 3.24   5 3.36   3 3.36  30 3.36  26 3.36
  12  0.612  0.388  0.658-  42 3.24  24 3.36  45 3.36   6 3.36  31 3.36
  13  0.388  0.612  0.342-  43 3.24  32 3.36  50 3.36   4 3.36  27 3.36
  14  0.388  0.612  0.658-  53 3.24  25 3.36  33 3.36  51 3.36  46 3.36
  15  0.388  0.388  0.342-  28 3.24   5 3.36   1 3.36  32 3.36  22 3.36
  16  0.388  0.388  0.658-  44 3.24  19 3.36  40 3.36   6 3.36  33 3.36
  17  0.612  0.612  0.342-  47 3.24  30 3.36  50 3.36   2 3.36  23 3.36
  18  0.612  0.612  0.658-  54 3.24  31 3.36  20 3.36  51 3.36  41 3.36
  19  0.446  0.328  0.583-   6 3.25  24 3.25  16 3.36   7 3.36  44 3.42  29 3.42
  20  0.672  0.554  0.583-  31 3.25  45 3.25  18 3.36   9 3.36  54 3.42  49 3.42
  21  0.558  0.442  0.418-  11 3.24   5 3.42   3 3.42  30 3.42  26 3.42
  22  0.328  0.446  0.417-   4 3.25  32 3.25   8 3.36  15 3.36  48 3.42  28 3.42
  23  0.554  0.672  0.417-  27 3.25  50 3.25  10 3.36  17 3.36  55 3.42  47 3.42
  24  0.554  0.328  0.583-   6 3.25  19 3.25  12 3.36   7 3.36  42 3.42  29 3.42
  25  0.328  0.554  0.583-  33 3.25  40 3.25  14 3.36   8 3.36  53 3.42  48 3.42
  26  0.672  0.446  0.417-   2 3.25  30 3.25   9 3.36  11 3.36  49 3.42  21 3.42
  27  0.446  0.672  0.417-  23 3.25  50 3.25  10 3.36  13 3.36  55 3.42  43 3.42
  28  0.442  0.442  0.418-  15 3.24   5 3.42   1 3.42  32 3.42  22 3.42
  29  0.500  0.384  0.500-   7 3.24   3 3.42   1 3.42  24 3.42  19 3.42
  30  0.617  0.500  0.340-   2 3.25  26 3.25  17 3.36  11 3.36  47 3.42  21 3.42
  31  0.617  0.500  0.660-  20 3.25  45 3.25  18 3.36  12 3.36  54 3.42  42 3.42
  32  0.383  0.500  0.340-   4 3.25  22 3.25  13 3.36  15 3.36  43 3.42  28 3.42
  33  0.383  0.500  0.660-  25 3.25  40 3.25  14 3.36  16 3.36  53 3.42  44 3.42
  34  0.383  0.383  0.500-
  35  0.617  0.617  0.500-
  36  0.617  0.383  0.500-
  37  0.383  0.617  0.500-
  38  0.500  0.500  0.335-
  39  0.500  0.500  0.665-
  40  0.328  0.446  0.583-  33 3.25  25 3.25  16 3.36   8 3.36  44 3.42  48 3.42
  41  0.554  0.672  0.583-  46 3.25  51 3.25  10 3.36  18 3.36  54 3.42  55 3.42
  42  0.558  0.442  0.582-  12 3.24   6 3.42  24 3.42  31 3.42  45 3.42
  43  0.442  0.558  0.418-  13 3.24   4 3.42  32 3.42  27 3.42  50 3.42
  44  0.442  0.442  0.582-  16 3.24   6 3.42  19 3.42  33 3.42  40 3.42
  45  0.672  0.446  0.583-  20 3.25  31 3.25   9 3.36  12 3.36  49 3.42  42 3.42
  46  0.446  0.672  0.583-  41 3.25  51 3.25  10 3.36  14 3.36  53 3.42  55 3.42
  47  0.558  0.558  0.418-  17 3.24   2 3.42  30 3.42  23 3.42  50 3.42
  48  0.384  0.500  0.500-   8 3.24   4 3.42  22 3.42  25 3.42  40 3.42
  49  0.616  0.500  0.500-   9 3.24   2 3.42  26 3.42  20 3.42  45 3.42
  50  0.500  0.617  0.340-  27 3.25  23 3.25  13 3.36  17 3.36  43 3.42  47 3.42
  51  0.500  0.617  0.660-  41 3.25  46 3.25  14 3.36  18 3.36  53 3.42  54 3.42
  52  0.500  0.500  0.500-
  53  0.442  0.558  0.582-  14 3.24  25 3.42  33 3.42  51 3.42  46 3.42
  54  0.558  0.558  0.582-  18 3.24  31 3.42  20 3.42  51 3.42  41 3.42
  55  0.500  0.616  0.500-  10 3.24  23 3.42  27 3.42  41 3.42  46 3.42
  56  0.772  0.528  0.550-  57 1.13   9 2.24
  57  0.809  0.532  0.556-  56 1.13
 
  LATTYP: Found a simple cubic cell.
 ALAT       =    30.0000000000
  
  Lattice vectors:
  
 A1 = (  30.0000000000,   0.0000000000,   0.0000000000)
 A2 = (   0.0000000000,  30.0000000000,   0.0000000000)
 A3 = (   0.0000000000,   0.0000000000,  30.0000000000)


Analysis of symmetry for initial positions (statically):
=====================================================================
 Subroutine PRICEL returns:
 Original cell was already a primitive cell.
 

 Routine SETGRP: Setting up the symmetry group for a 
 simple cubic supercell.


 Subroutine GETGRP returns: Found  1 space group operations
 (whereof  1 operations were pure point group operations)
 out of a pool of 48 trial point group operations.


The static configuration has the point symmetry C_1 .


Analysis of symmetry for dynamics (positions and initial velocities):
=====================================================================
 Subroutine PRICEL returns:
 Original cell was already a primitive cell.
 

 Routine SETGRP: Setting up the symmetry group for a 
 simple cubic supercell.


 Subroutine GETGRP returns: Found  1 space group operations
 (whereof  1 operations were pure point group operations)
 out of a pool of 48 trial point group operations.


The dynamic configuration has the point symmetry C_1 .


Analysis of constrained symmetry for selective dynamics:
=====================================================================
 Subroutine PRICEL returns:
 Original cell was already a primitive cell.
 

 Routine SETGRP: Setting up the symmetry group for a 
 simple cubic supercell.


 Subroutine GETGRP returns: Found  1 space group operations
 (whereof  1 operations were pure point group operations)
 out of a pool of 48 trial point group operations.


The constrained configuration has the point symmetry C_1 .


 Subroutine INISYM returns: Found  1 space group operations
 (whereof  1 operations are pure point group operations),
 and found     1 'primitive' translations

 
 
 KPOINTS: K-points                                

Automatic generation of k-mesh.
Space group operators:
 irot       det(A)        alpha          n_x          n_y          n_z        tau_x        tau_y        tau_z
    1     1.000000     0.000000     1.000000     0.000000     0.000000     0.000000     0.000000     0.000000
 
 Subroutine IBZKPT returns following result:
 ===========================================
 
 Found      1 irreducible k-points:
 
 Following reciprocal coordinates:
            Coordinates               Weight
  0.000000  0.000000  0.000000      1.000000
 
 Following cartesian coordinates:
            Coordinates               Weight
  0.000000  0.000000  0.000000      1.000000
 


--------------------------------------------------------------------------------------------------------




 Dimension of arrays:
   k-points           NKPTS =      1   k-points in BZ     NKDIM =      1   number of bands    NBANDS=    336
   number of dos      NEDOS =    301   number of ions     NIONS =     57
   non local maximal  LDIM  =      6   non local SUM 2l+1 LMDIM =     18
   total plane-waves  NPLWV = ******
   max r-space proj   IRMAX =   1847   max aug-charges    IRDMAX=   6262
   dimension x,y,z NGX =   150 NGY =  150 NGZ =  150
   dimension x,y,z NGXF=   300 NGYF=  300 NGZF=  300
   support grid    NGXF=   300 NGYF=  300 NGZF=  300
   ions per type =              55   1   1
   NGX,Y,Z   is equivalent  to a cutoff of   8.31,  8.31,  8.31 a.u.
   NGXF,Y,Z  is equivalent  to a cutoff of  16.62, 16.62, 16.62 a.u.

 SYSTEM =  6_Pd100_top_free_z(O)                   
 POSCAR =  Pd55PES                                 

 Startparameter for this run:
   NWRITE =      2    write-flag & timer
   PREC   = normal    normal or accurate (medium, high low for compatibility)
   ISTART =      0    job   : 0-new  1-cont  2-samecut
   ICHARG =      2    charge: 1-file 2-atom 10-const
   ISPIN  =      1    spin polarized calculation?
   LNONCOLLINEAR =      F non collinear calculations
   LSORBIT =      F    spin-orbit coupling
   INIWAV =      1    electr: 0-lowe 1-rand  2-diag
   LASPH  =      F    aspherical Exc in radial PAW
   METAGGA=      F    non-selfconsistent MetaGGA calc.

 Electronic Relaxation 1
   ENCUT  =  400.0 eV  29.40 Ry    5.42 a.u.  48.92 48.92 48.92*2*pi/ulx,y,z
   ENINI  =  400.0     initial cutoff
   ENAUG  =  644.9 eV  augmentation charge cutoff
   NELM   =    100;   NELMIN=  6; NELMDL= -5     # of ELM steps 
   EDIFF  = 0.1E-03   stopping-criterion for ELM
   LREAL  =      T    real-space projection
   NLSPLINE    = F    spline interpolate recip. space projectors
   LCOMPAT=      F    compatible to vasp.4.4
   GGA_COMPAT  = T    GGA compatible to vasp.4.4-vasp.4.6
   LMAXPAW     = -100 max onsite density
   LMAXMIX     =    2 max onsite mixed and CHGCAR
   VOSKOWN=      0    Vosko Wilk Nusair interpolation
   ROPT   =   -0.00050  -0.00050  -0.00050
 Ionic relaxation
   EDIFFG = -.5E-01   stopping-criterion for IOM
   NSW    =      0    number of steps for IOM
   NBLOCK =      1;   KBLOCK =      1    inner block; outer block 
   IBRION =     -1    ionic relax: 0-MD 1-quasi-New 2-CG
   NFREE  =      1    steps in history (QN), initial steepest desc. (CG)
   ISIF   =      2    stress and relaxation
   IWAVPR =     10    prediction:  0-non 1-charg 2-wave 3-comb
   ISYM   =      2    0-nonsym 1-usesym 2-fastsym
   LCORR  =      T    Harris-Foulkes like correction to forces

   POTIM  = 0.5000    time-step for ionic-motion
   TEIN   =    0.0    initial temperature
   TEBEG  =    0.0;   TEEND  =   0.0 temperature during run
   SMASS  =  -3.00    Nose mass-parameter (am)
   estimated Nose-frequenzy (Omega)   =  0.10E-29 period in steps =****** mass=  -0.206E-25a.u.
   SCALEE = 1.0000    scale energy and forces
   NPACO  =    256;   APACO  = 16.0  distance and # of slots for P.C.
   PSTRESS=    0.0 pullay stress

  Mass of Ions in am
   POMASS = 106.42 12.01 16.00
  Ionic Valenz
   ZVAL   =  10.00  4.00  6.00
  Atomic Wigner-Seitz radii
   RWIGS  =  -1.00 -1.00 -1.00
  virtual crystal weights 
   VCA    =   1.00  1.00  1.00
   NELECT =     560.0000    total number of electrons
   NUPDOWN=      -1.0000    fix difference up-down

 DOS related values:
   EMIN   =  10.00;   EMAX   =-10.00  energy-range for DOS
   EFERMI =   0.00
   ISMEAR =     2;   SIGMA  =   0.20  broadening in eV -4-tet -1-fermi 0-gaus

 Electronic relaxation 2 (details)
   IALGO  =     68    algorithm
   LDIAG  =      T    sub-space diagonalisation (order eigenvalues)
   LSUBROT=      F    optimize rotation matrix (better conditioning)
   TURBO    =      0    0=normal 1=particle mesh
   IRESTART =      0    0=no restart 2=restart with 2 vectors
   NREBOOT  =      0    no. of reboots
   NMIN     =      0    reboot dimension
   EREF     =   0.00    reference energy to select bands
   IMIX   =      4    mixing-type and parameters
     AMIX     =   0.40;   BMIX     =  1.00
     AMIX_MAG =   1.60;   BMIX_MAG =  1.00
     AMIN     =   0.10
     WC   =   100.;   INIMIX=   1;  MIXPRE=   1;  MAXMIX= -45

 Intra band minimization:
   WEIMIN = 0.0000     energy-eigenvalue tresh-hold
   EBREAK =  0.74E-07  absolut break condition
   DEPER  =   0.30     relativ break condition  

   TIME   =   0.40     timestep for ELM

  volume/ion in A,a.u.               =     473.68      3196.58
  Fermi-wavevector in a.u.,A,eV,Ry     =   0.449797  0.849992  2.752691  0.202317
  Thomas-Fermi vector in A             =   1.430086
 
 Write flags
   LWAVE        =      F    write WAVECAR
   LDOWNSAMPLE  =      F    k-point downsampling of WAVECAR
   LCHARG       =      F    write CHGCAR
   LVTOT        =      F    write LOCPOT, total local potential
   LVHAR        =      F    write LOCPOT, Hartree potential only
   LELF         =      F    write electronic localiz. function (ELF)
   LORBIT       =      0    0 simple, 1 ext, 2 COOP (PROOUT), +10 PAW based schemes


 Dipole corrections
   LMONO  =      F    monopole corrections only (constant potential shift)
   LDIPOL =      F    correct potential (dipole corrections)
   IDIPOL =      0    1-x, 2-y, 3-z, 4-all directions 
   EPSILON=  1.0000000 bulk dielectric constant

 Exchange correlation treatment:
   GGA     =    RP    GGA type
   LEXCH   =     9    internal setting for exchange type
   VOSKOWN=      0    Vosko Wilk Nusair interpolation
   LHFCALC =     F    Hartree Fock is set to
   LHFONE  =     F    Hartree Fock one center treatment
   AEXX    =    0.0000 exact exchange contribution

 Linear response parameters
   LEPSILON=     F    determine dielectric tensor
   LRPA    =     F    only Hartree local field effects (RPA)
   LNABLA  =     F    use nabla operator in PAW spheres
   LVEL    =     F    velocity operator in full k-point grid
   LINTERFAST=   F  fast interpolation
   KINTER  =     0    interpolate to denser k-point grid
   CSHIFT  =0.1000    complex shift for real part using Kramers Kronig
   OMEGAMAX=  -1.0    maximum frequency
   DEG_THRESHOLD= 0.2000000E-02 threshold for treating states as degnerate
   RTIME   =   -0.100 relaxation time in fs
  (WPLASMAI=    0.000 imaginary part of plasma frequency in eV, 0.658/RTIME)
   DFIELD  = 0.0000000 0.0000000 0.0000000 field for delta impulse in time
 
 Orbital magnetization related:
   ORBITALMAG=     F  switch on orbital magnetization
   LCHIMAG   =     F  perturbation theory with respect to B field
   DQ        =  0.001000  dq finite difference perturbation B field
   LLRAUG    =     F  two centre corrections for induced B field



--------------------------------------------------------------------------------------------------------


 Static calculation
 charge density and potential will be updated during run
 non-spin polarized calculation
 RMM-DIIS sequential band-by-band and
  variant of blocked Davidson during initial phase
 perform sub-space diagonalisation
    before iterative eigenvector-optimisation
 modified Broyden-mixing scheme, WC =      100.0
 initial mixing is a Kerker type mixing with AMIX =  0.4000 and BMIX =      1.0000
 Hartree-type preconditioning will be used
 using additional bands           56
 real space projection scheme for non local part
 use partial core corrections
 calculate Harris-corrections to forces 
   (improved forces if not selfconsistent)
 use gradient corrections 
 use of overlap-Matrix (Vanderbilt PP)
 Methfessel and Paxton  Order N= 2 SIGMA  =   0.20


--------------------------------------------------------------------------------------------------------


  energy-cutoff  :      400.00
  volume of cell :    27000.00
      direct lattice vectors                 reciprocal lattice vectors
    30.000000000  0.000000000  0.000000000     0.033333333  0.000000000  0.000000000
     0.000000000 30.000000000  0.000000000     0.000000000  0.033333333  0.000000000
     0.000000000  0.000000000 30.000000000     0.000000000  0.000000000  0.033333333

  length of vectors
    30.000000000 30.000000000 30.000000000     0.033333333  0.033333333  0.033333333


 
 k-points in units of 2pi/SCALE and weight: K-points                                
   0.00000000  0.00000000  0.00000000       1.000
 
 k-points in reciprocal lattice and weights: K-points                                
   0.00000000  0.00000000  0.00000000       1.000
 
 position of ions in fractional coordinates (direct lattice) 
   0.44576020  0.32826710  0.41691983
   0.67173288  0.55423978  0.41691983
   0.55423980  0.32826710  0.41691983
   0.32826712  0.55423978  0.41691983
   0.50000000  0.38250690  0.34021317
   0.50000000  0.38250690  0.65978680
   0.50000000  0.27609440  0.50000000
   0.27609443  0.49999998  0.50000000
   0.72390557  0.49999998  0.50000000
   0.50000000  0.72390555  0.50000000
   0.61195280  0.38804720  0.34167483
   0.61195280  0.38804720  0.65832513
   0.38804722  0.61195278  0.34167483
   0.38804722  0.61195278  0.65832513
   0.38804720  0.38804720  0.34167483
   0.38804720  0.38804720  0.65832513
   0.61195278  0.61195278  0.34167483
   0.61195278  0.61195278  0.65832513
   0.44576020  0.32826710  0.58308023
   0.67173288  0.55423978  0.58308023
   0.55791699  0.44208301  0.41809300
   0.32826705  0.44576024  0.41691983
   0.55423973  0.67173293  0.41691983
   0.55423980  0.32826710  0.58308023
   0.32826712  0.55423978  0.58308023
   0.67173295  0.44576024  0.41691983
   0.44576027  0.67173293  0.41691983
   0.44208301  0.44208301  0.41809300
   0.50000000  0.38416601  0.50000000
   0.61749315  0.50000005  0.34021317
   0.61749315  0.50000005  0.65978680
   0.38250685  0.50000005  0.34021317
   0.38250685  0.50000005  0.65978680
   0.38317830  0.38317830  0.50000000
   0.61682172  0.61682172  0.50000000
   0.61682170  0.38317830  0.50000000
   0.38317828  0.61682172  0.50000000
   0.50000000  0.50000000  0.33478917
   0.50000000  0.50000000  0.66521087
   0.32826705  0.44576024  0.58308023
   0.55423973  0.67173293  0.58308023
   0.55791699  0.44208301  0.58190703
   0.44208298  0.55791702  0.41809300
   0.44208301  0.44208301  0.58190703
   0.67173295  0.44576024  0.58308023
   0.44576027  0.67173293  0.58308023
   0.55791702  0.55791702  0.41809300
   0.38416599  0.50000002  0.50000000
   0.61583401  0.50000002  0.50000000
   0.50000000  0.61749319  0.34021317
   0.50000000  0.61749319  0.65978680
   0.50000000  0.50000000  0.50000000
   0.44208298  0.55791702  0.58190703
   0.55791702  0.55791702  0.58190703
   0.50000000  0.61583404  0.50000000
   0.77202383  0.52787583  0.54960947
   0.80882717  0.53164730  0.55632137
 
 position of ions in cartesian coordinates  (Angst):
  13.37280588  9.84801292 12.50759500
  20.15198637 16.62719342 12.50759500
  16.62719412  9.84801292 12.50759500
   9.84801363 16.62719342 12.50759500
  15.00000000 11.47520705 10.20639500
  15.00000000 11.47520705 19.79360400
  15.00000000  8.28283206 15.00000000
   8.28283277 14.99999929 15.00000000
  21.71716723 14.99999929 15.00000000
  15.00000000 21.71716652 14.99999999
  18.35858397 11.64141603 10.25024500
  18.35858397 11.64141603 19.74975399
  11.64141674 18.35858326 10.25024500
  11.64141674 18.35858326 19.74975400
  11.64141603 11.64141603 10.25024500
  11.64141603 11.64141603 19.74975400
  18.35858326 18.35858326 10.25024500
  18.35858326 18.35858326 19.74975400
  13.37280588  9.84801291 17.49240700
  20.15198638 16.62719341 17.49240700
  16.73750985 13.26249015 12.54279000
   9.84801151 13.37280729 12.50759500
  16.62719200 20.15198779 12.50759500
  16.62719412  9.84801292 17.49240700
   9.84801363 16.62719342 17.49240700
  20.15198849 13.37280729 12.50759500
  13.37280800 20.15198779 12.50759500
  13.26249015 13.26249015 12.54279000
  15.00000000 11.52498029 15.00000000
  18.52479437 15.00000140 10.20639500
  18.52479437 15.00000141 19.79360400
  11.47520562 15.00000141 10.20639501
  11.47520563 15.00000141 19.79360400
  11.49534898 11.49534898 15.00000000
  18.50465172 18.50465172 15.00000000
  18.50465102 11.49534898 15.00000000
  11.49534828 18.50465172 15.00000000
  15.00000000 15.00000000 10.04367500
  15.00000000 15.00000000 19.95632599
   9.84801151 13.37280729 17.49240700
  16.62719200 20.15198779 17.49240700
  16.73750985 13.26249015 17.45721100
  13.26248944 16.73751056 12.54279001
  13.26249015 13.26249015 17.45721100
  20.15198849 13.37280729 17.49240699
  13.37280800 20.15198779 17.49240700
  16.73751056 16.73751056 12.54279000
  11.52497959 15.00000071 15.00000000
  18.47502041 15.00000071 15.00000000
  14.99999999 18.52479579 10.20639500
  15.00000000 18.52479578 19.79360400
  15.00000000 15.00000000 15.00000000
  13.26248944 16.73751057 17.45721101
  16.73751056 16.73751057 17.45721100
  15.00000000 18.47502112 15.00000000
  23.16071500 15.83627500 16.48828400
  24.26481500 15.94941900 16.68964100
 


--------------------------------------------------------------------------------------------------------


 k-point  1 :   0.0000 0.0000 0.0000  plane waves:  490521

 maximum and minimum number of plane-waves per node :    490521   490521

 maximum number of plane-waves:    490521
 maximum index in each direction: 
   IXMAX=   48   IYMAX=   48   IZMAX=   48
   IXMIN=  -48   IYMIN=  -48   IZMIN=  -48


 serial   3D FFT for wavefunctions
 parallel 3D FFT for charge:
    minimum data exchange during FFTs selected (reduces bandwidth)


 total amount of memory used by VASP MPI-rank0  5486942. kBytes
=======================================================================

   base      :      30000. kBytes
   nonlr-proj:      17127. kBytes
   fftplans  :     924480. kBytes
   grid      :    1872000. kBytes
   one-center:        886. kBytes
   wavefun   :    2642449. kBytes
 
     INWAV:  cpu time    0.0001: real time    0.0005
 Broyden mixing: mesh for mixing (old mesh)
   NGX = 97   NGY = 97   NGZ = 97
  (NGX  =300   NGY  =300   NGZ  =300)
  gives a total of 912673 points

 initial charge density was supplied:
 charge density of overlapping atoms calculated
 number of electron     560.0000000 magnetization 
 keeping initial charge density in first step


--------------------------------------------------------------------------------------------------------


 Maximum index for non-local projection operator         1763
 Maximum index for augmentation-charges         5898 (set IRDMAX)


--------------------------------------------------------------------------------------------------------


 First call to EWALD:  gamma=   0.059
 Maximum number of real-space cells 3x 3x 3
 Maximum number of reciprocal cells 3x 3x 3

    FEWALD:  cpu time    0.0147: real time    0.0147


--------------------------------------- Iteration      1(   1)  ---------------------------------------


    POTLOK:  cpu time   13.5869: real time   13.5896
    SETDIJ:  cpu time    0.1157: real time    0.1157
     EDDAV:  cpu time  343.1473: real time  343.1846
       DOS:  cpu time    0.0013: real time    0.0013
    --------------------------------------------
      LOOP:  cpu time  356.8511: real time  356.8912

 eigenvalue-minimisations  :   688
 total energy-change (2. order) : 0.4382658E+04  (-0.1005145E+05)
 number of electron     560.0000000 magnetization 
 augmentation part      560.0000000 magnetization 

 Free energy of the ion-electron system (eV)
  ---------------------------------------------------
  alpha Z        PSCENC =        75.25431677
  Ewald energy   TEWEN  =    137522.12822015
  -Hartree energ DENC   =   -180887.33313257
  -exchange      EXHF   =         0.00000000
  -V(xc)+E(xc)   XCENC  =     -1703.55690075
  PAW double counting   =     44873.02882129   -41398.84523641
  entropy T*S    EENTRO =        -0.00891990
  eigenvalues    EBANDS =       815.48565627
  atomic energy  EATOM  =     45086.50549395
  Solvation  Ediel_sol  =         0.00000000
  ---------------------------------------------------
  free energy    TOTEN  =      4382.65831879 eV

  energy without entropy =     4382.66723869  energy(sigma->0) =     4382.66054877


--------------------------------------------------------------------------------------------------------




--------------------------------------- Iteration      1(   2)  ---------------------------------------


     EDDAV:  cpu time  564.8708: real time  564.8811
       DOS:  cpu time    0.0013: real time    0.0013
    --------------------------------------------
      LOOP:  cpu time  564.8720: real time  564.8824

 eigenvalue-minimisations  :  1224
 total energy-change (2. order) :-0.2372472E+04  (-0.2134382E+04)
 number of electron     560.0000000 magnetization 
 augmentation part      560.0000000 magnetization 

 Free energy of the ion-electron system (eV)
  ---------------------------------------------------
  alpha Z        PSCENC =        75.25431677
  Ewald energy   TEWEN  =    137522.12822015
  -Hartree energ DENC   =   -180887.33313257
  -exchange      EXHF   =         0.00000000
  -V(xc)+E(xc)   XCENC  =     -1703.55690075
  PAW double counting   =     44873.02882129   -41398.84523641
  entropy T*S    EENTRO =        -0.04690988
  eigenvalues    EBANDS =     -1556.94867327
  atomic energy  EATOM  =     45086.50549395
  Solvation  Ediel_sol  =         0.00000000
  ---------------------------------------------------
  free energy    TOTEN  =      2010.18599928 eV

  energy without entropy =     2010.23290916  energy(sigma->0) =     2010.19772675


--------------------------------------------------------------------------------------------------------




--------------------------------------- Iteration      1(   3)  ---------------------------------------


     EDDAV:  cpu time  488.8161: real time  488.8250
       DOS:  cpu time    0.0011: real time    0.0011
    --------------------------------------------
      LOOP:  cpu time  488.8171: real time  488.8260

 eigenvalue-minimisations  :  1000
 total energy-change (2. order) :-0.1777823E+04  (-0.1673043E+04)
 number of electron     560.0000000 magnetization 
 augmentation part      560.0000000 magnetization 

 Free energy of the ion-electron system (eV)
  ---------------------------------------------------
  alpha Z        PSCENC =        75.25431677
  Ewald energy   TEWEN  =    137522.12822015
  -Hartree energ DENC   =   -180887.33313257
  -exchange      EXHF   =         0.00000000
  -V(xc)+E(xc)   XCENC  =     -1703.55690075
  PAW double counting   =     44873.02882129   -41398.84523641
  entropy T*S    EENTRO =        -0.03149904
  eigenvalues    EBANDS =     -3334.78721684
  atomic energy  EATOM  =     45086.50549395
  Solvation  Ediel_sol  =         0.00000000
  ---------------------------------------------------
  free energy    TOTEN  =       232.36286655 eV

  energy without entropy =      232.39436558  energy(sigma->0) =      232.37074130


--------------------------------------------------------------------------------------------------------




--------------------------------------- Iteration      1(   4)  ---------------------------------------


     EDDAV:  cpu time  422.4139: real time  422.4177
       DOS:  cpu time    0.0011: real time    0.0011
    --------------------------------------------
      LOOP:  cpu time  422.4150: real time  422.4188

 eigenvalue-minimisations  :   832
 total energy-change (2. order) :-0.3673894E+03  (-0.3128313E+03)
 number of electron     560.0000000 magnetization 
 augmentation part      560.0000000 magnetization 

 Free energy of the ion-electron system (eV)
  ---------------------------------------------------
  alpha Z        PSCENC =        75.25431677
  Ewald energy   TEWEN  =    137522.12822015
  -Hartree energ DENC   =   -180887.33313257
  -exchange      EXHF   =         0.00000000
  -V(xc)+E(xc)   XCENC  =     -1703.55690075
  PAW double counting   =     44873.02882129   -41398.84523641
  entropy T*S    EENTRO =         0.01299870
  eigenvalues    EBANDS =     -3702.22109487
  atomic energy  EATOM  =     45086.50549395
  Solvation  Ediel_sol  =         0.00000000
  ---------------------------------------------------
  free energy    TOTEN  =      -135.02651375 eV

  energy without entropy =     -135.03951244  energy(sigma->0) =     -135.02976342


--------------------------------------------------------------------------------------------------------




--------------------------------------- Iteration      1(   5)  ---------------------------------------


     EDDAV:  cpu time  512.3893: real time  512.3932
       DOS:  cpu time    0.0015: real time    0.0014
    CHARGE:  cpu time   25.2622: real time   25.2621
    MIXING:  cpu time    0.4525: real time    0.4525
    --------------------------------------------
      LOOP:  cpu time  538.1055: real time  538.1093

 eigenvalue-minimisations  :  1056
 total energy-change (2. order) :-0.4418274E+02  (-0.3660041E+02)
 number of electron     559.9999831 magnetization 
 augmentation part      245.1920220 magnetization 

 Broyden mixing:
  rms(total) = 0.13886E+01    rms(broyden)= 0.13876E+01
  rms(prec ) = 0.14924E+01
  weight for this iteration     100.00

 Free energy of the ion-electron system (eV)
  ---------------------------------------------------
  alpha Z        PSCENC =        75.25431677
  Ewald energy   TEWEN  =    137522.12822015
  -Hartree energ DENC   =   -180887.33313257
  -exchange      EXHF   =         0.00000000
  -V(xc)+E(xc)   XCENC  =     -1703.55690075
  PAW double counting   =     44873.02882129   -41398.84523641
  entropy T*S    EENTRO =         0.47771974
  eigenvalues    EBANDS =     -3746.86855305
  atomic energy  EATOM  =     45086.50549395
  Solvation  Ediel_sol  =         0.00000000
  ---------------------------------------------------
  free energy    TOTEN  =      -179.20925089 eV

  energy without entropy =     -179.68697063  energy(sigma->0) =     -179.32868082


--------------------------------------------------------------------------------------------------------




--------------------------------------- Iteration      1(   6)  ---------------------------------------


    POTLOK:  cpu time   13.2080: real time   13.2114
    SETDIJ:  cpu time    0.1205: real time    0.1205
    EDDIAG:  cpu time   67.7657: real time   67.7684
  RMM-DIIS:  cpu time  186.8732: real time  186.8766
    ORTHCH:  cpu time   13.5450: real time   13.5450
       DOS:  cpu time    0.0015: real time    0.0015
    CHARGE:  cpu time   25.5112: real time   25.5112
    MIXING:  cpu time    0.4655: real time    0.4655
    --------------------------------------------
      LOOP:  cpu time  307.4905: real time  307.5000

 eigenvalue-minimisations  :   724
 total energy-change (2. order) : 0.1217002E+01  (-0.4795650E+01)
 number of electron     559.9999854 magnetization 
 augmentation part      240.7602359 magnetization 

 Broyden mixing:
  rms(total) = 0.19113E+01    rms(broyden)= 0.19111E+01
  rms(prec ) = 0.22132E+01
  weight for this iteration     100.00

 eigenvalues of (default mixing * dielectric matrix)
  average eigenvalue GAMMA=   0.3760
  0.3760

 Free energy of the ion-electron system (eV)
  ---------------------------------------------------
  alpha Z        PSCENC =        75.25431677
  Ewald energy   TEWEN  =    137522.12822015
  -Hartree energ DENC   =   -181299.40973888
  -exchange      EXHF   =         0.00000000
  -V(xc)+E(xc)   XCENC  =     -1697.29692045
  PAW double counting   =     45619.96808484   -42118.77286012
  entropy T*S    EENTRO =        -0.18397727
  eigenvalues    EBANDS =     -3366.18486743
  atomic energy  EATOM  =     45086.50549395
  Solvation  Ediel_sol  =         0.00000000
  ---------------------------------------------------
  free energy    TOTEN  =      -177.99224845 eV

  energy without entropy =     -177.80827118  energy(sigma->0) =     -177.94625413


--------------------------------------------------------------------------------------------------------




--------------------------------------- Iteration      1(   7)  ---------------------------------------


    POTLOK:  cpu time   13.3907: real time   13.3944
    SETDIJ:  cpu time    0.1262: real time    0.1262
    EDDIAG:  cpu time   67.9312: real time   67.9330
  RMM-DIIS:  cpu time  219.4570: real time  219.4630
    ORTHCH:  cpu time   13.4907: real time   13.4907
       DOS:  cpu time    0.0015: real time    0.0015
    CHARGE:  cpu time   25.5358: real time   25.5378
    MIXING:  cpu time    0.5049: real time    0.5049
    --------------------------------------------
      LOOP:  cpu time  340.4381: real time  340.4514

 eigenvalue-minimisations  :   843
 total energy-change (2. order) :-0.3011037E+01  (-0.1806665E+01)
 number of electron     559.9999822 magnetization 
 augmentation part      240.4643921 magnetization 

 Broyden mixing:
  rms(total) = 0.22375E+01    rms(broyden)= 0.22373E+01
  rms(prec ) = 0.27100E+01
  weight for this iteration     100.00

 eigenvalues of (default mixing * dielectric matrix)
  average eigenvalue GAMMA=   0.3408
  0.5383  0.1434

 Free energy of the ion-electron system (eV)
  ---------------------------------------------------
  alpha Z        PSCENC =        75.25431677
  Ewald energy   TEWEN  =    137522.12822015
  -Hartree energ DENC   =   -181392.23267326
  -exchange      EXHF   =         0.00000000
  -V(xc)+E(xc)   XCENC  =     -1697.42540507
  PAW double counting   =     45691.61074620   -42187.28435841
  entropy T*S    EENTRO =        -0.09869168
  eigenvalues    EBANDS =     -3279.46093416
  atomic energy  EATOM  =     45086.50549395
  Solvation  Ediel_sol  =         0.00000000
  ---------------------------------------------------
  free energy    TOTEN  =      -181.00328550 eV

  energy without entropy =     -180.90459383  energy(sigma->0) =     -180.97861258


--------------------------------------------------------------------------------------------------------




--------------------------------------- Iteration      1(   8)  ---------------------------------------


    POTLOK:  cpu time   13.1868: real time   13.1878
    SETDIJ:  cpu time    0.1231: real time    0.1231
    EDDIAG:  cpu time   67.0689: real time   67.0714
  RMM-DIIS:  cpu time  214.4589: real time  214.4633
    ORTHCH:  cpu time   13.6696: real time   13.6696
       DOS:  cpu time    0.0014: real time    0.0014
    CHARGE:  cpu time   26.1500: real time   26.1499
    MIXING:  cpu time    0.5298: real time    0.5298
    --------------------------------------------
      LOOP:  cpu time  335.1886: real time  335.1962

 eigenvalue-minimisations  :   803
 total energy-change (2. order) :-0.2278012E+01  (-0.6460406E+00)
 number of electron     559.9999828 magnetization 
 augmentation part      240.2356715 magnetization 

 Broyden mixing:
  rms(total) = 0.25588E+01    rms(broyden)= 0.25585E+01
  rms(prec ) = 0.30568E+01
  weight for this iteration     100.00

 eigenvalues of (default mixing * dielectric matrix)
  average eigenvalue GAMMA=   0.3257
  0.7084  0.1381  0.1307

 Free energy of the ion-electron system (eV)
  ---------------------------------------------------
  alpha Z        PSCENC =        75.25431677
  Ewald energy   TEWEN  =    137522.12822015
  -Hartree energ DENC   =   -181422.51567567
  -exchange      EXHF   =         0.00000000
  -V(xc)+E(xc)   XCENC  =     -1697.36231491
  PAW double counting   =     45750.09907009   -42243.12090646
  entropy T*S    EENTRO =        -0.13130091
  eigenvalues    EBANDS =     -3254.13820099
  atomic energy  EATOM  =     45086.50549395
  Solvation  Ediel_sol  =         0.00000000
  ---------------------------------------------------
  free energy    TOTEN  =      -183.28129799 eV

  energy without entropy =     -183.14999708  energy(sigma->0) =     -183.24847276


--------------------------------------------------------------------------------------------------------




--------------------------------------- Iteration      1(   9)  ---------------------------------------


    POTLOK:  cpu time   13.4667: real time   13.4676
    SETDIJ:  cpu time    0.1220: real time    0.1220
    EDDIAG:  cpu time   68.0378: real time   68.0378
  RMM-DIIS:  cpu time  197.1158: real time  197.1169
    ORTHCH:  cpu time   14.1788: real time   14.1788
       DOS:  cpu time    0.0015: real time    0.0015
    CHARGE:  cpu time   25.6544: real time   25.6544
    MIXING:  cpu time    0.5460: real time    0.5460
    --------------------------------------------
      LOOP:  cpu time  319.1231: real time  319.1249

 eigenvalue-minimisations  :   736
 total energy-change (2. order) : 0.4034868E+00  (-0.4450797E+00)
 number of electron     559.9999834 magnetization 
 augmentation part      240.6583688 magnetization 

 Broyden mixing:
  rms(total) = 0.25771E+01    rms(broyden)= 0.25768E+01
  rms(prec ) = 0.29960E+01
  weight for this iteration     100.00

 eigenvalues of (default mixing * dielectric matrix)
  average eigenvalue GAMMA=   0.3021
  0.8110  0.1506  0.1506  0.0962

 Free energy of the ion-electron system (eV)
  ---------------------------------------------------
  alpha Z        PSCENC =        75.25431677
  Ewald energy   TEWEN  =    137522.12822015
  -Hartree energ DENC   =   -181445.51311403
  -exchange      EXHF   =         0.00000000
  -V(xc)+E(xc)   XCENC  =     -1697.27334442
  PAW double counting   =     45808.62045028   -42299.06922555
  entropy T*S    EENTRO =        -0.22546523
  eigenvalues    EBANDS =     -3233.30514308
  atomic energy  EATOM  =     45086.50549395
  Solvation  Ediel_sol  =         0.00000000
  ---------------------------------------------------
  free energy    TOTEN  =      -182.87781116 eV

  energy without entropy =     -182.65234593  energy(sigma->0) =     -182.82144486


--------------------------------------------------------------------------------------------------------




--------------------------------------- Iteration      1(  10)  ---------------------------------------


    POTLOK:  cpu time   13.5940: real time   13.5948
    SETDIJ:  cpu time    0.1306: real time    0.1306
    EDDIAG:  cpu time   68.3390: real time   68.3397
  RMM-DIIS:  cpu time  195.1960: real time  195.2049
    ORTHCH:  cpu time   13.9744: real time   13.9746
       DOS:  cpu time    0.0015: real time    0.0015
    CHARGE:  cpu time   25.7245: real time   25.7248
    MIXING:  cpu time    0.5895: real time    0.5895
    --------------------------------------------
      LOOP:  cpu time  317.5496: real time  317.5606

 eigenvalue-minimisations  :   728
 total energy-change (2. order) : 0.3174954E+01  (-0.2903747E+00)
 number of electron     559.9999826 magnetization 
 augmentation part      241.2521305 magnetization 

 Broyden mixing:
  rms(total) = 0.22741E+01    rms(broyden)= 0.22738E+01
  rms(prec ) = 0.26500E+01
  weight for this iteration     100.00

 eigenvalues of (default mixing * dielectric matrix)
  average eigenvalue GAMMA=   0.2782
  0.8693  0.1751  0.1751  0.0857  0.0857

 Free energy of the ion-electron system (eV)
  ---------------------------------------------------
  alpha Z        PSCENC =        75.25431677
  Ewald energy   TEWEN  =    137522.12822015
  -Hartree energ DENC   =   -181471.59889892
  -exchange      EXHF   =         0.00000000
  -V(xc)+E(xc)   XCENC  =     -1697.18575019
  PAW double counting   =     45851.72560269   -42340.38064887
  entropy T*S    EENTRO =        -0.03114733
  eigenvalues    EBANDS =     -3206.12004541
  atomic energy  EATOM  =     45086.50549395
  Solvation  Ediel_sol  =         0.00000000
  ---------------------------------------------------
  free energy    TOTEN  =      -179.70285716 eV

  energy without entropy =     -179.67170983  energy(sigma->0) =     -179.69507033


--------------------------------------------------------------------------------------------------------




--------------------------------------- Iteration      1(  11)  ---------------------------------------


    POTLOK:  cpu time   13.5952: real time   13.5990
    SETDIJ:  cpu time    0.1247: real time    0.1247
    EDDIAG:  cpu time   68.4713: real time   68.4731
  RMM-DIIS:  cpu time  197.2796: real time  197.2874
    ORTHCH:  cpu time   13.5231: real time   13.5234
       DOS:  cpu time    0.0015: real time    0.0015
    CHARGE:  cpu time   25.9181: real time   25.9187
    MIXING:  cpu time    0.6696: real time    0.6696
    --------------------------------------------
      LOOP:  cpu time  319.5831: real time  319.5975

 eigenvalue-minimisations  :   738
 total energy-change (2. order) : 0.2086396E+01  (-0.1527636E+00)
 number of electron     559.9999845 magnetization 
 augmentation part      241.5670626 magnetization 

 Broyden mixing:
  rms(total) = 0.16725E+01    rms(broyden)= 0.16722E+01
  rms(prec ) = 0.19459E+01
  weight for this iteration     100.00

 eigenvalues of (default mixing * dielectric matrix)
  average eigenvalue GAMMA=   0.2636
  0.9197  0.1956  0.1956  0.1003  0.1003  0.0704

 Free energy of the ion-electron system (eV)
  ---------------------------------------------------
  alpha Z        PSCENC =        75.25431677
  Ewald energy   TEWEN  =    137522.12822015
  -Hartree energ DENC   =   -181486.27458594
  -exchange      EXHF   =         0.00000000
  -V(xc)+E(xc)   XCENC  =     -1697.05641045
  PAW double counting   =     45879.60748988   -42367.00345240
  entropy T*S    EENTRO =        -0.06327486
  eigenvalues    EBANDS =     -3190.71425818
  atomic energy  EATOM  =     45086.50549395
  Solvation  Ediel_sol  =         0.00000000
  ---------------------------------------------------
  free energy    TOTEN  =      -177.61646108 eV

  energy without entropy =     -177.55318622  energy(sigma->0) =     -177.60064236


--------------------------------------------------------------------------------------------------------




--------------------------------------- Iteration      1(  12)  ---------------------------------------


    POTLOK:  cpu time   13.4390: real time   13.4409
    SETDIJ:  cpu time    0.1211: real time    0.1211
    EDDIAG:  cpu time   67.9541: real time   67.9569
  RMM-DIIS:  cpu time  192.7576: real time  192.7647
    ORTHCH:  cpu time   13.6930: real time   13.6934
       DOS:  cpu time    0.0015: real time    0.0015
    CHARGE:  cpu time   25.8796: real time   25.8803
    MIXING:  cpu time    0.6337: real time    0.6337
    --------------------------------------------
      LOOP:  cpu time  314.4796: real time  314.4923

 eigenvalue-minimisations  :   720
 total energy-change (2. order) : 0.1075387E+01  (-0.1128743E+00)
 number of electron     559.9999833 magnetization 
 augmentation part      241.7062326 magnetization 

 Broyden mixing:
  rms(total) = 0.12841E+01    rms(broyden)= 0.12838E+01
  rms(prec ) = 0.15001E+01
  weight for this iteration     100.00

 eigenvalues of (default mixing * dielectric matrix)
  average eigenvalue GAMMA=   0.2592
  0.9558  0.2344  0.2344  0.1414  0.0934  0.0934  0.0614

 Free energy of the ion-electron system (eV)
  ---------------------------------------------------
  alpha Z        PSCENC =        75.25431677
  Ewald energy   TEWEN  =    137522.12822015
  -Hartree energ DENC   =   -181503.41964229
  -exchange      EXHF   =         0.00000000
  -V(xc)+E(xc)   XCENC  =     -1696.87298375
  PAW double counting   =     45906.33493629   -42392.42396220
  entropy T*S    EENTRO =        -0.12492639
  eigenvalues    EBANDS =     -3173.92252622
  atomic energy  EATOM  =     45086.50549395
  Solvation  Ediel_sol  =         0.00000000
  ---------------------------------------------------
  free energy    TOTEN  =      -176.54107370 eV

  energy without entropy =     -176.41614730  energy(sigma->0) =     -176.50984210


--------------------------------------------------------------------------------------------------------




--------------------------------------- Iteration      1(  13)  ---------------------------------------


    POTLOK:  cpu time   13.4456: real time   13.4476
    SETDIJ:  cpu time    0.1232: real time    0.1232
    EDDIAG:  cpu time   68.6030: real time   68.6061
  RMM-DIIS:  cpu time  192.2626: real time  192.2694
    ORTHCH:  cpu time   13.9028: real time   13.9030
       DOS:  cpu time    0.0015: real time    0.0015
    CHARGE:  cpu time   25.9094: real time   25.9098
    MIXING:  cpu time    0.6765: real time    0.6765
    --------------------------------------------
      LOOP:  cpu time  314.9246: real time  314.9371

 eigenvalue-minimisations  :   724
 total energy-change (2. order) :-0.6786424E-01  (-0.8551669E-01)
 number of electron     559.9999840 magnetization 
 augmentation part      241.5727230 magnetization 

 Broyden mixing:
  rms(total) = 0.16812E+01    rms(broyden)= 0.16809E+01
  rms(prec ) = 0.20649E+01
  weight for this iteration     100.00

 eigenvalues of (default mixing * dielectric matrix)
  average eigenvalue GAMMA=   0.2571
  0.9845  0.2890  0.2890  0.1808  0.0945  0.0945  0.0743  0.0505

 Free energy of the ion-electron system (eV)
  ---------------------------------------------------
  alpha Z        PSCENC =        75.25431677
  Ewald energy   TEWEN  =    137522.12822015
  -Hartree energ DENC   =   -181525.55551717
  -exchange      EXHF   =         0.00000000
  -V(xc)+E(xc)   XCENC  =     -1696.62357318
  PAW double counting   =     45934.39348713   -42419.02755698
  entropy T*S    EENTRO =        -0.05456626
  eigenvalues    EBANDS =     -3153.62924236
  atomic energy  EATOM  =     45086.50549395
  Solvation  Ediel_sol  =         0.00000000
  ---------------------------------------------------
  free energy    TOTEN  =      -176.60893794 eV

  energy without entropy =     -176.55437168  energy(sigma->0) =     -176.59529638


--------------------------------------------------------------------------------------------------------




--------------------------------------- Iteration      1(  14)  ---------------------------------------


    POTLOK:  cpu time   13.4220: real time   13.4252
    SETDIJ:  cpu time    0.1206: real time    0.1206
    EDDIAG:  cpu time   68.4427: real time   68.4462
  RMM-DIIS:  cpu time  184.1591: real time  184.1672
    ORTHCH:  cpu time   13.4381: real time   13.4383
       DOS:  cpu time    0.0014: real time    0.0014
    CHARGE:  cpu time   24.9369: real time   24.9373
    MIXING:  cpu time    0.6934: real time    0.6934
    --------------------------------------------
      LOOP:  cpu time  305.2144: real time  305.2296

 eigenvalue-minimisations  :   716
 total energy-change (2. order) : 0.4166735E+00  (-0.7150242E-01)
 number of electron     559.9999847 magnetization 
 augmentation part      241.4705862 magnetization 

 Broyden mixing:
  rms(total) = 0.13858E+01    rms(broyden)= 0.13855E+01
  rms(prec ) = 0.15833E+01
  weight for this iteration     100.00

 eigenvalues of (default mixing * dielectric matrix)
  average eigenvalue GAMMA=   0.2780
  1.1323  0.4402  0.3150  0.1885  0.1015  0.1015  0.1100  0.0679  0.0452

 Free energy of the ion-electron system (eV)
  ---------------------------------------------------
  alpha Z        PSCENC =        75.25431677
  Ewald energy   TEWEN  =    137522.12822015
  -Hartree energ DENC   =   -181546.32205439
  -exchange      EXHF   =         0.00000000
  -V(xc)+E(xc)   XCENC  =     -1696.32652759
  PAW double counting   =     45962.69567787   -42445.79867149
  entropy T*S    EENTRO =        -0.13206878
  eigenvalues    EBANDS =     -3134.19665089
  atomic energy  EATOM  =     45086.50549395
  Solvation  Ediel_sol  =         0.00000000
  ---------------------------------------------------
  free energy    TOTEN  =      -176.19226440 eV

  energy without entropy =     -176.06019562  energy(sigma->0) =     -176.15924721


--------------------------------------------------------------------------------------------------------




--------------------------------------- Iteration      1(  15)  ---------------------------------------


    POTLOK:  cpu time   12.9239: real time   12.9254
    SETDIJ:  cpu time    0.1208: real time    0.1208
    EDDIAG:  cpu time   66.8229: real time   66.8280
  RMM-DIIS:  cpu time  181.2846: real time  181.2910
    ORTHCH:  cpu time   13.5123: real time   13.5123
       DOS:  cpu time    0.0015: real time    0.0015
    CHARGE:  cpu time   25.3608: real time   25.3607
    MIXING:  cpu time    0.7345: real time    0.7345
    --------------------------------------------
      LOOP:  cpu time  300.7612: real time  300.7741

 eigenvalue-minimisations  :   710
 total energy-change (2. order) : 0.4222987E+00  (-0.1126512E+00)
 number of electron     559.9999834 magnetization 
 augmentation part      241.2873245 magnetization 

 Broyden mixing:
  rms(total) = 0.12763E+01    rms(broyden)= 0.12761E+01
  rms(prec ) = 0.14981E+01
  weight for this iteration     100.00

 eigenvalues of (default mixing * dielectric matrix)
  average eigenvalue GAMMA=   0.2875
  1.2221  0.6541  0.2504  0.1760  0.1760  0.0986  0.0986  0.0807  0.0726  0.0461

 Free energy of the ion-electron system (eV)
  ---------------------------------------------------
  alpha Z        PSCENC =        75.25431677
  Ewald energy   TEWEN  =    137522.12822015
  -Hartree energ DENC   =   -181595.05058074
  -exchange      EXHF   =         0.00000000
  -V(xc)+E(xc)   XCENC  =     -1695.61481075
  PAW double counting   =     46028.64171447   -42508.13749646
  entropy T*S    EENTRO =        -0.08113646
  eigenvalues    EBANDS =     -3089.41568665
  atomic energy  EATOM  =     45086.50549395
  Solvation  Ediel_sol  =         0.00000000
  ---------------------------------------------------
  free energy    TOTEN  =      -175.76996573 eV

  energy without entropy =     -175.68882927  energy(sigma->0) =     -175.74968161


--------------------------------------------------------------------------------------------------------




--------------------------------------- Iteration      1(  16)  ---------------------------------------


    POTLOK:  cpu time   12.9743: real time   12.9759
    SETDIJ:  cpu time    0.1235: real time    0.1235
    EDDIAG:  cpu time   67.0928: real time   67.0937
  RMM-DIIS:  cpu time  185.1658: real time  185.1687
    ORTHCH:  cpu time   13.5207: real time   13.5207
       DOS:  cpu time    0.0015: real time    0.0015
    CHARGE:  cpu time   24.8897: real time   24.8933
    MIXING:  cpu time    0.7958: real time    0.7958
    --------------------------------------------
      LOOP:  cpu time  304.5641: real time  304.5730

 eigenvalue-minimisations  :   726
 total energy-change (2. order) :-0.3019908E+00  (-0.6140480E-01)
 number of electron     559.9999829 magnetization 
 augmentation part      241.0303666 magnetization 

 Broyden mixing:
  rms(total) = 0.15546E+01    rms(broyden)= 0.15544E+01
  rms(prec ) = 0.18733E+01
  weight for this iteration     100.00

 eigenvalues of (default mixing * dielectric matrix)
  average eigenvalue GAMMA=   0.3022
  1.4337  0.7723  0.2308  0.2308  0.1832  0.0988  0.0988  0.0856  0.0856  0.0591
  0.0451

 Free energy of the ion-electron system (eV)
  ---------------------------------------------------
  alpha Z        PSCENC =        75.25431677
  Ewald energy   TEWEN  =    137522.12822015
  -Hartree energ DENC   =   -181623.72445606
  -exchange      EXHF   =         0.00000000
  -V(xc)+E(xc)   XCENC  =     -1695.24502200
  PAW double counting   =     46061.18523893   -42538.77592624
  entropy T*S    EENTRO =        -0.05890970
  eigenvalues    EBANDS =     -3063.34091230
  atomic energy  EATOM  =     45086.50549395
  Solvation  Ediel_sol  =         0.00000000
  ---------------------------------------------------
  free energy    TOTEN  =      -176.07195650 eV

  energy without entropy =     -176.01304681  energy(sigma->0) =     -176.05722908


--------------------------------------------------------------------------------------------------------




--------------------------------------- Iteration      1(  17)  ---------------------------------------


    POTLOK:  cpu time   12.8862: real time   12.8877
    SETDIJ:  cpu time    0.1212: real time    0.1212
    EDDIAG:  cpu time   66.8123: real time   66.8141
  RMM-DIIS:  cpu time  182.4916: real time  182.4952
    ORTHCH:  cpu time   13.4767: real time   13.4770
       DOS:  cpu time    0.0015: real time    0.0015
    CHARGE:  cpu time   24.8599: real time   24.8605
    MIXING:  cpu time    0.8445: real time    0.8445
    --------------------------------------------
      LOOP:  cpu time  301.4939: real time  301.5016

 eigenvalue-minimisations  :   715
 total energy-change (2. order) : 0.3325889E+00  (-0.7524843E-01)
 number of electron     559.9999831 magnetization 
 augmentation part      240.9568066 magnetization 

 Broyden mixing:
  rms(total) = 0.15045E+01    rms(broyden)= 0.15043E+01
  rms(prec ) = 0.17678E+01
  weight for this iteration     100.00

 eigenvalues of (default mixing * dielectric matrix)
  average eigenvalue GAMMA=   0.3024
  1.4992  0.8459  0.2719  0.2719  0.1884  0.1008  0.1008  0.0981  0.0759  0.0759
  0.0553  0.0452

 Free energy of the ion-electron system (eV)
  ---------------------------------------------------
  alpha Z        PSCENC =        75.25431677
  Ewald energy   TEWEN  =    137522.12822015
  -Hartree energ DENC   =   -181653.59079956
  -exchange      EXHF   =         0.00000000
  -V(xc)+E(xc)   XCENC  =     -1694.79770531
  PAW double counting   =     46100.32335550   -42575.65595995
  entropy T*S    EENTRO =        -0.01637698
  eigenvalues    EBANDS =     -3035.88991219
  atomic energy  EATOM  =     45086.50549395
  Solvation  Ediel_sol  =         0.00000000
  ---------------------------------------------------
  free energy    TOTEN  =      -175.73936762 eV

  energy without entropy =     -175.72299064  energy(sigma->0) =     -175.73527338


--------------------------------------------------------------------------------------------------------




--------------------------------------- Iteration      1(  18)  ---------------------------------------


    POTLOK:  cpu time   12.8907: real time   12.8926
    SETDIJ:  cpu time    0.1221: real time    0.1221
    EDDIAG:  cpu time   66.8715: real time   66.8745
  RMM-DIIS:  cpu time  180.2778: real time  180.2862
    ORTHCH:  cpu time   13.4174: real time   13.4177
       DOS:  cpu time    0.0015: real time    0.0015
    CHARGE:  cpu time   24.8003: real time   24.8007
    MIXING:  cpu time    0.9008: real time    0.9008
    --------------------------------------------
      LOOP:  cpu time  299.2821: real time  299.2960

 eigenvalue-minimisations  :   707
 total energy-change (2. order) : 0.3503266E+00  (-0.4465592E-01)
 number of electron     559.9999850 magnetization 
 augmentation part      240.9216862 magnetization 

 Broyden mixing:
  rms(total) = 0.10798E+01    rms(broyden)= 0.10796E+01
  rms(prec ) = 0.12461E+01
  weight for this iteration     100.00

 eigenvalues of (default mixing * dielectric matrix)
  average eigenvalue GAMMA=   0.3134
  1.6264  0.9341  0.3366  0.3366  0.1494  0.1494  0.1040  0.1040  0.0842  0.0842
  0.0709  0.0499  0.0446

 Free energy of the ion-electron system (eV)
  ---------------------------------------------------
  alpha Z        PSCENC =        75.25431677
  Ewald energy   TEWEN  =    137522.12822015
  -Hartree energ DENC   =   -181666.08779022
  -exchange      EXHF   =         0.00000000
  -V(xc)+E(xc)   XCENC  =     -1694.67349854
  PAW double counting   =     46111.69650225   -42586.27698858
  entropy T*S    EENTRO =        -0.01022588
  eigenvalues    EBANDS =     -3023.92507090
  atomic energy  EATOM  =     45086.50549395
  Solvation  Ediel_sol  =         0.00000000
  ---------------------------------------------------
  free energy    TOTEN  =      -175.38904100 eV

  energy without entropy =     -175.37881512  energy(sigma->0) =     -175.38648453


--------------------------------------------------------------------------------------------------------




--------------------------------------- Iteration      1(  19)  ---------------------------------------


    POTLOK:  cpu time   12.9803: real time   12.9826
    SETDIJ:  cpu time    0.1236: real time    0.1236
    EDDIAG:  cpu time   66.8356: real time   66.8368
  RMM-DIIS:  cpu time  181.0807: real time  181.0832
    ORTHCH:  cpu time   13.4552: real time   13.4551
       DOS:  cpu time    0.0015: real time    0.0015
    CHARGE:  cpu time   24.8454: real time   24.8452
    MIXING:  cpu time    0.9520: real time    0.9520
    --------------------------------------------
      LOOP:  cpu time  300.2743: real time  300.2801

 eigenvalue-minimisations  :   711
 total energy-change (2. order) : 0.7097454E-01  (-0.4164747E-01)
 number of electron     559.9999848 magnetization 
 augmentation part      240.9863161 magnetization 

 Broyden mixing:
  rms(total) = 0.10178E+01    rms(broyden)= 0.10177E+01
  rms(prec ) = 0.11857E+01
  weight for this iteration     100.00

 eigenvalues of (default mixing * dielectric matrix)
  average eigenvalue GAMMA=   0.3224
  1.6915  1.0798  0.3882  0.3882  0.1729  0.1729  0.1027  0.1027  0.0867  0.0867
  0.0742  0.0742  0.0494  0.0443

 Free energy of the ion-electron system (eV)
  ---------------------------------------------------
  alpha Z        PSCENC =        75.25431677
  Ewald energy   TEWEN  =    137522.12822015
  -Hartree energ DENC   =   -181680.00770497
  -exchange      EXHF   =         0.00000000
  -V(xc)+E(xc)   XCENC  =     -1694.53746692
  PAW double counting   =     46122.38468669   -42596.07312321
  entropy T*S    EENTRO =        -0.02139108
  eigenvalues    EBANDS =     -3010.95109785
  atomic energy  EATOM  =     45086.50549395
  Solvation  Ediel_sol  =         0.00000000
  ---------------------------------------------------
  free energy    TOTEN  =      -175.31806647 eV

  energy without entropy =     -175.29667539  energy(sigma->0) =     -175.31271870


--------------------------------------------------------------------------------------------------------




--------------------------------------- Iteration      1(  20)  ---------------------------------------


    POTLOK:  cpu time   12.9121: real time   12.9138
    SETDIJ:  cpu time    0.1190: real time    0.1190
    EDDIAG:  cpu time   67.0249: real time   67.0249
  RMM-DIIS:  cpu time  181.5386: real time  181.5393
    ORTHCH:  cpu time   13.3713: real time   13.3712
       DOS:  cpu time    0.0015: real time    0.0015
    CHARGE:  cpu time   24.9408: real time   24.9411
    MIXING:  cpu time    0.9926: real time    0.9926
    --------------------------------------------
      LOOP:  cpu time  300.9008: real time  300.9036

 eigenvalue-minimisations  :   710
 total energy-change (2. order) : 0.1512777E+00  (-0.3456810E-01)
 number of electron     559.9999852 magnetization 
 augmentation part      241.1608910 magnetization 

 Broyden mixing:
  rms(total) = 0.10495E+01    rms(broyden)= 0.10493E+01
  rms(prec ) = 0.12245E+01
  weight for this iteration     100.00

 eigenvalues of (default mixing * dielectric matrix)
  average eigenvalue GAMMA=   0.3259
  1.7578  1.2070  0.4093  0.4093  0.1948  0.1948  0.1040  0.1040  0.0941  0.0941
  0.0802  0.0802  0.0662  0.0481  0.0441

 Free energy of the ion-electron system (eV)
  ---------------------------------------------------
  alpha Z        PSCENC =        75.25431677
  Ewald energy   TEWEN  =    137522.12822015
  -Hartree energ DENC   =   -181690.60427408
  -exchange      EXHF   =         0.00000000
  -V(xc)+E(xc)   XCENC  =     -1694.46150269
  PAW double counting   =     46124.46845053   -42597.58878997
  entropy T*S    EENTRO =         0.01605839
  eigenvalues    EBANDS =     -3000.88476187
  atomic energy  EATOM  =     45086.50549395
  Solvation  Ediel_sol  =         0.00000000
  ---------------------------------------------------
  free energy    TOTEN  =      -175.16678882 eV

  energy without entropy =     -175.18284721  energy(sigma->0) =     -175.17080341


--------------------------------------------------------------------------------------------------------




--------------------------------------- Iteration      1(  21)  ---------------------------------------


    POTLOK:  cpu time   12.9183: real time   12.9203
    SETDIJ:  cpu time    0.1182: real time    0.1182
    EDDIAG:  cpu time   67.1044: real time   67.1145
  RMM-DIIS:  cpu time  178.7527: real time  178.7626
    ORTHCH:  cpu time   13.3618: real time   13.3617
       DOS:  cpu time    0.0015: real time    0.0015
    CHARGE:  cpu time   24.9740: real time   24.9739
    MIXING:  cpu time    1.0444: real time    1.0444
    --------------------------------------------
      LOOP:  cpu time  298.2755: real time  298.2972

 eigenvalue-minimisations  :   701
 total energy-change (2. order) : 0.2355890E+00  (-0.2920011E-01)
 number of electron     559.9999840 magnetization 
 augmentation part      241.2278744 magnetization 

 Broyden mixing:
  rms(total) = 0.72985E+00    rms(broyden)= 0.72970E+00
  rms(prec ) = 0.83225E+00
  weight for this iteration     100.00

 eigenvalues of (default mixing * dielectric matrix)
  average eigenvalue GAMMA=   0.3371
  1.9480  1.2146  0.4488  0.4488  0.2442  0.2442  0.1353  0.1056  0.1056  0.0882
  0.0882  0.0813  0.0813  0.0667  0.0483  0.0442

 Free energy of the ion-electron system (eV)
  ---------------------------------------------------
  alpha Z        PSCENC =        75.25431677
  Ewald energy   TEWEN  =    137522.12822015
  -Hartree energ DENC   =   -181703.38383424
  -exchange      EXHF   =         0.00000000
  -V(xc)+E(xc)   XCENC  =     -1694.34449933
  PAW double counting   =     46127.79430903   -42600.32540344
  entropy T*S    EENTRO =        -0.04447629
  eigenvalues    EBANDS =     -2988.51532646
  atomic energy  EATOM  =     45086.50549395
  Solvation  Ediel_sol  =         0.00000000
  ---------------------------------------------------
  free energy    TOTEN  =      -174.93119987 eV

  energy without entropy =     -174.88672358  energy(sigma->0) =     -174.92008079


--------------------------------------------------------------------------------------------------------




--------------------------------------- Iteration      1(  22)  ---------------------------------------


    POTLOK:  cpu time   12.8505: real time   12.8515
    SETDIJ:  cpu time    0.1205: real time    0.1204
    EDDIAG:  cpu time   67.1191: real time   67.1227
  RMM-DIIS:  cpu time  180.2361: real time  180.2372
    ORTHCH:  cpu time   13.4311: real time   13.4322
       DOS:  cpu time    0.0014: real time    0.0014
    CHARGE:  cpu time   24.9262: real time   24.9260
    MIXING:  cpu time    1.1018: real time    1.1018
    --------------------------------------------
      LOOP:  cpu time  299.7867: real time  299.7931

 eigenvalue-minimisations  :   706
 total energy-change (2. order) : 0.2720945E-01  (-0.2177446E-01)
 number of electron     559.9999852 magnetization 
 augmentation part      241.1678205 magnetization 

 Broyden mixing:
  rms(total) = 0.71402E+00    rms(broyden)= 0.71389E+00
  rms(prec ) = 0.82521E+00
  weight for this iteration     100.00

 eigenvalues of (default mixing * dielectric matrix)
  average eigenvalue GAMMA=   0.3376
  2.0864  1.2621  0.4303  0.3729  0.3729  0.2315  0.1541  0.1050  0.1050  0.1099
  0.1099  0.0839  0.0839  0.0733  0.0647  0.0483  0.0442

 Free energy of the ion-electron system (eV)
  ---------------------------------------------------
  alpha Z        PSCENC =        75.25431677
  Ewald energy   TEWEN  =    137522.12822015
  -Hartree energ DENC   =   -181723.43691206
  -exchange      EXHF   =         0.00000000
  -V(xc)+E(xc)   XCENC  =     -1694.13970174
  PAW double counting   =     46135.19977362   -42606.83400354
  entropy T*S    EENTRO =        -0.06081529
  eigenvalues    EBANDS =     -2969.52036227
  atomic energy  EATOM  =     45086.50549395
  Solvation  Ediel_sol  =         0.00000000
  ---------------------------------------------------
  free energy    TOTEN  =      -174.90399042 eV

  energy without entropy =     -174.84317512  energy(sigma->0) =     -174.88878659


--------------------------------------------------------------------------------------------------------




--------------------------------------- Iteration      1(  23)  ---------------------------------------


    POTLOK:  cpu time   12.8524: real time   12.8541
    SETDIJ:  cpu time    0.1221: real time    0.1221
    EDDIAG:  cpu time   67.2815: real time   67.2834
  RMM-DIIS:  cpu time  179.7620: real time  179.7622
    ORTHCH:  cpu time   13.3191: real time   13.3190
       DOS:  cpu time    0.0015: real time    0.0014
    CHARGE:  cpu time   24.9155: real time   24.9153
    MIXING:  cpu time    1.1696: real time    1.1696
    --------------------------------------------
      LOOP:  cpu time  299.4236: real time  299.4271

 eigenvalue-minimisations  :   706
 total energy-change (2. order) : 0.1524831E+00  (-0.1550209E-01)
 number of electron     559.9999844 magnetization 
 augmentation part      241.1879935 magnetization 

 Broyden mixing:
  rms(total) = 0.56850E+00    rms(broyden)= 0.56836E+00
  rms(prec ) = 0.64401E+00
  weight for this iteration     100.00

 eigenvalues of (default mixing * dielectric matrix)
  average eigenvalue GAMMA=   0.3450
  2.1600  1.3107  0.6864  0.3630  0.3630  0.1844  0.1844  0.1710  0.1043  0.1043
[...]
 -0.006  -0.012   0.004   0.004   0.005  -0.006  -0.012   0.004
 -0.011  -0.020   0.006   0.007   0.009  -0.010  -0.019   0.006
 -0.015  -0.005   0.012   0.000   0.022  -0.014  -0.005   0.012
  0.000  -0.023  -0.006  -0.015  -0.000   0.000  -0.022  -0.006
 -0.022   0.000   0.009  -0.005  -0.016  -0.021   0.000   0.008
 -0.018  -0.006   0.015   0.000   0.027  -0.017  -0.006   0.015
  0.000  -0.027  -0.007  -0.018   0.000   0.000  -0.027  -0.007
 -0.027   0.000   0.010  -0.006  -0.019  -0.026   0.000   0.010
 total augmentation occupancy for first ion, spin component:           1
  1.539  -0.031   0.005   0.018   0.023   0.075  -0.008  -0.002   0.035  -0.010   0.091  -0.031   0.012   0.002   0.003  -0.019
 -0.031   1.404   0.029   0.070   0.000  -0.007   0.069   0.011  -0.014  -0.008   0.219  -0.066   0.019   0.002   0.003  -0.006
  0.005   0.029   1.546   0.002   0.002  -0.002   0.013   0.072  -0.012   0.017  -0.055   0.018  -0.003  -0.007  -0.006   0.016
  0.018   0.070   0.002   1.340   0.045   0.033  -0.014  -0.012   0.091  -0.023  -0.081   0.020  -0.001  -0.008  -0.004   0.001
  0.023   0.000   0.002   0.045   1.442  -0.010  -0.008   0.016  -0.022   0.066  -0.096   0.031  -0.003  -0.010  -0.009   0.026
  0.075  -0.007  -0.002   0.033  -0.010   0.216   0.019  -0.002  -0.045   0.004  -0.048   0.002   0.017  -0.010   0.034  -0.004
 -0.008   0.069   0.013  -0.014  -0.008   0.019   0.262  -0.023  -0.003   0.006  -0.110   0.007  -0.001   0.051  -0.010  -0.000
 -0.002   0.011   0.072  -0.012   0.016  -0.002  -0.023   0.214   0.014  -0.020   0.028  -0.001  -0.012   0.009  -0.018   0.003
  0.035  -0.014  -0.012   0.091  -0.022  -0.045  -0.003   0.014   0.259   0.008   0.043  -0.004  -0.009   0.036   0.004   0.000
 -0.010  -0.008   0.017  -0.023   0.066   0.004   0.006  -0.020   0.008   0.257   0.047  -0.003  -0.038   0.002   0.049   0.007
  0.091   0.219  -0.055  -0.081  -0.096  -0.048  -0.110   0.028   0.043   0.047   0.952  -0.141   0.084   0.014   0.064  -0.013
 -0.031  -0.066   0.018   0.020   0.031   0.002   0.007  -0.001  -0.004  -0.003  -0.141   0.023  -0.014  -0.003  -0.010   0.003
  0.012   0.019  -0.003  -0.001  -0.003   0.017  -0.001  -0.012  -0.009  -0.038   0.084  -0.014   0.029  -0.008  -0.004  -0.003
  0.002   0.002  -0.007  -0.008  -0.010  -0.010   0.051   0.009   0.036   0.002   0.014  -0.003  -0.008   0.036   0.004   0.000
  0.003   0.003  -0.006  -0.004  -0.009   0.034  -0.010  -0.018   0.004   0.049   0.064  -0.010  -0.004   0.004   0.035  -0.000
 -0.019  -0.006   0.016   0.001   0.026  -0.004  -0.000   0.003   0.000   0.007  -0.013   0.003  -0.003   0.000  -0.000   0.001
  0.001  -0.028  -0.007  -0.018   0.001   0.001  -0.008  -0.001  -0.006  -0.000  -0.003   0.001   0.000  -0.003  -0.000   0.000
 -0.028   0.001   0.012  -0.005  -0.020  -0.006   0.001   0.003  -0.001  -0.007  -0.008   0.001  -0.000  -0.000  -0.003   0.000


------------------------ aborting loop because EDIFF is reached ----------------------------------------


    CHARGE:  cpu time   25.6558: real time   25.6577
    FORLOC:  cpu time    6.7607: real time    6.7606
    FORNL :  cpu time   64.4222: real time   64.4218
    STRESS:  cpu time  196.4857: real time  196.4916
    FORCOR:  cpu time   22.0726: real time   22.0727
    FORHAR:  cpu time    9.6347: real time    9.6348
    MIXING:  cpu time    3.4917: real time    3.4917
    OFIELD:  cpu time    0.0000: real time    0.0000

  FORCE on cell =-STRESS in cart. coord.  units (eV):
  Direction    XX          YY          ZZ          XY          YZ          ZX
  --------------------------------------------------------------------------------------
  Alpha Z    75.25432    75.25432    75.25432
  Ewald   50057.12454 43540.00504 43924.89308   518.92184   173.91062   805.12693
  Hartree 64614.58030 58464.51590 58804.44239   460.22066   140.94465   713.47589
  E(xc)   -2903.22733 -2905.03618 -2904.74390     0.49301     0.40098     0.78303
  Local  ************************************  -973.49924  -311.51268 -1510.28790
  n-local  -889.88913  -881.72508  -883.41390    -0.65535    -1.10830    -0.60359
  augment  4103.11959  4103.92237  4104.27107    -1.17642    -0.75575    -1.59524
  Kinetic  7790.94817  7810.80605  7809.15453    -4.71127    -2.98626    -7.58053
  Fock        0.00000     0.00000     0.00000     0.00000     0.00000     0.00000
  -------------------------------------------------------------------------------------
  Total    -111.15544  -114.32890  -115.32070    -0.40677    -1.10672    -0.68143
  in kB      -6.59595    -6.78427    -6.84312    -0.02414    -0.06567    -0.04044
  external pressure =       -6.74 kB  Pullay stress =        0.00 kB


 VOLUME and BASIS-vectors are now :
 -----------------------------------------------------------------------------
  energy-cutoff  :      400.00
  volume of cell :    27000.00
      direct lattice vectors                 reciprocal lattice vectors
    30.000000000  0.000000000  0.000000000     0.033333333  0.000000000  0.000000000
     0.000000000 30.000000000  0.000000000     0.000000000  0.033333333  0.000000000
     0.000000000  0.000000000 30.000000000     0.000000000  0.000000000  0.033333333

  length of vectors
    30.000000000 30.000000000 30.000000000     0.033333333  0.033333333  0.033333333


 FORCES acting on ions
    electron-ion (+dipol)            ewald-force                    non-local-force                 convergence-correction
 -----------------------------------------------------------------------------------------------
   0.398E+03 0.974E+03 0.418E+03   -.396E+03 -.971E+03 -.418E+03   -.151E+01 -.182E+01 -.213E+00   0.799E-02 -.254E-02 0.984E-02
   -.940E+03 -.400E+03 0.450E+03   0.937E+03 0.398E+03 -.450E+03   0.191E+01 0.158E+01 -.196E+00   -.138E-01 0.130E-01 0.769E-02
   -.385E+03 0.977E+03 0.420E+03   0.383E+03 -.974E+03 -.420E+03   0.150E+01 -.182E+01 -.212E+00   -.125E-02 -.371E-03 0.819E-02
   0.972E+03 -.394E+03 0.418E+03   -.969E+03 0.392E+03 -.417E+03   -.182E+01 0.150E+01 -.225E+00   0.183E-01 0.193E-01 0.267E-02
   0.593E+01 0.589E+03 0.968E+03   -.593E+01 -.588E+03 -.964E+03   -.522E-03 -.297E+00 -.235E+01   0.493E-02 0.768E-02 -.218E-02
   0.922E+01 0.591E+03 -.967E+03   -.923E+01 -.590E+03 0.964E+03   0.108E-01 -.301E+00 0.234E+01   -.555E-02 -.150E-02 -.982E-02
   0.594E+01 0.114E+04 0.126E+01   -.594E+01 -.113E+04 -.127E+01   0.162E-03 -.311E+01 -.270E-02   0.681E-04 0.267E-02 0.135E-01
   0.113E+04 0.517E+00 0.913E+00   -.113E+04 -.520E+00 -.922E+00   -.311E+01 -.166E-02 0.473E-02   0.595E-02 0.595E-02 0.338E-02
   -.987E+03 0.696E+02 0.124E+03   0.986E+03 -.679E+02 -.121E+03   0.285E+00 -.957E+00 -.171E+01   -.928E-02 0.108E-01 0.268E-02
   0.831E+01 -.114E+04 0.171E+01   -.831E+01 0.113E+04 -.172E+01   0.104E-02 0.311E+01 0.177E-02   0.528E-03 -.165E-01 0.375E-02
   -.569E+03 0.584E+03 0.821E+03   0.567E+03 -.582E+03 -.818E+03   0.158E+01 -.153E+01 -.217E+01   -.429E-02 0.142E-02 -.191E-02
   -.561E+03 0.591E+03 -.821E+03   0.558E+03 -.588E+03 0.818E+03   0.153E+01 -.157E+01 0.223E+01   -.954E-02 0.311E-02 -.420E-02
   0.581E+03 -.579E+03 0.814E+03   -.578E+03 0.576E+03 -.811E+03   -.156E+01 0.155E+01 -.220E+01   0.140E-01 0.755E-02 0.101E-01
   0.582E+03 -.579E+03 -.814E+03   -.580E+03 0.577E+03 0.810E+03   -.156E+01 0.156E+01 0.220E+01   0.783E-02 0.105E-01 -.762E-02
   0.580E+03 0.579E+03 0.814E+03   -.578E+03 -.577E+03 -.811E+03   -.156E+01 -.155E+01 -.220E+01   0.813E-02 -.240E-02 -.569E-02
   0.581E+03 0.580E+03 -.813E+03   -.579E+03 -.578E+03 0.810E+03   -.156E+01 -.156E+01 0.220E+01   0.120E-01 -.731E-02 -.480E-02
   -.567E+03 -.582E+03 0.824E+03   0.564E+03 0.580E+03 -.821E+03   0.155E+01 0.156E+01 -.218E+01   -.825E-02 0.877E-03 0.130E-01
   -.553E+03 -.589E+03 -.826E+03   0.551E+03 0.586E+03 0.822E+03   0.155E+01 0.159E+01 0.224E+01   -.331E-02 -.756E-05 -.137E-01
   0.399E+03 0.974E+03 -.416E+03   -.397E+03 -.971E+03 0.416E+03   -.149E+01 -.182E+01 0.228E+00   0.709E-02 0.413E-02 0.453E-02
   -.875E+03 -.414E+03 -.441E+03   0.872E+03 0.412E+03 0.441E+03   0.200E+01 0.121E+01 -.504E-01   -.153E-01 0.553E-02 -.538E-02
   -.306E+03 0.326E+03 0.461E+03   0.306E+03 -.327E+03 -.462E+03   -.401E+00 0.350E+00 0.500E+00   -.745E-02 0.190E-01 0.958E-02
   0.972E+03 0.395E+03 0.418E+03   -.969E+03 -.393E+03 -.417E+03   -.182E+01 -.150E+01 -.223E+00   0.693E-02 0.603E-02 0.626E-02
   -.382E+03 -.977E+03 0.422E+03   0.380E+03 0.974E+03 -.422E+03   0.150E+01 0.182E+01 -.223E+00   -.771E-02 -.115E-01 0.103E-01
   -.383E+03 0.979E+03 -.417E+03   0.381E+03 -.976E+03 0.417E+03   0.149E+01 -.182E+01 0.227E+00   -.120E-01 0.292E-02 -.286E-03
   0.972E+03 -.394E+03 -.416E+03   -.969E+03 0.392E+03 0.416E+03   -.183E+01 0.149E+01 0.218E+00   0.118E-01 0.679E-02 -.537E-02
   -.947E+03 0.410E+03 0.442E+03   0.944E+03 -.408E+03 -.441E+03   0.178E+01 -.169E+01 -.454E+00   -.510E-02 0.122E-01 0.763E-02
   0.400E+03 -.973E+03 0.419E+03   -.397E+03 0.970E+03 -.418E+03   -.150E+01 0.182E+01 -.215E+00   0.908E-02 -.960E-02 0.839E-02
   0.327E+03 0.323E+03 0.456E+03   -.328E+03 -.323E+03 -.456E+03   0.368E+00 0.368E+00 0.529E+00   0.180E-01 0.192E-01 0.112E-01
   0.106E+02 0.643E+03 0.214E+01   -.106E+02 -.644E+03 -.215E+01   0.578E-02 0.732E+00 -.572E-02   0.168E-02 0.370E-02 0.166E-01
   -.573E+03 0.212E+01 0.978E+03   0.573E+03 -.210E+01 -.974E+03   0.281E+00 -.235E-01 -.238E+01   -.984E-02 0.173E-01 0.717E-02
   -.556E+03 0.523E+01 -.982E+03   0.555E+03 -.522E+01 0.978E+03   0.362E+00 -.732E-02 0.234E+01   -.620E-02 0.797E-02 -.710E-02
   0.589E+03 0.444E+00 0.966E+03   -.588E+03 -.464E+00 -.963E+03   -.317E+00 0.580E-03 -.235E+01   0.167E-01 0.199E-01 0.180E-02
   0.590E+03 0.615E+00 -.966E+03   -.589E+03 -.610E+00 0.962E+03   -.308E+00 0.230E-02 0.236E+01   0.100E-01 -.692E-02 -.253E-02
   0.763E+03 0.762E+03 0.971E+00   -.761E+03 -.760E+03 -.978E+00   -.115E+01 -.114E+01 -.901E-02   0.140E-01 -.273E-03 0.171E-01
   -.727E+03 -.776E+03 0.989E+01   0.725E+03 0.774E+03 -.992E+01   0.118E+01 0.114E+01 0.182E-01   -.158E-01 -.317E-02 0.354E-03
   -.739E+03 0.777E+03 0.626E+01   0.737E+03 -.775E+03 -.628E+01   0.114E+01 -.117E+01 0.844E-02   -.863E-02 0.475E-02 0.916E-02
   0.764E+03 -.761E+03 0.112E+01   -.762E+03 0.759E+03 -.110E+01   -.115E+01 0.114E+01 -.707E-02   0.234E-01 0.548E-02 -.612E-02
   0.744E+01 0.862E+00 0.107E+04   -.746E+01 -.877E+00 -.107E+04   0.137E-01 0.670E-03 -.161E+01   0.438E-02 0.159E-01 0.996E-02
   0.126E+02 0.143E+01 -.107E+04   -.126E+02 -.142E+01 0.107E+04   -.245E-01 -.149E-02 0.161E+01   0.862E-02 -.412E-02 -.110E-01
   0.972E+03 0.395E+03 -.416E+03   -.969E+03 -.393E+03 0.416E+03   -.183E+01 -.149E+01 0.217E+00   0.131E-01 -.757E-02 0.319E-02
   -.378E+03 -.980E+03 -.418E+03   0.376E+03 0.977E+03 0.417E+03   0.149E+01 0.182E+01 0.225E+00   -.491E-02 -.488E-02 -.146E-01
   -.299E+03 0.329E+03 -.455E+03   0.299E+03 -.329E+03 0.456E+03   -.404E+00 0.358E+00 -.520E+00   -.761E-02 0.852E-02 -.420E-02
   0.328E+03 -.321E+03 0.456E+03   -.328E+03 0.322E+03 -.457E+03   0.370E+00 -.369E+00 0.526E+00   0.172E-01 0.150E-01 0.911E-02
   0.329E+03 0.323E+03 -.453E+03   -.329E+03 -.324E+03 0.454E+03   0.387E+00 0.369E+00 -.517E+00   0.115E-01 -.456E-02 -.224E-02
   -.914E+03 0.433E+03 -.430E+03   0.911E+03 -.431E+03 0.430E+03   0.200E+01 -.128E+01 0.102E+00   -.946E-02 0.904E-02 -.212E-02
   0.401E+03 -.974E+03 -.416E+03   -.399E+03 0.971E+03 0.416E+03   -.149E+01 0.182E+01 0.228E+00   0.125E-01 0.256E-02 -.160E-01
   -.303E+03 -.323E+03 0.462E+03   0.304E+03 0.323E+03 -.463E+03   -.405E+00 -.356E+00 0.496E+00   -.805E-02 0.112E-01 0.105E-01
   0.643E+03 0.655E+00 0.117E+01   -.644E+03 -.665E+00 -.118E+01   0.718E+00 -.384E-02 0.437E-02   0.258E-01 0.123E-01 0.195E-02
   -.595E+03 0.723E+01 0.128E+02   0.596E+03 -.732E+01 -.130E+02   -.638E+00 0.563E-01 0.125E+00   -.141E-01 0.181E-01 0.351E-02
   0.703E+01 -.588E+03 0.969E+03   -.704E+01 0.587E+03 -.965E+03   0.999E-02 0.290E+00 -.234E+01   0.216E-04 -.294E-02 0.174E-01
   0.115E+02 -.589E+03 -.968E+03   -.115E+02 0.589E+03 0.964E+03   0.158E-02 0.304E+00 0.234E+01   0.824E-02 0.506E-02 -.203E-01
   0.150E+02 0.166E+01 0.299E+01   -.151E+02 -.168E+01 -.299E+01   0.214E-01 0.456E-02 0.681E-02   0.539E-02 0.170E-01 0.588E-03
   0.330E+03 -.321E+03 -.453E+03   -.330E+03 0.322E+03 0.454E+03   0.393E+00 -.369E+00 -.512E+00   0.173E-01 0.676E-02 -.187E-01
   -.294E+03 -.324E+03 -.456E+03   0.295E+03 0.324E+03 0.456E+03   -.428E+00 -.368E+00 -.546E+00   0.110E-02 0.665E-02 -.145E-01
   0.134E+02 -.642E+03 0.267E+01   -.134E+02 0.643E+03 -.267E+01   -.177E-03 -.729E+00 -.157E-02   0.475E-02 0.277E-02 -.236E-02
   -.179E+03 -.515E+02 -.712E+02   0.153E+03 0.486E+02 0.660E+02   0.203E+02 0.167E+01 0.299E+01   -.161E-02 0.216E-02 0.407E-03
   -.654E+03 -.879E+02 -.141E+03   0.718E+03 0.943E+02 0.152E+03   -.595E+02 -.580E+01 -.104E+02   -.180E-02 0.206E-02 -.264E-04
 -----------------------------------------------------------------------------------------------
   0.414E+02 0.498E+01 0.942E+01   0.682E-12 0.149E-11 -.259E-11   -.415E+02 -.524E+01 -.949E+01   0.137E+00 0.267E+00 0.589E-01
 
 
 POSITION                                       TOTAL-FORCE (eV/Angst)
 -----------------------------------------------------------------------------------
     13.37281      9.84801     12.50759         0.707367      1.106901      0.289881
     20.15199     16.62719     12.50759        -1.152175     -0.710386      0.219658
     16.62719      9.84801     12.50759        -0.707329      1.109536      0.289244
      9.84801     16.62719     12.50759         1.110070     -0.704084      0.291118
     15.00000     11.47521     10.20639         0.000979      0.410030      1.287330
     15.00000     11.47521     19.79360        -0.003925      0.414367     -1.281012
     15.00000      8.28283     15.00000         0.000104      1.518475     -0.000736
      8.28283     15.00000     15.00000         1.516196      0.001176     -0.000335
     21.71717     15.00000     15.00000        -0.224373      0.720728      1.266178
     15.00000     21.71717     15.00000         0.000449     -1.517380     -0.001003
     18.35858     11.64142     10.25025        -0.776751      0.735796      1.057802
     18.35858     11.64142     19.74975        -0.738880      0.758166     -1.087690
     11.64142     18.35858     10.25025         0.758623     -0.754926      1.072787
     11.64142     18.35858     19.74975         0.754299     -0.758437     -1.073871
     11.64142     11.64142     10.25025         0.759056      0.755215      1.072571
     11.64142     11.64142     19.74975         0.755945      0.757486     -1.072576
     18.35858     18.35858     10.25025        -0.762303     -0.751868      1.065270
     18.35858     18.35858     19.74975        -0.751313     -0.760637     -1.081942
     13.37281      9.84801     17.49241         0.702519      1.108344     -0.292464
     20.15199     16.62719     17.49241        -0.952794     -0.696078     -0.221089
     16.73751     13.26249     12.54279         0.117363     -0.109536     -0.146051
      9.84801     13.37281     12.50759         1.108906      0.704129      0.290156
     16.62719     20.15199     12.50759        -0.707737     -1.108940      0.290968
     16.62719      9.84801     17.49241        -0.705078      1.108194     -0.291433
      9.84801     16.62719     17.49241         1.114557     -0.698458     -0.287746
     20.15199     13.37281     12.50759        -1.092592      0.730806      0.297179
     13.37281     20.15199     12.50759         0.705714     -1.108558      0.290821
     13.26249     13.26249     12.54279        -0.112719     -0.113256     -0.157123
     15.00000     11.52498     15.00000         0.002989     -0.228479     -0.000967
     18.52479     15.00000     10.20639        -0.389596      0.013878      1.297530
     18.52479     15.00000     19.79360        -0.435161      0.005182     -1.280849
     11.47521     15.00000     10.20640         0.412063      0.000220      1.279279
     11.47521     15.00000     19.79360         0.406980     -0.000132     -1.278386
     11.49535     11.49535     15.00000         0.829393      0.827974      0.000586
     18.50465     18.50465     15.00000        -0.847900     -0.816099     -0.008147
     18.50465     11.49535     15.00000        -0.834014      0.826568     -0.003741
     11.49535     18.50465     15.00000         0.829867     -0.827697     -0.000187
     15.00000     15.00000     10.04368        -0.007890      0.001317      1.179043
     15.00000     15.00000     19.95633         0.013182      0.001277     -1.179962
      9.84801     13.37281     17.49241         1.115134      0.698912     -0.286894
     16.62719     20.15199     17.49241        -0.704370     -1.110546     -0.291920
     16.73751     13.26249     17.45721         0.112255     -0.111157      0.152893
     13.26249     16.73751     12.54279        -0.116066      0.115280     -0.156032
     13.26249     13.26249     17.45721        -0.120306     -0.112774      0.158276
     20.15199     13.37281     17.49241        -1.161070      0.652779     -0.203317
     13.37281     20.15199     17.49241         0.702071     -1.108596     -0.293840
     16.73751     16.73751     12.54279         0.113316      0.107972     -0.152700
     11.52498     15.00000     15.00000        -0.226279     -0.002158     -0.005204
     18.47502     15.00000     15.00000         0.111992     -0.013489     -0.050983
     15.00000     18.52480     10.20639        -0.003985     -0.410313      1.287896
     15.00000     18.52480     19.79360         0.002178     -0.418307     -1.282500
     15.00000     15.00000     15.00000        -0.020874      0.000121      0.004499
     13.26249     16.73751     17.45721        -0.126400      0.114139      0.161448
     16.73751     16.73751     17.45721         0.120054      0.111894      0.150249
     15.00000     18.47502     15.00000         0.003015      0.227612      0.000278
     23.16072     15.83627     16.48828        -4.870994     -1.232139     -2.219760
     24.26482     15.94942     16.68964         3.666237      0.539959      0.937521
 -----------------------------------------------------------------------------------
    total drift:                               -0.000747      0.006975     -0.010493


--------------------------------------------------------------------------------------------------------



  FREE ENERGIE OF THE ION-ELECTRON SYSTEM (eV)
  ---------------------------------------------------
  free  energy   TOTEN  =      -174.54378742 eV

  energy  without entropy=     -174.43951155  energy(sigma->0) =     -174.51771845
 


--------------------------------------------------------------------------------------------------------


    POTLOK:  cpu time   13.7135: real time   13.7137


--------------------------------------------------------------------------------------------------------


     LOOP+:  cpu time17225.4853: real time17226.1490
    4ORBIT:  cpu time    0.0000: real time    0.0000

 total amount of memory used by VASP MPI-rank0  5486942. kBytes
=======================================================================

   base      :      30000. kBytes
   nonlr-proj:      17127. kBytes
   fftplans  :     924480. kBytes
   grid      :    1872000. kBytes
   one-center:        886. kBytes
   wavefun   :    2642449. kBytes
 
  
  
 General timing and accounting informations for this job:
 ========================================================
  
                  Total CPU time used (sec):    17297.672
                            User time (sec):    16293.976
                          System time (sec):     1003.696
                         Elapsed time (sec):    17298.449
  
                   Maximum memory used (kb):     7179148.
                   Average memory used (kb):           0.
  
                          Minor page faults:    775662234
                          Major page faults:            0
                 Voluntary context switches:          518
