<?xml version="1.0" encoding="ISO-8859-1"?>
<modeling>
 <generator>
  <i name="program" type="string">vasp </i>
  <i name="version" type="string">5.4.4.18Apr17-6-g9f103f2a35  </i>
  <i name="subversion" type="string">(build Sep 03 2018 23:53:05) complex            parallel </i>
  <i name="platform" type="string">LinuxIFC </i>
  <i name="date" type="string">2021 11 27 </i>
  <i name="time" type="string">22:28:15 </i>
 </generator>
 <incar>
  <i type="string" name="SYSTEM"> 6_Pd100_top_free_z(O)</i>
  <i type="int" name="ISTART">     0</i>
  <i type="string" name="PREC">normal   			! encut=max(enmax), ngx,y,z</i>
  <i type="string" name="ALGO"> Fast     			! Mix RMM-DIIS and Dav</i>
  <i type="logical" name="ADDGRID"> F  </i>
  <i type="int" name="ISPIN">     1</i>
  <i type="int" name="ICHARG">     2</i>
  <i type="int" name="NELM">   100</i>
  <i type="int" name="NELMIN">     6</i>
  <i type="int" name="IBRION">     2</i>
  <i name="EDIFF">      0.00010000</i>
  <i name="EDIFFG">     -0.05000000</i>
  <i type="int" name="NSW">     0</i>
  <i type="int" name="ISIF">     2</i>
  <i type="int" name="ISYM">     2</i>
  <i name="ENCUT">    400.00000000</i>
  <i type="string" name="LREAL"> Auto     			! Auto or A projection done</i>
  <i type="int" name="ISMEAR">     2</i>
  <i name="SIGMA">      0.20000000</i>
  <i type="logical" name="LWAVE"> F  </i>
  <i type="logical" name="LCHARG"> F  </i>
  <v type="int" name="KPOINT_BSE">    -1     0     0     0</v>
  <i type="int" name="MAXMEM"> 10000</i>
  <i type="int" name="NELM">   100</i>
  <i type="string" name="GGA"> RP         			! Revised PBE</i>
 </incar>
 <structure name="primitive_cell" >
  <crystal>
   <varray name="basis" >
    <v>      30.00000000       0.00000000       0.00000000 </v>
    <v>       0.00000000      30.00000000       0.00000000 </v>
    <v>       0.00000000       0.00000000      30.00000000 </v>
   </varray>
   <i name="volume">  27000.00000000 </i>
   <varray name="rec_basis" >
    <v>       0.03333333       0.00000000       0.00000000 </v>
    <v>       0.00000000       0.03333333       0.00000000 </v>
    <v>       0.00000000       0.00000000       0.03333333 </v>
   </varray>
  </crystal>
  <varray name="positions" >
   <v>       0.44576020       0.32826710       0.41691983 </v>
   <v>      -0.44576020       0.32826710       0.41691983 </v>
   <v>      -0.50000000       0.38250690       0.34021317 </v>
   <v>      -0.50000000       0.27609440      -0.50000000 </v>
   <v>       0.38804720       0.38804720       0.34167483 </v>
   <v>      -0.50000000       0.38416601      -0.50000000 </v>
   <v>       0.44208300       0.44208300       0.41809300 </v>
   <v>       0.38317830       0.38317830      -0.50000000 </v>
   <v>      -0.44208300       0.44208300       0.41809300 </v>
   <v>       0.44576020       0.32826710      -0.41691977 </v>
   <v>       0.32826705       0.44576024       0.41691983 </v>
   <v>      -0.38804720       0.38804720       0.34167483 </v>
   <v>      -0.38317830       0.38317830      -0.50000000 </v>
   <v>      -0.50000000      -0.50000000       0.33478917 </v>
   <v>      -0.50000000      -0.50000000      -0.50000000 </v>
   <v>      -0.44576020       0.32826710      -0.41691977 </v>
   <v>       0.38250685      -0.49999995       0.34021317 </v>
   <v>       0.44208300       0.44208300      -0.41809297 </v>
   <v>       0.38416599      -0.49999998      -0.50000000 </v>
   <v>      -0.44208300       0.44208300      -0.41809297 </v>
   <v>       0.44208298      -0.44208298       0.41809300 </v>
   <v>       0.32826705       0.44576024      -0.41691977 </v>
   <v>      -0.50000000       0.38250690      -0.34021320 </v>
   <v>       0.32826712      -0.44576022       0.41691983 </v>
   <v>      -0.38250685      -0.49999995       0.34021317 </v>
   <v>      -0.32826705       0.44576024       0.41691983 </v>
   <v>       0.27609443       0.49999998      -0.50000000 </v>
   <v>       0.38804720       0.38804720      -0.34167487 </v>
   <v>      -0.38416599      -0.49999998      -0.50000000 </v>
   <v>      -0.44208298      -0.44208298       0.41809300 </v>
   <v>       0.44208298      -0.44208298      -0.41809297 </v>
   <v>      -0.38804720       0.38804720      -0.34167487 </v>
   <v>       0.38804722      -0.38804722       0.34167483 </v>
   <v>       0.38250685      -0.49999995      -0.34021320 </v>
   <v>       0.32826712      -0.44576022      -0.41691977 </v>
   <v>      -0.32826705       0.44576024      -0.41691977 </v>
   <v>       0.50000000      -0.38250681       0.34021317 </v>
   <v>      -0.50000000      -0.38416596      -0.50000000 </v>
   <v>      -0.44208298      -0.44208298      -0.41809297 </v>
   <v>      -0.50000000      -0.50000000      -0.33478913 </v>
   <v>       0.38317828      -0.38317828      -0.50000000 </v>
   <v>      -0.32826712      -0.44576022       0.41691983 </v>
   <v>      -0.27609443       0.49999998      -0.50000000 </v>
   <v>      -0.38804722      -0.38804722       0.34167483 </v>
   <v>      -0.38250685      -0.49999995      -0.34021320 </v>
   <v>       0.44576027      -0.32826707       0.41691983 </v>
   <v>      -0.38317828      -0.38317828      -0.50000000 </v>
   <v>      -0.32826712      -0.44576022      -0.41691977 </v>
   <v>      -0.44576027      -0.32826707       0.41691983 </v>
   <v>       0.38804722      -0.38804722      -0.34167487 </v>
   <v>      -0.50000000      -0.38250681      -0.34021320 </v>
   <v>       0.44576027      -0.32826707      -0.41691977 </v>
   <v>      -0.44576027      -0.32826707      -0.41691977 </v>
   <v>      -0.22797617      -0.47212417      -0.45039053 </v>
   <v>      -0.50000000      -0.27609445       0.50000000 </v>
   <v>      -0.38804722      -0.38804722      -0.34167487 </v>
   <v>      -0.19117283      -0.46835270      -0.44367863 </v>
  </varray>
 </structure>
 <varray name="primitive_index" >
  <v type="int" >        1 </v>
  <v type="int" >        3 </v>
  <v type="int" >        5 </v>
  <v type="int" >        7 </v>
  <v type="int" >       15 </v>
  <v type="int" >       29 </v>
  <v type="int" >       28 </v>
  <v type="int" >       34 </v>
  <v type="int" >       21 </v>
  <v type="int" >       19 </v>
  <v type="int" >       22 </v>
  <v type="int" >       11 </v>
  <v type="int" >       36 </v>
  <v type="int" >       38 </v>
  <v type="int" >       52 </v>
  <v type="int" >       24 </v>
  <v type="int" >       32 </v>
  <v type="int" >       44 </v>
  <v type="int" >       48 </v>
  <v type="int" >       42 </v>
  <v type="int" >       43 </v>
  <v type="int" >       40 </v>
  <v type="int" >        6 </v>
  <v type="int" >        4 </v>
  <v type="int" >       30 </v>
  <v type="int" >       26 </v>
  <v type="int" >        8 </v>
  <v type="int" >       16 </v>
  <v type="int" >       49 </v>
  <v type="int" >       47 </v>
  <v type="int" >       53 </v>
  <v type="int" >       12 </v>
  <v type="int" >       13 </v>
  <v type="int" >       33 </v>
  <v type="int" >       25 </v>
  <v type="int" >       45 </v>
  <v type="int" >       50 </v>
  <v type="int" >       55 </v>
  <v type="int" >       54 </v>
  <v type="int" >       39 </v>
  <v type="int" >       37 </v>
  <v type="int" >        2 </v>
  <v type="int" >        9 </v>
  <v type="int" >       17 </v>
  <v type="int" >       31 </v>
  <v type="int" >       27 </v>
  <v type="int" >       35 </v>
  <v type="int" >       20 </v>
  <v type="int" >       23 </v>
  <v type="int" >       14 </v>
  <v type="int" >       51 </v>
  <v type="int" >       46 </v>
  <v type="int" >       41 </v>
  <v type="int" >       56 </v>
  <v type="int" >       10 </v>
  <v type="int" >       18 </v>
  <v type="int" >       57 </v>
 </varray>
 <kpoints>
  <generation param="Monkhorst-Pack">
   <v type="int" name="divisions">       1        1        1 </v>
   <v name="usershift">      0.00000000       0.00000000       0.00000000 </v>
   <v name="genvec1">      1.00000000       0.00000000       0.00000000 </v>
   <v name="genvec2">      0.00000000       1.00000000       0.00000000 </v>
   <v name="genvec3">      0.00000000       0.00000000       1.00000000 </v>
   <v name="shift">      0.00000000       0.00000000       0.00000000 </v>
  </generation>
  <varray name="kpointlist" >
   <v>       0.00000000       0.00000000       0.00000000 </v>
  </varray>
  <varray name="weights" >
   <v>       1.00000000 </v>
  </varray>
 </kpoints>
 <parameters>
  <separator name="general" >
   <i type="string" name="SYSTEM">6_Pd100_top_free_z(O)</i>
   <i type="logical" name="LCOMPAT"> F  </i>
  </separator>
  <separator name="electronic" >
   <i type="string" name="PREC">normal</i>
   <i name="ENMAX">    400.00000000</i>
   <i name="ENAUG">    644.87300000</i>
   <i name="EDIFF">      0.00010000</i>
   <i type="int" name="IALGO">    68</i>
   <i type="int" name="IWAVPR">    10</i>
   <i type="int" name="NBANDS">   336</i>
   <i name="NELECT">    560.00000000</i>
   <i type="int" name="TURBO">     0</i>
   <i type="int" name="IRESTART">     0</i>
   <i type="int" name="NREBOOT">     0</i>
   <i type="int" name="NMIN">     0</i>
   <i name="EREF">      0.00000000</i>
   <separator name="electronic smearing" >
    <i type="int" name="ISMEAR">     2</i>
    <i name="SIGMA">      0.20000000</i>
    <i name="KSPACING">      0.50000000</i>
    <i type="logical" name="KGAMMA"> T  </i>
   </separator>
   <separator name="electronic projectors" >
    <i type="logical" name="LREAL"> T  </i>
    <v name="ROPT">     -0.00050000     -0.00050000     -0.00050000</v>
    <i type="int" name="LMAXPAW">  -100</i>
    <i type="int" name="LMAXMIX">     2</i>
    <i type="logical" name="NLSPLINE"> F  </i>
   </separator>
   <separator name="electronic startup" >
    <i type="int" name="ISTART">     0</i>
    <i type="int" name="ICHARG">     2</i>
    <i type="int" name="INIWAV">     1</i>
   </separator>
   <separator name="electronic spin" >
    <i type="int" name="ISPIN">     1</i>
    <i type="logical" name="LNONCOLLINEAR"> F  </i>
    <v name="MAGMOM">      1.00000000      1.00000000      1.00000000      1.00000000      1.00000000      1.00000000      1.00000000      1.00000000      1.00000000      1.00000000      1.00000000      1.00000000      1.00000000      1.00000000      1.00000000      1.00000000      1.00000000      1.00000000      1.00000000      1.00000000
      1.00000000      1.00000000      1.00000000      1.00000000      1.00000000      1.00000000      1.00000000      1.00000000      1.00000000      1.00000000      1.00000000      1.00000000      1.00000000      1.00000000      1.00000000      1.00000000      1.00000000      1.00000000      1.00000000      1.00000000
      1.00000000      1.00000000      1.00000000      1.00000000      1.00000000      1.00000000      1.00000000      1.00000000      1.00000000      1.00000000      1.00000000      1.00000000      1.00000000      1.00000000      1.00000000      1.00000000      1.00000000</v>
    <i name="NUPDOWN">     -1.00000000</i>
    <i type="logical" name="LSORBIT"> F  </i>
    <v name="SAXIS">      0.00000000      0.00000000      1.00000000</v>
    <i type="logical" name="LSPIRAL"> F  </i>
    <v name="QSPIRAL">      0.00000000      0.00000000      0.00000000</v>
    <i type="logical" name="LZEROZ"> F  </i>
   </separator>
   <separator name="electronic exchange-correlation" >
    <i type="logical" name="LASPH"> F  </i>
    <i type="logical" name="LMETAGGA"> F  </i>
   </separator>
   <separator name="electronic convergence" >
    <i type="int" name="NELM">   100</i>
    <i type="int" name="NELMDL">    -5</i>
    <i type="int" name="NELMIN">     6</i>
    <i name="ENINI">    400.00000000</i>
    <separator name="electronic convergence detail" >
     <i type="logical" name="LDIAG"> T  </i>
     <i type="logical" name="LSUBROT"> F  </i>
     <i name="WEIMIN">      0.00000000</i>
     <i name="EBREAK">      0.00000007</i>
     <i name="DEPER">      0.30000000</i>
     <i type="int" name="NRMM">     4</i>
     <i name="TIME">      0.40000000</i>
    </separator>
   </separator>
   <separator name="electronic mixer" >
    <i name="AMIX">      0.40000000</i>
    <i name="BMIX">      1.00000000</i>
    <i name="AMIN">      0.10000000</i>
    <i name="AMIX_MAG">      1.60000000</i>
    <i name="BMIX_MAG">      1.00000000</i>
    <separator name="electronic mixer details" >
     <i type="int" name="IMIX">     4</i>
     <i type="logical" name="MIXFIRST"> F  </i>
     <i type="int" name="MAXMIX">   -45</i>
     <i name="WC">    100.00000000</i>
     <i type="int" name="INIMIX">     1</i>
     <i type="int" name="MIXPRE">     1</i>
     <i type="int" name="MREMOVE">     5</i>
    </separator>
   </separator>
   <separator name="electronic dipolcorrection" >
    <i type="logical" name="LDIPOL"> F  </i>
    <i type="logical" name="LMONO"> F  </i>
    <i type="int" name="IDIPOL">     0</i>
    <i name="EPSILON">      1.00000000</i>
    <v name="DIPOL">   -100.00000000   -100.00000000   -100.00000000</v>
    <i name="EFIELD">      0.00000000</i>
   </separator>
  </separator>
  <separator name="grids" >
   <i type="int" name="NGX">   150</i>
   <i type="int" name="NGY">   150</i>
   <i type="int" name="NGZ">   150</i>
   <i type="int" name="NGXF">   300</i>
   <i type="int" name="NGYF">   300</i>
   <i type="int" name="NGZF">   300</i>
   <i type="logical" name="ADDGRID"> F  </i>
  </separator>
  <separator name="ionic" >
   <i type="int" name="NSW">     0</i>
   <i type="int" name="IBRION">    -1</i>
   <i type="int" name="MDALGO">     0</i>
   <i type="int" name="ISIF">     2</i>
   <i name="PSTRESS">      0.00000000</i>
   <i name="EDIFFG">     -0.05000000</i>
   <i type="int" name="NFREE">     1</i>
   <i name="POTIM">      0.50000000</i>
   <i name="SMASS">     -3.00000000</i>
   <i name="SCALEE">      1.00000000</i>
  </separator>
  <separator name="ionic md" >
   <i name="TEBEG">      0.00010000</i>
   <i name="TEEND">      0.00010000</i>
   <i type="int" name="NBLOCK">     1</i>
   <i type="int" name="KBLOCK">     1</i>
   <i type="int" name="NPACO">   256</i>
   <i name="APACO">     16.00000000</i>
  </separator>
  <separator name="symmetry" >
   <i type="int" name="ISYM">     2</i>
   <i name="SYMPREC">      0.00001000</i>
  </separator>
  <separator name="dos" >
   <i type="int" name="LORBIT">     0</i>
   <v name="RWIGS">     -1.00000000     -1.00000000     -1.00000000</v>
   <i type="int" name="NEDOS">   301</i>
   <i name="EMIN">     10.00000000</i>
   <i name="EMAX">    -10.00000000</i>
   <i name="EFERMI">      0.00000000</i>
  </separator>
  <separator name="writing" >
   <i type="int" name="NWRITE">     2</i>
   <i type="logical" name="LWAVE"> F  </i>
   <i type="logical" name="LDOWNSAMPLE"> F  </i>
   <i type="logical" name="LCHARG"> F  </i>
   <i type="logical" name="LPARD"> F  </i>
   <i type="logical" name="LVTOT"> F  </i>
   <i type="logical" name="LVHAR"> F  </i>
   <i type="logical" name="LELF"> F  </i>
   <i type="logical" name="LOPTICS"> F  </i>
   <v name="STM">      0.00000000      0.00000000      0.00000000      0.00000000      0.00000000      0.00000000      0.00000000</v>
  </separator>
  <separator name="performance" >
   <i type="int" name="NPAR">     1</i>
   <i type="int" name="NSIM">     4</i>
   <i type="int" name="NBLK">    -1</i>
   <i type="logical" name="LPLANE"> T  </i>
   <i type="logical" name="LSCALAPACK"> T  </i>
   <i type="logical" name="LSCAAWARE"> F  </i>
   <i type="logical" name="LSCALU"> F  </i>
   <i type="logical" name="LASYNC"> F  </i>
   <i type="logical" name="LORBITALREAL"> F  </i>
  </separator>
  <separator name="miscellaneous" >
   <i type="int" name="IDIOT">     3</i>
   <i type="int" name="ISPECIAL">     0</i>
   <i type="logical" name="LMUSIC"> F  </i>
   <v name="POMASS">    106.42000000     12.01100000     16.00000000</v>
   <v name="DARWINR">      0.00000000      0.00000000      0.00000000</v>
   <v name="DARWINV">      1.00000000      1.00000000      1.00000000</v>
   <i type="logical" name="LCORR"> T  </i>
  </separator>
  <i type="logical" name="GGA_COMPAT"> T  </i>
  <i type="logical" name="LBERRY"> F  </i>
  <i type="int" name="ICORELEVEL">     0</i>
  <i type="logical" name="LDAU"> F  </i>
  <i type="int" name="I_CONSTRAINED_M">     0</i>
  <separator name="electronic exchange-correlation" >
   <i type="string" name="GGA">RP</i>
   <i type="int" name="VOSKOWN">     0</i>
   <i type="logical" name="LHFCALC"> F  </i>
   <i type="string" name="PRECFOCK"></i>
   <i type="logical" name="LSYMGRAD"> F  </i>
   <i type="logical" name="LHFONE"> F  </i>
   <i type="logical" name="LRHFCALC"> F  </i>
   <i type="logical" name="LTHOMAS"> F  </i>
   <i type="logical" name="LMODELHF"> F  </i>
   <i name="ENCUT4O">     -1.00000000</i>
   <i type="int" name="EXXOEP">     0</i>
   <i type="int" name="FOURORBIT">     0</i>
   <i name="AEXX">      0.00000000</i>
   <i name="HFALPHA">      0.00000000</i>
   <i name="MCALPHA">      0.00000000</i>
   <i name="ALDAX">      1.00000000</i>
   <i name="AGGAX">      1.00000000</i>
   <i name="ALDAC">      1.00000000</i>
   <i name="AGGAC">      1.00000000</i>
   <i type="int" name="NKREDX">     1</i>
   <i type="int" name="NKREDY">     1</i>
   <i type="int" name="NKREDZ">     1</i>
   <i type="logical" name="SHIFTRED"> F  </i>
   <i type="logical" name="ODDONLY"> F  </i>
   <i type="logical" name="EVENONLY"> F  </i>
   <i type="int" name="LMAXFOCK">     0</i>
   <i type="int" name="NMAXFOCKAE">     0</i>
   <i type="logical" name="LFOCKAEDFT"> F  </i>
   <i name="HFSCREEN">      0.00000000</i>
   <i name="HFSCREENC">      0.00000000</i>
   <i type="int" name="NBANDSGWLOW">     0</i>
  </separator>
  <separator name="vdW DFT" >
   <i type="logical" name="LUSE_VDW"> F  </i>
   <i name="Zab_VDW">     -0.84910000</i>
   <i name="PARAM1">      0.12340000</i>
   <i name="PARAM2">      1.00000000</i>
   <i name="PARAM3">      0.00000000</i>
  </separator>
  <separator name="model GW" >
   <i type="int" name="MODEL_GW">     0</i>
   <i name="MODEL_EPS0">    284.21052632</i>
   <i name="MODEL_ALPHA">      1.00000000</i>
  </separator>
  <separator name="linear response parameters" >
   <i type="logical" name="LEPSILON"> F  </i>
   <i type="logical" name="LRPA"> F  </i>
   <i type="logical" name="LNABLA"> F  </i>
   <i type="logical" name="LVEL"> F  </i>
   <i type="int" name="KINTER">     0</i>
   <i name="CSHIFT">      0.10000000</i>
   <i name="OMEGAMAX">     -1.00000000</i>
   <i name="DEG_THRESHOLD">      0.00200000</i>
   <i name="RTIME">     -0.10000000</i>
   <i name="WPLASMAI">      0.00000000</i>
   <v name="DFIELD">      0.00000000      0.00000000      0.00000000</v>
   <v name="WPLASMA">      0.00000000      0.00000000      0.00000000      0.00000000      0.00000000      0.00000000      0.00000000      0.00000000      0.00000000</v>
  </separator>
  <separator name="orbital magnetization" >
   <i type="logical" name="NUCIND"> F  </i>
   <v name="MAGPOS">      0.00000000      0.00000000      0.00000000</v>
   <i type="logical" name="LNICSALL"> T  </i>
   <i type="logical" name="ORBITALMAG"> F  </i>
   <i type="logical" name="LMAGBLOCH"> F  </i>
   <i type="logical" name="LCHIMAG"> F  </i>
   <i type="logical" name="LGAUGE"> T  </i>
   <i type="int" name="MAGATOM">     0</i>
   <v name="MAGDIPOL">      0.00000000      0.00000000      0.00000000</v>
   <v name="AVECCONST">      0.00000000      0.00000000      0.00000000</v>
  </separator>
  <separator name="response functions" >
   <i type="logical" name="LADDER"> F  </i>
   <i type="logical" name="LRPAFORCE"> F  </i>
   <i type="logical" name="LFXC"> F  </i>
   <i type="logical" name="LHARTREE"> T  </i>
   <i type="int" name="IBSE">     0</i>
   <v type="int" name="KPOINT">    -1     0     0     0</v>
   <i type="logical" name="LTCTE"> F  </i>
   <i type="logical" name="LTETE"> F  </i>
   <i type="logical" name="LTRIPLET"> F  </i>
   <i type="logical" name="LFXCEPS"> F  </i>
   <i type="logical" name="LFXHEG"> F  </i>
   <i type="int" name="NATURALO">     2</i>
   <i type="logical" name="L2ORDER"> F  </i>
   <i type="logical" name="LMP2LT"> F  </i>
   <i type="logical" name="LUSEW"> F  </i>
   <i name="ENCUTGW">     -2.00000000</i>
   <i name="ENCUTGWSOFT">     -2.00000000</i>
   <i name="ENCUTLF">     -1.00000000</i>
   <i type="int" name="LMAXMP2">    -1</i>
   <i name="SCISSOR">      0.00000000</i>
   <i type="int" name="NOMEGA">     0</i>
   <i type="int" name="NOMEGAR">     0</i>
   <i type="int" name="NBANDSGW">    -1</i>
   <i type="int" name="NBANDSO">    -1</i>
   <i type="int" name="NBANDSV">    -1</i>
   <i type="int" name="NELM">   100</i>
   <i type="int" name="NELMHF">     1</i>
   <i type="int" name="DIM">     3</i>
   <i type="int" name="ANTIRES">     0</i>
   <i name="OMEGAMAX">    -30.00000000</i>
   <i name="OMEGAMIN">    -30.00000000</i>
   <i name="OMEGATL">   -200.00000000</i>
   <i type="int" name="OMEGAGRID">   140</i>
   <i name="CSHIFT">     -0.10000000</i>
   <i type="logical" name="SELFENERGY"> F  </i>
   <i type="logical" name="LSPECTRAL"> F  </i>
   <i type="logical" name="LSPECTRALGW"> F  </i>
   <i type="logical" name="LSINGLES"> F  </i>
   <i type="logical" name="LFERMIGW"> F  </i>
   <i type="logical" name="ODDONLYGW"> F  </i>
   <i type="logical" name="EVENONLYGW"> F  </i>
   <i type="int" name="NKREDLFX">     1</i>
   <i type="int" name="NKREDLFY">     1</i>
   <i type="int" name="NKREDLFZ">     1</i>
   <i type="int" name="MAXMEM"> 10000</i>
   <i type="int" name="TELESCOPE">     0</i>
   <i type="int" name="TAUPAR">     1</i>
   <i type="int" name="OMEGAPAR">    -1</i>
   <i name="LAMBDA">      1.00000000</i>
  </separator>
  <separator name="External order field" >
   <i name="OFIELD_KAPPA">      0.00000000</i>
   <v name="OFIELD_K">      0.00000000      0.00000000      0.00000000</v>
   <i name="OFIELD_Q6_NEAR">      0.00000000</i>
   <i name="OFIELD_Q6_FAR">      0.00000000</i>
   <i name="OFIELD_A">      0.00000000</i>
  </separator>
 </parameters>
 <atominfo>
  <atoms>      57 </atoms>
  <types>       3 </types>
  <array name="atoms" >
   <dimension dim="1">ion</dimension>
   <field type="string">element</field>
   <field type="int">atomtype</field>
   <set>
    <rc><c>Pd</c><c>   1</c></rc>
    <rc><c>Pd</c><c>   1</c></rc>
    <rc><c>Pd</c><c>   1</c></rc>
    <rc><c>Pd</c><c>   1</c></rc>
    <rc><c>Pd</c><c>   1</c></rc>
    <rc><c>Pd</c><c>   1</c></rc>
    <rc><c>Pd</c><c>   1</c></rc>
    <rc><c>Pd</c><c>   1</c></rc>
    <rc><c>Pd</c><c>   1</c></rc>
    <rc><c>Pd</c><c>   1</c></rc>
    <rc><c>Pd</c><c>   1</c></rc>
    <rc><c>Pd</c><c>   1</c></rc>
    <rc><c>Pd</c><c>   1</c></rc>
    <rc><c>Pd</c><c>   1</c></rc>
    <rc><c>Pd</c><c>   1</c></rc>
    <rc><c>Pd</c><c>   1</c></rc>
    <rc><c>Pd</c><c>   1</c></rc>
    <rc><c>Pd</c><c>   1</c></rc>
    <rc><c>Pd</c><c>   1</c></rc>
    <rc><c>Pd</c><c>   1</c></rc>
    <rc><c>Pd</c><c>   1</c></rc>
    <rc><c>Pd</c><c>   1</c></rc>
    <rc><c>Pd</c><c>   1</c></rc>
    <rc><c>Pd</c><c>   1</c></rc>
    <rc><c>Pd</c><c>   1</c></rc>
    <rc><c>Pd</c><c>   1</c></rc>
    <rc><c>Pd</c><c>   1</c></rc>
    <rc><c>Pd</c><c>   1</c></rc>
    <rc><c>Pd</c><c>   1</c></rc>
    <rc><c>Pd</c><c>   1</c></rc>
    <rc><c>Pd</c><c>   1</c></rc>
    <rc><c>Pd</c><c>   1</c></rc>
    <rc><c>Pd</c><c>   1</c></rc>
    <rc><c>Pd</c><c>   1</c></rc>
    <rc><c>Pd</c><c>   1</c></rc>
    <rc><c>Pd</c><c>   1</c></rc>
    <rc><c>Pd</c><c>   1</c></rc>
    <rc><c>Pd</c><c>   1</c></rc>
    <rc><c>Pd</c><c>   1</c></rc>
    <rc><c>Pd</c><c>   1</c></rc>
    <rc><c>Pd</c><c>   1</c></rc>
    <rc><c>Pd</c><c>   1</c></rc>
    <rc><c>Pd</c><c>   1</c></rc>
    <rc><c>Pd</c><c>   1</c></rc>
    <rc><c>Pd</c><c>   1</c></rc>
    <rc><c>Pd</c><c>   1</c></rc>
    <rc><c>Pd</c><c>   1</c></rc>
    <rc><c>Pd</c><c>   1</c></rc>
    <rc><c>Pd</c><c>   1</c></rc>
    <rc><c>Pd</c><c>   1</c></rc>
    <rc><c>Pd</c><c>   1</c></rc>
    <rc><c>Pd</c><c>   1</c></rc>
    <rc><c>Pd</c><c>   1</c></rc>
    <rc><c>Pd</c><c>   1</c></rc>
    <rc><c>Pd</c><c>   1</c></rc>
    <rc><c>C </c><c>   2</c></rc>
    <rc><c>O </c><c>   3</c></rc>
   </set>
  </array>
  <array name="atomtypes" >
   <dimension dim="1">type</dimension>
   <field type="int">atomspertype</field>
   <field type="string">element</field>
   <field>mass</field>
   <field>valence</field>
   <field type="string">pseudopotential</field>
   <set>
    <rc><c>  55</c><c>Pd</c><c>    106.42000000</c><c>     10.00000000</c><c>  PAW_PBE Pd 04Jan2005                  </c></rc>
    <rc><c>   1</c><c>C </c><c>     12.01100000</c><c>      4.00000000</c><c>  PAW_PBE C 08Apr2002                   </c></rc>
    <rc><c>   1</c><c>O </c><c>     16.00000000</c><c>      6.00000000</c><c>  PAW_PBE O 08Apr2002                   </c></rc>
   </set>
  </array>
 </atominfo>
 <structure name="initialpos" >
  <crystal>
   <varray name="basis" >
    <v>      30.00000000       0.00000000       0.00000000 </v>
    <v>       0.00000000      30.00000000       0.00000000 </v>
    <v>       0.00000000       0.00000000      30.00000000 </v>
   </varray>
   <i name="volume">  27000.00000000 </i>
   <varray name="rec_basis" >
    <v>       0.03333333       0.00000000       0.00000000 </v>
    <v>       0.00000000       0.03333333       0.00000000 </v>
    <v>       0.00000000       0.00000000       0.03333333 </v>
   </varray>
  </crystal>
  <varray name="positions" >
   <v>       0.44576020       0.32826710       0.41691983 </v>
   <v>       0.67173288       0.55423978       0.41691983 </v>
   <v>       0.55423980       0.32826710       0.41691983 </v>
   <v>       0.32826712       0.55423978       0.41691983 </v>
   <v>       0.50000000       0.38250690       0.34021317 </v>
   <v>       0.50000000       0.38250690       0.65978680 </v>
   <v>       0.50000000       0.27609440       0.50000000 </v>
   <v>       0.27609443       0.49999998       0.50000000 </v>
   <v>       0.72390557       0.49999998       0.50000000 </v>
   <v>       0.50000000       0.72390555       0.50000000 </v>
   <v>       0.61195280       0.38804720       0.34167483 </v>
   <v>       0.61195280       0.38804720       0.65832513 </v>
   <v>       0.38804722       0.61195278       0.34167483 </v>
   <v>       0.38804722       0.61195278       0.65832513 </v>
   <v>       0.38804720       0.38804720       0.34167483 </v>
   <v>       0.38804720       0.38804720       0.65832513 </v>
   <v>       0.61195278       0.61195278       0.34167483 </v>
   <v>       0.61195278       0.61195278       0.65832513 </v>
   <v>       0.44576020       0.32826710       0.58308023 </v>
   <v>       0.67173288       0.55423978       0.58308023 </v>
   <v>       0.55791699       0.44208301       0.41809300 </v>
   <v>       0.32826705       0.44576024       0.41691983 </v>
   <v>       0.55423973       0.67173293       0.41691983 </v>
   <v>       0.55423980       0.32826710       0.58308023 </v>
   <v>       0.32826712       0.55423978       0.58308023 </v>
   <v>       0.67173295       0.44576024       0.41691983 </v>
   <v>       0.44576027       0.67173293       0.41691983 </v>
   <v>       0.44208301       0.44208301       0.41809300 </v>
   <v>       0.50000000       0.38416601       0.50000000 </v>
   <v>       0.61749315       0.50000005       0.34021317 </v>
   <v>       0.61749315       0.50000005       0.65978680 </v>
   <v>       0.38250685       0.50000005       0.34021317 </v>
   <v>       0.38250685       0.50000005       0.65978680 </v>
   <v>       0.38317830       0.38317830       0.50000000 </v>
   <v>       0.61682172       0.61682172       0.50000000 </v>
   <v>       0.61682170       0.38317830       0.50000000 </v>
   <v>       0.38317828       0.61682172       0.50000000 </v>
   <v>       0.50000000       0.50000000       0.33478917 </v>
   <v>       0.50000000       0.50000000       0.66521087 </v>
   <v>       0.32826705       0.44576024       0.58308023 </v>
   <v>       0.55423973       0.67173293       0.58308023 </v>
   <v>       0.55791699       0.44208301       0.58190703 </v>
   <v>       0.44208298       0.55791702       0.41809300 </v>
   <v>       0.44208301       0.44208301       0.58190703 </v>
   <v>       0.67173295       0.44576024       0.58308023 </v>
   <v>       0.44576027       0.67173293       0.58308023 </v>
   <v>       0.55791702       0.55791702       0.41809300 </v>
   <v>       0.38416599       0.50000002       0.50000000 </v>
   <v>       0.61583401       0.50000002       0.50000000 </v>
   <v>       0.50000000       0.61749319       0.34021317 </v>
   <v>       0.50000000       0.61749319       0.65978680 </v>
   <v>       0.50000000       0.50000000       0.50000000 </v>
   <v>       0.44208298       0.55791702       0.58190703 </v>
   <v>       0.55791702       0.55791702       0.58190703 </v>
   <v>       0.50000000       0.61583404       0.50000000 </v>
   <v>       0.77202383       0.52787583       0.54960947 </v>
   <v>       0.80882717       0.53164730       0.55632137 </v>
  </varray>
  <varray name="selective"  type="logical" >
   <v type="logical" >  F  F  F </v>
   <v type="logical" >  F  F  F </v>
   <v type="logical" >  F  F  F </v>
   <v type="logical" >  F  F  F </v>
   <v type="logical" >  F  F  F </v>
   <v type="logical" >  F  F  F </v>
   <v type="logical" >  F  F  F </v>
   <v type="logical" >  F  F  F </v>
   <v type="logical" >  F  F  F </v>
   <v type="logical" >  F  F  F </v>
   <v type="logical" >  F  F  F </v>
   <v type="logical" >  F  F  F </v>
   <v type="logical" >  F  F  F </v>
   <v type="logical" >  F  F  F </v>
   <v type="logical" >  F  F  F </v>
   <v type="logical" >  F  F  F </v>
   <v type="logical" >  F  F  F </v>
   <v type="logical" >  F  F  F </v>
   <v type="logical" >  F  F  F </v>
   <v type="logical" >  F  F  F </v>
   <v type="logical" >  F  F  F </v>
   <v type="logical" >  F  F  F </v>
   <v type="logical" >  F  F  F </v>
   <v type="logical" >  F  F  F </v>
   <v type="logical" >  F  F  F </v>
   <v type="logical" >  F  F  F </v>
   <v type="logical" >  F  F  F </v>
   <v type="logical" >  F  F  F </v>
   <v type="logical" >  F  F  F </v>
   <v type="logical" >  F  F  F </v>
   <v type="logical" >  F  F  F </v>
   <v type="logical" >  F  F  F </v>
   <v type="logical" >  F  F  F </v>
   <v type="logical" >  F  F  F </v>
   <v type="logical" >  F  F  F </v>
   <v type="logical" >  F  F  F </v>
   <v type="logical" >  F  F  F </v>
   <v type="logical" >  F  F  F </v>
   <v type="logical" >  F  F  F </v>
   <v type="logical" >  F  F  F </v>
   <v type="logical" >  F  F  F </v>
   <v type="logical" >  F  F  F </v>
   <v type="logical" >  F  F  F </v>
   <v type="logical" >  F  F  F </v>
   <v type="logical" >  F  F  F </v>
   <v type="logical" >  F  F  F </v>
   <v type="logical" >  F  F  F </v>
   <v type="logical" >  F  F  F </v>
   <v type="logical" >  F  F  F </v>
   <v type="logical" >  F  F  F </v>
   <v type="logical" >  F  F  F </v>
   <v type="logical" >  F  F  F </v>
   <v type="logical" >  F  F  F </v>
   <v type="logical" >  F  F  F </v>
   <v type="logical" >  F  F  F </v>
   <v type="logical" >  F  F  F </v>
   <v type="logical" >  F  F  F </v>
  </varray>
  <nose>
   <v>      -3.00000000       0.00000000       0.00010000       0.00010000 </v>
  </nose>
 </structure>
 <calculation>
  <scstep>
   <time name="dav">  343.15  343.18</time>
   <time name="total">  356.85  356.89</time>
   <energy>
    <i name="alphaZ">     75.25431677 </i>
    <i name="ewald"> 137522.12822015 </i>
    <i name="hartreedc">-180887.33313257 </i>
    <i name="XCdc">  -1703.55690075 </i>
    <i name="pawpsdc">  44873.02882129 </i>
    <i name="pawaedc"> -41398.84523641 </i>
    <i name="eentropy">     -0.00891990 </i>
    <i name="bandstr">    815.48565627 </i>
    <i name="atom">  45086.50549395 </i>
    <i name="e_fr_energy">   4382.65831879 </i>
    <i name="e_wo_entrp">   4382.66723869 </i>
    <i name="e_0_energy">   4382.66054877 </i>
   </energy>
  </scstep>
  <scstep>
   <time name="dav">  564.87  564.88</time>
   <time name="total">  564.87  564.88</time>
   <energy>
    <i name="e_fr_energy">   2010.18599928 </i>
    <i name="e_wo_entrp">   2010.23290916 </i>
    <i name="e_0_energy">   2010.19772675 </i>
   </energy>
  </scstep>
  <scstep>
   <time name="dav">  488.82  488.82</time>
   <time name="total">  488.82  488.83</time>
   <energy>
    <i name="e_fr_energy">    232.36286655 </i>
    <i name="e_wo_entrp">    232.39436558 </i>
    <i name="e_0_energy">    232.37074130 </i>
   </energy>
  </scstep>
  <scstep>
   <time name="dav">  422.41  422.42</time>
   <time name="total">  422.41  422.42</time>
   <energy>
    <i name="e_fr_energy">   -135.02651375 </i>
    <i name="e_wo_entrp">   -135.03951244 </i>
    <i name="e_0_energy">   -135.02976342 </i>
   </energy>
  </scstep>
  <scstep>
   <time name="dav">  512.39  512.39</time>
   <time name="total">  538.11  538.11</time>
   <energy>
    <i name="e_fr_energy">   -179.20925089 </i>
    <i name="e_wo_entrp">   -179.68697063 </i>
    <i name="e_0_energy">   -179.32868082 </i>
   </energy>
  </scstep>
  <scstep>
   <time name="diag">   67.77   67.77</time>
   <time name="diis">  186.87  186.88</time>
   <time name="orth">   13.54   13.54</time>
   <time name="total">  307.49  307.50</time>
   <energy>
    <i name="e_fr_energy">   -177.99224845 </i>
    <i name="e_wo_entrp">   -177.80827118 </i>
    <i name="e_0_energy">   -177.94625413 </i>
   </energy>
  </scstep>
  <scstep>
   <time name="diag">   67.93   67.93</time>
   <time name="diis">  219.46  219.46</time>
   <time name="orth">   13.49   13.49</time>
   <time name="total">  340.44  340.45</time>
   <energy>
    <i name="e_fr_energy">   -181.00328550 </i>
    <i name="e_wo_entrp">   -180.90459383 </i>
    <i name="e_0_energy">   -180.97861258 </i>
   </energy>
  </scstep>
  <scstep>
   <time name="diag">   67.07   67.07</time>
   <time name="diis">  214.46  214.46</time>
   <time name="orth">   13.67   13.67</time>
   <time name="total">  335.19  335.20</time>
   <energy>
    <i name="e_fr_energy">   -183.28129799 </i>
    <i name="e_wo_entrp">   -183.14999708 </i>
    <i name="e_0_energy">   -183.24847276 </i>
   </energy>
  </scstep>
  <scstep>
   <time name="diag">   68.04   68.04</time>
   <time name="diis">  197.12  197.12</time>
   <time name="orth">   14.18   14.18</time>
   <time name="total">  319.12  319.12</time>
   <energy>
    <i name="e_fr_energy">   -182.87781116 </i>
    <i name="e_wo_entrp">   -182.65234593 </i>
    <i name="e_0_energy">   -182.82144486 </i>
   </energy>
  </scstep>
  <scstep>
   <time name="diag">   68.34   68.34</time>
   <time name="diis">  195.20  195.20</time>
   <time name="orth">   13.97   13.97</time>
   <time name="total">  317.55  317.56</time>
   <energy>
    <i name="e_fr_energy">   -179.70285716 </i>
    <i name="e_wo_entrp">   -179.67170983 </i>
    <i name="e_0_energy">   -179.69507033 </i>
   </energy>
  </scstep>
  <scstep>
   <time name="diag">   68.47   68.47</time>
   <time name="diis">  197.28  197.29</time>
   <time name="orth">   13.52   13.52</time>
   <time name="total">  319.58  319.60</time>
   <energy>
    <i name="e_fr_energy">   -177.61646108 </i>
    <i name="e_wo_entrp">   -177.55318622 </i>
    <i name="e_0_energy">   -177.60064236 </i>
   </energy>
  </scstep>
  <scstep>
   <time name="diag">   67.95   67.96</time>
   <time name="diis">  192.76  192.76</time>
   <time name="orth">   13.69   13.69</time>
   <time name="total">  314.48  314.49</time>
   <energy>
    <i name="e_fr_energy">   -176.54107370 </i>
    <i name="e_wo_entrp">   -176.41614730 </i>
    <i name="e_0_energy">   -176.50984210 </i>
   </energy>
  </scstep>
  <scstep>
   <time name="diag">   68.60   68.61</time>
   <time name="diis">  192.26  192.27</time>
   <time name="orth">   13.90   13.90</time>
   <time name="total">  314.92  314.94</time>
   <energy>
    <i name="e_fr_energy">   -176.60893794 </i>
    <i name="e_wo_entrp">   -176.55437168 </i>
    <i name="e_0_energy">   -176.59529638 </i>
   </energy>
  </scstep>
  <scstep>
   <time name="diag">   68.44   68.45</time>
   <time name="diis">  184.16  184.17</time>
   <time name="orth">   13.44   13.44</time>
   <time name="total">  305.21  305.23</time>
   <energy>
    <i name="e_fr_energy">   -176.19226440 </i>
    <i name="e_wo_entrp">   -176.06019562 </i>
    <i name="e_0_energy">   -176.15924721 </i>
   </energy>
  </scstep>
  <scstep>
   <time name="diag">   66.82   66.83</time>
   <time name="diis">  181.28  181.29</time>
   <time name="orth">   13.51   13.51</time>
   <time name="total">  300.76  300.77</time>
   <energy>
    <i name="e_fr_energy">   -175.76996573 </i>
    <i name="e_wo_entrp">   -175.68882927 </i>
    <i name="e_0_energy">   -175.74968161 </i>
   </energy>
  </scstep>
  <scstep>
   <time name="diag">   67.09   67.09</time>
   <time name="diis">  185.17  185.17</time>
   <time name="orth">   13.52   13.52</time>
   <time name="total">  304.56  304.57</time>
   <energy>
    <i name="e_fr_energy">   -176.07195650 </i>
    <i name="e_wo_entrp">   -176.01304681 </i>
    <i name="e_0_energy">   -176.05722908 </i>
   </energy>
  </scstep>
  <scstep>
   <time name="diag">   66.81   66.81</time>
   <time name="diis">  182.49  182.50</time>
   <time name="orth">   13.48   13.48</time>
   <time name="total">  301.49  301.50</time>
   <energy>
    <i name="e_fr_energy">   -175.73936762 </i>
    <i name="e_wo_entrp">   -175.72299064 </i>
    <i name="e_0_energy">   -175.73527338 </i>
   </energy>
  </scstep>
  <scstep>
   <time name="diag">   66.87   66.87</time>
   <time name="diis">  180.28  180.29</time>
   <time name="orth">   13.42   13.42</time>
   <time name="total">  299.28  299.30</time>
   <energy>
    <i name="e_fr_energy">   -175.38904100 </i>
    <i name="e_wo_entrp">   -175.37881512 </i>
    <i name="e_0_energy">   -175.38648453 </i>
   </energy>
  </scstep>
  <scstep>
   <time name="diag">   66.84   66.84</time>
   <time name="diis">  181.08  181.08</time>
   <time name="orth">   13.46   13.46</time>
   <time name="total">  300.27  300.28</time>
   <energy>
    <i name="e_fr_energy">   -175.31806647 </i>
    <i name="e_wo_entrp">   -175.29667539 </i>
    <i name="e_0_energy">   -175.31271870 </i>
   </energy>
  </scstep>
  <scstep>
   <time name="diag">   67.02   67.02</time>
   <time name="diis">  181.54  181.54</time>
   <time name="orth">   13.37   13.37</time>
   <time name="total">  300.90  300.90</time>
   <energy>
    <i name="e_fr_energy">   -175.16678882 </i>
    <i name="e_wo_entrp">   -175.18284721 </i>
    <i name="e_0_energy">   -175.17080341 </i>
   </energy>
  </scstep>
  <scstep>
   <time name="diag">   67.10   67.11</time>
   <time name="diis">  178.75  178.76</time>
   <time name="orth">   13.36   13.36</time>
   <time name="total">  298.28  298.30</time>
   <energy>
    <i name="e_fr_energy">   -174.93119987 </i>
    <i name="e_wo_entrp">   -174.88672358 </i>
    <i name="e_0_energy">   -174.92008079 </i>
   </energy>
  </scstep>
  <scstep>
   <time name="diag">   67.12   67.12</time>
   <time name="diis">  180.24  180.24</time>
   <time name="orth">   13.43   13.43</time>
   <time name="total">  299.79  299.79</time>
   <energy>
    <i name="e_fr_energy">   -174.90399042 </i>
    <i name="e_wo_entrp">   -174.84317512 </i>
    <i name="e_0_energy">   -174.88878659 </i>
   </energy>
  </scstep>
  <scstep>
   <time name="diag">   67.28   67.28</time>
   <time name="diis">  179.76  179.76</time>
   <time name="orth">   13.32   13.32</time>
   <time name="total">  299.42  299.43</time>
   <energy>
    <i name="e_fr_energy">   -174.75150728 </i>
    <i name="e_wo_entrp">   -174.64726488 </i>
    <i name="e_0_energy">   -174.72544668 </i>
   </energy>
  </scstep>
  <scstep>
   <time name="diag">   67.25   67.25</time>
   <time name="diis">  178.40  178.41</time>
   <time name="orth">   13.39   13.39</time>
   <time name="total">  298.31  298.32</time>
   <energy>
    <i name="e_fr_energy">   -174.67584411 </i>
    <i name="e_wo_entrp">   -174.56024053 </i>
    <i name="e_0_energy">   -174.64694321 </i>
   </energy>
  </scstep>
  <scstep>
   <time name="diag">   67.02   67.02</time>
   <time name="diis">  178.35  178.35</time>
   <time name="orth">   13.37   13.37</time>
   <time name="total">  298.27  298.28</time>
   <energy>
    <i name="e_fr_energy">   -174.63013684 </i>
    <i name="e_wo_entrp">   -174.52663556 </i>
    <i name="e_0_energy">   -174.60426152 </i>
   </energy>
  </scstep>
  <scstep>
   <time name="diag">   67.22   67.22</time>
   <time name="diis">  178.37  178.38</time>
   <time name="orth">   13.71   13.71</time>
   <time name="total">  299.76  299.76</time>
   <energy>
    <i name="e_fr_energy">   -174.58615625 </i>
    <i name="e_wo_entrp">   -174.48383509 </i>
    <i name="e_0_energy">   -174.56057596 </i>
   </energy>
  </scstep>
  <scstep>
   <time name="diag">   69.06   69.07</time>
   <time name="diis">  183.95  183.96</time>
   <time name="orth">   13.89   13.89</time>
   <time name="total">  308.18  308.21</time>
   <energy>
    <i name="e_fr_energy">   -174.56216668 </i>
    <i name="e_wo_entrp">   -174.46332913 </i>
    <i name="e_0_energy">   -174.53745729 </i>
   </energy>
  </scstep>
  <scstep>
   <time name="diag">   69.47   69.47</time>
   <time name="diis">  183.69  183.70</time>
   <time name="orth">   13.86   13.86</time>
   <time name="total">  308.80  308.83</time>
   <energy>
    <i name="e_fr_energy">   -174.55062611 </i>
    <i name="e_wo_entrp">   -174.44974600 </i>
    <i name="e_0_energy">   -174.52540608 </i>
   </energy>
  </scstep>
  <scstep>
   <time name="diag">   68.93   68.95</time>
   <time name="diis">  183.34  183.35</time>
   <time name="orth">   13.83   13.83</time>
   <time name="total">  307.50  307.53</time>
   <energy>
    <i name="e_fr_energy">   -174.53070297 </i>
    <i name="e_wo_entrp">   -174.42945399 </i>
    <i name="e_0_energy">   -174.50539073 </i>
   </energy>
  </scstep>
  <scstep>
   <time name="diag">   68.55   68.55</time>
   <time name="diis">  183.57  183.58</time>
   <time name="orth">   13.68   13.68</time>
   <time name="total">  307.02  307.03</time>
   <energy>
    <i name="e_fr_energy">   -174.52572292 </i>
    <i name="e_wo_entrp">   -174.42070266 </i>
    <i name="e_0_energy">   -174.49946785 </i>
   </energy>
  </scstep>
  <scstep>
   <time name="diag">   68.90   68.90</time>
   <time name="diis">  182.89  182.90</time>
   <time name="orth">   13.87   13.87</time>
   <time name="total">  307.54  307.55</time>
   <energy>
    <i name="e_fr_energy">   -174.52403744 </i>
    <i name="e_wo_entrp">   -174.42034072 </i>
    <i name="e_0_energy">   -174.49811326 </i>
   </energy>
  </scstep>
  <scstep>
   <time name="diag">   69.42   69.43</time>
   <time name="diis">  183.04  183.04</time>
   <time name="orth">   13.92   13.92</time>
   <time name="total">  308.68  308.69</time>
   <energy>
    <i name="e_fr_energy">   -174.51765842 </i>
    <i name="e_wo_entrp">   -174.41543742 </i>
    <i name="e_0_energy">   -174.49210317 </i>
   </energy>
  </scstep>
  <scstep>
   <time name="diag">   68.86   68.87</time>
   <time name="diis">  182.32  182.32</time>
   <time name="orth">   13.90   13.90</time>
   <time name="total">  307.07  307.08</time>
   <energy>
    <i name="e_fr_energy">   -174.51819219 </i>
    <i name="e_wo_entrp">   -174.41603010 </i>
    <i name="e_0_energy">   -174.49265167 </i>
   </energy>
  </scstep>
  <scstep>
   <time name="diag">   68.57   68.57</time>
   <time name="diis">  182.71  182.73</time>
   <time name="orth">   13.68   13.68</time>
   <time name="total">  306.75  306.77</time>
   <energy>
    <i name="e_fr_energy">   -174.51642981 </i>
    <i name="e_wo_entrp">   -174.41769853 </i>
    <i name="e_0_energy">   -174.49174699 </i>
   </energy>
  </scstep>
  <scstep>
   <time name="diag">   68.78   68.79</time>
   <time name="diis">  183.75  183.77</time>
   <time name="orth">   14.19   14.19</time>
   <time name="total">  309.22  309.26</time>
   <energy>
    <i name="e_fr_energy">   -174.51679862 </i>
    <i name="e_wo_entrp">   -174.41548327 </i>
    <i name="e_0_energy">   -174.49146978 </i>
   </energy>
  </scstep>
  <scstep>
   <time name="diag">   68.85   68.85</time>
   <time name="diis">  184.11  184.12</time>
   <time name="orth">   14.02   14.02</time>
   <time name="total">  310.23  310.25</time>
   <energy>
    <i name="e_fr_energy">   -174.51705374 </i>
    <i name="e_wo_entrp">   -174.41490291 </i>
    <i name="e_0_energy">   -174.49151603 </i>
   </energy>
  </scstep>
  <scstep>
   <time name="diag">   68.71   68.71</time>
   <time name="diis">  180.40  180.40</time>
   <time name="orth">   13.82   13.82</time>
   <time name="total">  305.77  305.78</time>
   <energy>
    <i name="e_fr_energy">   -174.51808252 </i>
    <i name="e_wo_entrp">   -174.41444421 </i>
    <i name="e_0_energy">   -174.49217294 </i>
   </energy>
  </scstep>
  <scstep>
   <time name="diag">   69.60   69.60</time>
   <time name="diis">  180.88  180.88</time>
   <time name="orth">   14.02   14.02</time>
   <time name="total">  307.42  307.43</time>
   <energy>
    <i name="e_fr_energy">   -174.52089966 </i>
    <i name="e_wo_entrp">   -174.41606190 </i>
    <i name="e_0_energy">   -174.49469022 </i>
   </energy>
  </scstep>
  <scstep>
   <time name="diag">   69.23   69.23</time>
   <time name="diis">  161.16  161.17</time>
   <time name="orth">   13.82   13.82</time>
   <time name="total">  287.40  287.41</time>
   <energy>
    <i name="e_fr_energy">   -174.52236154 </i>
    <i name="e_wo_entrp">   -174.41698911 </i>
    <i name="e_0_energy">   -174.49601843 </i>
   </energy>
  </scstep>
  <scstep>
   <time name="diag">   70.32   70.32</time>
   <time name="diis">  164.88  164.88</time>
   <time name="orth">   13.88   13.88</time>
   <time name="total">  292.25  292.25</time>
   <energy>
    <i name="e_fr_energy">   -174.52549529 </i>
    <i name="e_wo_entrp">   -174.42050507 </i>
    <i name="e_0_energy">   -174.49924773 </i>
   </energy>
  </scstep>
  <scstep>
   <time name="diag">   70.07   70.07</time>
   <time name="diis">  141.77  141.78</time>
   <time name="orth">   14.07   14.07</time>
   <time name="total">  269.41  269.42</time>
   <energy>
    <i name="e_fr_energy">   -174.52761895 </i>
    <i name="e_wo_entrp">   -174.42239859 </i>
    <i name="e_0_energy">   -174.50131386 </i>
   </energy>
  </scstep>
  <scstep>
   <time name="diag">   69.42   69.42</time>
   <time name="diis">  139.20  139.21</time>
   <time name="orth">   13.62   13.62</time>
   <time name="total">  265.08  265.08</time>
   <energy>
    <i name="e_fr_energy">   -174.53037781 </i>
    <i name="e_wo_entrp">   -174.42523379 </i>
    <i name="e_0_energy">   -174.50409181 </i>
   </energy>
  </scstep>
  <scstep>
   <time name="diag">   69.03   69.03</time>
   <time name="diis">  141.48  141.48</time>
   <time name="orth">   13.34   13.34</time>
   <time name="total">  265.86  265.88</time>
   <energy>
    <i name="e_fr_energy">   -174.53291985 </i>
    <i name="e_wo_entrp">   -174.42843763 </i>
    <i name="e_0_energy">   -174.50679930 </i>
   </energy>
  </scstep>
  <scstep>
   <time name="diag">   66.73   66.74</time>
   <time name="diis">  115.24  115.24</time>
   <time name="orth">   13.39   13.39</time>
   <time name="total">  237.04  237.06</time>
   <energy>
    <i name="e_fr_energy">   -174.53383679 </i>
    <i name="e_wo_entrp">   -174.42907824 </i>
    <i name="e_0_energy">   -174.50764715 </i>
   </energy>
  </scstep>
  <scstep>
   <time name="diag">   66.39   66.39</time>
   <time name="diis">  126.13  126.13</time>
   <time name="orth">   13.48   13.48</time>
   <time name="total">  247.89  247.89</time>
   <energy>
    <i name="e_fr_energy">   -174.53694278 </i>
    <i name="e_wo_entrp">   -174.43146411 </i>
    <i name="e_0_energy">   -174.51057312 </i>
   </energy>
  </scstep>
  <scstep>
   <time name="diag">   66.76   66.76</time>
   <time name="diis">  114.73  114.73</time>
   <time name="orth">   13.45   13.45</time>
   <time name="total">  236.98  236.99</time>
   <energy>
    <i name="e_fr_energy">   -174.53795131 </i>
    <i name="e_wo_entrp">   -174.43343736 </i>
    <i name="e_0_energy">   -174.51182282 </i>
   </energy>
  </scstep>
  <scstep>
   <time name="diag">   67.03   67.03</time>
   <time name="diis">  110.79  110.79</time>
   <time name="orth">   13.24   13.24</time>
   <time name="total">  233.06  233.07</time>
   <energy>
    <i name="e_fr_energy">   -174.53914504 </i>
    <i name="e_wo_entrp">   -174.43512172 </i>
    <i name="e_0_energy">   -174.51313921 </i>
   </energy>
  </scstep>
  <scstep>
   <time name="diag">   66.93   66.93</time>
   <time name="diis">  112.08  112.09</time>
   <time name="orth">   13.30   13.30</time>
   <time name="total">  234.26  234.28</time>
   <energy>
    <i name="e_fr_energy">   -174.54001726 </i>
    <i name="e_wo_entrp">   -174.43582049 </i>
    <i name="e_0_energy">   -174.51396806 </i>
   </energy>
  </scstep>
  <scstep>
   <time name="diag">   67.28   67.29</time>
   <time name="diis">  116.53  116.54</time>
   <time name="orth">   13.58   13.58</time>
   <time name="total">  241.11  241.13</time>
   <energy>
    <i name="e_fr_energy">   -174.54061867 </i>
    <i name="e_wo_entrp">   -174.43657940 </i>
    <i name="e_0_energy">   -174.51460886 </i>
   </energy>
  </scstep>
  <scstep>
   <time name="diag">   67.60   67.60</time>
   <time name="diis">  114.44  114.44</time>
   <time name="orth">   13.55   13.55</time>
   <time name="total">  239.57  239.58</time>
   <energy>
    <i name="e_fr_energy">   -174.54159797 </i>
    <i name="e_wo_entrp">   -174.43722662 </i>
    <i name="e_0_energy">   -174.51550513 </i>
   </energy>
  </scstep>
  <scstep>
   <time name="diag">   67.64   67.64</time>
   <time name="diis">  107.11  107.11</time>
   <time name="orth">   13.87   13.87</time>
   <time name="total">  232.11  232.11</time>
   <energy>
    <i name="e_fr_energy">   -174.54189774 </i>
    <i name="e_wo_entrp">   -174.43773406 </i>
    <i name="e_0_energy">   -174.51585682 </i>
   </energy>
  </scstep>
  <scstep>
   <time name="diag">   68.21   68.21</time>
   <time name="diis">  107.95  107.96</time>
   <time name="orth">   13.68   13.68</time>
   <time name="total">  233.46  233.46</time>
   <energy>
    <i name="e_fr_energy">   -174.54250088 </i>
    <i name="e_wo_entrp">   -174.43830239 </i>
    <i name="e_0_energy">   -174.51645125 </i>
   </energy>
  </scstep>
  <scstep>
   <time name="diag">   68.05   68.05</time>
   <time name="diis">   97.72   97.73</time>
   <time name="orth">   13.72   13.72</time>
   <time name="total">  222.44  222.45</time>
   <energy>
    <i name="e_fr_energy">   -174.54290208 </i>
    <i name="e_wo_entrp">   -174.43864485 </i>
    <i name="e_0_energy">   -174.51683777 </i>
   </energy>
  </scstep>
  <scstep>
   <time name="diag">   67.02   67.02</time>
   <time name="diis">   91.15   91.15</time>
   <time name="orth">   13.54   13.54</time>
   <time name="total">  215.33  215.34</time>
   <energy>
    <i name="e_fr_energy">   -174.54324505 </i>
    <i name="e_wo_entrp">   -174.43917361 </i>
    <i name="e_0_energy">   -174.51722719 </i>
   </energy>
  </scstep>
  <scstep>
   <time name="diag">   67.74   67.74</time>
   <time name="diis">   95.88   95.88</time>
   <time name="orth">   13.52   13.52</time>
   <time name="total">  220.63  220.63</time>
   <energy>
    <i name="e_fr_energy">   -174.54372007 </i>
    <i name="e_wo_entrp">   -174.43953665 </i>
    <i name="e_0_energy">   -174.51767422 </i>
   </energy>
  </scstep>
  <scstep>
   <time name="diag">   67.93   67.93</time>
   <time name="diis">   73.60   73.60</time>
   <time name="orth">   13.41   13.41</time>
   <time name="total">  168.86  168.86</time>
   <energy>
    <i name="alphaZ">     75.25431677 </i>
    <i name="ewald"> 137522.12822015 </i>
    <i name="hartreedc">-181883.63086847 </i>
    <i name="XCdc">  -1692.93447564 </i>
    <i name="pawpsdc">  46079.73679761 </i>
    <i name="pawaedc"> -42549.73130736 </i>
    <i name="eentropy">     -0.10427588 </i>
    <i name="bandstr">  -2811.76768856 </i>
    <i name="atom">  45086.50549395 </i>
    <i name="e_fr_energy">   -174.54378742 </i>
    <i name="e_wo_entrp">   -174.43951155 </i>
    <i name="e_0_energy">   -174.51771845 </i>
   </energy>
  </scstep>
  <structure>
   <crystal>
    <varray name="basis" >
     <v>      30.00000000       0.00000000       0.00000000 </v>
     <v>       0.00000000      30.00000000       0.00000000 </v>
     <v>       0.00000000       0.00000000      30.00000000 </v>
    </varray>
    <i name="volume">  27000.00000000 </i>
    <varray name="rec_basis" >
     <v>       0.03333333       0.00000000       0.00000000 </v>
     <v>       0.00000000       0.03333333       0.00000000 </v>
     <v>       0.00000000       0.00000000       0.03333333 </v>
    </varray>
   </crystal>
   <varray name="positions" >
    <v>       0.44576020       0.32826710       0.41691983 </v>
    <v>       0.67173288       0.55423978       0.41691983 </v>
    <v>       0.55423980       0.32826710       0.41691983 </v>
    <v>       0.32826712       0.55423978       0.41691983 </v>
    <v>       0.50000000       0.38250690       0.34021317 </v>
    <v>       0.50000000       0.38250690       0.65978680 </v>
    <v>       0.50000000       0.27609440       0.50000000 </v>
    <v>       0.27609443       0.49999998       0.50000000 </v>
    <v>       0.72390557       0.49999998       0.50000000 </v>
    <v>       0.50000000       0.72390555       0.50000000 </v>
    <v>       0.61195280       0.38804720       0.34167483 </v>
    <v>       0.61195280       0.38804720       0.65832513 </v>
    <v>       0.38804722       0.61195278       0.34167483 </v>
    <v>       0.38804722       0.61195278       0.65832513 </v>
    <v>       0.38804720       0.38804720       0.34167483 </v>
    <v>       0.38804720       0.38804720       0.65832513 </v>
    <v>       0.61195278       0.61195278       0.34167483 </v>
    <v>       0.61195278       0.61195278       0.65832513 </v>
    <v>       0.44576020       0.32826710       0.58308023 </v>
    <v>       0.67173288       0.55423978       0.58308023 </v>
    <v>       0.55791699       0.44208301       0.41809300 </v>
    <v>       0.32826705       0.44576024       0.41691983 </v>
    <v>       0.55423973       0.67173293       0.41691983 </v>
    <v>       0.55423980       0.32826710       0.58308023 </v>
    <v>       0.32826712       0.55423978       0.58308023 </v>
    <v>       0.67173295       0.44576024       0.41691983 </v>
    <v>       0.44576027       0.67173293       0.41691983 </v>
    <v>       0.44208301       0.44208301       0.41809300 </v>
    <v>       0.50000000       0.38416601       0.50000000 </v>
    <v>       0.61749315       0.50000005       0.34021317 </v>
    <v>       0.61749315       0.50000005       0.65978680 </v>
    <v>       0.38250685       0.50000005       0.34021317 </v>
    <v>       0.38250685       0.50000005       0.65978680 </v>
    <v>       0.38317830       0.38317830       0.50000000 </v>
    <v>       0.61682172       0.61682172       0.50000000 </v>
    <v>       0.61682170       0.38317830       0.50000000 </v>
    <v>       0.38317828       0.61682172       0.50000000 </v>
    <v>       0.50000000       0.50000000       0.33478917 </v>
    <v>       0.50000000       0.50000000       0.66521087 </v>
    <v>       0.32826705       0.44576024       0.58308023 </v>
    <v>       0.55423973       0.67173293       0.58308023 </v>
    <v>       0.55791699       0.44208301       0.58190703 </v>
    <v>       0.44208298       0.55791702       0.41809300 </v>
    <v>       0.44208301       0.44208301       0.58190703 </v>
    <v>       0.67173295       0.44576024       0.58308023 </v>
    <v>       0.44576027       0.67173293       0.58308023 </v>
    <v>       0.55791702       0.55791702       0.41809300 </v>
    <v>       0.38416599       0.50000002       0.50000000 </v>
    <v>       0.61583401       0.50000002       0.50000000 </v>
    <v>       0.50000000       0.61749319       0.34021317 </v>
    <v>       0.50000000       0.61749319       0.65978680 </v>
    <v>       0.50000000       0.50000000       0.50000000 </v>
    <v>       0.44208298       0.55791702       0.58190703 </v>
    <v>       0.55791702       0.55791702       0.58190703 </v>
    <v>       0.50000000       0.61583404       0.50000000 </v>
    <v>       0.77202383       0.52787583       0.54960947 </v>
    <v>       0.80882717       0.53164730       0.55632137 </v>
   </varray>
  </structure>
  <varray name="forces" >
   <v>       0.70736739       1.10690084       0.28988140 </v>
   <v>      -1.15217451      -0.71038602       0.21965793 </v>
   <v>      -0.70732882       1.10953554       0.28924420 </v>
   <v>       1.11006952      -0.70408404       0.29111755 </v>
   <v>       0.00097934       0.41003039       1.28732985 </v>
   <v>      -0.00392491       0.41436741      -1.28101178 </v>
   <v>       0.00010398       1.51847540      -0.00073648 </v>
   <v>       1.51619643       0.00117574      -0.00033466 </v>
   <v>      -0.22437306       0.72072836       1.26617755 </v>
   <v>       0.00044932      -1.51738045      -0.00100334 </v>
   <v>      -0.77675120       0.73579627       1.05780151 </v>
   <v>      -0.73887966       0.75816598      -1.08768969 </v>
   <v>       0.75862277      -0.75492639       1.07278687 </v>
   <v>       0.75429941      -0.75843682      -1.07387137 </v>
   <v>       0.75905617       0.75521451       1.07257109 </v>
   <v>       0.75594518       0.75748598      -1.07257633 </v>
   <v>      -0.76230269      -0.75186821       1.06527023 </v>
   <v>      -0.75131347      -0.76063744      -1.08194171 </v>
   <v>       0.70251929       1.10834360      -0.29246386 </v>
   <v>      -0.95279401      -0.69607803      -0.22108885 </v>
   <v>       0.11736259      -0.10953627      -0.14605075 </v>
   <v>       1.10890606       0.70412855       0.29015595 </v>
   <v>      -0.70773686      -1.10894001       0.29096802 </v>
   <v>      -0.70507822       1.10819425      -0.29143343 </v>
   <v>       1.11455721      -0.69845756      -0.28774586 </v>
   <v>      -1.09259187       0.73080632       0.29717853 </v>
   <v>       0.70571413      -1.10855849       0.29082142 </v>
   <v>      -0.11271906      -0.11325596      -0.15712285 </v>
   <v>       0.00298898      -0.22847948      -0.00096709 </v>
   <v>      -0.38959626       0.01387832       1.29752952 </v>
   <v>      -0.43516116       0.00518243      -1.28084937 </v>
   <v>       0.41206251       0.00021958       1.27927879 </v>
   <v>       0.40698002      -0.00013193      -1.27838638 </v>
   <v>       0.82939288       0.82797392       0.00058592 </v>
   <v>      -0.84789952      -0.81609887      -0.00814658 </v>
   <v>      -0.83401398       0.82656757      -0.00374104 </v>
   <v>       0.82986696      -0.82769665      -0.00018687 </v>
   <v>      -0.00789013       0.00131743       1.17904347 </v>
   <v>       0.01318231       0.00127657      -1.17996163 </v>
   <v>       1.11513364       0.69891227      -0.28689433 </v>
   <v>      -0.70437009      -1.11054619      -0.29192009 </v>
   <v>       0.11225486      -0.11115707       0.15289298 </v>
   <v>      -0.11606573       0.11527962      -0.15603205 </v>
   <v>      -0.12030636      -0.11277439       0.15827584 </v>
   <v>      -1.16106978       0.65277950      -0.20331681 </v>
   <v>       0.70207127      -1.10859622      -0.29383974 </v>
   <v>       0.11331573       0.10797232      -0.15270010 </v>
   <v>      -0.22627934      -0.00215830      -0.00520353 </v>
   <v>       0.11199233      -0.01348878      -0.05098303 </v>
   <v>      -0.00398514      -0.41031341       1.28789609 </v>
   <v>       0.00217772      -0.41830732      -1.28249976 </v>
   <v>      -0.02087406       0.00012065       0.00449887 </v>
   <v>      -0.12639971       0.11413939       0.16144762 </v>
   <v>       0.12005444       0.11189393       0.15024899 </v>
   <v>       0.00301459       0.22761151       0.00027846 </v>
   <v>      -4.87099395      -1.23213902      -2.21975986 </v>
   <v>       3.66623655       0.53995919       0.93752057 </v>
  </varray>
  <varray name="stress" >
   <v>      -6.59595281      -0.02413772      -0.04043593 </v>
   <v>      -0.02413776      -6.78426571      -0.06567293 </v>
   <v>      -0.04043594      -0.06567293      -6.84311922 </v>
  </varray>
  <energy>
   <i name="e_fr_energy">   -174.54378742 </i>
   <i name="e_wo_entrp">   -174.51771845 </i>
   <i name="e_0_energy">     -0.10427588 </i>
  </energy>
  <time name="totalsc">17225.4917226.15</time>
  <eigenvalues>
   <array>
    <dimension dim="1">band</dimension>
    <dimension dim="2">kpoint</dimension>
    <dimension dim="3">spin</dimension>
    <field>eigene</field>
    <field>occ</field>
    <set>
     <set comment="spin 1">
      <set comment="kpoint 1">
       <r>  -28.8574    1.0000 </r>
       <r>  -13.4810    1.0000 </r>
       <r>  -11.2809    1.0000 </r>
       <r>  -11.2109    1.0000 </r>
       <r>   -9.8098    1.0000 </r>
       <r>   -6.6454    1.0000 </r>
       <r>   -6.1291    1.0000 </r>
       <r>   -6.1269    1.0000 </r>
       <r>   -6.1199    1.0000 </r>
       <r>   -5.8219    1.0000 </r>
       <r>   -5.8147    1.0000 </r>
       <r>   -5.8093    1.0000 </r>
       <r>   -5.7593    1.0000 </r>
       <r>   -5.7429    1.0000 </r>
       <r>   -5.6916    1.0000 </r>
       <r>   -5.6854    1.0000 </r>
       <r>   -5.6827    1.0000 </r>
       <r>   -5.6463    1.0000 </r>
       <r>   -5.6222    1.0000 </r>
       <r>   -5.6166    1.0000 </r>
       <r>   -5.6111    1.0000 </r>
       <r>   -5.5972    1.0000 </r>
       <r>   -5.5949    1.0000 </r>
       <r>   -5.5684    1.0000 </r>
       <r>   -5.5606    1.0000 </r>
       <r>   -5.5502    1.0000 </r>
       <r>   -5.5463    1.0000 </r>
       <r>   -5.5434    1.0000 </r>
       <r>   -5.5324    1.0000 </r>
       <r>   -5.5240    1.0000 </r>
       <r>   -5.5199    1.0000 </r>
       <r>   -5.5169    1.0000 </r>
       <r>   -5.5156    1.0000 </r>
       <r>   -5.5135    1.0000 </r>
       <r>   -5.5093    1.0000 </r>
       <r>   -5.4949    1.0000 </r>
       <r>   -5.4887    1.0000 </r>
       <r>   -5.4767    1.0000 </r>
       <r>   -5.4744    1.0000 </r>
       <r>   -5.4701    1.0000 </r>
       <r>   -5.4690    1.0000 </r>
       <r>   -5.4683    1.0000 </r>
       <r>   -5.4647    1.0000 </r>
       <r>   -5.4545    1.0000 </r>
       <r>   -5.4335    1.0000 </r>
       <r>   -5.4305    1.0000 </r>
       <r>   -5.4293    1.0000 </r>
       <r>   -5.4280    1.0000 </r>
       <r>   -5.4254    1.0000 </r>
       <r>   -5.4220    1.0000 </r>
       <r>   -5.4197    1.0000 </r>
       <r>   -5.4059    1.0000 </r>
       <r>   -5.4049    1.0000 </r>
       <r>   -5.4037    1.0000 </r>
       <r>   -5.3888    1.0000 </r>
       <r>   -5.3856    1.0000 </r>
       <r>   -5.3333    1.0000 </r>
       <r>   -5.3300    1.0000 </r>
       <r>   -5.3278    1.0000 </r>
       <r>   -5.3256    1.0000 </r>
       <r>   -5.3204    1.0000 </r>
       <r>   -5.3192    1.0000 </r>
       <r>   -5.3025    1.0000 </r>
       <r>   -5.3012    1.0000 </r>
       <r>   -5.3002    1.0000 </r>
       <r>   -5.2925    1.0000 </r>
       <r>   -5.2879    1.0000 </r>
       <r>   -5.2424    1.0000 </r>
       <r>   -5.2244    1.0000 </r>
       <r>   -5.2106    1.0000 </r>
       <r>   -5.2058    1.0000 </r>
       <r>   -5.2036    1.0000 </r>
       <r>   -5.1984    1.0000 </r>
       <r>   -5.1827    1.0000 </r>
       <r>   -5.1783    1.0000 </r>
       <r>   -5.1769    1.0000 </r>
       <r>   -5.1646    1.0000 </r>
       <r>   -5.1643    1.0000 </r>
       <r>   -5.1635    1.0000 </r>
       <r>   -5.1582    1.0000 </r>
       <r>   -5.1489    1.0000 </r>
       <r>   -5.1357    1.0000 </r>
       <r>   -5.1232    1.0000 </r>
       <r>   -5.1221    1.0000 </r>
       <r>   -5.1157    1.0000 </r>
       <r>   -5.1129    1.0000 </r>
       <r>   -5.1087    1.0000 </r>
       <r>   -5.1028    1.0000 </r>
       <r>   -5.0983    1.0000 </r>
       <r>   -5.0596    1.0000 </r>
       <r>   -5.0562    1.0000 </r>
       <r>   -5.0557    1.0000 </r>
       <r>   -5.0524    1.0000 </r>
       <r>   -5.0508    1.0000 </r>
       <r>   -5.0486    1.0000 </r>
       <r>   -5.0327    1.0000 </r>
       <r>   -5.0306    1.0000 </r>
       <r>   -5.0288    1.0000 </r>
       <r>   -5.0277    1.0000 </r>
       <r>   -5.0217    1.0000 </r>
       <r>   -5.0138    1.0000 </r>
       <r>   -5.0099    1.0000 </r>
       <r>   -5.0058    1.0000 </r>
       <r>   -5.0045    1.0000 </r>
       <r>   -4.9940    1.0000 </r>
       <r>   -4.9909    1.0000 </r>
       <r>   -4.9894    1.0000 </r>
       <r>   -4.9860    1.0000 </r>
       <r>   -4.9805    1.0000 </r>
       <r>   -4.9694    1.0000 </r>
       <r>   -4.9678    1.0000 </r>
       <r>   -4.9650    1.0000 </r>
       <r>   -4.9606    1.0000 </r>
       <r>   -4.9566    1.0000 </r>
       <r>   -4.9558    1.0000 </r>
       <r>   -4.9518    1.0000 </r>
       <r>   -4.9420    1.0000 </r>
       <r>   -4.9379    1.0000 </r>
       <r>   -4.9225    1.0000 </r>
       <r>   -4.9186    1.0000 </r>
       <r>   -4.9161    1.0000 </r>
       <r>   -4.9134    1.0000 </r>
       <r>   -4.9040    1.0000 </r>
       <r>   -4.9008    1.0000 </r>
       <r>   -4.9003    1.0000 </r>
       <r>   -4.8995    1.0000 </r>
       <r>   -4.8770    1.0000 </r>
       <r>   -4.8553    1.0000 </r>
       <r>   -4.8455    1.0000 </r>
       <r>   -4.8424    1.0000 </r>
       <r>   -4.8411    1.0000 </r>
       <r>   -4.8406    1.0000 </r>
       <r>   -4.8379    1.0000 </r>
       <r>   -4.8338    1.0000 </r>
       <r>   -4.8303    1.0000 </r>
       <r>   -4.8196    1.0000 </r>
       <r>   -4.8055    0.9999 </r>
       <r>   -4.7926    0.9999 </r>
       <r>   -4.7914    0.9999 </r>
       <r>   -4.7898    0.9999 </r>
       <r>   -4.7877    0.9999 </r>
       <r>   -4.7681    0.9998 </r>
       <r>   -4.7643    0.9998 </r>
       <r>   -4.7584    0.9998 </r>
       <r>   -4.7536    0.9997 </r>
       <r>   -4.7476    0.9997 </r>
       <r>   -4.7379    0.9996 </r>
       <r>   -4.7289    0.9995 </r>
       <r>   -4.7223    0.9995 </r>
       <r>   -4.7096    0.9993 </r>
       <r>   -4.7033    0.9992 </r>
       <r>   -4.6953    0.9991 </r>
       <r>   -4.6868    0.9989 </r>
       <r>   -4.6843    0.9989 </r>
       <r>   -4.6825    0.9988 </r>
       <r>   -4.6822    0.9988 </r>
       <r>   -4.6743    0.9986 </r>
       <r>   -4.6723    0.9986 </r>
       <r>   -4.6662    0.9984 </r>
       <r>   -4.6624    0.9983 </r>
       <r>   -4.6547    0.9981 </r>
       <r>   -4.6522    0.9980 </r>
       <r>   -4.6508    0.9980 </r>
       <r>   -4.6474    0.9979 </r>
       <r>   -4.6459    0.9978 </r>
       <r>   -4.6456    0.9978 </r>
       <r>   -4.6450    0.9978 </r>
       <r>   -4.6417    0.9977 </r>
       <r>   -4.6408    0.9977 </r>
       <r>   -4.6321    0.9974 </r>
       <r>   -4.6205    0.9969 </r>
       <r>   -4.6182    0.9969 </r>
       <r>   -4.6048    0.9964 </r>
       <r>   -4.5964    0.9960 </r>
       <r>   -4.5954    0.9960 </r>
       <r>   -4.5948    0.9960 </r>
       <r>   -4.5936    0.9959 </r>
       <r>   -4.5904    0.9958 </r>
       <r>   -4.5768    0.9954 </r>
       <r>   -4.5750    0.9954 </r>
       <r>   -4.5742    0.9954 </r>
       <r>   -4.5686    0.9952 </r>
       <r>   -4.5674    0.9952 </r>
       <r>   -4.5625    0.9951 </r>
       <r>   -4.5528    0.9951 </r>
       <r>   -4.5512    0.9951 </r>
       <r>   -4.5497    0.9951 </r>
       <r>   -4.5482    0.9951 </r>
       <r>   -4.5477    0.9951 </r>
       <r>   -4.5468    0.9951 </r>
       <r>   -4.5146    0.9966 </r>
       <r>   -4.5078    0.9972 </r>
       <r>   -4.5052    0.9975 </r>
       <r>   -4.5038    0.9977 </r>
       <r>   -4.5031    0.9978 </r>
       <r>   -4.4981    0.9985 </r>
       <r>   -4.4922    0.9994 </r>
       <r>   -4.4854    1.0007 </r>
       <r>   -4.4810    1.0016 </r>
       <r>   -4.4713    1.0039 </r>
       <r>   -4.4680    1.0048 </r>
       <r>   -4.4647    1.0057 </r>
       <r>   -4.4618    1.0066 </r>
       <r>   -4.4575    1.0079 </r>
       <r>   -4.4571    1.0080 </r>
       <r>   -4.4500    1.0105 </r>
       <r>   -4.4473    1.0114 </r>
       <r>   -4.4429    1.0131 </r>
       <r>   -4.4400    1.0143 </r>
       <r>   -4.4373    1.0153 </r>
       <r>   -4.4289    1.0189 </r>
       <r>   -4.4242    1.0210 </r>
       <r>   -4.4207    1.0226 </r>
       <r>   -4.4101    1.0276 </r>
       <r>   -4.4085    1.0284 </r>
       <r>   -4.4080    1.0286 </r>
       <r>   -4.4053    1.0299 </r>
       <r>   -4.4007    1.0321 </r>
       <r>   -4.3988    1.0331 </r>
       <r>   -4.3711    1.0452 </r>
       <r>   -4.3685    1.0461 </r>
       <r>   -4.3659    1.0470 </r>
       <r>   -4.3570    1.0495 </r>
       <r>   -4.3498    1.0509 </r>
       <r>   -4.3441    1.0515 </r>
       <r>   -4.3367    1.0515 </r>
       <r>   -4.3364    1.0515 </r>
       <r>   -4.3343    1.0513 </r>
       <r>   -4.3332    1.0511 </r>
       <r>   -4.3323    1.0510 </r>
       <r>   -4.3307    1.0508 </r>
       <r>   -4.3265    1.0498 </r>
       <r>   -4.3257    1.0496 </r>
       <r>   -4.3255    1.0495 </r>
       <r>   -4.3211    1.0480 </r>
       <r>   -4.3197    1.0474 </r>
       <r>   -4.3191    1.0472 </r>
       <r>   -4.3172    1.0463 </r>
       <r>   -4.3164    1.0459 </r>
       <r>   -4.3107    1.0425 </r>
       <r>   -4.3008    1.0346 </r>
       <r>   -4.2994    1.0333 </r>
       <r>   -4.2883    1.0203 </r>
       <r>   -4.2851    1.0159 </r>
       <r>   -4.2841    1.0144 </r>
       <r>   -4.2826    1.0121 </r>
       <r>   -4.2821    1.0114 </r>
       <r>   -4.2814    1.0102 </r>
       <r>   -4.2763    1.0018 </r>
       <r>   -4.2680    0.9857 </r>
       <r>   -4.2636    0.9762 </r>
       <r>   -4.2625    0.9738 </r>
       <r>   -4.2535    0.9515 </r>
       <r>   -4.2531    0.9505 </r>
       <r>   -4.2496    0.9410 </r>
       <r>   -4.2473    0.9347 </r>
       <r>   -4.2467    0.9329 </r>
       <r>   -4.2452    0.9285 </r>
       <r>   -4.2423    0.9198 </r>
       <r>   -4.2414    0.9168 </r>
       <r>   -4.2402    0.9133 </r>
       <r>   -4.2387    0.9084 </r>
       <r>   -4.2379    0.9058 </r>
       <r>   -4.2357    0.8988 </r>
       <r>   -4.2324    0.8875 </r>
       <r>   -4.2313    0.8839 </r>
       <r>   -4.2249    0.8605 </r>
       <r>   -4.2197    0.8409 </r>
       <r>   -4.2180    0.8340 </r>
       <r>   -4.2164    0.8280 </r>
       <r>   -4.2145    0.8202 </r>
       <r>   -4.2095    0.7994 </r>
       <r>   -4.1992    0.7539 </r>
       <r>   -4.1952    0.7357 </r>
       <r>   -4.1816    0.6701 </r>
       <r>   -4.1781    0.6526 </r>
       <r>   -4.1766    0.6451 </r>
       <r>   -4.1748    0.6360 </r>
       <r>   -4.1711    0.6168 </r>
       <r>   -4.1708    0.6155 </r>
       <r>   -4.1689    0.6058 </r>
       <r>   -4.1555    0.5358 </r>
       <r>   -4.1293    0.3978 </r>
       <r>   -4.1276    0.3891 </r>
       <r>   -4.1253    0.3774 </r>
       <r>   -4.1252    0.3766 </r>
       <r>   -4.1133    0.3170 </r>
       <r>   -4.1115    0.3080 </r>
       <r>   -4.1033    0.2690 </r>
       <r>   -3.9655   -0.0510 </r>
       <r>   -3.8900   -0.0288 </r>
       <r>   -3.8128   -0.0008 </r>
       <r>   -3.8125   -0.0007 </r>
       <r>   -3.7300    0.0048 </r>
       <r>   -3.4941    0.0001 </r>
       <r>   -3.4882    0.0001 </r>
       <r>   -3.4548    0.0000 </r>
       <r>   -3.0597    0.0000 </r>
       <r>   -3.0557    0.0000 </r>
       <r>   -3.0417    0.0000 </r>
       <r>   -3.0281    0.0000 </r>
       <r>   -3.0083    0.0000 </r>
       <r>   -2.9640    0.0000 </r>
       <r>   -2.9317    0.0000 </r>
       <r>   -2.8126    0.0000 </r>
       <r>   -2.5389    0.0000 </r>
       <r>   -2.5204    0.0000 </r>
       <r>   -2.4876    0.0000 </r>
       <r>   -2.3370    0.0000 </r>
       <r>   -2.2133    0.0000 </r>
       <r>   -2.1127    0.0000 </r>
       <r>   -2.0735    0.0000 </r>
       <r>   -2.0351    0.0000 </r>
       <r>   -1.9642    0.0000 </r>
       <r>   -1.9110    0.0000 </r>
       <r>   -1.8681    0.0000 </r>
       <r>   -1.8452    0.0000 </r>
       <r>   -1.7938    0.0000 </r>
       <r>   -1.7149    0.0000 </r>
       <r>   -1.6454    0.0000 </r>
       <r>   -1.6187    0.0000 </r>
       <r>   -1.5592    0.0000 </r>
       <r>   -1.5232    0.0000 </r>
       <r>   -1.3860    0.0000 </r>
       <r>   -1.3252    0.0000 </r>
       <r>   -1.2344    0.0000 </r>
       <r>   -1.2157    0.0000 </r>
       <r>   -1.1474    0.0000 </r>
       <r>   -0.9806    0.0000 </r>
       <r>   -0.9665    0.0000 </r>
       <r>   -0.9418    0.0000 </r>
       <r>   -0.9291    0.0000 </r>
       <r>   -0.8891    0.0000 </r>
       <r>   -0.8268    0.0000 </r>
       <r>   -0.7774    0.0000 </r>
       <r>   -0.5132    0.0000 </r>
      </set>
     </set>
    </set>
   </array>
  </eigenvalues>
  <separator name="orbital magnetization" >
   <v name="MAGDIPOLOUT">      0.00000000      0.00000000      0.00000000</v>
  </separator>
  <dos>
   <i name="efermi">     -4.14876767 </i>
   <total>
    <array>
     <dimension dim="1">gridpoints</dimension>
     <dimension dim="2">spin</dimension>
     <field>energy</field>
     <field>total</field>
     <field>integrated</field>
     <set>
      <set comment="spin 1">
       <r>   -30.8574     0.0000     0.0000 </r>
       <r>   -30.7496     0.0000     0.0000 </r>
       <r>   -30.6417     0.0000     0.0000 </r>
       <r>   -30.5339     0.0000     0.0000 </r>
       <r>   -30.4261     0.0000     0.0000 </r>
       <r>   -30.3183     0.0000     0.0000 </r>
       <r>   -30.2105     0.0000     0.0000 </r>
       <r>   -30.1027     0.0000     0.0000 </r>
       <r>   -29.9949     0.0000     0.0000 </r>
       <r>   -29.8870     0.0000     0.0000 </r>
       <r>   -29.7792     0.0000     0.0000 </r>
       <r>   -29.6714     0.0000     0.0000 </r>
       <r>   -29.5636     0.0003     0.0000 </r>
       <r>   -29.4558     0.0054     0.0006 </r>
       <r>   -29.3480     0.0385     0.0048 </r>
       <r>   -29.2402     0.0398     0.0091 </r>
       <r>   -29.1323    -0.4776    -0.0424 </r>
       <r>   -29.0245    -0.4530    -0.0913 </r>
       <r>   -28.9167     4.6787     0.4132 </r>
       <r>   -28.8089     9.9876     1.4900 </r>
       <r>   -28.7011     5.4424     2.0767 </r>
       <r>   -28.5933    -0.2239     2.0526 </r>
       <r>   -28.4855    -0.5605     1.9922 </r>
       <r>   -28.3776     0.0215     1.9945 </r>
       <r>   -28.2698     0.0439     1.9992 </r>
       <r>   -28.1620     0.0069     2.0000 </r>
       <r>   -28.0542     0.0004     2.0000 </r>
       <r>   -27.9464     0.0000     2.0000 </r>
       <r>   -27.8386     0.0000     2.0000 </r>
       <r>   -27.7308     0.0000     2.0000 </r>
       <r>   -27.6230     0.0000     2.0000 </r>
       <r>   -27.5151     0.0000     2.0000 </r>
       <r>   -27.4073     0.0000     2.0000 </r>
       <r>   -27.2995     0.0000     2.0000 </r>
       <r>   -27.1917     0.0000     2.0000 </r>
       <r>   -27.0839     0.0000     2.0000 </r>
       <r>   -26.9761     0.0000     2.0000 </r>
       <r>   -26.8683     0.0000     2.0000 </r>
       <r>   -26.7604     0.0000     2.0000 </r>
       <r>   -26.6526     0.0000     2.0000 </r>
       <r>   -26.5448     0.0000     2.0000 </r>
       <r>   -26.4370     0.0000     2.0000 </r>
       <r>   -26.3292     0.0000     2.0000 </r>
       <r>   -26.2214     0.0000     2.0000 </r>
       <r>   -26.1136     0.0000     2.0000 </r>
       <r>   -26.0057     0.0000     2.0000 </r>
       <r>   -25.8979     0.0000     2.0000 </r>
       <r>   -25.7901     0.0000     2.0000 </r>
       <r>   -25.6823     0.0000     2.0000 </r>
       <r>   -25.5745     0.0000     2.0000 </r>
       <r>   -25.4667     0.0000     2.0000 </r>
       <r>   -25.3589     0.0000     2.0000 </r>
       <r>   -25.2511     0.0000     2.0000 </r>
       <r>   -25.1432     0.0000     2.0000 </r>
       <r>   -25.0354     0.0000     2.0000 </r>
       <r>   -24.9276     0.0000     2.0000 </r>
       <r>   -24.8198     0.0000     2.0000 </r>
       <r>   -24.7120     0.0000     2.0000 </r>
       <r>   -24.6042     0.0000     2.0000 </r>
       <r>   -24.4964     0.0000     2.0000 </r>
       <r>   -24.3885     0.0000     2.0000 </r>
       <r>   -24.2807     0.0000     2.0000 </r>
       <r>   -24.1729     0.0000     2.0000 </r>
       <r>   -24.0651     0.0000     2.0000 </r>
       <r>   -23.9573     0.0000     2.0000 </r>
       <r>   -23.8495     0.0000     2.0000 </r>
       <r>   -23.7417     0.0000     2.0000 </r>
       <r>   -23.6338     0.0000     2.0000 </r>
       <r>   -23.5260     0.0000     2.0000 </r>
       <r>   -23.4182     0.0000     2.0000 </r>
       <r>   -23.3104     0.0000     2.0000 </r>
       <r>   -23.2026     0.0000     2.0000 </r>
       <r>   -23.0948     0.0000     2.0000 </r>
       <r>   -22.9870     0.0000     2.0000 </r>
       <r>   -22.8791     0.0000     2.0000 </r>
       <r>   -22.7713     0.0000     2.0000 </r>
       <r>   -22.6635     0.0000     2.0000 </r>
       <r>   -22.5557     0.0000     2.0000 </r>
       <r>   -22.4479     0.0000     2.0000 </r>
       <r>   -22.3401     0.0000     2.0000 </r>
       <r>   -22.2323     0.0000     2.0000 </r>
       <r>   -22.1245     0.0000     2.0000 </r>
       <r>   -22.0166     0.0000     2.0000 </r>
       <r>   -21.9088     0.0000     2.0000 </r>
       <r>   -21.8010     0.0000     2.0000 </r>
       <r>   -21.6932     0.0000     2.0000 </r>
       <r>   -21.5854     0.0000     2.0000 </r>
       <r>   -21.4776     0.0000     2.0000 </r>
       <r>   -21.3698     0.0000     2.0000 </r>
       <r>   -21.2619     0.0000     2.0000 </r>
       <r>   -21.1541     0.0000     2.0000 </r>
       <r>   -21.0463     0.0000     2.0000 </r>
       <r>   -20.9385     0.0000     2.0000 </r>
       <r>   -20.8307     0.0000     2.0000 </r>
       <r>   -20.7229     0.0000     2.0000 </r>
       <r>   -20.6151     0.0000     2.0000 </r>
       <r>   -20.5072     0.0000     2.0000 </r>
       <r>   -20.3994     0.0000     2.0000 </r>
       <r>   -20.2916     0.0000     2.0000 </r>
       <r>   -20.1838     0.0000     2.0000 </r>
       <r>   -20.0760     0.0000     2.0000 </r>
       <r>   -19.9682     0.0000     2.0000 </r>
       <r>   -19.8604     0.0000     2.0000 </r>
       <r>   -19.7526     0.0000     2.0000 </r>
       <r>   -19.6447     0.0000     2.0000 </r>
       <r>   -19.5369     0.0000     2.0000 </r>
       <r>   -19.4291     0.0000     2.0000 </r>
       <r>   -19.3213     0.0000     2.0000 </r>
       <r>   -19.2135     0.0000     2.0000 </r>
       <r>   -19.1057     0.0000     2.0000 </r>
       <r>   -18.9979     0.0000     2.0000 </r>
       <r>   -18.8900     0.0000     2.0000 </r>
       <r>   -18.7822     0.0000     2.0000 </r>
       <r>   -18.6744     0.0000     2.0000 </r>
       <r>   -18.5666     0.0000     2.0000 </r>
       <r>   -18.4588     0.0000     2.0000 </r>
       <r>   -18.3510     0.0000     2.0000 </r>
       <r>   -18.2432     0.0000     2.0000 </r>
       <r>   -18.1353     0.0000     2.0000 </r>
       <r>   -18.0275     0.0000     2.0000 </r>
       <r>   -17.9197     0.0000     2.0000 </r>
       <r>   -17.8119     0.0000     2.0000 </r>
       <r>   -17.7041     0.0000     2.0000 </r>
       <r>   -17.5963     0.0000     2.0000 </r>
       <r>   -17.4885     0.0000     2.0000 </r>
       <r>   -17.3806     0.0000     2.0000 </r>
       <r>   -17.2728     0.0000     2.0000 </r>
       <r>   -17.1650     0.0000     2.0000 </r>
       <r>   -17.0572     0.0000     2.0000 </r>
       <r>   -16.9494     0.0000     2.0000 </r>
       <r>   -16.8416     0.0000     2.0000 </r>
       <r>   -16.7338     0.0000     2.0000 </r>
       <r>   -16.6260     0.0000     2.0000 </r>
       <r>   -16.5181     0.0000     2.0000 </r>
       <r>   -16.4103     0.0000     2.0000 </r>
       <r>   -16.3025     0.0000     2.0000 </r>
       <r>   -16.1947     0.0000     2.0000 </r>
       <r>   -16.0869     0.0000     2.0000 </r>
       <r>   -15.9791     0.0000     2.0000 </r>
       <r>   -15.8713     0.0000     2.0000 </r>
       <r>   -15.7634     0.0000     2.0000 </r>
       <r>   -15.6556     0.0000     2.0000 </r>
       <r>   -15.5478     0.0000     2.0000 </r>
       <r>   -15.4400     0.0000     2.0000 </r>
       <r>   -15.3322     0.0000     2.0000 </r>
       <r>   -15.2244     0.0000     2.0000 </r>
       <r>   -15.1166     0.0000     2.0000 </r>
       <r>   -15.0087     0.0000     2.0000 </r>
       <r>   -14.9009     0.0000     2.0000 </r>
       <r>   -14.7931     0.0000     2.0000 </r>
       <r>   -14.6853     0.0000     2.0000 </r>
       <r>   -14.5775     0.0000     2.0000 </r>
       <r>   -14.4697     0.0000     2.0000 </r>
       <r>   -14.3619     0.0000     2.0000 </r>
       <r>   -14.2541     0.0000     2.0000 </r>
       <r>   -14.1462     0.0010     2.0001 </r>
       <r>   -14.0384     0.0129     2.0015 </r>
       <r>   -13.9306     0.0581     2.0078 </r>
       <r>   -13.8228    -0.0664     2.0006 </r>
       <r>   -13.7150    -0.7563     1.9191 </r>
       <r>   -13.6072     0.7642     2.0015 </r>
       <r>   -13.4994     7.4709     2.8069 </r>
       <r>   -13.3915     9.3386     3.8138 </r>
       <r>   -13.2837     2.6804     4.1027 </r>
       <r>   -13.1759    -0.7833     4.0183 </r>
       <r>   -13.0681    -0.2602     3.9902 </r>
       <r>   -12.9603     0.0630     3.9970 </r>
       <r>   -12.8525     0.0248     3.9997 </r>
       <r>   -12.7447     0.0026     4.0000 </r>
       <r>   -12.6368     0.0001     4.0000 </r>
       <r>   -12.5290     0.0000     4.0000 </r>
       <r>   -12.4212     0.0000     4.0000 </r>
       <r>   -12.3134     0.0000     4.0000 </r>
       <r>   -12.2056     0.0000     4.0000 </r>
       <r>   -12.0978     0.0000     4.0000 </r>
       <r>   -11.9900     0.0003     4.0000 </r>
       <r>   -11.8821     0.0059     4.0007 </r>
       <r>   -11.7743     0.0485     4.0059 </r>
       <r>   -11.6665     0.0992     4.0166 </r>
       <r>   -11.5587    -0.4997     3.9627 </r>
       <r>   -11.4509    -1.2270     3.8304 </r>
       <r>   -11.3431     5.0030     4.3698 </r>
       <r>   -11.2353    17.0528     6.2084 </r>
       <r>   -11.1275    15.1838     7.8454 </r>
       <r>   -11.0196     2.9048     8.1586 </r>
       <r>   -10.9118    -1.3303     8.0151 </r>
       <r>   -10.8040    -0.2850     7.9844 </r>
       <r>   -10.6962     0.1063     7.9959 </r>
       <r>   -10.5884     0.0347     7.9996 </r>
       <r>   -10.4806     0.0044     8.0001 </r>
       <r>   -10.3728     0.0117     8.0013 </r>
       <r>   -10.2649     0.0559     8.0074 </r>
       <r>   -10.1571    -0.0458     8.0024 </r>
       <r>   -10.0493    -0.7273     7.9240 </r>
       <r>    -9.9415     0.5432     7.9826 </r>
       <r>    -9.8337     7.1205     8.7503 </r>
       <r>    -9.7259     9.5249     9.7772 </r>
       <r>    -9.6181     3.0244    10.1032 </r>
       <r>    -9.5102    -0.7521    10.0222 </r>
       <r>    -9.4024    -0.2970     9.9901 </r>
       <r>    -9.2946     0.0612     9.9967 </r>
       <r>    -9.1868     0.0271     9.9997 </r>
       <r>    -9.0790     0.0030    10.0000 </r>
       <r>    -8.9712     0.0001    10.0000 </r>
       <r>    -8.8634     0.0000    10.0000 </r>
       <r>    -8.7556     0.0000    10.0000 </r>
       <r>    -8.6477     0.0000    10.0000 </r>
       <r>    -8.5399     0.0000    10.0000 </r>
       <r>    -8.4321     0.0000    10.0000 </r>
       <r>    -8.3243     0.0000    10.0000 </r>
       <r>    -8.2165     0.0000    10.0000 </r>
       <r>    -8.1087     0.0000    10.0000 </r>
       <r>    -8.0009     0.0000    10.0000 </r>
       <r>    -7.8930     0.0000    10.0000 </r>
       <r>    -7.7852     0.0000    10.0000 </r>
       <r>    -7.6774     0.0000    10.0000 </r>
       <r>    -7.5696     0.0000    10.0000 </r>
       <r>    -7.4618     0.0000    10.0000 </r>
       <r>    -7.3540     0.0003    10.0000 </r>
       <r>    -7.2462     0.0051    10.0006 </r>
       <r>    -7.1383     0.0373    10.0046 </r>
       <r>    -7.0305     0.0429    10.0092 </r>
       <r>    -6.9227    -0.4598     9.9597 </r>
       <r>    -6.8149    -0.4920     9.9066 </r>
       <r>    -6.7071     4.5406    10.3961 </r>
       <r>    -6.5993    10.1117    11.4863 </r>
       <r>    -6.4915     5.6339    12.0937 </r>
       <r>    -6.3836    -1.9369    11.8849 </r>
       <r>    -6.2758    -0.5592    11.8246 </r>
       <r>    -6.1680    17.8371    13.7477 </r>
       <r>    -6.0602    28.0621    16.7732 </r>
       <r>    -5.9524    11.4902    18.0120 </r>
       <r>    -5.8446    16.6418    19.8062 </r>
       <r>    -5.7368    53.0656    25.5274 </r>
       <r>    -5.6290   118.2187    38.2730 </r>
       <r>    -5.5211   237.6930    63.8996 </r>
       <r>    -5.4133   307.7246    97.0765 </r>
       <r>    -5.3055   251.3587   124.1764 </r>
       <r>    -5.1977   210.2288   146.8420 </r>
       <r>    -5.0899   274.3724   176.4231 </r>
       <r>    -4.9821   355.6841   214.7707 </r>
       <r>    -4.8743   346.1399   252.0893 </r>
       <r>    -4.7664   305.4363   285.0196 </r>
       <r>    -4.6586   356.1947   323.4222 </r>
       <r>    -4.5508   414.0935   368.0672 </r>
       <r>    -4.4430   414.4556   412.7512 </r>
       <r>    -4.3352   485.0022   465.0411 </r>
       <r>    -4.2274   561.9684   525.6290 </r>
       <r>    -4.1196   396.4659   568.3735 </r>
       <r>    -4.0117   115.6697   580.8443 </r>
       <r>    -3.9039     6.8944   581.5876 </r>
       <r>    -3.7961    25.0637   584.2898 </r>
       <r>    -3.6883    26.1001   587.1037 </r>
       <r>    -3.5805    13.8626   588.5983 </r>
       <r>    -3.4727    24.9818   591.2917 </r>
       <r>    -3.3649    22.9949   593.7708 </r>
       <r>    -3.2571     0.0604   593.7774 </r>
       <r>    -3.1492     4.1369   594.2234 </r>
       <r>    -3.0414    45.2344   599.1003 </r>
       <r>    -2.9336    62.1123   605.7968 </r>
       <r>    -2.8258    31.7975   609.2250 </r>
       <r>    -2.7180     5.2460   609.7906 </r>
       <r>    -2.6102     7.0425   610.5499 </r>
       <r>    -2.5024    25.5745   613.3072 </r>
       <r>    -2.3945    26.6510   616.1805 </r>
       <r>    -2.2867    15.1704   617.8161 </r>
       <r>    -2.1789    17.4782   619.7005 </r>
       <r>    -2.0711    30.1827   622.9546 </r>
       <r>    -1.9633    39.8808   627.2543 </r>
       <r>    -1.8555    43.0782   631.8987 </r>
       <r>    -1.7477    39.0206   636.1057 </r>
       <r>    -1.6398    36.7900   640.0721 </r>
       <r>    -1.5320    35.5196   643.9016 </r>
       <r>    -1.4242    25.1268   646.6106 </r>
       <r>    -1.3164    24.3657   649.2376 </r>
       <r>    -1.2086    30.6984   652.5473 </r>
       <r>    -1.1008    24.8341   655.2248 </r>
       <r>    -0.9930    31.3305   658.6026 </r>
       <r>    -0.8851    52.0765   664.2172 </r>
       <r>    -0.7773    41.7828   668.7220 </r>
       <r>    -0.6695    13.1973   670.1448 </r>
       <r>    -0.5617     4.4581   670.6255 </r>
       <r>    -0.4539     8.6723   671.5604 </r>
       <r>    -0.3461     4.7513   672.0727 </r>
       <r>    -0.2383    -0.3104   672.0392 </r>
       <r>    -0.1305    -0.4501   671.9907 </r>
       <r>    -0.0226     0.0420   671.9952 </r>
       <r>     0.0852     0.0385   671.9994 </r>
       <r>     0.1930     0.0054   672.0000 </r>
       <r>     0.3008     0.0003   672.0000 </r>
       <r>     0.4086     0.0000   672.0000 </r>
       <r>     0.5164     0.0000   672.0000 </r>
       <r>     0.6242     0.0000   672.0000 </r>
       <r>     0.7321     0.0000   672.0000 </r>
       <r>     0.8399     0.0000   672.0000 </r>
       <r>     0.9477     0.0000   672.0000 </r>
       <r>     1.0555     0.0000   672.0000 </r>
       <r>     1.1633     0.0000   672.0000 </r>
       <r>     1.2711     0.0000   672.0000 </r>
       <r>     1.3789     0.0000   672.0000 </r>
       <r>     1.4868     0.0000   672.0000 </r>
      </set>
     </set>
    </array>
   </total>
  </dos>
 </calculation>
 <structure name="finalpos" >
  <crystal>
   <varray name="basis" >
    <v>      30.00000000       0.00000000       0.00000000 </v>
    <v>       0.00000000      30.00000000       0.00000000 </v>
    <v>       0.00000000       0.00000000      30.00000000 </v>
   </varray>
   <i name="volume">  27000.00000000 </i>
   <varray name="rec_basis" >
    <v>       0.03333333       0.00000000       0.00000000 </v>
    <v>       0.00000000       0.03333333       0.00000000 </v>
    <v>       0.00000000       0.00000000       0.03333333 </v>
   </varray>
  </crystal>
  <varray name="positions" >
   <v>       0.44576020       0.32826710       0.41691983 </v>
   <v>       0.67173288       0.55423978       0.41691983 </v>
   <v>       0.55423980       0.32826710       0.41691983 </v>
   <v>       0.32826712       0.55423978       0.41691983 </v>
   <v>       0.50000000       0.38250690       0.34021317 </v>
   <v>       0.50000000       0.38250690       0.65978680 </v>
   <v>       0.50000000       0.27609440       0.50000000 </v>
   <v>       0.27609443       0.49999998       0.50000000 </v>
   <v>       0.72390557       0.49999998       0.50000000 </v>
   <v>       0.50000000       0.72390555       0.50000000 </v>
   <v>       0.61195280       0.38804720       0.34167483 </v>
   <v>       0.61195280       0.38804720       0.65832513 </v>
   <v>       0.38804722       0.61195278       0.34167483 </v>
   <v>       0.38804722       0.61195278       0.65832513 </v>
   <v>       0.38804720       0.38804720       0.34167483 </v>
   <v>       0.38804720       0.38804720       0.65832513 </v>
   <v>       0.61195278       0.61195278       0.34167483 </v>
   <v>       0.61195278       0.61195278       0.65832513 </v>
   <v>       0.44576020       0.32826710       0.58308023 </v>
   <v>       0.67173288       0.55423978       0.58308023 </v>
   <v>       0.55791699       0.44208301       0.41809300 </v>
   <v>       0.32826705       0.44576024       0.41691983 </v>
   <v>       0.55423973       0.67173293       0.41691983 </v>
   <v>       0.55423980       0.32826710       0.58308023 </v>
   <v>       0.32826712       0.55423978       0.58308023 </v>
   <v>       0.67173295       0.44576024       0.41691983 </v>
   <v>       0.44576027       0.67173293       0.41691983 </v>
   <v>       0.44208301       0.44208301       0.41809300 </v>
   <v>       0.50000000       0.38416601       0.50000000 </v>
   <v>       0.61749315       0.50000005       0.34021317 </v>
   <v>       0.61749315       0.50000005       0.65978680 </v>
   <v>       0.38250685       0.50000005       0.34021317 </v>
   <v>       0.38250685       0.50000005       0.65978680 </v>
   <v>       0.38317830       0.38317830       0.50000000 </v>
   <v>       0.61682172       0.61682172       0.50000000 </v>
   <v>       0.61682170       0.38317830       0.50000000 </v>
   <v>       0.38317828       0.61682172       0.50000000 </v>
   <v>       0.50000000       0.50000000       0.33478917 </v>
   <v>       0.50000000       0.50000000       0.66521087 </v>
   <v>       0.32826705       0.44576024       0.58308023 </v>
   <v>       0.55423973       0.67173293       0.58308023 </v>
   <v>       0.55791699       0.44208301       0.58190703 </v>
   <v>       0.44208298       0.55791702       0.41809300 </v>
   <v>       0.44208301       0.44208301       0.58190703 </v>
   <v>       0.67173295       0.44576024       0.58308023 </v>
   <v>       0.44576027       0.67173293       0.58308023 </v>
   <v>       0.55791702       0.55791702       0.41809300 </v>
   <v>       0.38416599       0.50000002       0.50000000 </v>
   <v>       0.61583401       0.50000002       0.50000000 </v>
   <v>       0.50000000       0.61749319       0.34021317 </v>
   <v>       0.50000000       0.61749319       0.65978680 </v>
   <v>       0.50000000       0.50000000       0.50000000 </v>
   <v>       0.44208298       0.55791702       0.58190703 </v>
   <v>       0.55791702       0.55791702       0.58190703 </v>
   <v>       0.50000000       0.61583404       0.50000000 </v>
   <v>       0.77202383       0.52787583       0.54960947 </v>
   <v>       0.80882717       0.53164730       0.55632137 </v>
  </varray>
  <varray name="selective"  type="logical" >
   <v type="logical" >  F  F  F </v>
   <v type="logical" >  F  F  F </v>
   <v type="logical" >  F  F  F </v>
   <v type="logical" >  F  F  F </v>
   <v type="logical" >  F  F  F </v>
   <v type="logical" >  F  F  F </v>
   <v type="logical" >  F  F  F </v>
   <v type="logical" >  F  F  F </v>
   <v type="logical" >  F  F  F </v>
   <v type="logical" >  F  F  F </v>
   <v type="logical" >  F  F  F </v>
   <v type="logical" >  F  F  F </v>
   <v type="logical" >  F  F  F </v>
   <v type="logical" >  F  F  F </v>
   <v type="logical" >  F  F  F </v>
   <v type="logical" >  F  F  F </v>
   <v type="logical" >  F  F  F </v>
   <v type="logical" >  F  F  F </v>
   <v type="logical" >  F  F  F </v>
   <v type="logical" >  F  F  F </v>
   <v type="logical" >  F  F  F </v>
   <v type="logical" >  F  F  F </v>
   <v type="logical" >  F  F  F </v>
   <v type="logical" >  F  F  F </v>
   <v type="logical" >  F  F  F </v>
   <v type="logical" >  F  F  F </v>
   <v type="logical" >  F  F  F </v>
   <v type="logical" >  F  F  F </v>
   <v type="logical" >  F  F  F </v>
   <v type="logical" >  F  F  F </v>
   <v type="logical" >  F  F  F </v>
   <v type="logical" >  F  F  F </v>
   <v type="logical" >  F  F  F </v>
   <v type="logical" >  F  F  F </v>
   <v type="logical" >  F  F  F </v>
   <v type="logical" >  F  F  F </v>
   <v type="logical" >  F  F  F </v>
   <v type="logical" >  F  F  F </v>
   <v type="logical" >  F  F  F </v>
   <v type="logical" >  F  F  F </v>
   <v type="logical" >  F  F  F </v>
   <v type="logical" >  F  F  F </v>
   <v type="logical" >  F  F  F </v>
   <v type="logical" >  F  F  F </v>
   <v type="logical" >  F  F  F </v>
   <v type="logical" >  F  F  F </v>
   <v type="logical" >  F  F  F </v>
   <v type="logical" >  F  F  F </v>
   <v type="logical" >  F  F  F </v>
   <v type="logical" >  F  F  F </v>
   <v type="logical" >  F  F  F </v>
   <v type="logical" >  F  F  F </v>
   <v type="logical" >  F  F  F </v>
   <v type="logical" >  F  F  F </v>
   <v type="logical" >  F  F  F </v>
   <v type="logical" >  F  F  F </v>
   <v type="logical" >  F  F  F </v>
  </varray>
  <nose>
   <v>      -3.00000000       0.00000000       0.00010000       0.00010000 </v>
  </nose>
 </structure>
</modeling>
