<?xml version="1.0" encoding="ISO-8859-1"?>
<modeling>
 <generator>
  <i name="program" type="string">vasp </i>
  <i name="version" type="string">5.4.4.18Apr17-6-g9f103f2a35  </i>
  <i name="subversion" type="string">(build Sep 03 2018 23:53:05) complex            parallel </i>
  <i name="platform" type="string">LinuxIFC </i>
  <i name="date" type="string">2021 12 03 </i>
  <i name="time" type="string">03:15:59 </i>
 </generator>
 <incar>
  <i type="string" name="SYSTEM"> 6_Pd100_top_free_z(O)</i>
  <i type="int" name="ISTART">     0</i>
  <i type="string" name="PREC">normal   			! encut=max(enmax), ngx,y,z</i>
  <i type="string" name="ALGO"> Fast     			! Mix RMM-DIIS and Dav</i>
  <i type="logical" name="ADDGRID"> F  </i>
  <i type="int" name="ISPIN">     1</i>
  <i type="int" name="ICHARG">     2</i>
  <i type="int" name="NELM">   100</i>
  <i type="int" name="NELMIN">     6</i>
  <i type="int" name="IBRION">     2</i>
  <i name="EDIFF">      0.00010000</i>
  <i name="EDIFFG">     -0.05000000</i>
  <i type="int" name="NSW">     0</i>
  <i type="int" name="ISIF">     2</i>
  <i type="int" name="ISYM">     2</i>
  <i name="ENCUT">    400.00000000</i>
  <i type="string" name="LREAL"> Auto     			! Auto or A projection done</i>
  <i type="int" name="ISMEAR">     2</i>
  <i name="SIGMA">      0.20000000</i>
  <i type="logical" name="LWAVE"> F  </i>
  <i type="logical" name="LCHARG"> F  </i>
  <v type="int" name="KPOINT_BSE">    -1     0     0     0</v>
  <i type="int" name="MAXMEM"> 10000</i>
  <i type="int" name="NELM">   100</i>
  <i type="string" name="GGA"> RP         			! Revised PBE</i>
 </incar>
 <structure name="primitive_cell" >
  <crystal>
   <varray name="basis" >
    <v>      30.00000000       0.00000000       0.00000000 </v>
    <v>       0.00000000      30.00000000       0.00000000 </v>
    <v>       0.00000000       0.00000000      30.00000000 </v>
   </varray>
   <i name="volume">  27000.00000000 </i>
   <varray name="rec_basis" >
    <v>       0.03333333       0.00000000       0.00000000 </v>
    <v>       0.00000000       0.03333333       0.00000000 </v>
    <v>       0.00000000       0.00000000       0.03333333 </v>
   </varray>
  </crystal>
  <varray name="positions" >
   <v>       0.44576020       0.32826710       0.41691983 </v>
   <v>      -0.44576020       0.32826710       0.41691983 </v>
   <v>      -0.50000000       0.38250690       0.34021317 </v>
   <v>      -0.50000000       0.27609440      -0.50000000 </v>
   <v>       0.38804720       0.38804720       0.34167483 </v>
   <v>      -0.50000000       0.38416601      -0.50000000 </v>
   <v>       0.44208300       0.44208300       0.41809300 </v>
   <v>       0.38317830       0.38317830      -0.50000000 </v>
   <v>      -0.44208300       0.44208300       0.41809300 </v>
   <v>       0.44576020       0.32826710      -0.41691977 </v>
   <v>       0.32826705       0.44576024       0.41691983 </v>
   <v>      -0.38804720       0.38804720       0.34167483 </v>
   <v>      -0.38317830       0.38317830      -0.50000000 </v>
   <v>      -0.50000000      -0.50000000       0.33478917 </v>
   <v>      -0.50000000      -0.50000000      -0.50000000 </v>
   <v>      -0.44576020       0.32826710      -0.41691977 </v>
   <v>       0.38250685      -0.49999995       0.34021317 </v>
   <v>       0.44208300       0.44208300      -0.41809297 </v>
   <v>       0.38416599      -0.49999998      -0.50000000 </v>
   <v>      -0.44208300       0.44208300      -0.41809297 </v>
   <v>       0.44208298      -0.44208298       0.41809300 </v>
   <v>       0.32826705       0.44576024      -0.41691977 </v>
   <v>      -0.50000000       0.38250690      -0.34021320 </v>
   <v>       0.32826712      -0.44576022       0.41691983 </v>
   <v>      -0.38250685      -0.49999995       0.34021317 </v>
   <v>      -0.32826705       0.44576024       0.41691983 </v>
   <v>       0.27609443       0.49999998      -0.50000000 </v>
   <v>       0.38804720       0.38804720      -0.34167487 </v>
   <v>      -0.38416599      -0.49999998      -0.50000000 </v>
   <v>      -0.44208298      -0.44208298       0.41809300 </v>
   <v>       0.28410533      -0.46084300       0.37307973 </v>
   <v>       0.44208298      -0.44208298      -0.41809297 </v>
   <v>       0.25208067      -0.45503463       0.35425307 </v>
   <v>      -0.38804720       0.38804720      -0.34167487 </v>
   <v>       0.38804722      -0.38804722       0.34167483 </v>
   <v>       0.38250685      -0.49999995      -0.34021320 </v>
   <v>       0.32826712      -0.44576022      -0.41691977 </v>
   <v>      -0.32826705       0.44576024      -0.41691977 </v>
   <v>       0.50000000      -0.38250681       0.34021317 </v>
   <v>      -0.50000000      -0.38416596      -0.50000000 </v>
   <v>      -0.44208298      -0.44208298      -0.41809297 </v>
   <v>      -0.50000000      -0.50000000      -0.33478913 </v>
   <v>       0.38317828      -0.38317828      -0.50000000 </v>
   <v>      -0.32826712      -0.44576022       0.41691983 </v>
   <v>      -0.27609443       0.49999998      -0.50000000 </v>
   <v>      -0.38804722      -0.38804722       0.34167483 </v>
   <v>      -0.38250685      -0.49999995      -0.34021320 </v>
   <v>       0.44576027      -0.32826707       0.41691983 </v>
   <v>      -0.38317828      -0.38317828      -0.50000000 </v>
   <v>      -0.32826712      -0.44576022      -0.41691977 </v>
   <v>      -0.44576027      -0.32826707       0.41691983 </v>
   <v>       0.38804722      -0.38804722      -0.34167487 </v>
   <v>      -0.50000000      -0.38250681      -0.34021320 </v>
   <v>       0.44576027      -0.32826707      -0.41691977 </v>
   <v>      -0.44576027      -0.32826707      -0.41691977 </v>
   <v>      -0.50000000      -0.27609445       0.50000000 </v>
   <v>      -0.38804722      -0.38804722      -0.34167487 </v>
  </varray>
 </structure>
 <varray name="primitive_index" >
  <v type="int" >        1 </v>
  <v type="int" >        3 </v>
  <v type="int" >        5 </v>
  <v type="int" >        7 </v>
  <v type="int" >       15 </v>
  <v type="int" >       29 </v>
  <v type="int" >       28 </v>
  <v type="int" >       34 </v>
  <v type="int" >       21 </v>
  <v type="int" >       19 </v>
  <v type="int" >       22 </v>
  <v type="int" >       11 </v>
  <v type="int" >       36 </v>
  <v type="int" >       38 </v>
  <v type="int" >       52 </v>
  <v type="int" >       24 </v>
  <v type="int" >       32 </v>
  <v type="int" >       44 </v>
  <v type="int" >       48 </v>
  <v type="int" >       42 </v>
  <v type="int" >       43 </v>
  <v type="int" >       40 </v>
  <v type="int" >        6 </v>
  <v type="int" >        4 </v>
  <v type="int" >       30 </v>
  <v type="int" >       26 </v>
  <v type="int" >        8 </v>
  <v type="int" >       16 </v>
  <v type="int" >       49 </v>
  <v type="int" >       47 </v>
  <v type="int" >       56 </v>
  <v type="int" >       53 </v>
  <v type="int" >       57 </v>
  <v type="int" >       12 </v>
  <v type="int" >       13 </v>
  <v type="int" >       33 </v>
  <v type="int" >       25 </v>
  <v type="int" >       45 </v>
  <v type="int" >       50 </v>
  <v type="int" >       55 </v>
  <v type="int" >       54 </v>
  <v type="int" >       39 </v>
  <v type="int" >       37 </v>
  <v type="int" >        2 </v>
  <v type="int" >        9 </v>
  <v type="int" >       17 </v>
  <v type="int" >       31 </v>
  <v type="int" >       27 </v>
  <v type="int" >       35 </v>
  <v type="int" >       20 </v>
  <v type="int" >       23 </v>
  <v type="int" >       14 </v>
  <v type="int" >       51 </v>
  <v type="int" >       46 </v>
  <v type="int" >       41 </v>
  <v type="int" >       10 </v>
  <v type="int" >       18 </v>
 </varray>
 <kpoints>
  <generation param="Monkhorst-Pack">
   <v type="int" name="divisions">       1        1        1 </v>
   <v name="usershift">      0.00000000       0.00000000       0.00000000 </v>
   <v name="genvec1">      1.00000000       0.00000000       0.00000000 </v>
   <v name="genvec2">      0.00000000       1.00000000       0.00000000 </v>
   <v name="genvec3">      0.00000000       0.00000000       1.00000000 </v>
   <v name="shift">      0.00000000       0.00000000       0.00000000 </v>
  </generation>
  <varray name="kpointlist" >
   <v>       0.00000000       0.00000000       0.00000000 </v>
  </varray>
  <varray name="weights" >
   <v>       1.00000000 </v>
  </varray>
 </kpoints>
 <parameters>
  <separator name="general" >
   <i type="string" name="SYSTEM">6_Pd100_top_free_z(O)</i>
   <i type="logical" name="LCOMPAT"> F  </i>
  </separator>
  <separator name="electronic" >
   <i type="string" name="PREC">normal</i>
   <i name="ENMAX">    400.00000000</i>
   <i name="ENAUG">    644.87300000</i>
   <i name="EDIFF">      0.00010000</i>
   <i type="int" name="IALGO">    68</i>
   <i type="int" name="IWAVPR">    10</i>
   <i type="int" name="NBANDS">   336</i>
   <i name="NELECT">    560.00000000</i>
   <i type="int" name="TURBO">     0</i>
   <i type="int" name="IRESTART">     0</i>
   <i type="int" name="NREBOOT">     0</i>
   <i type="int" name="NMIN">     0</i>
   <i name="EREF">      0.00000000</i>
   <separator name="electronic smearing" >
    <i type="int" name="ISMEAR">     2</i>
    <i name="SIGMA">      0.20000000</i>
    <i name="KSPACING">      0.50000000</i>
    <i type="logical" name="KGAMMA"> T  </i>
   </separator>
   <separator name="electronic projectors" >
    <i type="logical" name="LREAL"> T  </i>
    <v name="ROPT">     -0.00050000     -0.00050000     -0.00050000</v>
    <i type="int" name="LMAXPAW">  -100</i>
    <i type="int" name="LMAXMIX">     2</i>
    <i type="logical" name="NLSPLINE"> F  </i>
   </separator>
   <separator name="electronic startup" >
    <i type="int" name="ISTART">     0</i>
    <i type="int" name="ICHARG">     2</i>
    <i type="int" name="INIWAV">     1</i>
   </separator>
   <separator name="electronic spin" >
    <i type="int" name="ISPIN">     1</i>
    <i type="logical" name="LNONCOLLINEAR"> F  </i>
    <v name="MAGMOM">      1.00000000      1.00000000      1.00000000      1.00000000      1.00000000      1.00000000      1.00000000      1.00000000      1.00000000      1.00000000      1.00000000      1.00000000      1.00000000      1.00000000      1.00000000      1.00000000      1.00000000      1.00000000      1.00000000      1.00000000
      1.00000000      1.00000000      1.00000000      1.00000000      1.00000000      1.00000000      1.00000000      1.00000000      1.00000000      1.00000000      1.00000000      1.00000000      1.00000000      1.00000000      1.00000000      1.00000000      1.00000000      1.00000000      1.00000000      1.00000000
      1.00000000      1.00000000      1.00000000      1.00000000      1.00000000      1.00000000      1.00000000      1.00000000      1.00000000      1.00000000      1.00000000      1.00000000      1.00000000      1.00000000      1.00000000      1.00000000      1.00000000</v>
    <i name="NUPDOWN">     -1.00000000</i>
    <i type="logical" name="LSORBIT"> F  </i>
    <v name="SAXIS">      0.00000000      0.00000000      1.00000000</v>
    <i type="logical" name="LSPIRAL"> F  </i>
    <v name="QSPIRAL">      0.00000000      0.00000000      0.00000000</v>
    <i type="logical" name="LZEROZ"> F  </i>
   </separator>
   <separator name="electronic exchange-correlation" >
    <i type="logical" name="LASPH"> F  </i>
    <i type="logical" name="LMETAGGA"> F  </i>
   </separator>
   <separator name="electronic convergence" >
    <i type="int" name="NELM">   100</i>
    <i type="int" name="NELMDL">    -5</i>
    <i type="int" name="NELMIN">     6</i>
    <i name="ENINI">    400.00000000</i>
    <separator name="electronic convergence detail" >
     <i type="logical" name="LDIAG"> T  </i>
     <i type="logical" name="LSUBROT"> F  </i>
     <i name="WEIMIN">      0.00000000</i>
     <i name="EBREAK">      0.00000007</i>
     <i name="DEPER">      0.30000000</i>
     <i type="int" name="NRMM">     4</i>
     <i name="TIME">      0.40000000</i>
    </separator>
   </separator>
   <separator name="electronic mixer" >
    <i name="AMIX">      0.40000000</i>
    <i name="BMIX">      1.00000000</i>
    <i name="AMIN">      0.10000000</i>
    <i name="AMIX_MAG">      1.60000000</i>
    <i name="BMIX_MAG">      1.00000000</i>
    <separator name="electronic mixer details" >
     <i type="int" name="IMIX">     4</i>
     <i type="logical" name="MIXFIRST"> F  </i>
     <i type="int" name="MAXMIX">   -45</i>
     <i name="WC">    100.00000000</i>
     <i type="int" name="INIMIX">     1</i>
     <i type="int" name="MIXPRE">     1</i>
     <i type="int" name="MREMOVE">     5</i>
    </separator>
   </separator>
   <separator name="electronic dipolcorrection" >
    <i type="logical" name="LDIPOL"> F  </i>
    <i type="logical" name="LMONO"> F  </i>
    <i type="int" name="IDIPOL">     0</i>
    <i name="EPSILON">      1.00000000</i>
    <v name="DIPOL">   -100.00000000   -100.00000000   -100.00000000</v>
    <i name="EFIELD">      0.00000000</i>
   </separator>
  </separator>
  <separator name="grids" >
   <i type="int" name="NGX">   150</i>
   <i type="int" name="NGY">   150</i>
   <i type="int" name="NGZ">   150</i>
   <i type="int" name="NGXF">   300</i>
   <i type="int" name="NGYF">   300</i>
   <i type="int" name="NGZF">   300</i>
   <i type="logical" name="ADDGRID"> F  </i>
  </separator>
  <separator name="ionic" >
   <i type="int" name="NSW">     0</i>
   <i type="int" name="IBRION">    -1</i>
   <i type="int" name="MDALGO">     0</i>
   <i type="int" name="ISIF">     2</i>
   <i name="PSTRESS">      0.00000000</i>
   <i name="EDIFFG">     -0.05000000</i>
   <i type="int" name="NFREE">     1</i>
   <i name="POTIM">      0.50000000</i>
   <i name="SMASS">     -3.00000000</i>
   <i name="SCALEE">      1.00000000</i>
  </separator>
  <separator name="ionic md" >
   <i name="TEBEG">      0.00010000</i>
   <i name="TEEND">      0.00010000</i>
   <i type="int" name="NBLOCK">     1</i>
   <i type="int" name="KBLOCK">     1</i>
   <i type="int" name="NPACO">   256</i>
   <i name="APACO">     16.00000000</i>
  </separator>
  <separator name="symmetry" >
   <i type="int" name="ISYM">     2</i>
   <i name="SYMPREC">      0.00001000</i>
  </separator>
  <separator name="dos" >
   <i type="int" name="LORBIT">     0</i>
   <v name="RWIGS">     -1.00000000     -1.00000000     -1.00000000</v>
   <i type="int" name="NEDOS">   301</i>
   <i name="EMIN">     10.00000000</i>
   <i name="EMAX">    -10.00000000</i>
   <i name="EFERMI">      0.00000000</i>
  </separator>
  <separator name="writing" >
   <i type="int" name="NWRITE">     2</i>
   <i type="logical" name="LWAVE"> F  </i>
   <i type="logical" name="LDOWNSAMPLE"> F  </i>
   <i type="logical" name="LCHARG"> F  </i>
   <i type="logical" name="LPARD"> F  </i>
   <i type="logical" name="LVTOT"> F  </i>
   <i type="logical" name="LVHAR"> F  </i>
   <i type="logical" name="LELF"> F  </i>
   <i type="logical" name="LOPTICS"> F  </i>
   <v name="STM">      0.00000000      0.00000000      0.00000000      0.00000000      0.00000000      0.00000000      0.00000000</v>
  </separator>
  <separator name="performance" >
   <i type="int" name="NPAR">     1</i>
   <i type="int" name="NSIM">     4</i>
   <i type="int" name="NBLK">    -1</i>
   <i type="logical" name="LPLANE"> T  </i>
   <i type="logical" name="LSCALAPACK"> T  </i>
   <i type="logical" name="LSCAAWARE"> F  </i>
   <i type="logical" name="LSCALU"> F  </i>
   <i type="logical" name="LASYNC"> F  </i>
   <i type="logical" name="LORBITALREAL"> F  </i>
  </separator>
  <separator name="miscellaneous" >
   <i type="int" name="IDIOT">     3</i>
   <i type="int" name="ISPECIAL">     0</i>
   <i type="logical" name="LMUSIC"> F  </i>
   <v name="POMASS">    106.42000000     12.01100000     16.00000000</v>
   <v name="DARWINR">      0.00000000      0.00000000      0.00000000</v>
   <v name="DARWINV">      1.00000000      1.00000000      1.00000000</v>
   <i type="logical" name="LCORR"> T  </i>
  </separator>
  <i type="logical" name="GGA_COMPAT"> T  </i>
  <i type="logical" name="LBERRY"> F  </i>
  <i type="int" name="ICORELEVEL">     0</i>
  <i type="logical" name="LDAU"> F  </i>
  <i type="int" name="I_CONSTRAINED_M">     0</i>
  <separator name="electronic exchange-correlation" >
   <i type="string" name="GGA">RP</i>
   <i type="int" name="VOSKOWN">     0</i>
   <i type="logical" name="LHFCALC"> F  </i>
   <i type="string" name="PRECFOCK"></i>
   <i type="logical" name="LSYMGRAD"> F  </i>
   <i type="logical" name="LHFONE"> F  </i>
   <i type="logical" name="LRHFCALC"> F  </i>
   <i type="logical" name="LTHOMAS"> F  </i>
   <i type="logical" name="LMODELHF"> F  </i>
   <i name="ENCUT4O">     -1.00000000</i>
   <i type="int" name="EXXOEP">     0</i>
   <i type="int" name="FOURORBIT">     0</i>
   <i name="AEXX">      0.00000000</i>
   <i name="HFALPHA">      0.00000000</i>
   <i name="MCALPHA">      0.00000000</i>
   <i name="ALDAX">      1.00000000</i>
   <i name="AGGAX">      1.00000000</i>
   <i name="ALDAC">      1.00000000</i>
   <i name="AGGAC">      1.00000000</i>
   <i type="int" name="NKREDX">     1</i>
   <i type="int" name="NKREDY">     1</i>
   <i type="int" name="NKREDZ">     1</i>
   <i type="logical" name="SHIFTRED"> F  </i>
   <i type="logical" name="ODDONLY"> F  </i>
   <i type="logical" name="EVENONLY"> F  </i>
   <i type="int" name="LMAXFOCK">     0</i>
   <i type="int" name="NMAXFOCKAE">     0</i>
   <i type="logical" name="LFOCKAEDFT"> F  </i>
   <i name="HFSCREEN">      0.00000000</i>
   <i name="HFSCREENC">      0.00000000</i>
   <i type="int" name="NBANDSGWLOW">     0</i>
  </separator>
  <separator name="vdW DFT" >
   <i type="logical" name="LUSE_VDW"> F  </i>
   <i name="Zab_VDW">     -0.84910000</i>
   <i name="PARAM1">      0.12340000</i>
   <i name="PARAM2">      1.00000000</i>
   <i name="PARAM3">      0.00000000</i>
  </separator>
  <separator name="model GW" >
   <i type="int" name="MODEL_GW">     0</i>
   <i name="MODEL_EPS0">    284.21052632</i>
   <i name="MODEL_ALPHA">      1.00000000</i>
  </separator>
  <separator name="linear response parameters" >
   <i type="logical" name="LEPSILON"> F  </i>
   <i type="logical" name="LRPA"> F  </i>
   <i type="logical" name="LNABLA"> F  </i>
   <i type="logical" name="LVEL"> F  </i>
   <i type="int" name="KINTER">     0</i>
   <i name="CSHIFT">      0.10000000</i>
   <i name="OMEGAMAX">     -1.00000000</i>
   <i name="DEG_THRESHOLD">      0.00200000</i>
   <i name="RTIME">     -0.10000000</i>
   <i name="WPLASMAI">      0.00000000</i>
   <v name="DFIELD">      0.00000000      0.00000000      0.00000000</v>
   <v name="WPLASMA">      0.00000000      0.00000000      0.00000000      0.00000000      0.00000000      0.00000000      0.00000000      0.00000000      0.00000000</v>
  </separator>
  <separator name="orbital magnetization" >
   <i type="logical" name="NUCIND"> F  </i>
   <v name="MAGPOS">      0.00000000      0.00000000      0.00000000</v>
   <i type="logical" name="LNICSALL"> T  </i>
   <i type="logical" name="ORBITALMAG"> F  </i>
   <i type="logical" name="LMAGBLOCH"> F  </i>
   <i type="logical" name="LCHIMAG"> F  </i>
   <i type="logical" name="LGAUGE"> T  </i>
   <i type="int" name="MAGATOM">     0</i>
   <v name="MAGDIPOL">      0.00000000      0.00000000      0.00000000</v>
   <v name="AVECCONST">      0.00000000      0.00000000      0.00000000</v>
  </separator>
  <separator name="response functions" >
   <i type="logical" name="LADDER"> F  </i>
   <i type="logical" name="LRPAFORCE"> F  </i>
   <i type="logical" name="LFXC"> F  </i>
   <i type="logical" name="LHARTREE"> T  </i>
   <i type="int" name="IBSE">     0</i>
   <v type="int" name="KPOINT">    -1     0     0     0</v>
   <i type="logical" name="LTCTE"> F  </i>
   <i type="logical" name="LTETE"> F  </i>
   <i type="logical" name="LTRIPLET"> F  </i>
   <i type="logical" name="LFXCEPS"> F  </i>
   <i type="logical" name="LFXHEG"> F  </i>
   <i type="int" name="NATURALO">     2</i>
   <i type="logical" name="L2ORDER"> F  </i>
   <i type="logical" name="LMP2LT"> F  </i>
   <i type="logical" name="LUSEW"> F  </i>
   <i name="ENCUTGW">     -2.00000000</i>
   <i name="ENCUTGWSOFT">     -2.00000000</i>
   <i name="ENCUTLF">     -1.00000000</i>
   <i type="int" name="LMAXMP2">    -1</i>
   <i name="SCISSOR">      0.00000000</i>
   <i type="int" name="NOMEGA">     0</i>
   <i type="int" name="NOMEGAR">     0</i>
   <i type="int" name="NBANDSGW">    -1</i>
   <i type="int" name="NBANDSO">    -1</i>
   <i type="int" name="NBANDSV">    -1</i>
   <i type="int" name="NELM">   100</i>
   <i type="int" name="NELMHF">     1</i>
   <i type="int" name="DIM">     3</i>
   <i type="int" name="ANTIRES">     0</i>
   <i name="OMEGAMAX">    -30.00000000</i>
   <i name="OMEGAMIN">    -30.00000000</i>
   <i name="OMEGATL">   -200.00000000</i>
   <i type="int" name="OMEGAGRID">   140</i>
   <i name="CSHIFT">     -0.10000000</i>
   <i type="logical" name="SELFENERGY"> F  </i>
   <i type="logical" name="LSPECTRAL"> F  </i>
   <i type="logical" name="LSPECTRALGW"> F  </i>
   <i type="logical" name="LSINGLES"> F  </i>
   <i type="logical" name="LFERMIGW"> F  </i>
   <i type="logical" name="ODDONLYGW"> F  </i>
   <i type="logical" name="EVENONLYGW"> F  </i>
   <i type="int" name="NKREDLFX">     1</i>
   <i type="int" name="NKREDLFY">     1</i>
   <i type="int" name="NKREDLFZ">     1</i>
   <i type="int" name="MAXMEM"> 10000</i>
   <i type="int" name="TELESCOPE">     0</i>
   <i type="int" name="TAUPAR">     1</i>
   <i type="int" name="OMEGAPAR">    -1</i>
   <i name="LAMBDA">      1.00000000</i>
  </separator>
  <separator name="External order field" >
   <i name="OFIELD_KAPPA">      0.00000000</i>
   <v name="OFIELD_K">      0.00000000      0.00000000      0.00000000</v>
   <i name="OFIELD_Q6_NEAR">      0.00000000</i>
   <i name="OFIELD_Q6_FAR">      0.00000000</i>
   <i name="OFIELD_A">      0.00000000</i>
  </separator>
 </parameters>
 <atominfo>
  <atoms>      57 </atoms>
  <types>       3 </types>
  <array name="atoms" >
   <dimension dim="1">ion</dimension>
   <field type="string">element</field>
   <field type="int">atomtype</field>
   <set>
    <rc><c>Pd</c><c>   1</c></rc>
    <rc><c>Pd</c><c>   1</c></rc>
    <rc><c>Pd</c><c>   1</c></rc>
    <rc><c>Pd</c><c>   1</c></rc>
    <rc><c>Pd</c><c>   1</c></rc>
    <rc><c>Pd</c><c>   1</c></rc>
    <rc><c>Pd</c><c>   1</c></rc>
    <rc><c>Pd</c><c>   1</c></rc>
    <rc><c>Pd</c><c>   1</c></rc>
    <rc><c>Pd</c><c>   1</c></rc>
    <rc><c>Pd</c><c>   1</c></rc>
    <rc><c>Pd</c><c>   1</c></rc>
    <rc><c>Pd</c><c>   1</c></rc>
    <rc><c>Pd</c><c>   1</c></rc>
    <rc><c>Pd</c><c>   1</c></rc>
    <rc><c>Pd</c><c>   1</c></rc>
    <rc><c>Pd</c><c>   1</c></rc>
    <rc><c>Pd</c><c>   1</c></rc>
    <rc><c>Pd</c><c>   1</c></rc>
    <rc><c>Pd</c><c>   1</c></rc>
    <rc><c>Pd</c><c>   1</c></rc>
    <rc><c>Pd</c><c>   1</c></rc>
    <rc><c>Pd</c><c>   1</c></rc>
    <rc><c>Pd</c><c>   1</c></rc>
    <rc><c>Pd</c><c>   1</c></rc>
    <rc><c>Pd</c><c>   1</c></rc>
    <rc><c>Pd</c><c>   1</c></rc>
    <rc><c>Pd</c><c>   1</c></rc>
    <rc><c>Pd</c><c>   1</c></rc>
    <rc><c>Pd</c><c>   1</c></rc>
    <rc><c>Pd</c><c>   1</c></rc>
    <rc><c>Pd</c><c>   1</c></rc>
    <rc><c>Pd</c><c>   1</c></rc>
    <rc><c>Pd</c><c>   1</c></rc>
    <rc><c>Pd</c><c>   1</c></rc>
    <rc><c>Pd</c><c>   1</c></rc>
    <rc><c>Pd</c><c>   1</c></rc>
    <rc><c>Pd</c><c>   1</c></rc>
    <rc><c>Pd</c><c>   1</c></rc>
    <rc><c>Pd</c><c>   1</c></rc>
    <rc><c>Pd</c><c>   1</c></rc>
    <rc><c>Pd</c><c>   1</c></rc>
    <rc><c>Pd</c><c>   1</c></rc>
    <rc><c>Pd</c><c>   1</c></rc>
    <rc><c>Pd</c><c>   1</c></rc>
    <rc><c>Pd</c><c>   1</c></rc>
    <rc><c>Pd</c><c>   1</c></rc>
    <rc><c>Pd</c><c>   1</c></rc>
    <rc><c>Pd</c><c>   1</c></rc>
    <rc><c>Pd</c><c>   1</c></rc>
    <rc><c>Pd</c><c>   1</c></rc>
    <rc><c>Pd</c><c>   1</c></rc>
    <rc><c>Pd</c><c>   1</c></rc>
    <rc><c>Pd</c><c>   1</c></rc>
    <rc><c>Pd</c><c>   1</c></rc>
    <rc><c>C </c><c>   2</c></rc>
    <rc><c>O </c><c>   3</c></rc>
   </set>
  </array>
  <array name="atomtypes" >
   <dimension dim="1">type</dimension>
   <field type="int">atomspertype</field>
   <field type="string">element</field>
   <field>mass</field>
   <field>valence</field>
   <field type="string">pseudopotential</field>
   <set>
    <rc><c>  55</c><c>Pd</c><c>    106.42000000</c><c>     10.00000000</c><c>  PAW_PBE Pd 04Jan2005                  </c></rc>
    <rc><c>   1</c><c>C </c><c>     12.01100000</c><c>      4.00000000</c><c>  PAW_PBE C 08Apr2002                   </c></rc>
    <rc><c>   1</c><c>O </c><c>     16.00000000</c><c>      6.00000000</c><c>  PAW_PBE O 08Apr2002                   </c></rc>
   </set>
  </array>
 </atominfo>
 <structure name="initialpos" >
  <crystal>
   <varray name="basis" >
    <v>      30.00000000       0.00000000       0.00000000 </v>
    <v>       0.00000000      30.00000000       0.00000000 </v>
    <v>       0.00000000       0.00000000      30.00000000 </v>
   </varray>
   <i name="volume">  27000.00000000 </i>
   <varray name="rec_basis" >
    <v>       0.03333333       0.00000000       0.00000000 </v>
    <v>       0.00000000       0.03333333       0.00000000 </v>
    <v>       0.00000000       0.00000000       0.03333333 </v>
   </varray>
  </crystal>
  <varray name="positions" >
   <v>       0.44576020       0.32826710       0.41691983 </v>
   <v>       0.67173288       0.55423978       0.41691983 </v>
   <v>       0.55423980       0.32826710       0.41691983 </v>
   <v>       0.32826712       0.55423978       0.41691983 </v>
   <v>       0.50000000       0.38250690       0.34021317 </v>
   <v>       0.50000000       0.38250690       0.65978680 </v>
   <v>       0.50000000       0.27609440       0.50000000 </v>
   <v>       0.27609443       0.49999998       0.50000000 </v>
   <v>       0.72390557       0.49999998       0.50000000 </v>
   <v>       0.50000000       0.72390555       0.50000000 </v>
   <v>       0.61195280       0.38804720       0.34167483 </v>
   <v>       0.61195280       0.38804720       0.65832513 </v>
   <v>       0.38804722       0.61195278       0.34167483 </v>
   <v>       0.38804722       0.61195278       0.65832513 </v>
   <v>       0.38804720       0.38804720       0.34167483 </v>
   <v>       0.38804720       0.38804720       0.65832513 </v>
   <v>       0.61195278       0.61195278       0.34167483 </v>
   <v>       0.61195278       0.61195278       0.65832513 </v>
   <v>       0.44576020       0.32826710       0.58308023 </v>
   <v>       0.67173288       0.55423978       0.58308023 </v>
   <v>       0.55791699       0.44208301       0.41809300 </v>
   <v>       0.32826705       0.44576024       0.41691983 </v>
   <v>       0.55423973       0.67173293       0.41691983 </v>
   <v>       0.55423980       0.32826710       0.58308023 </v>
   <v>       0.32826712       0.55423978       0.58308023 </v>
   <v>       0.67173295       0.44576024       0.41691983 </v>
   <v>       0.44576027       0.67173293       0.41691983 </v>
   <v>       0.44208301       0.44208301       0.41809300 </v>
   <v>       0.50000000       0.38416601       0.50000000 </v>
   <v>       0.61749315       0.50000005       0.34021317 </v>
   <v>       0.61749315       0.50000005       0.65978680 </v>
   <v>       0.38250685       0.50000005       0.34021317 </v>
   <v>       0.38250685       0.50000005       0.65978680 </v>
   <v>       0.38317830       0.38317830       0.50000000 </v>
   <v>       0.61682172       0.61682172       0.50000000 </v>
   <v>       0.61682170       0.38317830       0.50000000 </v>
   <v>       0.38317828       0.61682172       0.50000000 </v>
   <v>       0.50000000       0.50000000       0.33478917 </v>
   <v>       0.50000000       0.50000000       0.66521087 </v>
   <v>       0.32826705       0.44576024       0.58308023 </v>
   <v>       0.55423973       0.67173293       0.58308023 </v>
   <v>       0.55791699       0.44208301       0.58190703 </v>
   <v>       0.44208298       0.55791702       0.41809300 </v>
   <v>       0.44208301       0.44208301       0.58190703 </v>
   <v>       0.67173295       0.44576024       0.58308023 </v>
   <v>       0.44576027       0.67173293       0.58308023 </v>
   <v>       0.55791702       0.55791702       0.41809300 </v>
   <v>       0.38416599       0.50000002       0.50000000 </v>
   <v>       0.61583401       0.50000002       0.50000000 </v>
   <v>       0.50000000       0.61749319       0.34021317 </v>
   <v>       0.50000000       0.61749319       0.65978680 </v>
   <v>       0.50000000       0.50000000       0.50000000 </v>
   <v>       0.44208298       0.55791702       0.58190703 </v>
   <v>       0.55791702       0.55791702       0.58190703 </v>
   <v>       0.50000000       0.61583404       0.50000000 </v>
   <v>       0.28410533       0.53915700       0.37307973 </v>
   <v>       0.25208067       0.54496537       0.35425307 </v>
  </varray>
  <varray name="selective"  type="logical" >
   <v type="logical" >  F  F  F </v>
   <v type="logical" >  F  F  F </v>
   <v type="logical" >  F  F  F </v>
   <v type="logical" >  F  F  F </v>
   <v type="logical" >  F  F  F </v>
   <v type="logical" >  F  F  F </v>
   <v type="logical" >  F  F  F </v>
   <v type="logical" >  F  F  F </v>
   <v type="logical" >  F  F  F </v>
   <v type="logical" >  F  F  F </v>
   <v type="logical" >  F  F  F </v>
   <v type="logical" >  F  F  F </v>
   <v type="logical" >  F  F  F </v>
   <v type="logical" >  F  F  F </v>
   <v type="logical" >  F  F  F </v>
   <v type="logical" >  F  F  F </v>
   <v type="logical" >  F  F  F </v>
   <v type="logical" >  F  F  F </v>
   <v type="logical" >  F  F  F </v>
   <v type="logical" >  F  F  F </v>
   <v type="logical" >  F  F  F </v>
   <v type="logical" >  F  F  F </v>
   <v type="logical" >  F  F  F </v>
   <v type="logical" >  F  F  F </v>
   <v type="logical" >  F  F  F </v>
   <v type="logical" >  F  F  F </v>
   <v type="logical" >  F  F  F </v>
   <v type="logical" >  F  F  F </v>
   <v type="logical" >  F  F  F </v>
   <v type="logical" >  F  F  F </v>
   <v type="logical" >  F  F  F </v>
   <v type="logical" >  F  F  F </v>
   <v type="logical" >  F  F  F </v>
   <v type="logical" >  F  F  F </v>
   <v type="logical" >  F  F  F </v>
   <v type="logical" >  F  F  F </v>
   <v type="logical" >  F  F  F </v>
   <v type="logical" >  F  F  F </v>
   <v type="logical" >  F  F  F </v>
   <v type="logical" >  F  F  F </v>
   <v type="logical" >  F  F  F </v>
   <v type="logical" >  F  F  F </v>
   <v type="logical" >  F  F  F </v>
   <v type="logical" >  F  F  F </v>
   <v type="logical" >  F  F  F </v>
   <v type="logical" >  F  F  F </v>
   <v type="logical" >  F  F  F </v>
   <v type="logical" >  F  F  F </v>
   <v type="logical" >  F  F  F </v>
   <v type="logical" >  F  F  F </v>
   <v type="logical" >  F  F  F </v>
   <v type="logical" >  F  F  F </v>
   <v type="logical" >  F  F  F </v>
   <v type="logical" >  F  F  F </v>
   <v type="logical" >  F  F  F </v>
   <v type="logical" >  F  F  F </v>
   <v type="logical" >  F  F  F </v>
  </varray>
  <nose>
   <v>      -3.00000000       0.00000000       0.00010000       0.00010000 </v>
  </nose>
 </structure>
 <calculation>
  <scstep>
   <time name="dav">  372.29  372.37</time>
   <time name="total">  386.31  386.39</time>
   <energy>
    <i name="alphaZ">     75.25431677 </i>
    <i name="ewald"> 138149.67586107 </i>
    <i name="hartreedc">-181509.71214751 </i>
    <i name="XCdc">  -1703.00518341 </i>
    <i name="pawpsdc">  44873.02882129 </i>
    <i name="pawaedc"> -41398.84523641 </i>
    <i name="eentropy">      0.01423203 </i>
    <i name="bandstr">    818.42405486 </i>
    <i name="atom">  45086.50549395 </i>
    <i name="e_fr_energy">   4391.34021264 </i>
    <i name="e_wo_entrp">   4391.32598061 </i>
    <i name="e_0_energy">   4391.33665464 </i>
   </energy>
  </scstep>
  <scstep>
   <time name="dav">  592.60  592.65</time>
   <time name="total">  592.60  592.65</time>
   <energy>
    <i name="e_fr_energy">   2009.10270619 </i>
    <i name="e_wo_entrp">   2009.14602690 </i>
    <i name="e_0_energy">   2009.11353636 </i>
   </energy>
  </scstep>
  <scstep>
   <time name="dav">  500.50  500.53</time>
   <time name="total">  500.50  500.53</time>
   <energy>
    <i name="e_fr_energy">    229.43291686 </i>
    <i name="e_wo_entrp">    229.45526828 </i>
    <i name="e_0_energy">    229.43850472 </i>
   </energy>
  </scstep>
  <scstep>
   <time name="dav">  428.89  428.89</time>
   <time name="total">  428.89  428.89</time>
   <energy>
    <i name="e_fr_energy">   -135.10522570 </i>
    <i name="e_wo_entrp">   -135.14172824 </i>
    <i name="e_0_energy">   -135.11435133 </i>
   </energy>
  </scstep>
  <scstep>
   <time name="dav">  521.05  521.05</time>
   <time name="total">  547.55  547.54</time>
   <energy>
    <i name="e_fr_energy">   -179.84512389 </i>
    <i name="e_wo_entrp">   -180.28106222 </i>
    <i name="e_0_energy">   -179.95410848 </i>
   </energy>
  </scstep>
  <scstep>
   <time name="diag">   67.63   67.63</time>
   <time name="diis">  192.40  192.40</time>
   <time name="orth">   13.05   13.05</time>
   <time name="total">  313.51  313.51</time>
   <energy>
    <i name="e_fr_energy">   -182.03220871 </i>
    <i name="e_wo_entrp">   -182.01989371 </i>
    <i name="e_0_energy">   -182.02912996 </i>
   </energy>
  </scstep>
  <scstep>
   <time name="diag">   66.46   66.46</time>
   <time name="diis">  229.93  229.93</time>
   <time name="orth">   12.95   12.95</time>
   <time name="total">  348.92  348.92</time>
   <energy>
    <i name="e_fr_energy">   -183.64981311 </i>
    <i name="e_wo_entrp">   -183.70116419 </i>
    <i name="e_0_energy">   -183.66265088 </i>
   </energy>
  </scstep>
  <scstep>
   <time name="diag">   65.84   65.84</time>
   <time name="diis">  203.50  203.50</time>
   <time name="orth">   12.58   12.58</time>
   <time name="total">  321.24  321.25</time>
   <energy>
    <i name="e_fr_energy">   -184.17848316 </i>
    <i name="e_wo_entrp">   -184.00583635 </i>
    <i name="e_0_energy">   -184.13532146 </i>
   </energy>
  </scstep>
  <scstep>
   <time name="diag">   64.83   64.83</time>
   <time name="diis">  186.52  186.52</time>
   <time name="orth">   12.85   12.84</time>
   <time name="total">  302.87  302.88</time>
   <energy>
    <i name="e_fr_energy">   -182.07382066 </i>
    <i name="e_wo_entrp">   -181.99554831 </i>
    <i name="e_0_energy">   -182.05425257 </i>
   </energy>
  </scstep>
  <scstep>
   <time name="diag">   65.37   65.37</time>
   <time name="diis">  194.06  194.06</time>
   <time name="orth">   12.87   12.87</time>
   <time name="total">  310.65  310.65</time>
   <energy>
    <i name="e_fr_energy">   -180.54504389 </i>
    <i name="e_wo_entrp">   -180.38420734 </i>
    <i name="e_0_energy">   -180.50483476 </i>
   </energy>
  </scstep>
  <scstep>
   <time name="diag">   63.85   63.85</time>
   <time name="diis">  187.38  187.38</time>
   <time name="orth">   12.87   12.87</time>
   <time name="total">  302.14  302.14</time>
   <energy>
    <i name="e_fr_energy">   -178.93856534 </i>
    <i name="e_wo_entrp">   -178.76183970 </i>
    <i name="e_0_energy">   -178.89438393 </i>
   </energy>
  </scstep>
  <scstep>
   <time name="diag">   65.07   65.07</time>
   <time name="diis">  190.45  190.45</time>
   <time name="orth">   12.54   12.54</time>
   <time name="total">  306.82  306.83</time>
   <energy>
    <i name="e_fr_energy">   -177.71797580 </i>
    <i name="e_wo_entrp">   -177.61405038 </i>
    <i name="e_0_energy">   -177.69199445 </i>
   </energy>
  </scstep>
  <scstep>
   <time name="diag">   64.64   64.64</time>
   <time name="diis">  189.97  189.97</time>
   <time name="orth">   12.30   12.30</time>
   <time name="total">  305.26  305.26</time>
   <energy>
    <i name="e_fr_energy">   -178.33055514 </i>
    <i name="e_wo_entrp">   -178.39783195 </i>
    <i name="e_0_energy">   -178.34737434 </i>
   </energy>
  </scstep>
  <scstep>
   <time name="diag">   64.50   64.50</time>
   <time name="diis">  190.14  190.14</time>
   <time name="orth">   12.23   12.22</time>
   <time name="total">  304.36  304.36</time>
   <energy>
    <i name="e_fr_energy">   -177.64217409 </i>
    <i name="e_wo_entrp">   -177.47851936 </i>
    <i name="e_0_energy">   -177.60126041 </i>
   </energy>
  </scstep>
  <scstep>
   <time name="diag">   64.64   64.64</time>
   <time name="diis">  185.50  185.50</time>
   <time name="orth">   12.24   12.24</time>
   <time name="total">  300.17  300.18</time>
   <energy>
    <i name="e_fr_energy">   -176.78886920 </i>
    <i name="e_wo_entrp">   -176.75538309 </i>
    <i name="e_0_energy">   -176.78049767 </i>
   </energy>
  </scstep>
  <scstep>
   <time name="diag">   65.05   65.05</time>
   <time name="diis">  188.01  188.01</time>
   <time name="orth">   12.52   12.52</time>
   <time name="total">  304.05  304.05</time>
   <energy>
    <i name="e_fr_energy">   -176.79134582 </i>
    <i name="e_wo_entrp">   -176.80726162 </i>
    <i name="e_0_energy">   -176.79532477 </i>
   </energy>
  </scstep>
  <scstep>
   <time name="diag">   65.72   65.72</time>
   <time name="diis">  186.84  186.84</time>
   <time name="orth">   12.62   12.62</time>
   <time name="total">  303.89  303.90</time>
   <energy>
    <i name="e_fr_energy">   -176.40621166 </i>
    <i name="e_wo_entrp">   -176.34365105 </i>
    <i name="e_0_energy">   -176.39057151 </i>
   </energy>
  </scstep>
  <scstep>
   <time name="diag">   65.94   65.94</time>
   <time name="diis">  190.37  190.37</time>
   <time name="orth">   12.73   12.73</time>
   <time name="total">  307.26  307.26</time>
   <energy>
    <i name="e_fr_energy">   -176.45949009 </i>
    <i name="e_wo_entrp">   -176.43967991 </i>
    <i name="e_0_energy">   -176.45453755 </i>
   </energy>
  </scstep>
  <scstep>
   <time name="diag">   65.56   65.56</time>
   <time name="diis">  191.44  191.44</time>
   <time name="orth">   12.71   12.71</time>
   <time name="total">  307.73  307.73</time>
   <energy>
    <i name="e_fr_energy">   -175.97070654 </i>
    <i name="e_wo_entrp">   -175.89542464 </i>
    <i name="e_0_energy">   -175.95188607 </i>
   </energy>
  </scstep>
  <scstep>
   <time name="diag">   66.59   66.59</time>
   <time name="diis">  189.15  189.15</time>
   <time name="orth">   12.86   12.86</time>
   <time name="total">  308.58  308.58</time>
   <energy>
    <i name="e_fr_energy">   -175.95402246 </i>
    <i name="e_wo_entrp">   -175.91212429 </i>
    <i name="e_0_energy">   -175.94354792 </i>
   </energy>
  </scstep>
  <scstep>
   <time name="diag">   67.20   67.20</time>
   <time name="diis">  188.68  188.68</time>
   <time name="orth">   12.77   12.77</time>
   <time name="total">  308.04  308.04</time>
   <energy>
    <i name="e_fr_energy">   -175.78631469 </i>
    <i name="e_wo_entrp">   -175.70254213 </i>
    <i name="e_0_energy">   -175.76537155 </i>
   </energy>
  </scstep>
  <scstep>
   <time name="diag">   65.81   65.81</time>
   <time name="diis">  189.53  189.53</time>
   <time name="orth">   12.76   12.76</time>
   <time name="total">  308.13  308.13</time>
   <energy>
    <i name="e_fr_energy">   -175.61471695 </i>
    <i name="e_wo_entrp">   -175.46908098 </i>
    <i name="e_0_energy">   -175.57830796 </i>
   </energy>
  </scstep>
  <scstep>
   <time name="diag">   65.42   65.42</time>
   <time name="diis">  187.28  187.28</time>
   <time name="orth">   13.07   13.07</time>
   <time name="total">  305.43  305.44</time>
   <energy>
    <i name="e_fr_energy">   -175.41982724 </i>
    <i name="e_wo_entrp">   -175.25985268 </i>
    <i name="e_0_energy">   -175.37983360 </i>
   </energy>
  </scstep>
  <scstep>
   <time name="diag">   65.16   65.16</time>
   <time name="diis">  186.23  186.23</time>
   <time name="orth">   12.72   12.72</time>
   <time name="total">  304.36  304.36</time>
   <energy>
    <i name="e_fr_energy">   -175.38094479 </i>
    <i name="e_wo_entrp">   -175.25188480 </i>
    <i name="e_0_energy">   -175.34867979 </i>
   </energy>
  </scstep>
  <scstep>
   <time name="diag">   65.60   65.60</time>
   <time name="diis">  184.83  184.83</time>
   <time name="orth">   12.83   12.83</time>
   <time name="total">  303.48  303.48</time>
   <energy>
    <i name="e_fr_energy">   -175.24744031 </i>
    <i name="e_wo_entrp">   -175.13497379 </i>
    <i name="e_0_energy">   -175.21932368 </i>
   </energy>
  </scstep>
  <scstep>
   <time name="diag">   66.56   66.56</time>
   <time name="diis">  185.18  185.18</time>
   <time name="orth">   12.98   12.98</time>
   <time name="total">  306.05  306.06</time>
   <energy>
    <i name="e_fr_energy">   -175.14885897 </i>
    <i name="e_wo_entrp">   -175.04017491 </i>
    <i name="e_0_energy">   -175.12168796 </i>
   </energy>
  </scstep>
  <scstep>
   <time name="diag">   65.35   65.35</time>
   <time name="diis">  184.68  184.68</time>
   <time name="orth">   12.67   12.67</time>
   <time name="total">  302.84  302.85</time>
   <energy>
    <i name="e_fr_energy">   -175.13335218 </i>
    <i name="e_wo_entrp">   -175.01706391 </i>
    <i name="e_0_energy">   -175.10428011 </i>
   </energy>
  </scstep>
  <scstep>
   <time name="diag">   65.75   65.75</time>
   <time name="diis">  180.53  180.54</time>
   <time name="orth">   12.29   12.29</time>
   <time name="total">  297.44  297.45</time>
   <energy>
    <i name="e_fr_energy">   -175.09541685 </i>
    <i name="e_wo_entrp">   -174.98152500 </i>
    <i name="e_0_energy">   -175.06694389 </i>
   </energy>
  </scstep>
  <scstep>
   <time name="diag">   63.94   63.94</time>
   <time name="diis">  179.99  180.00</time>
   <time name="orth">   13.13   13.13</time>
   <time name="total">  296.95  296.96</time>
   <energy>
    <i name="e_fr_energy">   -175.04439576 </i>
    <i name="e_wo_entrp">   -174.91556746 </i>
    <i name="e_0_energy">   -175.01218869 </i>
   </energy>
  </scstep>
  <scstep>
   <time name="diag">   65.18   65.18</time>
   <time name="diis">  180.83  180.84</time>
   <time name="orth">   12.68   12.68</time>
   <time name="total">  299.14  299.15</time>
   <energy>
    <i name="e_fr_energy">   -175.03791175 </i>
    <i name="e_wo_entrp">   -174.91761741 </i>
    <i name="e_0_energy">   -175.00783817 </i>
   </energy>
  </scstep>
  <scstep>
   <time name="diag">   66.55   66.56</time>
   <time name="diis">  180.10  180.11</time>
   <time name="orth">   12.86   12.86</time>
   <time name="total">  300.97  300.99</time>
   <energy>
    <i name="e_fr_energy">   -175.02274640 </i>
    <i name="e_wo_entrp">   -174.89356917 </i>
    <i name="e_0_energy">   -174.99045210 </i>
   </energy>
  </scstep>
  <scstep>
   <time name="diag">   66.15   66.15</time>
   <time name="diis">  180.59  180.60</time>
   <time name="orth">   12.69   12.69</time>
   <time name="total">  299.76  299.77</time>
   <energy>
    <i name="e_fr_energy">   -175.00485653 </i>
    <i name="e_wo_entrp">   -174.87828861 </i>
    <i name="e_0_energy">   -174.97321455 </i>
   </energy>
  </scstep>
  <scstep>
   <time name="diag">   65.65   65.65</time>
   <time name="diis">  177.80  177.81</time>
   <time name="orth">   12.65   12.65</time>
   <time name="total">  296.65  296.66</time>
   <energy>
    <i name="e_fr_energy">   -175.00288593 </i>
    <i name="e_wo_entrp">   -174.87887323 </i>
    <i name="e_0_energy">   -174.97188276 </i>
   </energy>
  </scstep>
  <scstep>
   <time name="diag">   65.78   65.79</time>
   <time name="diis">  173.86  173.86</time>
   <time name="orth">   12.70   12.70</time>
   <time name="total">  293.34  293.35</time>
   <energy>
    <i name="e_fr_energy">   -174.99428417 </i>
    <i name="e_wo_entrp">   -174.86808574 </i>
    <i name="e_0_energy">   -174.96273456 </i>
   </energy>
  </scstep>
  <scstep>
   <time name="diag">   65.12   65.13</time>
   <time name="diis">  176.69  176.71</time>
   <time name="orth">   12.66   12.65</time>
   <time name="total">  295.00  295.03</time>
   <energy>
    <i name="e_fr_energy">   -174.99061577 </i>
    <i name="e_wo_entrp">   -174.86097140 </i>
    <i name="e_0_energy">   -174.95820467 </i>
   </energy>
  </scstep>
  <scstep>
   <time name="diag">   66.22   66.22</time>
   <time name="diis">  177.76  177.78</time>
   <time name="orth">   12.71   12.71</time>
   <time name="total">  297.66  297.69</time>
   <energy>
    <i name="e_fr_energy">   -174.99262172 </i>
    <i name="e_wo_entrp">   -174.85928519 </i>
    <i name="e_0_energy">   -174.95928759 </i>
   </energy>
  </scstep>
  <scstep>
   <time name="diag">   65.80   65.81</time>
   <time name="diis">  178.10  178.11</time>
   <time name="orth">   12.92   12.92</time>
   <time name="total">  298.69  298.71</time>
   <energy>
    <i name="e_fr_energy">   -174.99145035 </i>
    <i name="e_wo_entrp">   -174.86386880 </i>
    <i name="e_0_energy">   -174.95955496 </i>
   </energy>
  </scstep>
  <scstep>
   <time name="diag">   66.85   66.85</time>
   <time name="diis">  178.23  178.24</time>
   <time name="orth">   12.67   12.67</time>
   <time name="total">  300.18  300.19</time>
   <energy>
    <i name="e_fr_energy">   -174.99179100 </i>
    <i name="e_wo_entrp">   -174.86551638 </i>
    <i name="e_0_energy">   -174.96022235 </i>
   </energy>
  </scstep>
  <scstep>
   <time name="diag">   67.11   67.11</time>
   <time name="diis">  180.34  180.34</time>
   <time name="orth">   12.96   12.96</time>
   <time name="total">  301.85  301.85</time>
   <energy>
    <i name="e_fr_energy">   -174.99313183 </i>
    <i name="e_wo_entrp">   -174.86905067 </i>
    <i name="e_0_energy">   -174.96211154 </i>
   </energy>
  </scstep>
  <scstep>
   <time name="diag">   66.87   66.87</time>
   <time name="diis">  180.04  180.04</time>
   <time name="orth">   12.64   12.64</time>
   <time name="total">  300.93  300.93</time>
   <energy>
    <i name="e_fr_energy">   -174.99442245 </i>
    <i name="e_wo_entrp">   -174.86804326 </i>
    <i name="e_0_energy">   -174.96282765 </i>
   </energy>
  </scstep>
  <scstep>
   <time name="diag">   66.17   66.17</time>
   <time name="diis">  178.24  178.24</time>
   <time name="orth">   12.63   12.63</time>
   <time name="total">  298.32  298.33</time>
   <energy>
    <i name="e_fr_energy">   -174.99648479 </i>
    <i name="e_wo_entrp">   -174.86926019 </i>
    <i name="e_0_energy">   -174.96467864 </i>
   </energy>
  </scstep>
  <scstep>
   <time name="diag">   66.32   66.32</time>
   <time name="diis">  146.15  146.15</time>
   <time name="orth">   12.66   12.66</time>
   <time name="total">  266.71  266.72</time>
   <energy>
    <i name="e_fr_energy">   -174.99765608 </i>
    <i name="e_wo_entrp">   -174.86923203 </i>
    <i name="e_0_energy">   -174.96555007 </i>
   </energy>
  </scstep>
  <scstep>
   <time name="diag">   65.88   65.88</time>
   <time name="diis">  129.54  129.55</time>
   <time name="orth">   12.93   12.93</time>
   <time name="total">  251.04  251.05</time>
   <energy>
    <i name="e_fr_energy">   -174.99960391 </i>
    <i name="e_wo_entrp">   -174.87192625 </i>
    <i name="e_0_energy">   -174.96768450 </i>
   </energy>
  </scstep>
  <scstep>
   <time name="diag">   67.29   67.29</time>
   <time name="diis">  120.67  120.68</time>
   <time name="orth">   12.94   12.94</time>
   <time name="total">  243.62  243.62</time>
   <energy>
    <i name="e_fr_energy">   -175.00132649 </i>
    <i name="e_wo_entrp">   -174.87309083 </i>
    <i name="e_0_energy">   -174.96926757 </i>
   </energy>
  </scstep>
  <scstep>
   <time name="diag">   68.24   68.25</time>
   <time name="diis">  124.43  124.43</time>
   <time name="orth">   12.83   12.83</time>
   <time name="total">  248.67  248.67</time>
   <energy>
    <i name="e_fr_energy">   -175.00349827 </i>
    <i name="e_wo_entrp">   -174.87462256 </i>
    <i name="e_0_energy">   -174.97127934 </i>
   </energy>
  </scstep>
  <scstep>
   <time name="diag">   67.01   67.02</time>
   <time name="diis">  155.94  155.94</time>
   <time name="orth">   12.94   12.94</time>
   <time name="total">  278.97  278.97</time>
   <energy>
    <i name="e_fr_energy">   -175.00712993 </i>
    <i name="e_wo_entrp">   -174.87746246 </i>
    <i name="e_0_energy">   -174.97471306 </i>
   </energy>
  </scstep>
  <scstep>
   <time name="diag">   67.08   67.08</time>
   <time name="diis">  123.03  123.03</time>
   <time name="orth">   13.10   13.10</time>
   <time name="total">  246.75  246.75</time>
   <energy>
    <i name="e_fr_energy">   -175.00831762 </i>
    <i name="e_wo_entrp">   -174.87862159 </i>
    <i name="e_0_energy">   -174.97589361 </i>
   </energy>
  </scstep>
  <scstep>
   <time name="diag">   66.81   66.81</time>
   <time name="diis">  124.54  124.54</time>
   <time name="orth">   12.96   12.96</time>
   <time name="total">  248.76  248.76</time>
   <energy>
    <i name="e_fr_energy">   -175.01020067 </i>
    <i name="e_wo_entrp">   -174.88114404 </i>
    <i name="e_0_energy">   -174.97793651 </i>
   </energy>
  </scstep>
  <scstep>
   <time name="diag">   67.55   67.55</time>
   <time name="diis">  119.11  119.11</time>
   <time name="orth">   12.47   12.47</time>
   <time name="total">  243.09  243.09</time>
   <energy>
    <i name="e_fr_energy">   -175.01148966 </i>
    <i name="e_wo_entrp">   -174.88403315 </i>
    <i name="e_0_energy">   -174.97962553 </i>
   </energy>
  </scstep>
  <scstep>
   <time name="diag">   68.16   68.16</time>
   <time name="diis">  119.71  119.71</time>
   <time name="orth">   12.91   12.91</time>
   <time name="total">  244.33  244.33</time>
   <energy>
    <i name="e_fr_energy">   -175.01294047 </i>
    <i name="e_wo_entrp">   -174.88522556 </i>
    <i name="e_0_energy">   -174.98101174 </i>
   </energy>
  </scstep>
  <scstep>
   <time name="diag">   66.56   66.57</time>
   <time name="diis">  121.25  121.25</time>
   <time name="orth">   12.99   12.99</time>
   <time name="total">  243.83  243.83</time>
   <energy>
    <i name="e_fr_energy">   -175.01374718 </i>
    <i name="e_wo_entrp">   -174.88596786 </i>
    <i name="e_0_energy">   -174.98180235 </i>
   </energy>
  </scstep>
  <scstep>
   <time name="diag">   67.38   67.39</time>
   <time name="diis">  118.69  118.69</time>
   <time name="orth">   13.29   13.29</time>
   <time name="total">  243.74  243.74</time>
   <energy>
    <i name="e_fr_energy">   -175.01437998 </i>
    <i name="e_wo_entrp">   -174.88629680 </i>
    <i name="e_0_energy">   -174.98235919 </i>
   </energy>
  </scstep>
  <scstep>
   <time name="diag">   66.92   66.92</time>
   <time name="diis">  117.69  117.69</time>
   <time name="orth">   12.87   12.87</time>
   <time name="total">  241.03  241.03</time>
   <energy>
    <i name="e_fr_energy">   -175.01533605 </i>
    <i name="e_wo_entrp">   -174.88741668 </i>
    <i name="e_0_energy">   -174.98335621 </i>
   </energy>
  </scstep>
  <scstep>
   <time name="diag">   69.17   69.17</time>
   <time name="diis">  116.60  116.60</time>
   <time name="orth">   12.88   12.88</time>
   <time name="total">  242.30  242.30</time>
   <energy>
    <i name="e_fr_energy">   -175.01568759 </i>
    <i name="e_wo_entrp">   -174.88788013 </i>
    <i name="e_0_energy">   -174.98373572 </i>
   </energy>
  </scstep>
  <scstep>
   <time name="diag">   67.31   67.31</time>
   <time name="diis">  118.39  118.39</time>
   <time name="orth">   12.75   12.75</time>
   <time name="total">  241.61  241.61</time>
   <energy>
    <i name="e_fr_energy">   -175.01643956 </i>
    <i name="e_wo_entrp">   -174.88839019 </i>
    <i name="e_0_energy">   -174.98442722 </i>
   </energy>
  </scstep>
  <scstep>
   <time name="diag">   66.74   66.74</time>
   <time name="diis">  104.69  104.69</time>
   <time name="orth">   13.40   13.40</time>
   <time name="total">  228.49  228.49</time>
   <energy>
    <i name="e_fr_energy">   -175.01664437 </i>
    <i name="e_wo_entrp">   -174.88866167 </i>
    <i name="e_0_energy">   -174.98464869 </i>
   </energy>
  </scstep>
  <scstep>
   <time name="diag">   65.68   65.68</time>
   <time name="diis">   92.33   92.33</time>
   <time name="orth">   13.05   13.05</time>
   <time name="total">  214.85  214.85</time>
   <energy>
    <i name="e_fr_energy">   -175.01703278 </i>
    <i name="e_wo_entrp">   -174.88910621 </i>
    <i name="e_0_energy">   -174.98505114 </i>
   </energy>
  </scstep>
  <scstep>
   <time name="diag">   69.29   69.29</time>
   <time name="diis">   85.79   85.79</time>
   <time name="orth">   12.62   12.62</time>
   <time name="total">  211.76  211.77</time>
   <energy>
    <i name="e_fr_energy">   -175.01736834 </i>
    <i name="e_wo_entrp">   -174.88948565 </i>
    <i name="e_0_energy">   -174.98539767 </i>
   </energy>
  </scstep>
  <scstep>
   <time name="diag">   68.10   68.10</time>
   <time name="diis">   93.73   93.73</time>
   <time name="orth">   12.28   12.28</time>
   <time name="total">  217.39  217.39</time>
   <energy>
    <i name="e_fr_energy">   -175.01760434 </i>
    <i name="e_wo_entrp">   -174.88961059 </i>
    <i name="e_0_energy">   -174.98560590 </i>
   </energy>
  </scstep>
  <scstep>
   <time name="diag">   66.72   66.72</time>
   <time name="diis">   89.93   89.93</time>
   <time name="orth">   12.92   12.92</time>
   <time name="total">  213.04  213.04</time>
   <energy>
    <i name="e_fr_energy">   -175.01793211 </i>
    <i name="e_wo_entrp">   -174.88998797 </i>
    <i name="e_0_energy">   -174.98594607 </i>
   </energy>
  </scstep>
  <scstep>
   <time name="diag">   66.49   66.49</time>
   <time name="diis">   79.08   79.08</time>
   <time name="orth">   12.82   12.82</time>
   <time name="total">  172.37  172.37</time>
   <energy>
    <i name="alphaZ">     75.25431677 </i>
    <i name="ewald"> 138149.67586107 </i>
    <i name="hartreedc">-182498.53023019 </i>
    <i name="XCdc">  -1692.45689200 </i>
    <i name="pawpsdc">  46182.93713051 </i>
    <i name="pawaedc"> -42654.31925777 </i>
    <i name="eentropy">     -0.12784562 </i>
    <i name="bandstr">  -2823.95659681 </i>
    <i name="atom">  45086.50549395 </i>
    <i name="e_fr_energy">   -175.01802010 </i>
    <i name="e_wo_entrp">   -174.89017448 </i>
    <i name="e_0_energy">   -174.98605869 </i>
   </energy>
  </scstep>
  <structure>
   <crystal>
    <varray name="basis" >
     <v>      30.00000000       0.00000000       0.00000000 </v>
     <v>       0.00000000      30.00000000       0.00000000 </v>
     <v>       0.00000000       0.00000000      30.00000000 </v>
    </varray>
    <i name="volume">  27000.00000000 </i>
    <varray name="rec_basis" >
     <v>       0.03333333       0.00000000       0.00000000 </v>
     <v>       0.00000000       0.03333333       0.00000000 </v>
     <v>       0.00000000       0.00000000       0.03333333 </v>
    </varray>
   </crystal>
   <varray name="positions" >
    <v>       0.44576020       0.32826710       0.41691983 </v>
    <v>       0.67173288       0.55423978       0.41691983 </v>
    <v>       0.55423980       0.32826710       0.41691983 </v>
    <v>       0.32826712       0.55423978       0.41691983 </v>
    <v>       0.50000000       0.38250690       0.34021317 </v>
    <v>       0.50000000       0.38250690       0.65978680 </v>
    <v>       0.50000000       0.27609440       0.50000000 </v>
    <v>       0.27609443       0.49999998       0.50000000 </v>
    <v>       0.72390557       0.49999998       0.50000000 </v>
    <v>       0.50000000       0.72390555       0.50000000 </v>
    <v>       0.61195280       0.38804720       0.34167483 </v>
    <v>       0.61195280       0.38804720       0.65832513 </v>
    <v>       0.38804722       0.61195278       0.34167483 </v>
    <v>       0.38804722       0.61195278       0.65832513 </v>
    <v>       0.38804720       0.38804720       0.34167483 </v>
    <v>       0.38804720       0.38804720       0.65832513 </v>
    <v>       0.61195278       0.61195278       0.34167483 </v>
    <v>       0.61195278       0.61195278       0.65832513 </v>
    <v>       0.44576020       0.32826710       0.58308023 </v>
    <v>       0.67173288       0.55423978       0.58308023 </v>
    <v>       0.55791699       0.44208301       0.41809300 </v>
    <v>       0.32826705       0.44576024       0.41691983 </v>
    <v>       0.55423973       0.67173293       0.41691983 </v>
    <v>       0.55423980       0.32826710       0.58308023 </v>
    <v>       0.32826712       0.55423978       0.58308023 </v>
    <v>       0.67173295       0.44576024       0.41691983 </v>
    <v>       0.44576027       0.67173293       0.41691983 </v>
    <v>       0.44208301       0.44208301       0.41809300 </v>
    <v>       0.50000000       0.38416601       0.50000000 </v>
    <v>       0.61749315       0.50000005       0.34021317 </v>
    <v>       0.61749315       0.50000005       0.65978680 </v>
    <v>       0.38250685       0.50000005       0.34021317 </v>
    <v>       0.38250685       0.50000005       0.65978680 </v>
    <v>       0.38317830       0.38317830       0.50000000 </v>
    <v>       0.61682172       0.61682172       0.50000000 </v>
    <v>       0.61682170       0.38317830       0.50000000 </v>
    <v>       0.38317828       0.61682172       0.50000000 </v>
    <v>       0.50000000       0.50000000       0.33478917 </v>
    <v>       0.50000000       0.50000000       0.66521087 </v>
    <v>       0.32826705       0.44576024       0.58308023 </v>
    <v>       0.55423973       0.67173293       0.58308023 </v>
    <v>       0.55791699       0.44208301       0.58190703 </v>
    <v>       0.44208298       0.55791702       0.41809300 </v>
    <v>       0.44208301       0.44208301       0.58190703 </v>
    <v>       0.67173295       0.44576024       0.58308023 </v>
    <v>       0.44576027       0.67173293       0.58308023 </v>
    <v>       0.55791702       0.55791702       0.41809300 </v>
    <v>       0.38416599       0.50000002       0.50000000 </v>
    <v>       0.61583401       0.50000002       0.50000000 </v>
    <v>       0.50000000       0.61749319       0.34021317 </v>
    <v>       0.50000000       0.61749319       0.65978680 </v>
    <v>       0.50000000       0.50000000       0.50000000 </v>
    <v>       0.44208298       0.55791702       0.58190703 </v>
    <v>       0.55791702       0.55791702       0.58190703 </v>
    <v>       0.50000000       0.61583404       0.50000000 </v>
    <v>       0.28410533       0.53915700       0.37307973 </v>
    <v>       0.25208067       0.54496537       0.35425307 </v>
   </varray>
  </structure>
  <varray name="forces" >
   <v>       0.69816967       1.11018701       0.28610132 </v>
   <v>      -1.11811991      -0.70346442       0.27797581 </v>
   <v>      -0.70201784       1.10860327       0.29345345 </v>
   <v>       0.49194043      -0.95507527      -0.35382574 </v>
   <v>      -0.00790042       0.41340308       1.27883029 </v>
   <v>      -0.01569325       0.40915679      -1.28789724 </v>
   <v>       0.00119228       1.52183902       0.00973293 </v>
   <v>       1.52242093      -0.01456454       0.05370766 </v>
   <v>      -1.51920797      -0.00000146      -0.00317396 </v>
   <v>       0.00594548      -1.52035428       0.00711947 </v>
   <v>      -0.75153602       0.76508683       1.07723057 </v>
   <v>      -0.75950559       0.75530664      -1.07376518 </v>
   <v>       0.80131012      -0.72755596       1.06476864 </v>
   <v>       0.76607657      -0.75606521      -1.07048485 </v>
   <v>       0.77542309       0.76639838       1.09240086 </v>
   <v>       0.77498633       0.74998941      -1.07398663 </v>
   <v>      -0.74410386      -0.76937996       1.08046964 </v>
   <v>      -0.76545607      -0.75154410      -1.07535168 </v>
   <v>       0.71915595       1.10735415      -0.27775096 </v>
   <v>      -1.10826806      -0.70948581      -0.28987692 </v>
   <v>       0.11628360      -0.11006585      -0.15882988 </v>
   <v>       1.08709439       0.61216508       0.28843465 </v>
   <v>      -0.71021972      -1.10865210       0.29100797 </v>
   <v>      -0.71816320       1.10628252      -0.29690646 </v>
   <v>       1.10321130      -0.70886816      -0.28812372 </v>
   <v>      -1.11789253       0.70700362       0.28058466 </v>
   <v>       0.70809325      -1.10456472       0.28500790 </v>
   <v>      -0.09686115      -0.11920253      -0.15121515 </v>
   <v>       0.00039463      -0.23202857       0.00519832 </v>
   <v>      -0.39523390       0.00135880       1.29159898 </v>
   <v>      -0.40968102      -0.00157456      -1.28522047 </v>
   <v>       0.42803858      -0.03371658       1.20296569 </v>
   <v>       0.41058837       0.00208910      -1.28566872 </v>
   <v>       0.82132767       0.83184991      -0.02282324 </v>
   <v>      -0.82613101      -0.82523914       0.00166878 </v>
   <v>      -0.82654681       0.82649549      -0.00010470 </v>
   <v>       0.82557517      -0.89379865      -0.04479552 </v>
   <v>      -0.02080861      -0.01174513       1.17482861 </v>
   <v>       0.00044798       0.00167156      -1.17354799 </v>
   <v>       1.09854235       0.71420153      -0.29140174 </v>
   <v>      -0.71734672      -1.10998823      -0.28626552 </v>
   <v>       0.11534543      -0.10713461       0.15594417 </v>
   <v>      -0.06999924       0.12907474      -0.10605569 </v>
   <v>      -0.09898057      -0.13316302       0.17677621 </v>
   <v>      -1.10895884       0.70973827      -0.28806890 </v>
   <v>       0.74764679      -1.10302597      -0.25691052 </v>
   <v>       0.14156339       0.10825907      -0.16213862 </v>
   <v>      -0.18651839       0.02759939       0.03736873 </v>
   <v>       0.22817293      -0.00034343       0.00549330 </v>
   <v>      -0.00889048      -0.40242648       1.28171765 </v>
   <v>      -0.00201244      -0.40400374      -1.29186741 </v>
   <v>      -0.01965256      -0.00219795      -0.01538233 </v>
   <v>      -0.12097673       0.11401843       0.15081059 </v>
   <v>       0.11020869       0.11361911       0.15734967 </v>
   <v>      -0.00972685       0.23014267      -0.00476936 </v>
   <v>       4.23849349       0.06236165       3.12536724 </v>
   <v>      -3.78123908       0.31397488      -2.51770462 </v>
  </varray>
  <varray name="stress" >
   <v>      -6.56288651      -0.04549101       0.09082242 </v>
   <v>      -0.04549098      -6.75400175      -0.04756128 </v>
   <v>       0.09082240      -0.04756126      -6.70787198 </v>
  </varray>
  <energy>
   <i name="e_fr_energy">   -175.01802010 </i>
   <i name="e_wo_entrp">   -174.98605869 </i>
   <i name="e_0_energy">     -0.12784562 </i>
  </energy>
  <time name="totalsc">18507.9218508.43</time>
  <eigenvalues>
   <array>
    <dimension dim="1">band</dimension>
    <dimension dim="2">kpoint</dimension>
    <dimension dim="3">spin</dimension>
    <field>eigene</field>
    <field>occ</field>
    <set>
     <set comment="spin 1">
      <set comment="kpoint 1">
       <r>  -28.5784    1.0000 </r>
       <r>  -13.4538    1.0000 </r>
       <r>  -11.1986    1.0000 </r>
       <r>  -11.0286    1.0000 </r>
       <r>  -10.6019    1.0000 </r>
       <r>   -6.6642    1.0000 </r>
       <r>   -6.2941    1.0000 </r>
       <r>   -6.2744    1.0000 </r>
       <r>   -6.1797    1.0000 </r>
       <r>   -6.1375    1.0000 </r>
       <r>   -6.1317    1.0000 </r>
       <r>   -5.8996    1.0000 </r>
       <r>   -5.8470    1.0000 </r>
       <r>   -5.8262    1.0000 </r>
       <r>   -5.7865    1.0000 </r>
       <r>   -5.7640    1.0000 </r>
       <r>   -5.7348    1.0000 </r>
       <r>   -5.7051    1.0000 </r>
       <r>   -5.6971    1.0000 </r>
       <r>   -5.6967    1.0000 </r>
       <r>   -5.6797    1.0000 </r>
       <r>   -5.6371    1.0000 </r>
       <r>   -5.6357    1.0000 </r>
       <r>   -5.6241    1.0000 </r>
       <r>   -5.6082    1.0000 </r>
       <r>   -5.5934    1.0000 </r>
       <r>   -5.5917    1.0000 </r>
       <r>   -5.5683    1.0000 </r>
       <r>   -5.5613    1.0000 </r>
       <r>   -5.5612    1.0000 </r>
       <r>   -5.5548    1.0000 </r>
       <r>   -5.5375    1.0000 </r>
       <r>   -5.5321    1.0000 </r>
       <r>   -5.5303    1.0000 </r>
       <r>   -5.5265    1.0000 </r>
       <r>   -5.5256    1.0000 </r>
       <r>   -5.5219    1.0000 </r>
       <r>   -5.5135    1.0000 </r>
       <r>   -5.5047    1.0000 </r>
       <r>   -5.4950    1.0000 </r>
       <r>   -5.4870    1.0000 </r>
       <r>   -5.4853    1.0000 </r>
       <r>   -5.4827    1.0000 </r>
       <r>   -5.4801    1.0000 </r>
       <r>   -5.4784    1.0000 </r>
       <r>   -5.4626    1.0000 </r>
       <r>   -5.4444    1.0000 </r>
       <r>   -5.4429    1.0000 </r>
       <r>   -5.4406    1.0000 </r>
       <r>   -5.4388    1.0000 </r>
       <r>   -5.4349    1.0000 </r>
       <r>   -5.4304    1.0000 </r>
       <r>   -5.4227    1.0000 </r>
       <r>   -5.4204    1.0000 </r>
       <r>   -5.4167    1.0000 </r>
       <r>   -5.4153    1.0000 </r>
       <r>   -5.3980    1.0000 </r>
       <r>   -5.3466    1.0000 </r>
       <r>   -5.3460    1.0000 </r>
       <r>   -5.3394    1.0000 </r>
       <r>   -5.3389    1.0000 </r>
       <r>   -5.3337    1.0000 </r>
       <r>   -5.3294    1.0000 </r>
       <r>   -5.3171    1.0000 </r>
       <r>   -5.3127    1.0000 </r>
       <r>   -5.3089    1.0000 </r>
       <r>   -5.3075    1.0000 </r>
       <r>   -5.3025    1.0000 </r>
       <r>   -5.2931    1.0000 </r>
       <r>   -5.2261    1.0000 </r>
       <r>   -5.2214    1.0000 </r>
       <r>   -5.2172    1.0000 </r>
       <r>   -5.2053    1.0000 </r>
       <r>   -5.1976    1.0000 </r>
       <r>   -5.1942    1.0000 </r>
       <r>   -5.1937    1.0000 </r>
       <r>   -5.1873    1.0000 </r>
       <r>   -5.1830    1.0000 </r>
       <r>   -5.1781    1.0000 </r>
       <r>   -5.1752    1.0000 </r>
       <r>   -5.1697    1.0000 </r>
       <r>   -5.1511    1.0000 </r>
       <r>   -5.1440    1.0000 </r>
       <r>   -5.1436    1.0000 </r>
       <r>   -5.1375    1.0000 </r>
       <r>   -5.1252    1.0000 </r>
       <r>   -5.1210    1.0000 </r>
       <r>   -5.1079    1.0000 </r>
       <r>   -5.1042    1.0000 </r>
       <r>   -5.0908    1.0000 </r>
       <r>   -5.0795    1.0000 </r>
       <r>   -5.0688    1.0000 </r>
       <r>   -5.0669    1.0000 </r>
       <r>   -5.0654    1.0000 </r>
       <r>   -5.0627    1.0000 </r>
       <r>   -5.0608    1.0000 </r>
       <r>   -5.0563    1.0000 </r>
       <r>   -5.0511    1.0000 </r>
       <r>   -5.0421    1.0000 </r>
       <r>   -5.0413    1.0000 </r>
       <r>   -5.0372    1.0000 </r>
       <r>   -5.0331    1.0000 </r>
       <r>   -5.0232    1.0000 </r>
       <r>   -5.0159    1.0000 </r>
       <r>   -5.0147    1.0000 </r>
       <r>   -5.0099    1.0000 </r>
       <r>   -5.0053    1.0000 </r>
       <r>   -5.0044    1.0000 </r>
       <r>   -5.0002    1.0000 </r>
       <r>   -4.9918    1.0000 </r>
       <r>   -4.9902    1.0000 </r>
       <r>   -4.9781    1.0000 </r>
       <r>   -4.9738    1.0000 </r>
       <r>   -4.9711    1.0000 </r>
       <r>   -4.9692    1.0000 </r>
       <r>   -4.9652    1.0000 </r>
       <r>   -4.9598    1.0000 </r>
       <r>   -4.9454    1.0000 </r>
       <r>   -4.9452    1.0000 </r>
       <r>   -4.9397    1.0000 </r>
       <r>   -4.9278    1.0000 </r>
       <r>   -4.9230    1.0000 </r>
       <r>   -4.9212    1.0000 </r>
       <r>   -4.9160    1.0000 </r>
       <r>   -4.9152    1.0000 </r>
       <r>   -4.9125    1.0000 </r>
       <r>   -4.9007    1.0000 </r>
       <r>   -4.8824    1.0000 </r>
       <r>   -4.8650    1.0000 </r>
       <r>   -4.8562    1.0000 </r>
       <r>   -4.8548    1.0000 </r>
       <r>   -4.8514    1.0000 </r>
       <r>   -4.8494    1.0000 </r>
       <r>   -4.8462    1.0000 </r>
       <r>   -4.8421    1.0000 </r>
       <r>   -4.8254    0.9999 </r>
       <r>   -4.8130    0.9999 </r>
       <r>   -4.8063    0.9999 </r>
       <r>   -4.7954    0.9999 </r>
       <r>   -4.7904    0.9998 </r>
       <r>   -4.7873    0.9998 </r>
       <r>   -4.7778    0.9998 </r>
       <r>   -4.7628    0.9997 </r>
       <r>   -4.7608    0.9997 </r>
       <r>   -4.7524    0.9996 </r>
       <r>   -4.7488    0.9996 </r>
       <r>   -4.7420    0.9995 </r>
       <r>   -4.7296    0.9994 </r>
       <r>   -4.7238    0.9993 </r>
       <r>   -4.7131    0.9991 </r>
       <r>   -4.7012    0.9989 </r>
       <r>   -4.6992    0.9989 </r>
       <r>   -4.6933    0.9987 </r>
       <r>   -4.6872    0.9986 </r>
       <r>   -4.6832    0.9985 </r>
       <r>   -4.6831    0.9985 </r>
       <r>   -4.6817    0.9985 </r>
       <r>   -4.6800    0.9984 </r>
       <r>   -4.6777    0.9984 </r>
       <r>   -4.6691    0.9981 </r>
       <r>   -4.6625    0.9979 </r>
       <r>   -4.6603    0.9978 </r>
       <r>   -4.6580    0.9978 </r>
       <r>   -4.6571    0.9977 </r>
       <r>   -4.6569    0.9977 </r>
       <r>   -4.6547    0.9977 </r>
       <r>   -4.6537    0.9976 </r>
       <r>   -4.6449    0.9973 </r>
       <r>   -4.6446    0.9973 </r>
       <r>   -4.6264    0.9966 </r>
       <r>   -4.6250    0.9966 </r>
       <r>   -4.6216    0.9965 </r>
       <r>   -4.6146    0.9962 </r>
       <r>   -4.6092    0.9960 </r>
       <r>   -4.6056    0.9959 </r>
       <r>   -4.6048    0.9958 </r>
       <r>   -4.6020    0.9958 </r>
       <r>   -4.6010    0.9957 </r>
       <r>   -4.5988    0.9956 </r>
       <r>   -4.5876    0.9953 </r>
       <r>   -4.5873    0.9953 </r>
       <r>   -4.5780    0.9951 </r>
       <r>   -4.5746    0.9951 </r>
       <r>   -4.5708    0.9951 </r>
       <r>   -4.5685    0.9951 </r>
       <r>   -4.5618    0.9951 </r>
       <r>   -4.5616    0.9951 </r>
       <r>   -4.5608    0.9951 </r>
       <r>   -4.5598    0.9951 </r>
       <r>   -4.5515    0.9953 </r>
       <r>   -4.5375    0.9959 </r>
       <r>   -4.5352    0.9961 </r>
       <r>   -4.5231    0.9971 </r>
       <r>   -4.5198    0.9975 </r>
       <r>   -4.5170    0.9978 </r>
       <r>   -4.5107    0.9987 </r>
       <r>   -4.5042    0.9998 </r>
       <r>   -4.5032    1.0000 </r>
       <r>   -4.4886    1.0031 </r>
       <r>   -4.4868    1.0036 </r>
       <r>   -4.4824    1.0047 </r>
       <r>   -4.4760    1.0066 </r>
       <r>   -4.4712    1.0081 </r>
       <r>   -4.4698    1.0085 </r>
       <r>   -4.4647    1.0103 </r>
       <r>   -4.4642    1.0105 </r>
       <r>   -4.4583    1.0127 </r>
       <r>   -4.4562    1.0134 </r>
       <r>   -4.4521    1.0151 </r>
       <r>   -4.4508    1.0156 </r>
       <r>   -4.4375    1.0214 </r>
       <r>   -4.4336    1.0232 </r>
       <r>   -4.4298    1.0250 </r>
       <r>   -4.4211    1.0291 </r>
       <r>   -4.4194    1.0300 </r>
       <r>   -4.4183    1.0305 </r>
       <r>   -4.4165    1.0313 </r>
       <r>   -4.4154    1.0319 </r>
       <r>   -4.4144    1.0324 </r>
       <r>   -4.3898    1.0435 </r>
       <r>   -4.3859    1.0450 </r>
       <r>   -4.3802    1.0470 </r>
       <r>   -4.3755    1.0484 </r>
       <r>   -4.3702    1.0498 </r>
       <r>   -4.3567    1.0516 </r>
       <r>   -4.3560    1.0516 </r>
       <r>   -4.3510    1.0515 </r>
       <r>   -4.3482    1.0513 </r>
       <r>   -4.3466    1.0510 </r>
       <r>   -4.3449    1.0508 </r>
       <r>   -4.3429    1.0504 </r>
       <r>   -4.3427    1.0503 </r>
       <r>   -4.3388    1.0493 </r>
       <r>   -4.3380    1.0490 </r>
       <r>   -4.3357    1.0482 </r>
       <r>   -4.3352    1.0480 </r>
       <r>   -4.3334    1.0472 </r>
       <r>   -4.3325    1.0468 </r>
       <r>   -4.3311    1.0461 </r>
       <r>   -4.3219    1.0404 </r>
       <r>   -4.3186    1.0379 </r>
       <r>   -4.3152    1.0349 </r>
       <r>   -4.3116    1.0312 </r>
       <r>   -4.3054    1.0241 </r>
       <r>   -4.3000    1.0169 </r>
       <r>   -4.2991    1.0155 </r>
       <r>   -4.2949    1.0092 </r>
       <r>   -4.2928    1.0056 </r>
       <r>   -4.2915    1.0035 </r>
       <r>   -4.2838    0.9891 </r>
       <r>   -4.2784    0.9776 </r>
       <r>   -4.2725    0.9638 </r>
       <r>   -4.2724    0.9637 </r>
       <r>   -4.2688    0.9547 </r>
       <r>   -4.2685    0.9539 </r>
       <r>   -4.2623    0.9369 </r>
       <r>   -4.2603    0.9313 </r>
       <r>   -4.2594    0.9285 </r>
       <r>   -4.2567    0.9205 </r>
       <r>   -4.2553    0.9160 </r>
       <r>   -4.2538    0.9115 </r>
       <r>   -4.2514    0.9037 </r>
       <r>   -4.2495    0.8973 </r>
       <r>   -4.2482    0.8929 </r>
       <r>   -4.2467    0.8879 </r>
       <r>   -4.2385    0.8585 </r>
       <r>   -4.2358    0.8483 </r>
       <r>   -4.2338    0.8405 </r>
       <r>   -4.2308    0.8286 </r>
       <r>   -4.2299    0.8251 </r>
       <r>   -4.2266    0.8117 </r>
       <r>   -4.2207    0.7866 </r>
       <r>   -4.2131    0.7527 </r>
       <r>   -4.2027    0.7038 </r>
       <r>   -4.1941    0.6619 </r>
       <r>   -4.1940    0.6613 </r>
       <r>   -4.1885    0.6335 </r>
       <r>   -4.1882    0.6317 </r>
       <r>   -4.1858    0.6198 </r>
       <r>   -4.1816    0.5979 </r>
       <r>   -4.1757    0.5674 </r>
       <r>   -4.1714    0.5449 </r>
       <r>   -4.1483    0.4226 </r>
       <r>   -4.1406    0.3831 </r>
       <r>   -4.1401    0.3804 </r>
       <r>   -4.1391    0.3751 </r>
       <r>   -4.1379    0.3691 </r>
       <r>   -4.1280    0.3193 </r>
       <r>   -4.1223    0.2919 </r>
       <r>   -3.9711   -0.0516 </r>
       <r>   -3.8495   -0.0065 </r>
       <r>   -3.8399   -0.0038 </r>
       <r>   -3.8253   -0.0005 </r>
       <r>   -3.7504    0.0049 </r>
       <r>   -3.5135    0.0001 </r>
       <r>   -3.4973    0.0001 </r>
       <r>   -3.3784    0.0000 </r>
       <r>   -3.0739    0.0000 </r>
       <r>   -3.0717    0.0000 </r>
       <r>   -3.0675    0.0000 </r>
       <r>   -3.0397    0.0000 </r>
       <r>   -3.0300    0.0000 </r>
       <r>   -2.9499    0.0000 </r>
       <r>   -2.9463    0.0000 </r>
       <r>   -2.8190    0.0000 </r>
       <r>   -2.5552    0.0000 </r>
       <r>   -2.5386    0.0000 </r>
       <r>   -2.5275    0.0000 </r>
       <r>   -2.3185    0.0000 </r>
       <r>   -2.1238    0.0000 </r>
       <r>   -2.1215    0.0000 </r>
       <r>   -2.0671    0.0000 </r>
       <r>   -2.0228    0.0000 </r>
       <r>   -1.9664    0.0000 </r>
       <r>   -1.9455    0.0000 </r>
       <r>   -1.8834    0.0000 </r>
       <r>   -1.8024    0.0000 </r>
       <r>   -1.7005    0.0000 </r>
       <r>   -1.6807    0.0000 </r>
       <r>   -1.6538    0.0000 </r>
       <r>   -1.6466    0.0000 </r>
       <r>   -1.6157    0.0000 </r>
       <r>   -1.5604    0.0000 </r>
       <r>   -1.3722    0.0000 </r>
       <r>   -1.2481    0.0000 </r>
       <r>   -1.1662    0.0000 </r>
       <r>   -1.1571    0.0000 </r>
       <r>   -1.0641    0.0000 </r>
       <r>   -0.9871    0.0000 </r>
       <r>   -0.9796    0.0000 </r>
       <r>   -0.9563    0.0000 </r>
       <r>   -0.9375    0.0000 </r>
       <r>   -0.9282    0.0000 </r>
       <r>   -0.8817    0.0000 </r>
       <r>   -0.8150    0.0000 </r>
       <r>   -0.7277    0.0000 </r>
      </set>
     </set>
    </set>
   </array>
  </eigenvalues>
  <separator name="orbital magnetization" >
   <v name="MAGDIPOLOUT">      0.00000000      0.00000000      0.00000000</v>
  </separator>
  <dos>
   <i name="efermi">     -4.16294266 </i>
   <total>
    <array>
     <dimension dim="1">gridpoints</dimension>
     <dimension dim="2">spin</dimension>
     <field>energy</field>
     <field>total</field>
     <field>integrated</field>
     <set>
      <set comment="spin 1">
       <r>   -30.5784     0.0000     0.0000 </r>
       <r>   -30.4722     0.0000     0.0000 </r>
       <r>   -30.3660     0.0000     0.0000 </r>
       <r>   -30.2599     0.0000     0.0000 </r>
       <r>   -30.1537     0.0000     0.0000 </r>
       <r>   -30.0475     0.0000     0.0000 </r>
       <r>   -29.9413     0.0000     0.0000 </r>
       <r>   -29.8352     0.0000     0.0000 </r>
       <r>   -29.7290     0.0000     0.0000 </r>
       <r>   -29.6228     0.0000     0.0000 </r>
       <r>   -29.5167     0.0000     0.0000 </r>
       <r>   -29.4105     0.0000     0.0000 </r>
       <r>   -29.3043     0.0002     0.0000 </r>
       <r>   -29.1982     0.0033     0.0004 </r>
       <r>   -29.0920     0.0280     0.0033 </r>
       <r>   -28.9858     0.0613     0.0099 </r>
       <r>   -28.8797    -0.2898    -0.0209 </r>
       <r>   -28.7735    -0.7736    -0.1031 </r>
       <r>   -28.6673     2.7541     0.1893 </r>
       <r>   -28.5612     9.3402     1.1810 </r>
       <r>   -28.4550     7.6016     1.9880 </r>
       <r>   -28.3488     0.9108     2.0847 </r>
       <r>   -28.2426    -0.7821     2.0017 </r>
       <r>   -28.1365    -0.0943     1.9917 </r>
       <r>   -28.0303     0.0613     1.9982 </r>
       <r>   -27.9241     0.0156     1.9998 </r>
       <r>   -27.8180     0.0014     2.0000 </r>
       <r>   -27.7118     0.0001     2.0000 </r>
       <r>   -27.6056     0.0000     2.0000 </r>
       <r>   -27.4995     0.0000     2.0000 </r>
       <r>   -27.3933     0.0000     2.0000 </r>
       <r>   -27.2871     0.0000     2.0000 </r>
       <r>   -27.1810     0.0000     2.0000 </r>
       <r>   -27.0748     0.0000     2.0000 </r>
       <r>   -26.9686     0.0000     2.0000 </r>
       <r>   -26.8625     0.0000     2.0000 </r>
       <r>   -26.7563     0.0000     2.0000 </r>
       <r>   -26.6501     0.0000     2.0000 </r>
       <r>   -26.5439     0.0000     2.0000 </r>
       <r>   -26.4378     0.0000     2.0000 </r>
       <r>   -26.3316     0.0000     2.0000 </r>
       <r>   -26.2254     0.0000     2.0000 </r>
       <r>   -26.1193     0.0000     2.0000 </r>
       <r>   -26.0131     0.0000     2.0000 </r>
       <r>   -25.9069     0.0000     2.0000 </r>
       <r>   -25.8008     0.0000     2.0000 </r>
       <r>   -25.6946     0.0000     2.0000 </r>
       <r>   -25.5884     0.0000     2.0000 </r>
       <r>   -25.4823     0.0000     2.0000 </r>
       <r>   -25.3761     0.0000     2.0000 </r>
       <r>   -25.2699     0.0000     2.0000 </r>
       <r>   -25.1637     0.0000     2.0000 </r>
       <r>   -25.0576     0.0000     2.0000 </r>
       <r>   -24.9514     0.0000     2.0000 </r>
       <r>   -24.8452     0.0000     2.0000 </r>
       <r>   -24.7391     0.0000     2.0000 </r>
       <r>   -24.6329     0.0000     2.0000 </r>
       <r>   -24.5267     0.0000     2.0000 </r>
       <r>   -24.4206     0.0000     2.0000 </r>
       <r>   -24.3144     0.0000     2.0000 </r>
       <r>   -24.2082     0.0000     2.0000 </r>
       <r>   -24.1021     0.0000     2.0000 </r>
       <r>   -23.9959     0.0000     2.0000 </r>
       <r>   -23.8897     0.0000     2.0000 </r>
       <r>   -23.7836     0.0000     2.0000 </r>
       <r>   -23.6774     0.0000     2.0000 </r>
       <r>   -23.5712     0.0000     2.0000 </r>
       <r>   -23.4650     0.0000     2.0000 </r>
       <r>   -23.3589     0.0000     2.0000 </r>
       <r>   -23.2527     0.0000     2.0000 </r>
       <r>   -23.1465     0.0000     2.0000 </r>
       <r>   -23.0404     0.0000     2.0000 </r>
       <r>   -22.9342     0.0000     2.0000 </r>
       <r>   -22.8280     0.0000     2.0000 </r>
       <r>   -22.7219     0.0000     2.0000 </r>
       <r>   -22.6157     0.0000     2.0000 </r>
       <r>   -22.5095     0.0000     2.0000 </r>
       <r>   -22.4034     0.0000     2.0000 </r>
       <r>   -22.2972     0.0000     2.0000 </r>
       <r>   -22.1910     0.0000     2.0000 </r>
       <r>   -22.0849     0.0000     2.0000 </r>
       <r>   -21.9787     0.0000     2.0000 </r>
       <r>   -21.8725     0.0000     2.0000 </r>
       <r>   -21.7663     0.0000     2.0000 </r>
       <r>   -21.6602     0.0000     2.0000 </r>
       <r>   -21.5540     0.0000     2.0000 </r>
       <r>   -21.4478     0.0000     2.0000 </r>
       <r>   -21.3417     0.0000     2.0000 </r>
       <r>   -21.2355     0.0000     2.0000 </r>
       <r>   -21.1293     0.0000     2.0000 </r>
       <r>   -21.0232     0.0000     2.0000 </r>
       <r>   -20.9170     0.0000     2.0000 </r>
       <r>   -20.8108     0.0000     2.0000 </r>
       <r>   -20.7047     0.0000     2.0000 </r>
       <r>   -20.5985     0.0000     2.0000 </r>
       <r>   -20.4923     0.0000     2.0000 </r>
       <r>   -20.3862     0.0000     2.0000 </r>
       <r>   -20.2800     0.0000     2.0000 </r>
       <r>   -20.1738     0.0000     2.0000 </r>
       <r>   -20.0676     0.0000     2.0000 </r>
       <r>   -19.9615     0.0000     2.0000 </r>
       <r>   -19.8553     0.0000     2.0000 </r>
       <r>   -19.7491     0.0000     2.0000 </r>
       <r>   -19.6430     0.0000     2.0000 </r>
       <r>   -19.5368     0.0000     2.0000 </r>
       <r>   -19.4306     0.0000     2.0000 </r>
       <r>   -19.3245     0.0000     2.0000 </r>
       <r>   -19.2183     0.0000     2.0000 </r>
       <r>   -19.1121     0.0000     2.0000 </r>
       <r>   -19.0060     0.0000     2.0000 </r>
       <r>   -18.8998     0.0000     2.0000 </r>
       <r>   -18.7936     0.0000     2.0000 </r>
       <r>   -18.6875     0.0000     2.0000 </r>
       <r>   -18.5813     0.0000     2.0000 </r>
       <r>   -18.4751     0.0000     2.0000 </r>
       <r>   -18.3689     0.0000     2.0000 </r>
       <r>   -18.2628     0.0000     2.0000 </r>
       <r>   -18.1566     0.0000     2.0000 </r>
       <r>   -18.0504     0.0000     2.0000 </r>
       <r>   -17.9443     0.0000     2.0000 </r>
       <r>   -17.8381     0.0000     2.0000 </r>
       <r>   -17.7319     0.0000     2.0000 </r>
       <r>   -17.6258     0.0000     2.0000 </r>
       <r>   -17.5196     0.0000     2.0000 </r>
       <r>   -17.4134     0.0000     2.0000 </r>
       <r>   -17.3073     0.0000     2.0000 </r>
       <r>   -17.2011     0.0000     2.0000 </r>
       <r>   -17.0949     0.0000     2.0000 </r>
       <r>   -16.9888     0.0000     2.0000 </r>
       <r>   -16.8826     0.0000     2.0000 </r>
       <r>   -16.7764     0.0000     2.0000 </r>
       <r>   -16.6702     0.0000     2.0000 </r>
       <r>   -16.5641     0.0000     2.0000 </r>
       <r>   -16.4579     0.0000     2.0000 </r>
       <r>   -16.3517     0.0000     2.0000 </r>
       <r>   -16.2456     0.0000     2.0000 </r>
       <r>   -16.1394     0.0000     2.0000 </r>
       <r>   -16.0332     0.0000     2.0000 </r>
       <r>   -15.9271     0.0000     2.0000 </r>
       <r>   -15.8209     0.0000     2.0000 </r>
       <r>   -15.7147     0.0000     2.0000 </r>
       <r>   -15.6086     0.0000     2.0000 </r>
       <r>   -15.5024     0.0000     2.0000 </r>
       <r>   -15.3962     0.0000     2.0000 </r>
       <r>   -15.2900     0.0000     2.0000 </r>
       <r>   -15.1839     0.0000     2.0000 </r>
       <r>   -15.0777     0.0000     2.0000 </r>
       <r>   -14.9715     0.0000     2.0000 </r>
       <r>   -14.8654     0.0000     2.0000 </r>
       <r>   -14.7592     0.0000     2.0000 </r>
       <r>   -14.6530     0.0000     2.0000 </r>
       <r>   -14.5469     0.0000     2.0000 </r>
       <r>   -14.4407     0.0000     2.0000 </r>
       <r>   -14.3345     0.0000     2.0000 </r>
       <r>   -14.2284     0.0000     2.0000 </r>
       <r>   -14.1222     0.0009     2.0001 </r>
       <r>   -14.0160     0.0118     2.0014 </r>
       <r>   -13.9099     0.0559     2.0073 </r>
       <r>   -13.8037    -0.0387     2.0032 </r>
       <r>   -13.6975    -0.7090     1.9279 </r>
       <r>   -13.5913     0.3477     1.9648 </r>
       <r>   -13.4852     6.6837     2.6744 </r>
       <r>   -13.3790     9.7669     3.7114 </r>
       <r>   -13.2728     3.6712     4.1011 </r>
       <r>   -13.1667    -0.6525     4.0319 </r>
       <r>   -13.0605    -0.3913     3.9903 </r>
       <r>   -12.9543     0.0518     3.9958 </r>
       <r>   -12.8482     0.0345     3.9995 </r>
       <r>   -12.7420     0.0046     4.0000 </r>
       <r>   -12.6358     0.0003     4.0000 </r>
       <r>   -12.5297     0.0000     4.0000 </r>
       <r>   -12.4235     0.0000     4.0000 </r>
       <r>   -12.3173     0.0000     4.0000 </r>
       <r>   -12.2112     0.0000     4.0000 </r>
       <r>   -12.1050     0.0000     4.0000 </r>
       <r>   -11.9988     0.0000     4.0000 </r>
       <r>   -11.8926     0.0005     4.0001 </r>
       <r>   -11.7865     0.0070     4.0008 </r>
       <r>   -11.6803     0.0448     4.0056 </r>
       <r>   -11.5741     0.0439     4.0102 </r>
       <r>   -11.4680    -0.4647     3.9609 </r>
       <r>   -11.3618    -0.4742     3.9105 </r>
       <r>   -11.2556     4.1073     4.3466 </r>
       <r>   -11.1495    11.0519     5.5200 </r>
       <r>   -11.0433    13.2706     6.9289 </r>
       <r>   -10.9371     8.9582     7.8800 </r>
       <r>   -10.8310     1.2274     8.0103 </r>
       <r>   -10.7248     0.1591     8.0272 </r>
       <r>   -10.6186     7.4090     8.8138 </r>
       <r>   -10.5125     9.3909     9.8108 </r>
       <r>   -10.4063     2.7487    10.1026 </r>
       <r>   -10.3001    -0.7734    10.0205 </r>
       <r>   -10.1939    -0.2861     9.9902 </r>
       <r>   -10.0878     0.0615     9.9967 </r>
       <r>    -9.9816     0.0278     9.9996 </r>
       <r>    -9.8754     0.0033    10.0000 </r>
       <r>    -9.7693     0.0002    10.0000 </r>
       <r>    -9.6631     0.0000    10.0000 </r>
       <r>    -9.5569     0.0000    10.0000 </r>
       <r>    -9.4508     0.0000    10.0000 </r>
       <r>    -9.3446     0.0000    10.0000 </r>
       <r>    -9.2384     0.0000    10.0000 </r>
       <r>    -9.1323     0.0000    10.0000 </r>
       <r>    -9.0261     0.0000    10.0000 </r>
       <r>    -8.9199     0.0000    10.0000 </r>
       <r>    -8.8138     0.0000    10.0000 </r>
       <r>    -8.7076     0.0000    10.0000 </r>
       <r>    -8.6014     0.0000    10.0000 </r>
       <r>    -8.4952     0.0000    10.0000 </r>
       <r>    -8.3891     0.0000    10.0000 </r>
       <r>    -8.2829     0.0000    10.0000 </r>
       <r>    -8.1767     0.0000    10.0000 </r>
       <r>    -8.0706     0.0000    10.0000 </r>
       <r>    -7.9644     0.0000    10.0000 </r>
       <r>    -7.8582     0.0000    10.0000 </r>
       <r>    -7.7521     0.0000    10.0000 </r>
       <r>    -7.6459     0.0000    10.0000 </r>
       <r>    -7.5397     0.0000    10.0000 </r>
       <r>    -7.4336     0.0000    10.0000 </r>
       <r>    -7.3274     0.0011    10.0001 </r>
       <r>    -7.2212     0.0131    10.0015 </r>
       <r>    -7.1151     0.0581    10.0077 </r>
       <r>    -7.0089    -0.0572    10.0016 </r>
       <r>    -6.9027    -0.7321     9.9239 </r>
       <r>    -6.7965     0.6052     9.9881 </r>
       <r>    -6.6904     7.2068    10.7533 </r>
       <r>    -6.5842     9.2065    11.7307 </r>
       <r>    -6.4780     1.4082    11.8802 </r>
       <r>    -6.3719     2.8664    12.1845 </r>
       <r>    -6.2657    22.7453    14.5994 </r>
       <r>    -6.1595    38.2932    18.6649 </r>
       <r>    -6.0534    26.2760    21.4546 </r>
       <r>    -5.9472    10.6215    22.5823 </r>
       <r>    -5.8410    27.9337    25.5480 </r>
       <r>    -5.7349    66.2967    32.5866 </r>
       <r>    -5.6287   132.0000    46.6009 </r>
       <r>    -5.5225   239.7084    72.0505 </r>
       <r>    -5.4163   291.4969   102.9983 </r>
       <r>    -5.3102   235.5010   128.0012 </r>
       <r>    -5.2040   206.0809   149.8806 </r>
       <r>    -5.0978   280.6558   179.6775 </r>
       <r>    -4.9917   358.8501   217.7762 </r>
       <r>    -4.8855   330.8766   252.9049 </r>
       <r>    -4.7793   282.1024   282.8554 </r>
       <r>    -4.6732   350.2064   320.0364 </r>
       <r>    -4.5670   429.6258   365.6493 </r>
       <r>    -4.4608   427.0193   410.9854 </r>
       <r>    -4.3547   483.4036   462.3078 </r>
       <r>    -4.2485   561.9248   521.9667 </r>
       <r>    -4.1423   416.4935   566.1853 </r>
       <r>    -4.0362   134.2370   580.4371 </r>
       <r>    -3.9300     5.3099   581.0008 </r>
       <r>    -3.8238    23.6203   583.5086 </r>
       <r>    -3.7176    32.2517   586.9327 </r>
       <r>    -3.6115    13.5185   588.3680 </r>
       <r>    -3.5053    16.4440   590.1138 </r>
       <r>    -3.3991    23.2661   592.5839 </r>
       <r>    -3.2930     9.4534   593.5876 </r>
       <r>    -3.1868     3.6055   593.9704 </r>
       <r>    -3.0806    34.9669   597.6828 </r>
       <r>    -2.9745    60.8907   604.1475 </r>
       <r>    -2.8683    40.6443   608.4626 </r>
       <r>    -2.7621    11.1453   609.6459 </r>
       <r>    -2.6560     5.6743   610.2483 </r>
       <r>    -2.5498    22.6987   612.6582 </r>
       <r>    -2.4436    27.3443   615.5613 </r>
       <r>    -2.3375    12.3376   616.8712 </r>
       <r>    -2.2313     8.2506   617.7472 </r>
       <r>    -2.1251    24.3028   620.3274 </r>
       <r>    -2.0189    44.0583   625.0050 </r>
       <r>    -1.9128    42.5424   629.5216 </r>
       <r>    -1.8066    30.4043   632.7496 </r>
       <r>    -1.7004    40.5869   637.0587 </r>
       <r>    -1.5943    53.3645   642.7243 </r>
       <r>    -1.4881    31.1439   646.0309 </r>
       <r>    -1.3819     9.3561   647.0242 </r>
       <r>    -1.2758    14.1324   648.5246 </r>
       <r>    -1.1696    25.6989   651.2530 </r>
       <r>    -1.0634    37.5350   655.2381 </r>
       <r>    -0.9573    57.1767   661.3085 </r>
       <r>    -0.8511    58.6694   667.5373 </r>
       <r>    -0.7449    32.3300   670.9698 </r>
       <r>    -0.6388     9.9565   672.0268 </r>
       <r>    -0.5326     0.5807   672.0885 </r>
       <r>    -0.4264    -0.9206   671.9908 </r>
       <r>    -0.3202    -0.0741   671.9829 </r>
       <r>    -0.2141     0.1225   671.9959 </r>
       <r>    -0.1079     0.0348   671.9996 </r>
       <r>    -0.0017     0.0037   672.0000 </r>
       <r>     0.1044     0.0002   672.0000 </r>
       <r>     0.2106     0.0000   672.0000 </r>
       <r>     0.3168     0.0000   672.0000 </r>
       <r>     0.4229     0.0000   672.0000 </r>
       <r>     0.5291     0.0000   672.0000 </r>
       <r>     0.6353     0.0000   672.0000 </r>
       <r>     0.7414     0.0000   672.0000 </r>
       <r>     0.8476     0.0000   672.0000 </r>
       <r>     0.9538     0.0000   672.0000 </r>
       <r>     1.0599     0.0000   672.0000 </r>
       <r>     1.1661     0.0000   672.0000 </r>
       <r>     1.2723     0.0000   672.0000 </r>
      </set>
     </set>
    </array>
   </total>
  </dos>
 </calculation>
 <structure name="finalpos" >
  <crystal>
   <varray name="basis" >
    <v>      30.00000000       0.00000000       0.00000000 </v>
    <v>       0.00000000      30.00000000       0.00000000 </v>
    <v>       0.00000000       0.00000000      30.00000000 </v>
   </varray>
   <i name="volume">  27000.00000000 </i>
   <varray name="rec_basis" >
    <v>       0.03333333       0.00000000       0.00000000 </v>
    <v>       0.00000000       0.03333333       0.00000000 </v>
    <v>       0.00000000       0.00000000       0.03333333 </v>
   </varray>
  </crystal>
  <varray name="positions" >
   <v>       0.44576020       0.32826710       0.41691983 </v>
   <v>       0.67173288       0.55423978       0.41691983 </v>
   <v>       0.55423980       0.32826710       0.41691983 </v>
   <v>       0.32826712       0.55423978       0.41691983 </v>
   <v>       0.50000000       0.38250690       0.34021317 </v>
   <v>       0.50000000       0.38250690       0.65978680 </v>
   <v>       0.50000000       0.27609440       0.50000000 </v>
   <v>       0.27609443       0.49999998       0.50000000 </v>
   <v>       0.72390557       0.49999998       0.50000000 </v>
   <v>       0.50000000       0.72390555       0.50000000 </v>
   <v>       0.61195280       0.38804720       0.34167483 </v>
   <v>       0.61195280       0.38804720       0.65832513 </v>
   <v>       0.38804722       0.61195278       0.34167483 </v>
   <v>       0.38804722       0.61195278       0.65832513 </v>
   <v>       0.38804720       0.38804720       0.34167483 </v>
   <v>       0.38804720       0.38804720       0.65832513 </v>
   <v>       0.61195278       0.61195278       0.34167483 </v>
   <v>       0.61195278       0.61195278       0.65832513 </v>
   <v>       0.44576020       0.32826710       0.58308023 </v>
   <v>       0.67173288       0.55423978       0.58308023 </v>
   <v>       0.55791699       0.44208301       0.41809300 </v>
   <v>       0.32826705       0.44576024       0.41691983 </v>
   <v>       0.55423973       0.67173293       0.41691983 </v>
   <v>       0.55423980       0.32826710       0.58308023 </v>
   <v>       0.32826712       0.55423978       0.58308023 </v>
   <v>       0.67173295       0.44576024       0.41691983 </v>
   <v>       0.44576027       0.67173293       0.41691983 </v>
   <v>       0.44208301       0.44208301       0.41809300 </v>
   <v>       0.50000000       0.38416601       0.50000000 </v>
   <v>       0.61749315       0.50000005       0.34021317 </v>
   <v>       0.61749315       0.50000005       0.65978680 </v>
   <v>       0.38250685       0.50000005       0.34021317 </v>
   <v>       0.38250685       0.50000005       0.65978680 </v>
   <v>       0.38317830       0.38317830       0.50000000 </v>
   <v>       0.61682172       0.61682172       0.50000000 </v>
   <v>       0.61682170       0.38317830       0.50000000 </v>
   <v>       0.38317828       0.61682172       0.50000000 </v>
   <v>       0.50000000       0.50000000       0.33478917 </v>
   <v>       0.50000000       0.50000000       0.66521087 </v>
   <v>       0.32826705       0.44576024       0.58308023 </v>
   <v>       0.55423973       0.67173293       0.58308023 </v>
   <v>       0.55791699       0.44208301       0.58190703 </v>
   <v>       0.44208298       0.55791702       0.41809300 </v>
   <v>       0.44208301       0.44208301       0.58190703 </v>
   <v>       0.67173295       0.44576024       0.58308023 </v>
   <v>       0.44576027       0.67173293       0.58308023 </v>
   <v>       0.55791702       0.55791702       0.41809300 </v>
   <v>       0.38416599       0.50000002       0.50000000 </v>
   <v>       0.61583401       0.50000002       0.50000000 </v>
   <v>       0.50000000       0.61749319       0.34021317 </v>
   <v>       0.50000000       0.61749319       0.65978680 </v>
   <v>       0.50000000       0.50000000       0.50000000 </v>
   <v>       0.44208298       0.55791702       0.58190703 </v>
   <v>       0.55791702       0.55791702       0.58190703 </v>
   <v>       0.50000000       0.61583404       0.50000000 </v>
   <v>       0.28410533       0.53915700       0.37307973 </v>
   <v>       0.25208067       0.54496537       0.35425307 </v>
  </varray>
  <varray name="selective"  type="logical" >
   <v type="logical" >  F  F  F </v>
   <v type="logical" >  F  F  F </v>
   <v type="logical" >  F  F  F </v>
   <v type="logical" >  F  F  F </v>
   <v type="logical" >  F  F  F </v>
   <v type="logical" >  F  F  F </v>
   <v type="logical" >  F  F  F </v>
   <v type="logical" >  F  F  F </v>
   <v type="logical" >  F  F  F </v>
   <v type="logical" >  F  F  F </v>
   <v type="logical" >  F  F  F </v>
   <v type="logical" >  F  F  F </v>
   <v type="logical" >  F  F  F </v>
   <v type="logical" >  F  F  F </v>
   <v type="logical" >  F  F  F </v>
   <v type="logical" >  F  F  F </v>
   <v type="logical" >  F  F  F </v>
   <v type="logical" >  F  F  F </v>
   <v type="logical" >  F  F  F </v>
   <v type="logical" >  F  F  F </v>
   <v type="logical" >  F  F  F </v>
   <v type="logical" >  F  F  F </v>
   <v type="logical" >  F  F  F </v>
   <v type="logical" >  F  F  F </v>
   <v type="logical" >  F  F  F </v>
   <v type="logical" >  F  F  F </v>
   <v type="logical" >  F  F  F </v>
   <v type="logical" >  F  F  F </v>
   <v type="logical" >  F  F  F </v>
   <v type="logical" >  F  F  F </v>
   <v type="logical" >  F  F  F </v>
   <v type="logical" >  F  F  F </v>
   <v type="logical" >  F  F  F </v>
   <v type="logical" >  F  F  F </v>
   <v type="logical" >  F  F  F </v>
   <v type="logical" >  F  F  F </v>
   <v type="logical" >  F  F  F </v>
   <v type="logical" >  F  F  F </v>
   <v type="logical" >  F  F  F </v>
   <v type="logical" >  F  F  F </v>
   <v type="logical" >  F  F  F </v>
   <v type="logical" >  F  F  F </v>
   <v type="logical" >  F  F  F </v>
   <v type="logical" >  F  F  F </v>
   <v type="logical" >  F  F  F </v>
   <v type="logical" >  F  F  F </v>
   <v type="logical" >  F  F  F </v>
   <v type="logical" >  F  F  F </v>
   <v type="logical" >  F  F  F </v>
   <v type="logical" >  F  F  F </v>
   <v type="logical" >  F  F  F </v>
   <v type="logical" >  F  F  F </v>
   <v type="logical" >  F  F  F </v>
   <v type="logical" >  F  F  F </v>
   <v type="logical" >  F  F  F </v>
   <v type="logical" >  F  F  F </v>
   <v type="logical" >  F  F  F </v>
  </varray>
  <nose>
   <v>      -3.00000000       0.00000000       0.00010000       0.00010000 </v>
  </nose>
 </structure>
</modeling>
