<?xml version="1.0" encoding="ISO-8859-1"?>
<modeling>
 <generator>
  <i name="program" type="string">vasp </i>
  <i name="version" type="string">5.4.4.18Apr17-6-g9f103f2a35  </i>
  <i name="subversion" type="string">(build Sep 03 2018 23:53:05) complex            parallel </i>
  <i name="platform" type="string">LinuxIFC </i>
  <i name="date" type="string">2021 11 25 </i>
  <i name="time" type="string">16:48:02 </i>
 </generator>
 <incar>
  <i type="string" name="SYSTEM"> 6_Pd100_top_free_z(O)</i>
  <i type="int" name="ISTART">     0</i>
  <i type="string" name="PREC">normal   			! encut=max(enmax), ngx,y,z</i>
  <i type="string" name="ALGO"> Fast     			! Mix RMM-DIIS and Dav</i>
  <i type="logical" name="ADDGRID"> F  </i>
  <i type="int" name="ISPIN">     1</i>
  <i type="int" name="ICHARG">     2</i>
  <i type="int" name="NELM">   100</i>
  <i type="int" name="NELMIN">     6</i>
  <i type="int" name="IBRION">     2</i>
  <i name="EDIFF">      0.00010000</i>
  <i name="EDIFFG">     -0.05000000</i>
  <i type="int" name="NSW">     0</i>
  <i type="int" name="ISIF">     2</i>
  <i type="int" name="ISYM">     2</i>
  <i name="ENCUT">    400.00000000</i>
  <i type="string" name="LREAL"> Auto     			! Auto or A projection done</i>
  <i type="int" name="ISMEAR">     2</i>
  <i name="SIGMA">      0.20000000</i>
  <i type="logical" name="LWAVE"> F  </i>
  <i type="logical" name="LCHARG"> F  </i>
  <v type="int" name="KPOINT_BSE">    -1     0     0     0</v>
  <i type="int" name="MAXMEM"> 10000</i>
  <i type="int" name="NELM">   100</i>
  <i type="string" name="GGA"> RP         			! Revised PBE</i>
 </incar>
 <structure name="primitive_cell" >
  <crystal>
   <varray name="basis" >
    <v>      30.00000000       0.00000000       0.00000000 </v>
    <v>       0.00000000      30.00000000       0.00000000 </v>
    <v>       0.00000000       0.00000000      30.00000000 </v>
   </varray>
   <i name="volume">  27000.00000000 </i>
   <varray name="rec_basis" >
    <v>       0.03333333       0.00000000       0.00000000 </v>
    <v>       0.00000000       0.03333333       0.00000000 </v>
    <v>       0.00000000       0.00000000       0.03333333 </v>
   </varray>
  </crystal>
  <varray name="positions" >
   <v>       0.44576020       0.32826710       0.41691983 </v>
   <v>      -0.44576020       0.32826710       0.41691983 </v>
   <v>      -0.50000000       0.38250690       0.34021317 </v>
   <v>      -0.50000000       0.27609440      -0.50000000 </v>
   <v>       0.38804720       0.38804720       0.34167483 </v>
   <v>      -0.50000000       0.38416601      -0.50000000 </v>
   <v>       0.44208300       0.44208300       0.41809300 </v>
   <v>       0.38317830       0.38317830      -0.50000000 </v>
   <v>      -0.44208300       0.44208300       0.41809300 </v>
   <v>       0.44576020       0.32826710      -0.41691977 </v>
   <v>       0.32826705       0.44576024       0.41691983 </v>
   <v>      -0.38804720       0.38804720       0.34167483 </v>
   <v>      -0.38317830       0.38317830      -0.50000000 </v>
   <v>      -0.50000000      -0.50000000       0.33478917 </v>
   <v>      -0.50000000      -0.50000000      -0.50000000 </v>
   <v>      -0.44576020       0.32826710      -0.41691977 </v>
   <v>       0.38250685      -0.49999995       0.34021317 </v>
   <v>       0.44208300       0.44208300      -0.41809297 </v>
   <v>       0.38416599      -0.49999998      -0.50000000 </v>
   <v>      -0.44208300       0.44208300      -0.41809297 </v>
   <v>       0.44208298      -0.44208298       0.41809300 </v>
   <v>       0.32826705       0.44576024      -0.41691977 </v>
   <v>      -0.50000000       0.38250690      -0.34021320 </v>
   <v>       0.32826712      -0.44576022       0.41691983 </v>
   <v>      -0.38250685      -0.49999995       0.34021317 </v>
   <v>      -0.32826705       0.44576024       0.41691983 </v>
   <v>       0.27609443       0.49999998      -0.50000000 </v>
   <v>       0.38804720       0.38804720      -0.34167487 </v>
   <v>      -0.38416599      -0.49999998      -0.50000000 </v>
   <v>      -0.44208298      -0.44208298       0.41809300 </v>
   <v>       0.44208298      -0.44208298      -0.41809297 </v>
   <v>      -0.38804720       0.38804720      -0.34167487 </v>
   <v>       0.38804722      -0.38804722       0.34167483 </v>
   <v>       0.38250685      -0.49999995      -0.34021320 </v>
   <v>       0.32826712      -0.44576022      -0.41691977 </v>
   <v>      -0.32826705       0.44576024      -0.41691977 </v>
   <v>       0.50000000      -0.38250681       0.34021317 </v>
   <v>      -0.50000000      -0.38416596      -0.50000000 </v>
   <v>      -0.44208298      -0.44208298      -0.41809297 </v>
   <v>      -0.50000000      -0.50000000      -0.33478913 </v>
   <v>       0.38317828      -0.38317828      -0.50000000 </v>
   <v>      -0.32826712      -0.44576022       0.41691983 </v>
   <v>      -0.27609443       0.49999998      -0.50000000 </v>
   <v>      -0.38804722      -0.38804722       0.34167483 </v>
   <v>      -0.38250685      -0.49999995      -0.34021320 </v>
   <v>       0.44576027      -0.32826707       0.41691983 </v>
   <v>      -0.38317828      -0.38317828      -0.50000000 </v>
   <v>       0.34283370      -0.45344063      -0.31727183 </v>
   <v>      -0.32826712      -0.44576022      -0.41691977 </v>
   <v>      -0.44576027      -0.32826707       0.41691983 </v>
   <v>       0.38804722      -0.38804722      -0.34167487 </v>
   <v>      -0.50000000      -0.38250681      -0.34021320 </v>
   <v>       0.44576027      -0.32826707      -0.41691977 </v>
   <v>       0.31876027      -0.44630907      -0.28928307 </v>
   <v>      -0.44576027      -0.32826707      -0.41691977 </v>
   <v>      -0.50000000      -0.27609445       0.50000000 </v>
   <v>      -0.38804722      -0.38804722      -0.34167487 </v>
  </varray>
 </structure>
 <varray name="primitive_index" >
  <v type="int" >        1 </v>
  <v type="int" >        3 </v>
  <v type="int" >        5 </v>
  <v type="int" >        7 </v>
  <v type="int" >       15 </v>
  <v type="int" >       29 </v>
  <v type="int" >       28 </v>
  <v type="int" >       34 </v>
  <v type="int" >       21 </v>
  <v type="int" >       19 </v>
  <v type="int" >       22 </v>
  <v type="int" >       11 </v>
  <v type="int" >       36 </v>
  <v type="int" >       38 </v>
  <v type="int" >       52 </v>
  <v type="int" >       24 </v>
  <v type="int" >       32 </v>
  <v type="int" >       44 </v>
  <v type="int" >       48 </v>
  <v type="int" >       42 </v>
  <v type="int" >       43 </v>
  <v type="int" >       40 </v>
  <v type="int" >        6 </v>
  <v type="int" >        4 </v>
  <v type="int" >       30 </v>
  <v type="int" >       26 </v>
  <v type="int" >        8 </v>
  <v type="int" >       16 </v>
  <v type="int" >       49 </v>
  <v type="int" >       47 </v>
  <v type="int" >       53 </v>
  <v type="int" >       12 </v>
  <v type="int" >       13 </v>
  <v type="int" >       33 </v>
  <v type="int" >       25 </v>
  <v type="int" >       45 </v>
  <v type="int" >       50 </v>
  <v type="int" >       55 </v>
  <v type="int" >       54 </v>
  <v type="int" >       39 </v>
  <v type="int" >       37 </v>
  <v type="int" >        2 </v>
  <v type="int" >        9 </v>
  <v type="int" >       17 </v>
  <v type="int" >       31 </v>
  <v type="int" >       27 </v>
  <v type="int" >       35 </v>
  <v type="int" >       56 </v>
  <v type="int" >       20 </v>
  <v type="int" >       23 </v>
  <v type="int" >       14 </v>
  <v type="int" >       51 </v>
  <v type="int" >       46 </v>
  <v type="int" >       57 </v>
  <v type="int" >       41 </v>
  <v type="int" >       10 </v>
  <v type="int" >       18 </v>
 </varray>
 <kpoints>
  <generation param="Monkhorst-Pack">
   <v type="int" name="divisions">       1        1        1 </v>
   <v name="usershift">      0.00000000       0.00000000       0.00000000 </v>
   <v name="genvec1">      1.00000000       0.00000000       0.00000000 </v>
   <v name="genvec2">      0.00000000       1.00000000       0.00000000 </v>
   <v name="genvec3">      0.00000000       0.00000000       1.00000000 </v>
   <v name="shift">      0.00000000       0.00000000       0.00000000 </v>
  </generation>
  <varray name="kpointlist" >
   <v>       0.00000000       0.00000000       0.00000000 </v>
  </varray>
  <varray name="weights" >
   <v>       1.00000000 </v>
  </varray>
 </kpoints>
 <parameters>
  <separator name="general" >
   <i type="string" name="SYSTEM">6_Pd100_top_free_z(O)</i>
   <i type="logical" name="LCOMPAT"> F  </i>
  </separator>
  <separator name="electronic" >
   <i type="string" name="PREC">normal</i>
   <i name="ENMAX">    400.00000000</i>
   <i name="ENAUG">    644.87300000</i>
   <i name="EDIFF">      0.00010000</i>
   <i type="int" name="IALGO">    68</i>
   <i type="int" name="IWAVPR">    10</i>
   <i type="int" name="NBANDS">   336</i>
   <i name="NELECT">    560.00000000</i>
   <i type="int" name="TURBO">     0</i>
   <i type="int" name="IRESTART">     0</i>
   <i type="int" name="NREBOOT">     0</i>
   <i type="int" name="NMIN">     0</i>
   <i name="EREF">      0.00000000</i>
   <separator name="electronic smearing" >
    <i type="int" name="ISMEAR">     2</i>
    <i name="SIGMA">      0.20000000</i>
    <i name="KSPACING">      0.50000000</i>
    <i type="logical" name="KGAMMA"> T  </i>
   </separator>
   <separator name="electronic projectors" >
    <i type="logical" name="LREAL"> T  </i>
    <v name="ROPT">     -0.00050000     -0.00050000     -0.00050000</v>
    <i type="int" name="LMAXPAW">  -100</i>
    <i type="int" name="LMAXMIX">     2</i>
    <i type="logical" name="NLSPLINE"> F  </i>
   </separator>
   <separator name="electronic startup" >
    <i type="int" name="ISTART">     0</i>
    <i type="int" name="ICHARG">     2</i>
    <i type="int" name="INIWAV">     1</i>
   </separator>
   <separator name="electronic spin" >
    <i type="int" name="ISPIN">     1</i>
    <i type="logical" name="LNONCOLLINEAR"> F  </i>
    <v name="MAGMOM">      1.00000000      1.00000000      1.00000000      1.00000000      1.00000000      1.00000000      1.00000000      1.00000000      1.00000000      1.00000000      1.00000000      1.00000000      1.00000000      1.00000000      1.00000000      1.00000000      1.00000000      1.00000000      1.00000000      1.00000000
      1.00000000      1.00000000      1.00000000      1.00000000      1.00000000      1.00000000      1.00000000      1.00000000      1.00000000      1.00000000      1.00000000      1.00000000      1.00000000      1.00000000      1.00000000      1.00000000      1.00000000      1.00000000      1.00000000      1.00000000
      1.00000000      1.00000000      1.00000000      1.00000000      1.00000000      1.00000000      1.00000000      1.00000000      1.00000000      1.00000000      1.00000000      1.00000000      1.00000000      1.00000000      1.00000000      1.00000000      1.00000000</v>
    <i name="NUPDOWN">     -1.00000000</i>
    <i type="logical" name="LSORBIT"> F  </i>
    <v name="SAXIS">      0.00000000      0.00000000      1.00000000</v>
    <i type="logical" name="LSPIRAL"> F  </i>
    <v name="QSPIRAL">      0.00000000      0.00000000      0.00000000</v>
    <i type="logical" name="LZEROZ"> F  </i>
   </separator>
   <separator name="electronic exchange-correlation" >
    <i type="logical" name="LASPH"> F  </i>
    <i type="logical" name="LMETAGGA"> F  </i>
   </separator>
   <separator name="electronic convergence" >
    <i type="int" name="NELM">   100</i>
    <i type="int" name="NELMDL">    -5</i>
    <i type="int" name="NELMIN">     6</i>
    <i name="ENINI">    400.00000000</i>
    <separator name="electronic convergence detail" >
     <i type="logical" name="LDIAG"> T  </i>
     <i type="logical" name="LSUBROT"> F  </i>
     <i name="WEIMIN">      0.00000000</i>
     <i name="EBREAK">      0.00000007</i>
     <i name="DEPER">      0.30000000</i>
     <i type="int" name="NRMM">     4</i>
     <i name="TIME">      0.40000000</i>
    </separator>
   </separator>
   <separator name="electronic mixer" >
    <i name="AMIX">      0.40000000</i>
    <i name="BMIX">      1.00000000</i>
    <i name="AMIN">      0.10000000</i>
    <i name="AMIX_MAG">      1.60000000</i>
    <i name="BMIX_MAG">      1.00000000</i>
    <separator name="electronic mixer details" >
     <i type="int" name="IMIX">     4</i>
     <i type="logical" name="MIXFIRST"> F  </i>
     <i type="int" name="MAXMIX">   -45</i>
     <i name="WC">    100.00000000</i>
     <i type="int" name="INIMIX">     1</i>
     <i type="int" name="MIXPRE">     1</i>
     <i type="int" name="MREMOVE">     5</i>
    </separator>
   </separator>
   <separator name="electronic dipolcorrection" >
    <i type="logical" name="LDIPOL"> F  </i>
    <i type="logical" name="LMONO"> F  </i>
    <i type="int" name="IDIPOL">     0</i>
    <i name="EPSILON">      1.00000000</i>
    <v name="DIPOL">   -100.00000000   -100.00000000   -100.00000000</v>
    <i name="EFIELD">      0.00000000</i>
   </separator>
  </separator>
  <separator name="grids" >
   <i type="int" name="NGX">   150</i>
   <i type="int" name="NGY">   150</i>
   <i type="int" name="NGZ">   150</i>
   <i type="int" name="NGXF">   300</i>
   <i type="int" name="NGYF">   300</i>
   <i type="int" name="NGZF">   300</i>
   <i type="logical" name="ADDGRID"> F  </i>
  </separator>
  <separator name="ionic" >
   <i type="int" name="NSW">     0</i>
   <i type="int" name="IBRION">    -1</i>
   <i type="int" name="MDALGO">     0</i>
   <i type="int" name="ISIF">     2</i>
   <i name="PSTRESS">      0.00000000</i>
   <i name="EDIFFG">     -0.05000000</i>
   <i type="int" name="NFREE">     1</i>
   <i name="POTIM">      0.50000000</i>
   <i name="SMASS">     -3.00000000</i>
   <i name="SCALEE">      1.00000000</i>
  </separator>
  <separator name="ionic md" >
   <i name="TEBEG">      0.00010000</i>
   <i name="TEEND">      0.00010000</i>
   <i type="int" name="NBLOCK">     1</i>
   <i type="int" name="KBLOCK">     1</i>
   <i type="int" name="NPACO">   256</i>
   <i name="APACO">     16.00000000</i>
  </separator>
  <separator name="symmetry" >
   <i type="int" name="ISYM">     2</i>
   <i name="SYMPREC">      0.00001000</i>
  </separator>
  <separator name="dos" >
   <i type="int" name="LORBIT">     0</i>
   <v name="RWIGS">     -1.00000000     -1.00000000     -1.00000000</v>
   <i type="int" name="NEDOS">   301</i>
   <i name="EMIN">     10.00000000</i>
   <i name="EMAX">    -10.00000000</i>
   <i name="EFERMI">      0.00000000</i>
  </separator>
  <separator name="writing" >
   <i type="int" name="NWRITE">     2</i>
   <i type="logical" name="LWAVE"> F  </i>
   <i type="logical" name="LDOWNSAMPLE"> F  </i>
   <i type="logical" name="LCHARG"> F  </i>
   <i type="logical" name="LPARD"> F  </i>
   <i type="logical" name="LVTOT"> F  </i>
   <i type="logical" name="LVHAR"> F  </i>
   <i type="logical" name="LELF"> F  </i>
   <i type="logical" name="LOPTICS"> F  </i>
   <v name="STM">      0.00000000      0.00000000      0.00000000      0.00000000      0.00000000      0.00000000      0.00000000</v>
  </separator>
  <separator name="performance" >
   <i type="int" name="NPAR">     1</i>
   <i type="int" name="NSIM">     4</i>
   <i type="int" name="NBLK">    -1</i>
   <i type="logical" name="LPLANE"> T  </i>
   <i type="logical" name="LSCALAPACK"> T  </i>
   <i type="logical" name="LSCAAWARE"> F  </i>
   <i type="logical" name="LSCALU"> F  </i>
   <i type="logical" name="LASYNC"> F  </i>
   <i type="logical" name="LORBITALREAL"> F  </i>
  </separator>
  <separator name="miscellaneous" >
   <i type="int" name="IDIOT">     3</i>
   <i type="int" name="ISPECIAL">     0</i>
   <i type="logical" name="LMUSIC"> F  </i>
   <v name="POMASS">    106.42000000     12.01100000     16.00000000</v>
   <v name="DARWINR">      0.00000000      0.00000000      0.00000000</v>
   <v name="DARWINV">      1.00000000      1.00000000      1.00000000</v>
   <i type="logical" name="LCORR"> T  </i>
  </separator>
  <i type="logical" name="GGA_COMPAT"> T  </i>
  <i type="logical" name="LBERRY"> F  </i>
  <i type="int" name="ICORELEVEL">     0</i>
  <i type="logical" name="LDAU"> F  </i>
  <i type="int" name="I_CONSTRAINED_M">     0</i>
  <separator name="electronic exchange-correlation" >
   <i type="string" name="GGA">RP</i>
   <i type="int" name="VOSKOWN">     0</i>
   <i type="logical" name="LHFCALC"> F  </i>
   <i type="string" name="PRECFOCK"></i>
   <i type="logical" name="LSYMGRAD"> F  </i>
   <i type="logical" name="LHFONE"> F  </i>
   <i type="logical" name="LRHFCALC"> F  </i>
   <i type="logical" name="LTHOMAS"> F  </i>
   <i type="logical" name="LMODELHF"> F  </i>
   <i name="ENCUT4O">     -1.00000000</i>
   <i type="int" name="EXXOEP">     0</i>
   <i type="int" name="FOURORBIT">     0</i>
   <i name="AEXX">      0.00000000</i>
   <i name="HFALPHA">      0.00000000</i>
   <i name="MCALPHA">      0.00000000</i>
   <i name="ALDAX">      1.00000000</i>
   <i name="AGGAX">      1.00000000</i>
   <i name="ALDAC">      1.00000000</i>
   <i name="AGGAC">      1.00000000</i>
   <i type="int" name="NKREDX">     1</i>
   <i type="int" name="NKREDY">     1</i>
   <i type="int" name="NKREDZ">     1</i>
   <i type="logical" name="SHIFTRED"> F  </i>
   <i type="logical" name="ODDONLY"> F  </i>
   <i type="logical" name="EVENONLY"> F  </i>
   <i type="int" name="LMAXFOCK">     0</i>
   <i type="int" name="NMAXFOCKAE">     0</i>
   <i type="logical" name="LFOCKAEDFT"> F  </i>
   <i name="HFSCREEN">      0.00000000</i>
   <i name="HFSCREENC">      0.00000000</i>
   <i type="int" name="NBANDSGWLOW">     0</i>
  </separator>
  <separator name="vdW DFT" >
   <i type="logical" name="LUSE_VDW"> F  </i>
   <i name="Zab_VDW">     -0.84910000</i>
   <i name="PARAM1">      0.12340000</i>
   <i name="PARAM2">      1.00000000</i>
   <i name="PARAM3">      0.00000000</i>
  </separator>
  <separator name="model GW" >
   <i type="int" name="MODEL_GW">     0</i>
   <i name="MODEL_EPS0">    284.21052632</i>
   <i name="MODEL_ALPHA">      1.00000000</i>
  </separator>
  <separator name="linear response parameters" >
   <i type="logical" name="LEPSILON"> F  </i>
   <i type="logical" name="LRPA"> F  </i>
   <i type="logical" name="LNABLA"> F  </i>
   <i type="logical" name="LVEL"> F  </i>
   <i type="int" name="KINTER">     0</i>
   <i name="CSHIFT">      0.10000000</i>
   <i name="OMEGAMAX">     -1.00000000</i>
   <i name="DEG_THRESHOLD">      0.00200000</i>
   <i name="RTIME">     -0.10000000</i>
   <i name="WPLASMAI">      0.00000000</i>
   <v name="DFIELD">      0.00000000      0.00000000      0.00000000</v>
   <v name="WPLASMA">      0.00000000      0.00000000      0.00000000      0.00000000      0.00000000      0.00000000      0.00000000      0.00000000      0.00000000</v>
  </separator>
  <separator name="orbital magnetization" >
   <i type="logical" name="NUCIND"> F  </i>
   <v name="MAGPOS">      0.00000000      0.00000000      0.00000000</v>
   <i type="logical" name="LNICSALL"> T  </i>
   <i type="logical" name="ORBITALMAG"> F  </i>
   <i type="logical" name="LMAGBLOCH"> F  </i>
   <i type="logical" name="LCHIMAG"> F  </i>
   <i type="logical" name="LGAUGE"> T  </i>
   <i type="int" name="MAGATOM">     0</i>
   <v name="MAGDIPOL">      0.00000000      0.00000000      0.00000000</v>
   <v name="AVECCONST">      0.00000000      0.00000000      0.00000000</v>
  </separator>
  <separator name="response functions" >
   <i type="logical" name="LADDER"> F  </i>
   <i type="logical" name="LRPAFORCE"> F  </i>
   <i type="logical" name="LFXC"> F  </i>
   <i type="logical" name="LHARTREE"> T  </i>
   <i type="int" name="IBSE">     0</i>
   <v type="int" name="KPOINT">    -1     0     0     0</v>
   <i type="logical" name="LTCTE"> F  </i>
   <i type="logical" name="LTETE"> F  </i>
   <i type="logical" name="LTRIPLET"> F  </i>
   <i type="logical" name="LFXCEPS"> F  </i>
   <i type="logical" name="LFXHEG"> F  </i>
   <i type="int" name="NATURALO">     2</i>
   <i type="logical" name="L2ORDER"> F  </i>
   <i type="logical" name="LMP2LT"> F  </i>
   <i type="logical" name="LUSEW"> F  </i>
   <i name="ENCUTGW">     -2.00000000</i>
   <i name="ENCUTGWSOFT">     -2.00000000</i>
   <i name="ENCUTLF">     -1.00000000</i>
   <i type="int" name="LMAXMP2">    -1</i>
   <i name="SCISSOR">      0.00000000</i>
   <i type="int" name="NOMEGA">     0</i>
   <i type="int" name="NOMEGAR">     0</i>
   <i type="int" name="NBANDSGW">    -1</i>
   <i type="int" name="NBANDSO">    -1</i>
   <i type="int" name="NBANDSV">    -1</i>
   <i type="int" name="NELM">   100</i>
   <i type="int" name="NELMHF">     1</i>
   <i type="int" name="DIM">     3</i>
   <i type="int" name="ANTIRES">     0</i>
   <i name="OMEGAMAX">    -30.00000000</i>
   <i name="OMEGAMIN">    -30.00000000</i>
   <i name="OMEGATL">   -200.00000000</i>
   <i type="int" name="OMEGAGRID">   140</i>
   <i name="CSHIFT">     -0.10000000</i>
   <i type="logical" name="SELFENERGY"> F  </i>
   <i type="logical" name="LSPECTRAL"> F  </i>
   <i type="logical" name="LSPECTRALGW"> F  </i>
   <i type="logical" name="LSINGLES"> F  </i>
   <i type="logical" name="LFERMIGW"> F  </i>
   <i type="logical" name="ODDONLYGW"> F  </i>
   <i type="logical" name="EVENONLYGW"> F  </i>
   <i type="int" name="NKREDLFX">     1</i>
   <i type="int" name="NKREDLFY">     1</i>
   <i type="int" name="NKREDLFZ">     1</i>
   <i type="int" name="MAXMEM"> 10000</i>
   <i type="int" name="TELESCOPE">     0</i>
   <i type="int" name="TAUPAR">     1</i>
   <i type="int" name="OMEGAPAR">    -1</i>
   <i name="LAMBDA">      1.00000000</i>
  </separator>
  <separator name="External order field" >
   <i name="OFIELD_KAPPA">      0.00000000</i>
   <v name="OFIELD_K">      0.00000000      0.00000000      0.00000000</v>
   <i name="OFIELD_Q6_NEAR">      0.00000000</i>
   <i name="OFIELD_Q6_FAR">      0.00000000</i>
   <i name="OFIELD_A">      0.00000000</i>
  </separator>
 </parameters>
 <atominfo>
  <atoms>      57 </atoms>
  <types>       3 </types>
  <array name="atoms" >
   <dimension dim="1">ion</dimension>
   <field type="string">element</field>
   <field type="int">atomtype</field>
   <set>
    <rc><c>Pd</c><c>   1</c></rc>
    <rc><c>Pd</c><c>   1</c></rc>
    <rc><c>Pd</c><c>   1</c></rc>
    <rc><c>Pd</c><c>   1</c></rc>
    <rc><c>Pd</c><c>   1</c></rc>
    <rc><c>Pd</c><c>   1</c></rc>
    <rc><c>Pd</c><c>   1</c></rc>
    <rc><c>Pd</c><c>   1</c></rc>
    <rc><c>Pd</c><c>   1</c></rc>
    <rc><c>Pd</c><c>   1</c></rc>
    <rc><c>Pd</c><c>   1</c></rc>
    <rc><c>Pd</c><c>   1</c></rc>
    <rc><c>Pd</c><c>   1</c></rc>
    <rc><c>Pd</c><c>   1</c></rc>
    <rc><c>Pd</c><c>   1</c></rc>
    <rc><c>Pd</c><c>   1</c></rc>
    <rc><c>Pd</c><c>   1</c></rc>
    <rc><c>Pd</c><c>   1</c></rc>
    <rc><c>Pd</c><c>   1</c></rc>
    <rc><c>Pd</c><c>   1</c></rc>
    <rc><c>Pd</c><c>   1</c></rc>
    <rc><c>Pd</c><c>   1</c></rc>
    <rc><c>Pd</c><c>   1</c></rc>
    <rc><c>Pd</c><c>   1</c></rc>
    <rc><c>Pd</c><c>   1</c></rc>
    <rc><c>Pd</c><c>   1</c></rc>
    <rc><c>Pd</c><c>   1</c></rc>
    <rc><c>Pd</c><c>   1</c></rc>
    <rc><c>Pd</c><c>   1</c></rc>
    <rc><c>Pd</c><c>   1</c></rc>
    <rc><c>Pd</c><c>   1</c></rc>
    <rc><c>Pd</c><c>   1</c></rc>
    <rc><c>Pd</c><c>   1</c></rc>
    <rc><c>Pd</c><c>   1</c></rc>
    <rc><c>Pd</c><c>   1</c></rc>
    <rc><c>Pd</c><c>   1</c></rc>
    <rc><c>Pd</c><c>   1</c></rc>
    <rc><c>Pd</c><c>   1</c></rc>
    <rc><c>Pd</c><c>   1</c></rc>
    <rc><c>Pd</c><c>   1</c></rc>
    <rc><c>Pd</c><c>   1</c></rc>
    <rc><c>Pd</c><c>   1</c></rc>
    <rc><c>Pd</c><c>   1</c></rc>
    <rc><c>Pd</c><c>   1</c></rc>
    <rc><c>Pd</c><c>   1</c></rc>
    <rc><c>Pd</c><c>   1</c></rc>
    <rc><c>Pd</c><c>   1</c></rc>
    <rc><c>Pd</c><c>   1</c></rc>
    <rc><c>Pd</c><c>   1</c></rc>
    <rc><c>Pd</c><c>   1</c></rc>
    <rc><c>Pd</c><c>   1</c></rc>
    <rc><c>Pd</c><c>   1</c></rc>
    <rc><c>Pd</c><c>   1</c></rc>
    <rc><c>Pd</c><c>   1</c></rc>
    <rc><c>Pd</c><c>   1</c></rc>
    <rc><c>C </c><c>   2</c></rc>
    <rc><c>O </c><c>   3</c></rc>
   </set>
  </array>
  <array name="atomtypes" >
   <dimension dim="1">type</dimension>
   <field type="int">atomspertype</field>
   <field type="string">element</field>
   <field>mass</field>
   <field>valence</field>
   <field type="string">pseudopotential</field>
   <set>
    <rc><c>  55</c><c>Pd</c><c>    106.42000000</c><c>     10.00000000</c><c>  PAW_PBE Pd 04Jan2005                  </c></rc>
    <rc><c>   1</c><c>C </c><c>     12.01100000</c><c>      4.00000000</c><c>  PAW_PBE C 08Apr2002                   </c></rc>
    <rc><c>   1</c><c>O </c><c>     16.00000000</c><c>      6.00000000</c><c>  PAW_PBE O 08Apr2002                   </c></rc>
   </set>
  </array>
 </atominfo>
 <structure name="initialpos" >
  <crystal>
   <varray name="basis" >
    <v>      30.00000000       0.00000000       0.00000000 </v>
    <v>       0.00000000      30.00000000       0.00000000 </v>
    <v>       0.00000000       0.00000000      30.00000000 </v>
   </varray>
   <i name="volume">  27000.00000000 </i>
   <varray name="rec_basis" >
    <v>       0.03333333       0.00000000       0.00000000 </v>
    <v>       0.00000000       0.03333333       0.00000000 </v>
    <v>       0.00000000       0.00000000       0.03333333 </v>
   </varray>
  </crystal>
  <varray name="positions" >
   <v>       0.44576020       0.32826710       0.41691983 </v>
   <v>       0.67173288       0.55423978       0.41691983 </v>
   <v>       0.55423980       0.32826710       0.41691983 </v>
   <v>       0.32826712       0.55423978       0.41691983 </v>
   <v>       0.50000000       0.38250690       0.34021317 </v>
   <v>       0.50000000       0.38250690       0.65978680 </v>
   <v>       0.50000000       0.27609440       0.50000000 </v>
   <v>       0.27609443       0.49999998       0.50000000 </v>
   <v>       0.72390557       0.49999998       0.50000000 </v>
   <v>       0.50000000       0.72390555       0.50000000 </v>
   <v>       0.61195280       0.38804720       0.34167483 </v>
   <v>       0.61195280       0.38804720       0.65832513 </v>
   <v>       0.38804722       0.61195278       0.34167483 </v>
   <v>       0.38804722       0.61195278       0.65832513 </v>
   <v>       0.38804720       0.38804720       0.34167483 </v>
   <v>       0.38804720       0.38804720       0.65832513 </v>
   <v>       0.61195278       0.61195278       0.34167483 </v>
   <v>       0.61195278       0.61195278       0.65832513 </v>
   <v>       0.44576020       0.32826710       0.58308023 </v>
   <v>       0.67173288       0.55423978       0.58308023 </v>
   <v>       0.55791699       0.44208301       0.41809300 </v>
   <v>       0.32826705       0.44576024       0.41691983 </v>
   <v>       0.55423973       0.67173293       0.41691983 </v>
   <v>       0.55423980       0.32826710       0.58308023 </v>
   <v>       0.32826712       0.55423978       0.58308023 </v>
   <v>       0.67173295       0.44576024       0.41691983 </v>
   <v>       0.44576027       0.67173293       0.41691983 </v>
   <v>       0.44208301       0.44208301       0.41809300 </v>
   <v>       0.50000000       0.38416601       0.50000000 </v>
   <v>       0.61749315       0.50000005       0.34021317 </v>
   <v>       0.61749315       0.50000005       0.65978680 </v>
   <v>       0.38250685       0.50000005       0.34021317 </v>
   <v>       0.38250685       0.50000005       0.65978680 </v>
   <v>       0.38317830       0.38317830       0.50000000 </v>
   <v>       0.61682172       0.61682172       0.50000000 </v>
   <v>       0.61682170       0.38317830       0.50000000 </v>
   <v>       0.38317828       0.61682172       0.50000000 </v>
   <v>       0.50000000       0.50000000       0.33478917 </v>
   <v>       0.50000000       0.50000000       0.66521087 </v>
   <v>       0.32826705       0.44576024       0.58308023 </v>
   <v>       0.55423973       0.67173293       0.58308023 </v>
   <v>       0.55791699       0.44208301       0.58190703 </v>
   <v>       0.44208298       0.55791702       0.41809300 </v>
   <v>       0.44208301       0.44208301       0.58190703 </v>
   <v>       0.67173295       0.44576024       0.58308023 </v>
   <v>       0.44576027       0.67173293       0.58308023 </v>
   <v>       0.55791702       0.55791702       0.41809300 </v>
   <v>       0.38416599       0.50000002       0.50000000 </v>
   <v>       0.61583401       0.50000002       0.50000000 </v>
   <v>       0.50000000       0.61749319       0.34021317 </v>
   <v>       0.50000000       0.61749319       0.65978680 </v>
   <v>       0.50000000       0.50000000       0.50000000 </v>
   <v>       0.44208298       0.55791702       0.58190703 </v>
   <v>       0.55791702       0.55791702       0.58190703 </v>
   <v>       0.50000000       0.61583404       0.50000000 </v>
   <v>       0.34283370       0.54655937       0.68272817 </v>
   <v>       0.31876027       0.55369093       0.71071693 </v>
  </varray>
  <varray name="selective"  type="logical" >
   <v type="logical" >  F  F  F </v>
   <v type="logical" >  F  F  F </v>
   <v type="logical" >  F  F  F </v>
   <v type="logical" >  F  F  F </v>
   <v type="logical" >  F  F  F </v>
   <v type="logical" >  F  F  F </v>
   <v type="logical" >  F  F  F </v>
   <v type="logical" >  F  F  F </v>
   <v type="logical" >  F  F  F </v>
   <v type="logical" >  F  F  F </v>
   <v type="logical" >  F  F  F </v>
   <v type="logical" >  F  F  F </v>
   <v type="logical" >  F  F  F </v>
   <v type="logical" >  F  F  F </v>
   <v type="logical" >  F  F  F </v>
   <v type="logical" >  F  F  F </v>
   <v type="logical" >  F  F  F </v>
   <v type="logical" >  F  F  F </v>
   <v type="logical" >  F  F  F </v>
   <v type="logical" >  F  F  F </v>
   <v type="logical" >  F  F  F </v>
   <v type="logical" >  F  F  F </v>
   <v type="logical" >  F  F  F </v>
   <v type="logical" >  F  F  F </v>
   <v type="logical" >  F  F  F </v>
   <v type="logical" >  F  F  F </v>
   <v type="logical" >  F  F  F </v>
   <v type="logical" >  F  F  F </v>
   <v type="logical" >  F  F  F </v>
   <v type="logical" >  F  F  F </v>
   <v type="logical" >  F  F  F </v>
   <v type="logical" >  F  F  F </v>
   <v type="logical" >  F  F  F </v>
   <v type="logical" >  F  F  F </v>
   <v type="logical" >  F  F  F </v>
   <v type="logical" >  F  F  F </v>
   <v type="logical" >  F  F  F </v>
   <v type="logical" >  F  F  F </v>
   <v type="logical" >  F  F  F </v>
   <v type="logical" >  F  F  F </v>
   <v type="logical" >  F  F  F </v>
   <v type="logical" >  F  F  F </v>
   <v type="logical" >  F  F  F </v>
   <v type="logical" >  F  F  F </v>
   <v type="logical" >  F  F  F </v>
   <v type="logical" >  F  F  F </v>
   <v type="logical" >  F  F  F </v>
   <v type="logical" >  F  F  F </v>
   <v type="logical" >  F  F  F </v>
   <v type="logical" >  F  F  F </v>
   <v type="logical" >  F  F  F </v>
   <v type="logical" >  F  F  F </v>
   <v type="logical" >  F  F  F </v>
   <v type="logical" >  F  F  F </v>
   <v type="logical" >  F  F  F </v>
   <v type="logical" >  F  F  F </v>
   <v type="logical" >  F  F  F </v>
  </varray>
  <nose>
   <v>      -3.00000000       0.00000000       0.00010000       0.00010000 </v>
  </nose>
 </structure>
 <calculation>
  <scstep>
   <time name="dav">  360.29  360.34</time>
   <time name="total">  374.76  374.81</time>
   <energy>
    <i name="alphaZ">     75.25431677 </i>
    <i name="ewald"> 138405.29577393 </i>
    <i name="hartreedc">-181764.09617751 </i>
    <i name="XCdc">  -1702.68664444 </i>
    <i name="pawpsdc">  44873.02882129 </i>
    <i name="pawaedc"> -41398.84523641 </i>
    <i name="eentropy">      0.01833058 </i>
    <i name="bandstr">    815.13764343 </i>
    <i name="atom">  45086.50549395 </i>
    <i name="e_fr_energy">   4389.61232159 </i>
    <i name="e_wo_entrp">   4389.59399102 </i>
    <i name="e_0_energy">   4389.60773895 </i>
   </energy>
  </scstep>
  <scstep>
   <time name="dav">  573.28  573.34</time>
   <time name="total">  573.28  573.34</time>
   <energy>
    <i name="e_fr_energy">   2010.21114254 </i>
    <i name="e_wo_entrp">   2010.20934301 </i>
    <i name="e_0_energy">   2010.21069266 </i>
   </energy>
  </scstep>
  <scstep>
   <time name="dav">  483.55  483.57</time>
   <time name="total">  483.55  483.57</time>
   <energy>
    <i name="e_fr_energy">    232.05607575 </i>
    <i name="e_wo_entrp">    232.05355517 </i>
    <i name="e_0_energy">    232.05544560 </i>
   </energy>
  </scstep>
  <scstep>
   <time name="dav">  413.64  413.64</time>
   <time name="total">  413.64  413.64</time>
   <energy>
    <i name="e_fr_energy">   -134.50611300 </i>
    <i name="e_wo_entrp">   -134.50243547 </i>
    <i name="e_0_energy">   -134.50519362 </i>
   </energy>
  </scstep>
  <scstep>
   <time name="dav">  500.97  500.97</time>
   <time name="total">  526.98  526.97</time>
   <energy>
    <i name="e_fr_energy">   -180.72780636 </i>
    <i name="e_wo_entrp">   -181.28146143 </i>
    <i name="e_0_energy">   -180.86622013 </i>
   </energy>
  </scstep>
  <scstep>
   <time name="diag">   66.03   66.03</time>
   <time name="diis">  200.08  200.08</time>
   <time name="orth">   13.52   13.52</time>
   <time name="total">  318.67  318.67</time>
   <energy>
    <i name="e_fr_energy">   -180.32216234 </i>
    <i name="e_wo_entrp">   -180.13681807 </i>
    <i name="e_0_energy">   -180.27582627 </i>
   </energy>
  </scstep>
  <scstep>
   <time name="diag">   66.07   66.07</time>
   <time name="diis">  232.22  232.23</time>
   <time name="orth">   13.92   13.92</time>
   <time name="total">  350.83  350.84</time>
   <energy>
    <i name="e_fr_energy">   -185.15631889 </i>
    <i name="e_wo_entrp">   -185.03170933 </i>
    <i name="e_0_energy">   -185.12516650 </i>
   </energy>
  </scstep>
  <scstep>
   <time name="diag">   66.16   66.16</time>
   <time name="diis">  229.02  229.02</time>
   <time name="orth">   13.62   13.62</time>
   <time name="total">  347.64  347.64</time>
   <energy>
    <i name="e_fr_energy">   -183.58576945 </i>
    <i name="e_wo_entrp">   -183.41414916 </i>
    <i name="e_0_energy">   -183.54286438 </i>
   </energy>
  </scstep>
  <scstep>
   <time name="diag">   66.13   66.13</time>
   <time name="diis">  201.83  201.83</time>
   <time name="orth">   13.72   13.72</time>
   <time name="total">  320.16  320.16</time>
   <energy>
    <i name="e_fr_energy">   -181.80429682 </i>
    <i name="e_wo_entrp">   -181.74911445 </i>
    <i name="e_0_energy">   -181.79050123 </i>
   </energy>
  </scstep>
  <scstep>
   <time name="diag">   66.10   66.10</time>
   <time name="diis">  205.28  205.28</time>
   <time name="orth">   13.49   13.49</time>
   <time name="total">  323.85  323.85</time>
   <energy>
    <i name="e_fr_energy">   -180.65378127 </i>
    <i name="e_wo_entrp">   -180.50233061 </i>
    <i name="e_0_energy">   -180.61591861 </i>
   </energy>
  </scstep>
  <scstep>
   <time name="diag">   66.03   66.03</time>
   <time name="diis">  201.57  201.57</time>
   <time name="orth">   13.49   13.49</time>
   <time name="total">  320.13  320.13</time>
   <energy>
    <i name="e_fr_energy">   -178.69950356 </i>
    <i name="e_wo_entrp">   -178.55044661 </i>
    <i name="e_0_energy">   -178.66223933 </i>
   </energy>
  </scstep>
  <scstep>
   <time name="diag">   66.20   66.20</time>
   <time name="diis">  198.90  198.91</time>
   <time name="orth">   13.68   13.68</time>
   <time name="total">  317.60  317.61</time>
   <energy>
    <i name="e_fr_energy">   -177.38735502 </i>
    <i name="e_wo_entrp">   -177.30952824 </i>
    <i name="e_0_energy">   -177.36789832 </i>
   </energy>
  </scstep>
  <scstep>
   <time name="diag">   66.21   66.21</time>
   <time name="diis">  196.65  196.65</time>
   <time name="orth">   13.59   13.59</time>
   <time name="total">  315.40  315.40</time>
   <energy>
    <i name="e_fr_energy">   -177.04064018 </i>
    <i name="e_wo_entrp">   -176.93023493 </i>
    <i name="e_0_energy">   -177.01303886 </i>
   </energy>
  </scstep>
  <scstep>
   <time name="diag">   66.19   66.19</time>
   <time name="diis">  195.61  195.61</time>
   <time name="orth">   13.82   13.82</time>
   <time name="total">  314.49  314.49</time>
   <energy>
    <i name="e_fr_energy">   -176.98613290 </i>
    <i name="e_wo_entrp">   -176.94681507 </i>
    <i name="e_0_energy">   -176.97630344 </i>
   </energy>
  </scstep>
  <scstep>
   <time name="diag">   65.98   65.98</time>
   <time name="diis">  197.85  197.85</time>
   <time name="orth">   13.92   13.92</time>
   <time name="total">  316.70  316.70</time>
   <energy>
    <i name="e_fr_energy">   -176.50042261 </i>
    <i name="e_wo_entrp">   -176.46655582 </i>
    <i name="e_0_energy">   -176.49195591 </i>
   </energy>
  </scstep>
  <scstep>
   <time name="diag">   66.12   66.12</time>
   <time name="diis">  197.55  197.55</time>
   <time name="orth">   13.88   13.88</time>
   <time name="total">  316.43  316.43</time>
   <energy>
    <i name="e_fr_energy">   -176.42804384 </i>
    <i name="e_wo_entrp">   -176.42678349 </i>
    <i name="e_0_energy">   -176.42772876 </i>
   </energy>
  </scstep>
  <scstep>
   <time name="diag">   66.29   66.29</time>
   <time name="diis">  195.78  195.78</time>
   <time name="orth">   13.83   13.83</time>
   <time name="total">  315.32  315.32</time>
   <energy>
    <i name="e_fr_energy">   -176.11209965 </i>
    <i name="e_wo_entrp">   -176.10822255 </i>
    <i name="e_0_energy">   -176.11113038 </i>
   </energy>
  </scstep>
  <scstep>
   <time name="diag">   66.17   66.17</time>
   <time name="diis">  193.79  193.79</time>
   <time name="orth">   13.79   13.79</time>
   <time name="total">  313.21  313.21</time>
   <energy>
    <i name="e_fr_energy">   -176.08749925 </i>
    <i name="e_wo_entrp">   -176.03734898 </i>
    <i name="e_0_energy">   -176.07496168 </i>
   </energy>
  </scstep>
  <scstep>
   <time name="diag">   66.26   66.26</time>
   <time name="diis">  192.67  192.67</time>
   <time name="orth">   13.81   13.81</time>
   <time name="total">  312.37  312.37</time>
   <energy>
    <i name="e_fr_energy">   -175.87060147 </i>
    <i name="e_wo_entrp">   -175.83573619 </i>
    <i name="e_0_energy">   -175.86188515 </i>
   </energy>
  </scstep>
  <scstep>
   <time name="diag">   66.09   66.09</time>
   <time name="diis">  192.92  192.92</time>
   <time name="orth">   13.89   13.89</time>
   <time name="total">  312.60  312.60</time>
   <energy>
    <i name="e_fr_energy">   -175.56475763 </i>
    <i name="e_wo_entrp">   -175.48601211 </i>
    <i name="e_0_energy">   -175.54507125 </i>
   </energy>
  </scstep>
  <scstep>
   <time name="diag">   66.26   66.26</time>
   <time name="diis">  191.25  191.25</time>
   <time name="orth">   14.04   14.04</time>
   <time name="total">  311.00  311.01</time>
   <energy>
    <i name="e_fr_energy">   -175.68045022 </i>
    <i name="e_wo_entrp">   -175.61768177 </i>
    <i name="e_0_energy">   -175.66475811 </i>
   </energy>
  </scstep>
  <scstep>
   <time name="diag">   66.14   66.15</time>
   <time name="diis">  192.11  192.11</time>
   <time name="orth">   13.83   13.83</time>
   <time name="total">  311.67  311.68</time>
   <energy>
    <i name="e_fr_energy">   -175.54638581 </i>
    <i name="e_wo_entrp">   -175.45205753 </i>
    <i name="e_0_energy">   -175.52280374 </i>
   </energy>
  </scstep>
  <scstep>
   <time name="diag">   66.40   66.40</time>
   <time name="diis">  190.13  190.13</time>
   <time name="orth">   13.84   13.84</time>
   <time name="total">  310.25  310.25</time>
   <energy>
    <i name="e_fr_energy">   -175.41518865 </i>
    <i name="e_wo_entrp">   -175.30779769 </i>
    <i name="e_0_energy">   -175.38834091 </i>
   </energy>
  </scstep>
  <scstep>
   <time name="diag">   66.27   66.27</time>
   <time name="diis">  190.62  190.63</time>
   <time name="orth">   13.83   13.83</time>
   <time name="total">  310.81  310.81</time>
   <energy>
    <i name="e_fr_energy">   -175.40194109 </i>
    <i name="e_wo_entrp">   -175.31359160 </i>
    <i name="e_0_energy">   -175.37985372 </i>
   </energy>
  </scstep>
  <scstep>
   <time name="diag">   66.37   66.37</time>
   <time name="diis">  190.37  190.37</time>
   <time name="orth">   13.61   13.61</time>
   <time name="total">  310.39  310.39</time>
   <energy>
    <i name="e_fr_energy">   -175.39663884 </i>
    <i name="e_wo_entrp">   -175.31526689 </i>
    <i name="e_0_energy">   -175.37629585 </i>
   </energy>
  </scstep>
  <scstep>
   <time name="diag">   66.16   66.16</time>
   <time name="diis">  191.89  191.93</time>
   <time name="orth">   13.62   13.62</time>
   <time name="total">  311.97  312.00</time>
   <energy>
    <i name="e_fr_energy">   -175.33939668 </i>
    <i name="e_wo_entrp">   -175.25682442 </i>
    <i name="e_0_energy">   -175.31875361 </i>
   </energy>
  </scstep>
  <scstep>
   <time name="diag">   66.16   66.16</time>
   <time name="diis">  188.54  188.54</time>
   <time name="orth">   13.64   13.64</time>
   <time name="total">  308.65  308.66</time>
   <energy>
    <i name="e_fr_energy">   -175.32954487 </i>
    <i name="e_wo_entrp">   -175.24826744 </i>
    <i name="e_0_energy">   -175.30922551 </i>
   </energy>
  </scstep>
  <scstep>
   <time name="diag">   66.10   66.10</time>
   <time name="diis">  190.40  190.40</time>
   <time name="orth">   13.55   13.55</time>
   <time name="total">  310.74  310.74</time>
   <energy>
    <i name="e_fr_energy">   -175.31561292 </i>
    <i name="e_wo_entrp">   -175.21753817 </i>
    <i name="e_0_energy">   -175.29109423 </i>
   </energy>
  </scstep>
  <scstep>
   <time name="diag">   66.16   66.16</time>
   <time name="diis">  189.70  189.70</time>
   <time name="orth">   13.56   13.56</time>
   <time name="total">  310.41  310.41</time>
   <energy>
    <i name="e_fr_energy">   -175.30304127 </i>
    <i name="e_wo_entrp">   -175.20530950 </i>
    <i name="e_0_energy">   -175.27860833 </i>
   </energy>
  </scstep>
  <scstep>
   <time name="diag">   66.17   66.17</time>
   <time name="diis">  190.37  190.37</time>
   <time name="orth">   13.55   13.55</time>
   <time name="total">  311.16  311.17</time>
   <energy>
    <i name="e_fr_energy">   -175.30121114 </i>
    <i name="e_wo_entrp">   -175.21123370 </i>
    <i name="e_0_energy">   -175.27871678 </i>
   </energy>
  </scstep>
  <scstep>
   <time name="diag">   66.41   66.41</time>
   <time name="diis">  188.95  188.95</time>
   <time name="orth">   13.54   13.54</time>
   <time name="total">  310.04  310.04</time>
   <energy>
    <i name="e_fr_energy">   -175.29482228 </i>
    <i name="e_wo_entrp">   -175.19997296 </i>
    <i name="e_0_energy">   -175.27110995 </i>
   </energy>
  </scstep>
  <scstep>
   <time name="diag">   66.40   66.40</time>
   <time name="diis">  189.12  189.12</time>
   <time name="orth">   13.48   13.48</time>
   <time name="total">  310.24  310.24</time>
   <energy>
    <i name="e_fr_energy">   -175.29247197 </i>
    <i name="e_wo_entrp">   -175.19254690 </i>
    <i name="e_0_energy">   -175.26749071 </i>
   </energy>
  </scstep>
  <scstep>
   <time name="diag">   66.51   66.51</time>
   <time name="diis">  189.48  189.48</time>
   <time name="orth">   13.59   13.59</time>
   <time name="total">  310.84  310.84</time>
   <energy>
    <i name="e_fr_energy">   -175.29164323 </i>
    <i name="e_wo_entrp">   -175.19478645 </i>
    <i name="e_0_energy">   -175.26742904 </i>
   </energy>
  </scstep>
  <scstep>
   <time name="diag">   66.64   66.64</time>
   <time name="diis">  188.25  188.25</time>
   <time name="orth">   13.50   13.50</time>
   <time name="total">  309.74  309.74</time>
   <energy>
    <i name="e_fr_energy">   -175.29225599 </i>
    <i name="e_wo_entrp">   -175.19134304 </i>
    <i name="e_0_energy">   -175.26702775 </i>
   </energy>
  </scstep>
  <scstep>
   <time name="diag">   66.64   66.64</time>
   <time name="diis">  187.73  187.73</time>
   <time name="orth">   13.49   13.49</time>
   <time name="total">  309.45  309.45</time>
   <energy>
    <i name="e_fr_energy">   -175.29212851 </i>
    <i name="e_wo_entrp">   -175.19368212 </i>
    <i name="e_0_energy">   -175.26751691 </i>
   </energy>
  </scstep>
  <scstep>
   <time name="diag">   66.72   66.72</time>
   <time name="diis">  187.33  187.34</time>
   <time name="orth">   13.49   13.49</time>
   <time name="total">  309.06  309.06</time>
   <energy>
    <i name="e_fr_energy">   -175.29320605 </i>
    <i name="e_wo_entrp">   -175.19625431 </i>
    <i name="e_0_energy">   -175.26896812 </i>
   </energy>
  </scstep>
  <scstep>
   <time name="diag">   66.67   66.67</time>
   <time name="diis">  187.33  187.33</time>
   <time name="orth">   13.56   13.56</time>
   <time name="total">  309.33  309.33</time>
   <energy>
    <i name="e_fr_energy">   -175.29567921 </i>
    <i name="e_wo_entrp">   -175.19975291 </i>
    <i name="e_0_energy">   -175.27169764 </i>
   </energy>
  </scstep>
  <scstep>
   <time name="diag">   66.86   66.86</time>
   <time name="diis">  176.60  176.60</time>
   <time name="orth">   14.11   14.11</time>
   <time name="total">  298.79  298.79</time>
   <energy>
    <i name="e_fr_energy">   -175.29713863 </i>
    <i name="e_wo_entrp">   -175.20117198 </i>
    <i name="e_0_energy">   -175.27314697 </i>
   </energy>
  </scstep>
  <scstep>
   <time name="diag">   66.86   66.86</time>
   <time name="diis">  177.44  177.44</time>
   <time name="orth">   13.66   13.66</time>
   <time name="total">  299.84  299.84</time>
   <energy>
    <i name="e_fr_energy">   -175.30002756 </i>
    <i name="e_wo_entrp">   -175.20289179 </i>
    <i name="e_0_energy">   -175.27574362 </i>
   </energy>
  </scstep>
  <scstep>
   <time name="diag">   66.87   66.87</time>
   <time name="diis">  151.12  151.12</time>
   <time name="orth">   13.54   13.54</time>
   <time name="total">  273.23  273.23</time>
   <energy>
    <i name="e_fr_energy">   -175.30207484 </i>
    <i name="e_wo_entrp">   -175.20389358 </i>
    <i name="e_0_energy">   -175.27752952 </i>
   </energy>
  </scstep>
  <scstep>
   <time name="diag">   66.72   66.72</time>
   <time name="diis">  146.57  146.57</time>
   <time name="orth">   13.74   13.74</time>
   <time name="total">  268.60  268.60</time>
   <energy>
    <i name="e_fr_energy">   -175.30469466 </i>
    <i name="e_wo_entrp">   -175.20651062 </i>
    <i name="e_0_energy">   -175.28014865 </i>
   </energy>
  </scstep>
  <scstep>
   <time name="diag">   66.91   66.91</time>
   <time name="diis">  153.31  153.31</time>
   <time name="orth">   13.64   13.64</time>
   <time name="total">  275.46  275.46</time>
   <energy>
    <i name="e_fr_energy">   -175.30764896 </i>
    <i name="e_wo_entrp">   -175.21031054 </i>
    <i name="e_0_energy">   -175.28331435 </i>
   </energy>
  </scstep>
  <scstep>
   <time name="diag">   67.65   67.65</time>
   <time name="diis">  126.70  126.70</time>
   <time name="orth">   13.62   13.62</time>
   <time name="total">  249.65  249.65</time>
   <energy>
    <i name="e_fr_energy">   -175.30935617 </i>
    <i name="e_wo_entrp">   -175.21189448 </i>
    <i name="e_0_energy">   -175.28499075 </i>
   </energy>
  </scstep>
  <scstep>
   <time name="diag">   67.60   67.60</time>
   <time name="diis">  131.74  131.75</time>
   <time name="orth">   13.52   13.52</time>
   <time name="total">  254.62  254.63</time>
   <energy>
    <i name="e_fr_energy">   -175.31136550 </i>
    <i name="e_wo_entrp">   -175.21384364 </i>
    <i name="e_0_energy">   -175.28698504 </i>
   </energy>
  </scstep>
  <scstep>
   <time name="diag">   67.51   67.51</time>
   <time name="diis">  120.27  120.27</time>
   <time name="orth">   13.52   13.52</time>
   <time name="total">  243.19  243.19</time>
   <energy>
    <i name="e_fr_energy">   -175.31236688 </i>
    <i name="e_wo_entrp">   -175.21477626 </i>
    <i name="e_0_energy">   -175.28796922 </i>
   </energy>
  </scstep>
  <scstep>
   <time name="diag">   67.58   67.58</time>
   <time name="diis">  117.75  117.75</time>
   <time name="orth">   13.90   13.90</time>
   <time name="total">  241.11  241.11</time>
   <energy>
    <i name="e_fr_energy">   -175.31384456 </i>
    <i name="e_wo_entrp">   -175.21711478 </i>
    <i name="e_0_energy">   -175.28966211 </i>
   </energy>
  </scstep>
  <scstep>
   <time name="diag">   67.57   67.57</time>
   <time name="diis">  118.22  118.22</time>
   <time name="orth">   13.90   13.90</time>
   <time name="total">  241.88  241.88</time>
   <energy>
    <i name="e_fr_energy">   -175.31478456 </i>
    <i name="e_wo_entrp">   -175.21755883 </i>
    <i name="e_0_energy">   -175.29047813 </i>
   </energy>
  </scstep>
  <scstep>
   <time name="diag">   67.41   67.41</time>
   <time name="diis">  116.54  116.54</time>
   <time name="orth">   13.98   13.98</time>
   <time name="total">  240.32  240.32</time>
   <energy>
    <i name="e_fr_energy">   -175.31563733 </i>
    <i name="e_wo_entrp">   -175.21813741 </i>
    <i name="e_0_energy">   -175.29126235 </i>
   </energy>
  </scstep>
  <scstep>
   <time name="diag">   67.36   67.36</time>
   <time name="diis">  116.97  116.98</time>
   <time name="orth">   13.99   14.00</time>
   <time name="total">  240.87  240.88</time>
   <energy>
    <i name="e_fr_energy">   -175.31646860 </i>
    <i name="e_wo_entrp">   -175.21894253 </i>
    <i name="e_0_energy">   -175.29208708 </i>
   </energy>
  </scstep>
  <scstep>
   <time name="diag">   67.25   67.26</time>
   <time name="diis">  112.76  112.77</time>
   <time name="orth">   13.84   13.84</time>
   <time name="total">  236.28  236.30</time>
   <energy>
    <i name="e_fr_energy">   -175.31692751 </i>
    <i name="e_wo_entrp">   -175.21952401 </i>
    <i name="e_0_energy">   -175.29257664 </i>
   </energy>
  </scstep>
  <scstep>
   <time name="diag">   67.55   67.55</time>
   <time name="diis">  116.18  116.23</time>
   <time name="orth">   13.85   13.85</time>
   <time name="total">  239.87  239.92</time>
   <energy>
    <i name="e_fr_energy">   -175.31766448 </i>
    <i name="e_wo_entrp">   -175.22040091 </i>
    <i name="e_0_energy">   -175.29334859 </i>
   </energy>
  </scstep>
  <scstep>
   <time name="diag">   67.17   67.17</time>
   <time name="diis">   95.51   95.51</time>
   <time name="orth">   13.60   13.60</time>
   <time name="total">  218.99  218.99</time>
   <energy>
    <i name="e_fr_energy">   -175.31797061 </i>
    <i name="e_wo_entrp">   -175.22069984 </i>
    <i name="e_0_energy">   -175.29365292 </i>
   </energy>
  </scstep>
  <scstep>
   <time name="diag">   67.34   67.34</time>
   <time name="diis">  105.23  105.23</time>
   <time name="orth">   13.64   13.64</time>
   <time name="total">  228.72  228.73</time>
   <energy>
    <i name="e_fr_energy">   -175.31851083 </i>
    <i name="e_wo_entrp">   -175.22117980 </i>
    <i name="e_0_energy">   -175.29417808 </i>
   </energy>
  </scstep>
  <scstep>
   <time name="diag">   67.42   67.42</time>
   <time name="diis">   93.46   93.46</time>
   <time name="orth">   13.65   13.65</time>
   <time name="total">  217.27  217.29</time>
   <energy>
    <i name="e_fr_energy">   -175.31890848 </i>
    <i name="e_wo_entrp">   -175.22158229 </i>
    <i name="e_0_energy">   -175.29457694 </i>
   </energy>
  </scstep>
  <scstep>
   <time name="diag">   67.02   67.02</time>
   <time name="diis">   86.94   86.95</time>
   <time name="orth">   13.56   13.56</time>
   <time name="total">  210.00  210.01</time>
   <energy>
    <i name="e_fr_energy">   -175.31913685 </i>
    <i name="e_wo_entrp">   -175.22181342 </i>
    <i name="e_0_energy">   -175.29480599 </i>
   </energy>
  </scstep>
  <scstep>
   <time name="diag">   66.96   66.96</time>
   <time name="diis">   93.19   93.19</time>
   <time name="orth">   13.65   13.65</time>
   <time name="total">  215.91  215.91</time>
   <energy>
    <i name="e_fr_energy">   -175.31941941 </i>
    <i name="e_wo_entrp">   -175.22219831 </i>
    <i name="e_0_energy">   -175.29511414 </i>
   </energy>
  </scstep>
  <scstep>
   <time name="diag">   67.36   67.36</time>
   <time name="diis">   83.19   83.19</time>
   <time name="orth">   13.33   13.33</time>
   <time name="total">  206.59  206.59</time>
   <energy>
    <i name="e_fr_energy">   -175.31960226 </i>
    <i name="e_wo_entrp">   -175.22230000 </i>
    <i name="e_0_energy">   -175.29527669 </i>
   </energy>
  </scstep>
  <scstep>
   <time name="diag">   67.06   67.06</time>
   <time name="diis">   88.88   88.88</time>
   <time name="orth">   13.46   13.46</time>
   <time name="total">  212.07  212.08</time>
   <energy>
    <i name="e_fr_energy">   -175.31977440 </i>
    <i name="e_wo_entrp">   -175.22244119 </i>
    <i name="e_0_energy">   -175.29544110 </i>
   </energy>
  </scstep>
  <scstep>
   <time name="diag">   66.99   67.00</time>
   <time name="diis">   81.41   81.41</time>
   <time name="orth">   13.41   13.41</time>
   <time name="total">  204.57  204.58</time>
   <energy>
    <i name="e_fr_energy">   -175.31991065 </i>
    <i name="e_wo_entrp">   -175.22260028 </i>
    <i name="e_0_energy">   -175.29558306 </i>
   </energy>
  </scstep>
  <scstep>
   <time name="diag">   66.56   66.56</time>
   <time name="diis">   79.63   79.63</time>
   <time name="orth">   13.28   13.28</time>
   <time name="total">  173.11  173.11</time>
   <energy>
    <i name="alphaZ">     75.25431677 </i>
    <i name="ewald"> 138405.29577393 </i>
    <i name="hartreedc">-182756.47856599 </i>
    <i name="XCdc">  -1692.05464882 </i>
    <i name="pawpsdc">  46179.86981590 </i>
    <i name="pawaedc"> -42650.75076687 </i>
    <i name="eentropy">     -0.09730353 </i>
    <i name="bandstr">  -2822.86410506 </i>
    <i name="atom">  45086.50549395 </i>
    <i name="e_fr_energy">   -175.31998971 </i>
    <i name="e_wo_entrp">   -175.22268619 </i>
    <i name="e_0_energy">   -175.29566383 </i>
   </energy>
  </scstep>
  <structure>
   <crystal>
    <varray name="basis" >
     <v>      30.00000000       0.00000000       0.00000000 </v>
     <v>       0.00000000      30.00000000       0.00000000 </v>
     <v>       0.00000000       0.00000000      30.00000000 </v>
    </varray>
    <i name="volume">  27000.00000000 </i>
    <varray name="rec_basis" >
     <v>       0.03333333       0.00000000       0.00000000 </v>
     <v>       0.00000000       0.03333333       0.00000000 </v>
     <v>       0.00000000       0.00000000       0.03333333 </v>
    </varray>
   </crystal>
   <varray name="positions" >
    <v>       0.44576020       0.32826710       0.41691983 </v>
    <v>       0.67173288       0.55423978       0.41691983 </v>
    <v>       0.55423980       0.32826710       0.41691983 </v>
    <v>       0.32826712       0.55423978       0.41691983 </v>
    <v>       0.50000000       0.38250690       0.34021317 </v>
    <v>       0.50000000       0.38250690       0.65978680 </v>
    <v>       0.50000000       0.27609440       0.50000000 </v>
    <v>       0.27609443       0.49999998       0.50000000 </v>
    <v>       0.72390557       0.49999998       0.50000000 </v>
    <v>       0.50000000       0.72390555       0.50000000 </v>
    <v>       0.61195280       0.38804720       0.34167483 </v>
    <v>       0.61195280       0.38804720       0.65832513 </v>
    <v>       0.38804722       0.61195278       0.34167483 </v>
    <v>       0.38804722       0.61195278       0.65832513 </v>
    <v>       0.38804720       0.38804720       0.34167483 </v>
    <v>       0.38804720       0.38804720       0.65832513 </v>
    <v>       0.61195278       0.61195278       0.34167483 </v>
    <v>       0.61195278       0.61195278       0.65832513 </v>
    <v>       0.44576020       0.32826710       0.58308023 </v>
    <v>       0.67173288       0.55423978       0.58308023 </v>
    <v>       0.55791699       0.44208301       0.41809300 </v>
    <v>       0.32826705       0.44576024       0.41691983 </v>
    <v>       0.55423973       0.67173293       0.41691983 </v>
    <v>       0.55423980       0.32826710       0.58308023 </v>
    <v>       0.32826712       0.55423978       0.58308023 </v>
    <v>       0.67173295       0.44576024       0.41691983 </v>
    <v>       0.44576027       0.67173293       0.41691983 </v>
    <v>       0.44208301       0.44208301       0.41809300 </v>
    <v>       0.50000000       0.38416601       0.50000000 </v>
    <v>       0.61749315       0.50000005       0.34021317 </v>
    <v>       0.61749315       0.50000005       0.65978680 </v>
    <v>       0.38250685       0.50000005       0.34021317 </v>
    <v>       0.38250685       0.50000005       0.65978680 </v>
    <v>       0.38317830       0.38317830       0.50000000 </v>
    <v>       0.61682172       0.61682172       0.50000000 </v>
    <v>       0.61682170       0.38317830       0.50000000 </v>
    <v>       0.38317828       0.61682172       0.50000000 </v>
    <v>       0.50000000       0.50000000       0.33478917 </v>
    <v>       0.50000000       0.50000000       0.66521087 </v>
    <v>       0.32826705       0.44576024       0.58308023 </v>
    <v>       0.55423973       0.67173293       0.58308023 </v>
    <v>       0.55791699       0.44208301       0.58190703 </v>
    <v>       0.44208298       0.55791702       0.41809300 </v>
    <v>       0.44208301       0.44208301       0.58190703 </v>
    <v>       0.67173295       0.44576024       0.58308023 </v>
    <v>       0.44576027       0.67173293       0.58308023 </v>
    <v>       0.55791702       0.55791702       0.41809300 </v>
    <v>       0.38416599       0.50000002       0.50000000 </v>
    <v>       0.61583401       0.50000002       0.50000000 </v>
    <v>       0.50000000       0.61749319       0.34021317 </v>
    <v>       0.50000000       0.61749319       0.65978680 </v>
    <v>       0.50000000       0.50000000       0.50000000 </v>
    <v>       0.44208298       0.55791702       0.58190703 </v>
    <v>       0.55791702       0.55791702       0.58190703 </v>
    <v>       0.50000000       0.61583404       0.50000000 </v>
    <v>       0.34283370       0.54655937       0.68272817 </v>
    <v>       0.31876027       0.55369093       0.71071693 </v>
   </varray>
  </structure>
  <varray name="forces" >
   <v>       0.71649664       1.10274415       0.28235316 </v>
   <v>      -1.10540476      -0.70461678       0.28942294 </v>
   <v>      -0.71444982       1.10102215       0.30430651 </v>
   <v>       1.10521958      -0.70730510       0.29369067 </v>
   <v>      -0.01607091       0.41397733       1.28579174 </v>
   <v>      -0.00570862       0.41521198      -1.28728690 </v>
   <v>       0.00335105       1.52096882      -0.00802288 </v>
   <v>       1.54242844       0.02530036       0.01559593 </v>
   <v>      -1.51576862       0.00061360       0.00628632 </v>
   <v>       0.00767891      -1.51094616      -0.02154400 </v>
   <v>      -0.75765907       0.75072178       1.07116522 </v>
   <v>      -0.75315161       0.75995655      -1.07620445 </v>
   <v>       0.76437542      -0.75356815       1.07489749 </v>
   <v>       0.21559269      -1.42349443      -0.78451535 </v>
   <v>       0.76065089       0.75446745       1.07313924 </v>
   <v>       0.78029257       0.76221803      -1.08290863 </v>
   <v>      -0.76095793      -0.75271895       1.07534960 </v>
   <v>      -0.75123864      -0.75597555      -1.07722763 </v>
   <v>       0.69666298       1.11329375      -0.28803670 </v>
   <v>      -1.10399166      -0.71495686      -0.29017083 </v>
   <v>       0.11529289      -0.10614331      -0.15582945 </v>
   <v>       1.10514162       0.70319390       0.29662520 </v>
   <v>      -0.71059405      -1.10896974       0.28355627 </v>
   <v>      -0.70138299       1.10995744      -0.29023944 </v>
   <v>       0.99390471      -0.72921617      -0.18044740 </v>
   <v>      -1.10738132       0.70864959       0.29502964 </v>
   <v>       0.71540068      -1.11110674       0.28342493 </v>
   <v>      -0.10236071      -0.11614825      -0.16590004 </v>
   <v>       0.01316475      -0.25306199      -0.02600472 </v>
   <v>      -0.40997015       0.00567164       1.28391718 </v>
   <v>      -0.39365260      -0.00497418      -1.29516998 </v>
   <v>       0.41626399       0.00049550       1.28032024 </v>
   <v>      -0.20934101       0.52556824      -1.02629858 </v>
   <v>       0.81372743       0.83975696       0.01280756 </v>
   <v>      -0.82513010      -0.83357572      -0.00397718 </v>
   <v>      -0.82597629       0.82820009       0.00195824 </v>
   <v>       0.83177939      -0.82362613      -0.02469698 </v>
   <v>      -0.00170080       0.00152097       1.17587703 </v>
   <v>       0.07411446      -0.02636239      -1.18370772 </v>
   <v>       1.10700731       0.61230165      -0.37667282 </v>
   <v>      -0.73048751      -1.10841903      -0.26852950 </v>
   <v>       0.10601258      -0.11246952       0.16618429 </v>
   <v>      -0.11453515       0.11508430      -0.15619473 </v>
   <v>      -0.09565119      -0.11434338       0.16628171 </v>
   <v>      -1.10822387       0.70846356      -0.28797508 </v>
   <v>       0.77236217      -1.05951995      -0.32228985 </v>
   <v>       0.10717195       0.11139107      -0.15578066 </v>
   <v>      -0.22232842      -0.00871492      -0.01083739 </v>
   <v>       0.22215952      -0.00547440       0.00311248 </v>
   <v>      -0.00411110      -0.40633707       1.28453091 </v>
   <v>       0.06811219      -0.37604741      -1.29824057 </v>
   <v>      -0.01556052       0.00417557       0.00961505 </v>
   <v>      -0.01837344       0.12423471       0.06547778 </v>
   <v>       0.10815536       0.11780624       0.15608318 </v>
   <v>       0.00023586       0.22668346      -0.00201196 </v>
   <v>       4.80580962      -0.95446010      -4.40746506 </v>
   <v>      -3.88740280       1.11890154       4.01738598 </v>
  </varray>
  <varray name="stress" >
   <v>      -6.60797549      -0.05426454      -0.16909569 </v>
   <v>      -0.05426452      -6.83263938       0.06568767 </v>
   <v>      -0.16909569       0.06568771      -6.55924225 </v>
  </varray>
  <energy>
   <i name="e_fr_energy">   -175.31998971 </i>
   <i name="e_wo_entrp">   -175.29566383 </i>
   <i name="e_0_energy">     -0.09730353 </i>
  </energy>
  <time name="totalsc">18298.2018298.61</time>
  <eigenvalues>
   <array>
    <dimension dim="1">band</dimension>
    <dimension dim="2">kpoint</dimension>
    <dimension dim="3">spin</dimension>
    <field>eigene</field>
    <field>occ</field>
    <set>
     <set comment="spin 1">
      <set comment="kpoint 1">
       <r>  -28.3480    1.0000 </r>
       <r>  -13.3135    1.0000 </r>
       <r>  -11.0888    1.0000 </r>
       <r>  -10.8920    1.0000 </r>
       <r>  -10.4674    1.0000 </r>
       <r>   -6.6615    1.0000 </r>
       <r>   -6.2664    1.0000 </r>
       <r>   -6.1610    1.0000 </r>
       <r>   -6.1403    1.0000 </r>
       <r>   -6.1178    1.0000 </r>
       <r>   -6.1067    1.0000 </r>
       <r>   -5.8429    1.0000 </r>
       <r>   -5.8304    1.0000 </r>
       <r>   -5.8154    1.0000 </r>
       <r>   -5.7696    1.0000 </r>
       <r>   -5.7138    1.0000 </r>
       <r>   -5.7034    1.0000 </r>
       <r>   -5.7007    1.0000 </r>
       <r>   -5.6955    1.0000 </r>
       <r>   -5.6556    1.0000 </r>
       <r>   -5.6445    1.0000 </r>
       <r>   -5.6409    1.0000 </r>
       <r>   -5.6352    1.0000 </r>
       <r>   -5.6093    1.0000 </r>
       <r>   -5.5949    1.0000 </r>
       <r>   -5.5938    1.0000 </r>
       <r>   -5.5866    1.0000 </r>
       <r>   -5.5714    1.0000 </r>
       <r>   -5.5627    1.0000 </r>
       <r>   -5.5602    1.0000 </r>
       <r>   -5.5446    1.0000 </r>
       <r>   -5.5357    1.0000 </r>
       <r>   -5.5332    1.0000 </r>
       <r>   -5.5311    1.0000 </r>
       <r>   -5.5261    1.0000 </r>
       <r>   -5.5243    1.0000 </r>
       <r>   -5.5229    1.0000 </r>
       <r>   -5.5172    1.0000 </r>
       <r>   -5.5017    1.0000 </r>
       <r>   -5.4897    1.0000 </r>
       <r>   -5.4875    1.0000 </r>
       <r>   -5.4837    1.0000 </r>
       <r>   -5.4828    1.0000 </r>
       <r>   -5.4805    1.0000 </r>
       <r>   -5.4751    1.0000 </r>
       <r>   -5.4657    1.0000 </r>
       <r>   -5.4505    1.0000 </r>
       <r>   -5.4456    1.0000 </r>
       <r>   -5.4429    1.0000 </r>
       <r>   -5.4392    1.0000 </r>
       <r>   -5.4367    1.0000 </r>
       <r>   -5.4310    1.0000 </r>
       <r>   -5.4218    1.0000 </r>
       <r>   -5.4183    1.0000 </r>
       <r>   -5.4167    1.0000 </r>
       <r>   -5.4059    1.0000 </r>
       <r>   -5.3862    1.0000 </r>
       <r>   -5.3714    1.0000 </r>
       <r>   -5.3602    1.0000 </r>
       <r>   -5.3429    1.0000 </r>
       <r>   -5.3395    1.0000 </r>
       <r>   -5.3347    1.0000 </r>
       <r>   -5.3309    1.0000 </r>
       <r>   -5.3191    1.0000 </r>
       <r>   -5.3154    1.0000 </r>
       <r>   -5.3132    1.0000 </r>
       <r>   -5.3078    1.0000 </r>
       <r>   -5.2895    1.0000 </r>
       <r>   -5.2833    1.0000 </r>
       <r>   -5.2662    1.0000 </r>
       <r>   -5.2237    1.0000 </r>
       <r>   -5.2220    1.0000 </r>
       <r>   -5.2173    1.0000 </r>
       <r>   -5.2057    1.0000 </r>
       <r>   -5.2028    1.0000 </r>
       <r>   -5.1957    1.0000 </r>
       <r>   -5.1932    1.0000 </r>
       <r>   -5.1817    1.0000 </r>
       <r>   -5.1796    1.0000 </r>
       <r>   -5.1785    1.0000 </r>
       <r>   -5.1737    1.0000 </r>
       <r>   -5.1636    1.0000 </r>
       <r>   -5.1527    1.0000 </r>
       <r>   -5.1458    1.0000 </r>
       <r>   -5.1349    1.0000 </r>
       <r>   -5.1343    1.0000 </r>
       <r>   -5.1224    1.0000 </r>
       <r>   -5.1180    1.0000 </r>
       <r>   -5.1062    1.0000 </r>
       <r>   -5.0879    1.0000 </r>
       <r>   -5.0844    1.0000 </r>
       <r>   -5.0734    1.0000 </r>
       <r>   -5.0698    1.0000 </r>
       <r>   -5.0658    1.0000 </r>
       <r>   -5.0644    1.0000 </r>
       <r>   -5.0594    1.0000 </r>
       <r>   -5.0560    1.0000 </r>
       <r>   -5.0503    1.0000 </r>
       <r>   -5.0437    1.0000 </r>
       <r>   -5.0417    1.0000 </r>
       <r>   -5.0386    1.0000 </r>
       <r>   -5.0293    1.0000 </r>
       <r>   -5.0255    1.0000 </r>
       <r>   -5.0172    1.0000 </r>
       <r>   -5.0165    1.0000 </r>
       <r>   -5.0116    1.0000 </r>
       <r>   -5.0110    1.0000 </r>
       <r>   -5.0048    1.0000 </r>
       <r>   -5.0005    1.0000 </r>
       <r>   -4.9909    1.0000 </r>
       <r>   -4.9904    1.0000 </r>
       <r>   -4.9853    1.0000 </r>
       <r>   -4.9766    1.0000 </r>
       <r>   -4.9720    1.0000 </r>
       <r>   -4.9714    1.0000 </r>
       <r>   -4.9678    1.0000 </r>
       <r>   -4.9630    1.0000 </r>
       <r>   -4.9489    1.0000 </r>
       <r>   -4.9450    1.0000 </r>
       <r>   -4.9405    1.0000 </r>
       <r>   -4.9351    1.0000 </r>
       <r>   -4.9240    1.0000 </r>
       <r>   -4.9207    1.0000 </r>
       <r>   -4.9158    1.0000 </r>
       <r>   -4.9152    1.0000 </r>
       <r>   -4.9114    1.0000 </r>
       <r>   -4.8876    1.0000 </r>
       <r>   -4.8800    1.0000 </r>
       <r>   -4.8719    1.0000 </r>
       <r>   -4.8634    1.0000 </r>
       <r>   -4.8582    1.0000 </r>
       <r>   -4.8536    1.0000 </r>
       <r>   -4.8494    1.0000 </r>
       <r>   -4.8468    1.0000 </r>
       <r>   -4.8427    1.0000 </r>
       <r>   -4.8336    1.0000 </r>
       <r>   -4.8227    0.9999 </r>
       <r>   -4.8074    0.9999 </r>
       <r>   -4.8065    0.9999 </r>
       <r>   -4.8012    0.9999 </r>
       <r>   -4.7891    0.9998 </r>
       <r>   -4.7795    0.9998 </r>
       <r>   -4.7758    0.9998 </r>
       <r>   -4.7712    0.9998 </r>
       <r>   -4.7640    0.9997 </r>
       <r>   -4.7550    0.9996 </r>
       <r>   -4.7495    0.9996 </r>
       <r>   -4.7375    0.9995 </r>
       <r>   -4.7349    0.9995 </r>
       <r>   -4.7207    0.9993 </r>
       <r>   -4.7145    0.9992 </r>
       <r>   -4.7095    0.9991 </r>
       <r>   -4.7028    0.9990 </r>
       <r>   -4.6979    0.9989 </r>
       <r>   -4.6971    0.9988 </r>
       <r>   -4.6933    0.9988 </r>
       <r>   -4.6873    0.9986 </r>
       <r>   -4.6859    0.9986 </r>
       <r>   -4.6836    0.9985 </r>
       <r>   -4.6761    0.9983 </r>
       <r>   -4.6737    0.9983 </r>
       <r>   -4.6669    0.9981 </r>
       <r>   -4.6639    0.9980 </r>
       <r>   -4.6603    0.9979 </r>
       <r>   -4.6593    0.9978 </r>
       <r>   -4.6588    0.9978 </r>
       <r>   -4.6572    0.9978 </r>
       <r>   -4.6534    0.9976 </r>
       <r>   -4.6477    0.9974 </r>
       <r>   -4.6425    0.9973 </r>
       <r>   -4.6289    0.9967 </r>
       <r>   -4.6244    0.9966 </r>
       <r>   -4.6189    0.9964 </r>
       <r>   -4.6140    0.9962 </r>
       <r>   -4.6115    0.9961 </r>
       <r>   -4.6078    0.9960 </r>
       <r>   -4.6050    0.9959 </r>
       <r>   -4.6025    0.9958 </r>
       <r>   -4.5983    0.9956 </r>
       <r>   -4.5904    0.9954 </r>
       <r>   -4.5898    0.9954 </r>
       <r>   -4.5828    0.9952 </r>
       <r>   -4.5783    0.9952 </r>
       <r>   -4.5762    0.9951 </r>
       <r>   -4.5724    0.9951 </r>
       <r>   -4.5680    0.9951 </r>
       <r>   -4.5670    0.9951 </r>
       <r>   -4.5623    0.9951 </r>
       <r>   -4.5596    0.9951 </r>
       <r>   -4.5546    0.9952 </r>
       <r>   -4.5525    0.9952 </r>
       <r>   -4.5313    0.9963 </r>
       <r>   -4.5208    0.9973 </r>
       <r>   -4.5203    0.9974 </r>
       <r>   -4.5179    0.9977 </r>
       <r>   -4.5137    0.9982 </r>
       <r>   -4.5060    0.9994 </r>
       <r>   -4.5041    0.9997 </r>
       <r>   -4.4982    1.0008 </r>
       <r>   -4.4953    1.0014 </r>
       <r>   -4.4886    1.0030 </r>
       <r>   -4.4846    1.0040 </r>
       <r>   -4.4781    1.0058 </r>
       <r>   -4.4731    1.0073 </r>
       <r>   -4.4725    1.0075 </r>
       <r>   -4.4630    1.0107 </r>
       <r>   -4.4614    1.0113 </r>
       <r>   -4.4590    1.0122 </r>
       <r>   -4.4562    1.0132 </r>
       <r>   -4.4463    1.0173 </r>
       <r>   -4.4375    1.0211 </r>
       <r>   -4.4371    1.0214 </r>
       <r>   -4.4344    1.0226 </r>
       <r>   -4.4300    1.0246 </r>
       <r>   -4.4219    1.0285 </r>
       <r>   -4.4201    1.0294 </r>
       <r>   -4.4200    1.0294 </r>
       <r>   -4.4175    1.0306 </r>
       <r>   -4.4135    1.0325 </r>
       <r>   -4.4016    1.0381 </r>
       <r>   -4.3859    1.0448 </r>
       <r>   -4.3812    1.0465 </r>
       <r>   -4.3791    1.0472 </r>
       <r>   -4.3747    1.0485 </r>
       <r>   -4.3724    1.0491 </r>
       <r>   -4.3658    1.0506 </r>
       <r>   -4.3518    1.0516 </r>
       <r>   -4.3494    1.0514 </r>
       <r>   -4.3477    1.0513 </r>
       <r>   -4.3464    1.0511 </r>
       <r>   -4.3453    1.0509 </r>
       <r>   -4.3444    1.0508 </r>
       <r>   -4.3402    1.0498 </r>
       <r>   -4.3382    1.0492 </r>
       <r>   -4.3370    1.0488 </r>
       <r>   -4.3358    1.0484 </r>
       <r>   -4.3333    1.0474 </r>
       <r>   -4.3318    1.0467 </r>
       <r>   -4.3293    1.0455 </r>
       <r>   -4.3224    1.0412 </r>
       <r>   -4.3190    1.0387 </r>
       <r>   -4.3121    1.0323 </r>
       <r>   -4.3065    1.0261 </r>
       <r>   -4.3031    1.0219 </r>
       <r>   -4.3002    1.0180 </r>
       <r>   -4.2986    1.0156 </r>
       <r>   -4.2958    1.0115 </r>
       <r>   -4.2936    1.0079 </r>
       <r>   -4.2918    1.0049 </r>
       <r>   -4.2829    0.9884 </r>
       <r>   -4.2793    0.9808 </r>
       <r>   -4.2740    0.9689 </r>
       <r>   -4.2730    0.9665 </r>
       <r>   -4.2705    0.9604 </r>
       <r>   -4.2673    0.9522 </r>
       <r>   -4.2654    0.9471 </r>
       <r>   -4.2639    0.9430 </r>
       <r>   -4.2599    0.9318 </r>
       <r>   -4.2574    0.9244 </r>
       <r>   -4.2565    0.9216 </r>
       <r>   -4.2539    0.9134 </r>
       <r>   -4.2536    0.9125 </r>
       <r>   -4.2511    0.9045 </r>
       <r>   -4.2496    0.8998 </r>
       <r>   -4.2487    0.8965 </r>
       <r>   -4.2400    0.8662 </r>
       <r>   -4.2374    0.8563 </r>
       <r>   -4.2355    0.8494 </r>
       <r>   -4.2328    0.8387 </r>
       <r>   -4.2318    0.8351 </r>
       <r>   -4.2302    0.8285 </r>
       <r>   -4.2232    0.7997 </r>
       <r>   -4.2167    0.7713 </r>
       <r>   -4.2079    0.7312 </r>
       <r>   -4.1970    0.6788 </r>
       <r>   -4.1930    0.6591 </r>
       <r>   -4.1885    0.6365 </r>
       <r>   -4.1864    0.6255 </r>
       <r>   -4.1853    0.6200 </r>
       <r>   -4.1830    0.6083 </r>
       <r>   -4.1707    0.5441 </r>
       <r>   -4.1621    0.4984 </r>
       <r>   -4.1486    0.4275 </r>
       <r>   -4.1422    0.3942 </r>
       <r>   -4.1400    0.3825 </r>
       <r>   -4.1388    0.3765 </r>
       <r>   -4.1283    0.3235 </r>
       <r>   -4.1249    0.3072 </r>
       <r>   -4.1073    0.2251 </r>
       <r>   -3.9763   -0.0513 </r>
       <r>   -3.8813   -0.0185 </r>
       <r>   -3.8342   -0.0025 </r>
       <r>   -3.8254   -0.0006 </r>
       <r>   -3.6746    0.0025 </r>
       <r>   -3.5207    0.0001 </r>
       <r>   -3.5012    0.0001 </r>
       <r>   -3.3925    0.0000 </r>
       <r>   -3.0868    0.0000 </r>
       <r>   -3.0757    0.0000 </r>
       <r>   -3.0637    0.0000 </r>
       <r>   -3.0502    0.0000 </r>
       <r>   -3.0268    0.0000 </r>
       <r>   -2.9629    0.0000 </r>
       <r>   -2.9491    0.0000 </r>
       <r>   -2.7484    0.0000 </r>
       <r>   -2.5688    0.0000 </r>
       <r>   -2.5316    0.0000 </r>
       <r>   -2.4659    0.0000 </r>
       <r>   -2.3241    0.0000 </r>
       <r>   -2.1587    0.0000 </r>
       <r>   -2.1239    0.0000 </r>
       <r>   -2.0998    0.0000 </r>
       <r>   -2.0727    0.0000 </r>
       <r>   -1.9719    0.0000 </r>
       <r>   -1.9356    0.0000 </r>
       <r>   -1.8910    0.0000 </r>
       <r>   -1.7927    0.0000 </r>
       <r>   -1.7484    0.0000 </r>
       <r>   -1.6967    0.0000 </r>
       <r>   -1.6523    0.0000 </r>
       <r>   -1.6186    0.0000 </r>
       <r>   -1.5666    0.0000 </r>
       <r>   -1.4826    0.0000 </r>
       <r>   -1.3691    0.0000 </r>
       <r>   -1.2495    0.0000 </r>
       <r>   -1.2409    0.0000 </r>
       <r>   -1.1545    0.0000 </r>
       <r>   -1.0308    0.0000 </r>
       <r>   -0.9948    0.0000 </r>
       <r>   -0.9842    0.0000 </r>
       <r>   -0.9633    0.0000 </r>
       <r>   -0.9440    0.0000 </r>
       <r>   -0.9288    0.0000 </r>
       <r>   -0.8658    0.0000 </r>
       <r>   -0.8170    0.0000 </r>
       <r>   -0.6454    0.0000 </r>
      </set>
     </set>
    </set>
   </array>
  </eigenvalues>
  <separator name="orbital magnetization" >
   <v name="MAGDIPOLOUT">      0.00000000      0.00000000      0.00000000</v>
  </separator>
  <dos>
   <i name="efermi">     -4.16238485 </i>
   <total>
    <array>
     <dimension dim="1">gridpoints</dimension>
     <dimension dim="2">spin</dimension>
     <field>energy</field>
     <field>total</field>
     <field>integrated</field>
     <set>
      <set comment="spin 1">
       <r>   -30.3480     0.0000     0.0000 </r>
       <r>   -30.2424     0.0000     0.0000 </r>
       <r>   -30.1367     0.0000     0.0000 </r>
       <r>   -30.0310     0.0000     0.0000 </r>
       <r>   -29.9253     0.0000     0.0000 </r>
       <r>   -29.8197     0.0000     0.0000 </r>
       <r>   -29.7140     0.0000     0.0000 </r>
       <r>   -29.6083     0.0000     0.0000 </r>
       <r>   -29.5026     0.0000     0.0000 </r>
       <r>   -29.3970     0.0000     0.0000 </r>
       <r>   -29.2913     0.0000     0.0000 </r>
       <r>   -29.1856     0.0000     0.0000 </r>
       <r>   -29.0799     0.0001     0.0000 </r>
       <r>   -28.9743     0.0029     0.0003 </r>
       <r>   -28.8686     0.0252     0.0030 </r>
       <r>   -28.7629     0.0637     0.0097 </r>
       <r>   -28.6572    -0.2392    -0.0156 </r>
       <r>   -28.5516    -0.8090    -0.1011 </r>
       <r>   -28.4459     2.2323     0.1348 </r>
       <r>   -28.3402     8.9705     1.0828 </r>
       <r>   -28.2345     8.1731     1.9465 </r>
       <r>   -28.1289     1.3832     2.0927 </r>
       <r>   -28.0232    -0.8144     2.0066 </r>
       <r>   -27.9175    -0.1479     1.9910 </r>
       <r>   -27.8118     0.0640     1.9977 </r>
       <r>   -27.7061     0.0193     1.9998 </r>
       <r>   -27.6005     0.0019     2.0000 </r>
       <r>   -27.4948     0.0001     2.0000 </r>
       <r>   -27.3891     0.0000     2.0000 </r>
       <r>   -27.2834     0.0000     2.0000 </r>
       <r>   -27.1778     0.0000     2.0000 </r>
       <r>   -27.0721     0.0000     2.0000 </r>
       <r>   -26.9664     0.0000     2.0000 </r>
       <r>   -26.8607     0.0000     2.0000 </r>
       <r>   -26.7551     0.0000     2.0000 </r>
       <r>   -26.6494     0.0000     2.0000 </r>
       <r>   -26.5437     0.0000     2.0000 </r>
       <r>   -26.4380     0.0000     2.0000 </r>
       <r>   -26.3324     0.0000     2.0000 </r>
       <r>   -26.2267     0.0000     2.0000 </r>
       <r>   -26.1210     0.0000     2.0000 </r>
       <r>   -26.0153     0.0000     2.0000 </r>
       <r>   -25.9097     0.0000     2.0000 </r>
       <r>   -25.8040     0.0000     2.0000 </r>
       <r>   -25.6983     0.0000     2.0000 </r>
       <r>   -25.5926     0.0000     2.0000 </r>
       <r>   -25.4870     0.0000     2.0000 </r>
       <r>   -25.3813     0.0000     2.0000 </r>
       <r>   -25.2756     0.0000     2.0000 </r>
       <r>   -25.1699     0.0000     2.0000 </r>
       <r>   -25.0643     0.0000     2.0000 </r>
       <r>   -24.9586     0.0000     2.0000 </r>
       <r>   -24.8529     0.0000     2.0000 </r>
       <r>   -24.7472     0.0000     2.0000 </r>
       <r>   -24.6416     0.0000     2.0000 </r>
       <r>   -24.5359     0.0000     2.0000 </r>
       <r>   -24.4302     0.0000     2.0000 </r>
       <r>   -24.3245     0.0000     2.0000 </r>
       <r>   -24.2189     0.0000     2.0000 </r>
       <r>   -24.1132     0.0000     2.0000 </r>
       <r>   -24.0075     0.0000     2.0000 </r>
       <r>   -23.9018     0.0000     2.0000 </r>
       <r>   -23.7962     0.0000     2.0000 </r>
       <r>   -23.6905     0.0000     2.0000 </r>
       <r>   -23.5848     0.0000     2.0000 </r>
       <r>   -23.4791     0.0000     2.0000 </r>
       <r>   -23.3734     0.0000     2.0000 </r>
       <r>   -23.2678     0.0000     2.0000 </r>
       <r>   -23.1621     0.0000     2.0000 </r>
       <r>   -23.0564     0.0000     2.0000 </r>
       <r>   -22.9507     0.0000     2.0000 </r>
       <r>   -22.8451     0.0000     2.0000 </r>
       <r>   -22.7394     0.0000     2.0000 </r>
       <r>   -22.6337     0.0000     2.0000 </r>
       <r>   -22.5280     0.0000     2.0000 </r>
       <r>   -22.4224     0.0000     2.0000 </r>
       <r>   -22.3167     0.0000     2.0000 </r>
       <r>   -22.2110     0.0000     2.0000 </r>
       <r>   -22.1053     0.0000     2.0000 </r>
       <r>   -21.9997     0.0000     2.0000 </r>
       <r>   -21.8940     0.0000     2.0000 </r>
       <r>   -21.7883     0.0000     2.0000 </r>
       <r>   -21.6826     0.0000     2.0000 </r>
       <r>   -21.5770     0.0000     2.0000 </r>
       <r>   -21.4713     0.0000     2.0000 </r>
       <r>   -21.3656     0.0000     2.0000 </r>
       <r>   -21.2599     0.0000     2.0000 </r>
       <r>   -21.1543     0.0000     2.0000 </r>
       <r>   -21.0486     0.0000     2.0000 </r>
       <r>   -20.9429     0.0000     2.0000 </r>
       <r>   -20.8372     0.0000     2.0000 </r>
       <r>   -20.7316     0.0000     2.0000 </r>
       <r>   -20.6259     0.0000     2.0000 </r>
       <r>   -20.5202     0.0000     2.0000 </r>
       <r>   -20.4145     0.0000     2.0000 </r>
       <r>   -20.3089     0.0000     2.0000 </r>
       <r>   -20.2032     0.0000     2.0000 </r>
       <r>   -20.0975     0.0000     2.0000 </r>
       <r>   -19.9918     0.0000     2.0000 </r>
       <r>   -19.8862     0.0000     2.0000 </r>
       <r>   -19.7805     0.0000     2.0000 </r>
       <r>   -19.6748     0.0000     2.0000 </r>
       <r>   -19.5691     0.0000     2.0000 </r>
       <r>   -19.4635     0.0000     2.0000 </r>
       <r>   -19.3578     0.0000     2.0000 </r>
       <r>   -19.2521     0.0000     2.0000 </r>
       <r>   -19.1464     0.0000     2.0000 </r>
       <r>   -19.0407     0.0000     2.0000 </r>
       <r>   -18.9351     0.0000     2.0000 </r>
       <r>   -18.8294     0.0000     2.0000 </r>
       <r>   -18.7237     0.0000     2.0000 </r>
       <r>   -18.6180     0.0000     2.0000 </r>
       <r>   -18.5124     0.0000     2.0000 </r>
       <r>   -18.4067     0.0000     2.0000 </r>
       <r>   -18.3010     0.0000     2.0000 </r>
       <r>   -18.1953     0.0000     2.0000 </r>
       <r>   -18.0897     0.0000     2.0000 </r>
       <r>   -17.9840     0.0000     2.0000 </r>
       <r>   -17.8783     0.0000     2.0000 </r>
       <r>   -17.7726     0.0000     2.0000 </r>
       <r>   -17.6670     0.0000     2.0000 </r>
       <r>   -17.5613     0.0000     2.0000 </r>
       <r>   -17.4556     0.0000     2.0000 </r>
       <r>   -17.3499     0.0000     2.0000 </r>
       <r>   -17.2443     0.0000     2.0000 </r>
       <r>   -17.1386     0.0000     2.0000 </r>
       <r>   -17.0329     0.0000     2.0000 </r>
       <r>   -16.9272     0.0000     2.0000 </r>
       <r>   -16.8216     0.0000     2.0000 </r>
       <r>   -16.7159     0.0000     2.0000 </r>
       <r>   -16.6102     0.0000     2.0000 </r>
       <r>   -16.5045     0.0000     2.0000 </r>
       <r>   -16.3989     0.0000     2.0000 </r>
       <r>   -16.2932     0.0000     2.0000 </r>
       <r>   -16.1875     0.0000     2.0000 </r>
       <r>   -16.0818     0.0000     2.0000 </r>
       <r>   -15.9762     0.0000     2.0000 </r>
       <r>   -15.8705     0.0000     2.0000 </r>
       <r>   -15.7648     0.0000     2.0000 </r>
       <r>   -15.6591     0.0000     2.0000 </r>
       <r>   -15.5535     0.0000     2.0000 </r>
       <r>   -15.4478     0.0000     2.0000 </r>
       <r>   -15.3421     0.0000     2.0000 </r>
       <r>   -15.2364     0.0000     2.0000 </r>
       <r>   -15.1308     0.0000     2.0000 </r>
       <r>   -15.0251     0.0000     2.0000 </r>
       <r>   -14.9194     0.0000     2.0000 </r>
       <r>   -14.8137     0.0000     2.0000 </r>
       <r>   -14.7080     0.0000     2.0000 </r>
       <r>   -14.6024     0.0000     2.0000 </r>
       <r>   -14.4967     0.0000     2.0000 </r>
       <r>   -14.3910     0.0000     2.0000 </r>
       <r>   -14.2853     0.0000     2.0000 </r>
       <r>   -14.1797     0.0000     2.0000 </r>
       <r>   -14.0740     0.0001     2.0000 </r>
       <r>   -13.9683     0.0014     2.0002 </r>
       <r>   -13.8626     0.0153     2.0018 </r>
       <r>   -13.7570     0.0609     2.0082 </r>
       <r>   -13.6513    -0.0858     1.9991 </r>
       <r>   -13.5456    -0.7727     1.9175 </r>
       <r>   -13.4399     0.7845     2.0004 </r>
       <r>   -13.3343     7.3937     2.7817 </r>
       <r>   -13.2286     9.4797     3.7835 </r>
       <r>   -13.1229     3.0258     4.1032 </r>
       <r>   -13.0172    -0.7435     4.0247 </r>
       <r>   -12.9116    -0.3267     3.9901 </r>
       <r>   -12.8059     0.0584     3.9963 </r>
       <r>   -12.7002     0.0308     3.9996 </r>
       <r>   -12.5945     0.0039     4.0000 </r>
       <r>   -12.4889     0.0002     4.0000 </r>
       <r>   -12.3832     0.0000     4.0000 </r>
       <r>   -12.2775     0.0000     4.0000 </r>
       <r>   -12.1718     0.0000     4.0000 </r>
       <r>   -12.0662     0.0000     4.0000 </r>
       <r>   -11.9605     0.0000     4.0000 </r>
       <r>   -11.8548     0.0000     4.0000 </r>
       <r>   -11.7491     0.0012     4.0001 </r>
       <r>   -11.6435     0.0139     4.0016 </r>
       <r>   -11.5378     0.0607     4.0080 </r>
       <r>   -11.4321    -0.0454     4.0032 </r>
       <r>   -11.3264    -0.6826     3.9311 </r>
       <r>   -11.2208     0.4353     3.9771 </r>
       <r>   -11.1151     6.2380     4.6363 </r>
       <r>   -11.0094    10.8554     5.7834 </r>
       <r>   -10.9037    11.3885     6.9869 </r>
       <r>   -10.7981     8.3261     7.8668 </r>
       <r>   -10.6924     1.2993     8.0041 </r>
       <r>   -10.5867     0.3616     8.0423 </r>
       <r>   -10.4810     7.6040     8.8458 </r>
       <r>   -10.3753     9.2841     9.8269 </r>
       <r>   -10.2697     2.6057    10.1023 </r>
       <r>   -10.1640    -0.7842    10.0194 </r>
       <r>   -10.0583    -0.2770     9.9902 </r>
       <r>    -9.9526     0.0620     9.9967 </r>
       <r>    -9.8470     0.0276     9.9996 </r>
       <r>    -9.7413     0.0033    10.0000 </r>
       <r>    -9.6356     0.0002    10.0000 </r>
       <r>    -9.5299     0.0000    10.0000 </r>
       <r>    -9.4243     0.0000    10.0000 </r>
       <r>    -9.3186     0.0000    10.0000 </r>
       <r>    -9.2129     0.0000    10.0000 </r>
       <r>    -9.1072     0.0000    10.0000 </r>
       <r>    -9.0016     0.0000    10.0000 </r>
       <r>    -8.8959     0.0000    10.0000 </r>
       <r>    -8.7902     0.0000    10.0000 </r>
       <r>    -8.6845     0.0000    10.0000 </r>
       <r>    -8.5789     0.0000    10.0000 </r>
       <r>    -8.4732     0.0000    10.0000 </r>
       <r>    -8.3675     0.0000    10.0000 </r>
       <r>    -8.2618     0.0000    10.0000 </r>
       <r>    -8.1562     0.0000    10.0000 </r>
       <r>    -8.0505     0.0000    10.0000 </r>
       <r>    -7.9448     0.0000    10.0000 </r>
       <r>    -7.8391     0.0000    10.0000 </r>
       <r>    -7.7335     0.0000    10.0000 </r>
       <r>    -7.6278     0.0000    10.0000 </r>
       <r>    -7.5221     0.0000    10.0000 </r>
       <r>    -7.4164     0.0001    10.0000 </r>
       <r>    -7.3108     0.0016    10.0002 </r>
       <r>    -7.2051     0.0169    10.0020 </r>
       <r>    -7.0994     0.0625    10.0086 </r>
       <r>    -6.9937    -0.1107     9.9969 </r>
       <r>    -6.8881    -0.7913     9.9132 </r>
       <r>    -6.7824     1.0634    10.0256 </r>
       <r>    -6.6767     7.8712    10.8574 </r>
       <r>    -6.5710     9.2468    11.8346 </r>
       <r>    -6.4654     1.4143    11.9840 </r>
       <r>    -6.3597    -1.1760    11.8598 </r>
       <r>    -6.2540    13.5250    13.2890 </r>
       <r>    -6.1483    38.0332    17.3082 </r>
       <r>    -6.0426    35.5131    21.0611 </r>
       <r>    -5.9370    12.0576    22.3353 </r>
       <r>    -5.8313    20.8959    24.5434 </r>
       <r>    -5.7256    64.2387    31.3319 </r>
       <r>    -5.6199   146.0128    46.7619 </r>
       <r>    -5.5143   258.3598    74.0642 </r>
       <r>    -5.4086   296.4255   105.3892 </r>
       <r>    -5.3029   236.0010   130.3287 </r>
       <r>    -5.1972   211.9023   152.7216 </r>
       <r>    -5.0916   283.5704   182.6881 </r>
       <r>    -4.9859   355.2590   220.2303 </r>
       <r>    -4.8802   330.6750   255.1746 </r>
       <r>    -4.7745   295.5159   286.4034 </r>
       <r>    -4.6689   360.7174   324.5225 </r>
       <r>    -4.5632   423.5017   369.2763 </r>
       <r>    -4.4575   421.0769   413.7739 </r>
       <r>    -4.3518   482.9962   464.8148 </r>
       <r>    -4.2462   555.7202   523.5409 </r>
       <r>    -4.1405   405.7014   566.4136 </r>
       <r>    -4.0348   131.9635   580.3589 </r>
       <r>    -3.9291     9.0308   581.3133 </r>
       <r>    -3.8235    20.0335   583.4303 </r>
       <r>    -3.7178    26.0478   586.1829 </r>
       <r>    -3.6121    16.8176   587.9601 </r>
       <r>    -3.5064    21.9414   590.2788 </r>
       <r>    -3.4008    23.7910   592.7929 </r>
       <r>    -3.2951     8.0378   593.6423 </r>
       <r>    -3.1894     3.3650   593.9979 </r>
       <r>    -3.0837    36.1784   597.8211 </r>
       <r>    -2.9781    60.5770   604.2226 </r>
       <r>    -2.8724    35.9267   608.0192 </r>
       <r>    -2.7667     8.8814   608.9578 </r>
       <r>    -2.6610     8.6307   609.8698 </r>
       <r>    -2.5554    21.0366   612.0929 </r>
       <r>    -2.4497    26.6428   614.9084 </r>
       <r>    -2.3440    16.6639   616.6693 </r>
       <r>    -2.2383    12.8411   618.0263 </r>
       <r>    -2.1326    29.1071   621.1022 </r>
       <r>    -2.0270    42.0392   625.5447 </r>
       <r>    -1.9213    36.8089   629.4346 </r>
       <r>    -1.8156    31.4669   632.7598 </r>
       <r>    -1.7099    37.4243   636.7147 </r>
       <r>    -1.6043    42.5451   641.2106 </r>
       <r>    -1.4986    31.9893   644.5911 </r>
       <r>    -1.3929    19.5959   646.6620 </r>
       <r>    -1.2872    21.2524   648.9078 </r>
       <r>    -1.1816    24.9736   651.5469 </r>
       <r>    -1.0759    30.0578   654.7233 </r>
       <r>    -0.9702    53.9500   660.4245 </r>
       <r>    -0.8645    60.0263   666.7678 </r>
       <r>    -0.7589    30.9105   670.0343 </r>
       <r>    -0.6532    10.8069   671.1763 </r>
       <r>    -0.5475     6.5818   671.8719 </r>
       <r>    -0.4418     1.8466   672.0670 </r>
       <r>    -0.3362    -0.5801   672.0057 </r>
       <r>    -0.2305    -0.1568   671.9891 </r>
       <r>    -0.1248     0.0740   671.9970 </r>
       <r>    -0.0191     0.0258   671.9997 </r>
       <r>     0.0865     0.0029   672.0000 </r>
       <r>     0.1922     0.0001   672.0000 </r>
       <r>     0.2979     0.0000   672.0000 </r>
       <r>     0.4036     0.0000   672.0000 </r>
       <r>     0.5092     0.0000   672.0000 </r>
       <r>     0.6149     0.0000   672.0000 </r>
       <r>     0.7206     0.0000   672.0000 </r>
       <r>     0.8263     0.0000   672.0000 </r>
       <r>     0.9319     0.0000   672.0000 </r>
       <r>     1.0376     0.0000   672.0000 </r>
       <r>     1.1433     0.0000   672.0000 </r>
       <r>     1.2490     0.0000   672.0000 </r>
       <r>     1.3546     0.0000   672.0000 </r>
      </set>
     </set>
    </array>
   </total>
  </dos>
 </calculation>
 <structure name="finalpos" >
  <crystal>
   <varray name="basis" >
    <v>      30.00000000       0.00000000       0.00000000 </v>
    <v>       0.00000000      30.00000000       0.00000000 </v>
    <v>       0.00000000       0.00000000      30.00000000 </v>
   </varray>
   <i name="volume">  27000.00000000 </i>
   <varray name="rec_basis" >
    <v>       0.03333333       0.00000000       0.00000000 </v>
    <v>       0.00000000       0.03333333       0.00000000 </v>
    <v>       0.00000000       0.00000000       0.03333333 </v>
   </varray>
  </crystal>
  <varray name="positions" >
   <v>       0.44576020       0.32826710       0.41691983 </v>
   <v>       0.67173288       0.55423978       0.41691983 </v>
   <v>       0.55423980       0.32826710       0.41691983 </v>
   <v>       0.32826712       0.55423978       0.41691983 </v>
   <v>       0.50000000       0.38250690       0.34021317 </v>
   <v>       0.50000000       0.38250690       0.65978680 </v>
   <v>       0.50000000       0.27609440       0.50000000 </v>
   <v>       0.27609443       0.49999998       0.50000000 </v>
   <v>       0.72390557       0.49999998       0.50000000 </v>
   <v>       0.50000000       0.72390555       0.50000000 </v>
   <v>       0.61195280       0.38804720       0.34167483 </v>
   <v>       0.61195280       0.38804720       0.65832513 </v>
   <v>       0.38804722       0.61195278       0.34167483 </v>
   <v>       0.38804722       0.61195278       0.65832513 </v>
   <v>       0.38804720       0.38804720       0.34167483 </v>
   <v>       0.38804720       0.38804720       0.65832513 </v>
   <v>       0.61195278       0.61195278       0.34167483 </v>
   <v>       0.61195278       0.61195278       0.65832513 </v>
   <v>       0.44576020       0.32826710       0.58308023 </v>
   <v>       0.67173288       0.55423978       0.58308023 </v>
   <v>       0.55791699       0.44208301       0.41809300 </v>
   <v>       0.32826705       0.44576024       0.41691983 </v>
   <v>       0.55423973       0.67173293       0.41691983 </v>
   <v>       0.55423980       0.32826710       0.58308023 </v>
   <v>       0.32826712       0.55423978       0.58308023 </v>
   <v>       0.67173295       0.44576024       0.41691983 </v>
   <v>       0.44576027       0.67173293       0.41691983 </v>
   <v>       0.44208301       0.44208301       0.41809300 </v>
   <v>       0.50000000       0.38416601       0.50000000 </v>
   <v>       0.61749315       0.50000005       0.34021317 </v>
   <v>       0.61749315       0.50000005       0.65978680 </v>
   <v>       0.38250685       0.50000005       0.34021317 </v>
   <v>       0.38250685       0.50000005       0.65978680 </v>
   <v>       0.38317830       0.38317830       0.50000000 </v>
   <v>       0.61682172       0.61682172       0.50000000 </v>
   <v>       0.61682170       0.38317830       0.50000000 </v>
   <v>       0.38317828       0.61682172       0.50000000 </v>
   <v>       0.50000000       0.50000000       0.33478917 </v>
   <v>       0.50000000       0.50000000       0.66521087 </v>
   <v>       0.32826705       0.44576024       0.58308023 </v>
   <v>       0.55423973       0.67173293       0.58308023 </v>
   <v>       0.55791699       0.44208301       0.58190703 </v>
   <v>       0.44208298       0.55791702       0.41809300 </v>
   <v>       0.44208301       0.44208301       0.58190703 </v>
   <v>       0.67173295       0.44576024       0.58308023 </v>
   <v>       0.44576027       0.67173293       0.58308023 </v>
   <v>       0.55791702       0.55791702       0.41809300 </v>
   <v>       0.38416599       0.50000002       0.50000000 </v>
   <v>       0.61583401       0.50000002       0.50000000 </v>
   <v>       0.50000000       0.61749319       0.34021317 </v>
   <v>       0.50000000       0.61749319       0.65978680 </v>
   <v>       0.50000000       0.50000000       0.50000000 </v>
   <v>       0.44208298       0.55791702       0.58190703 </v>
   <v>       0.55791702       0.55791702       0.58190703 </v>
   <v>       0.50000000       0.61583404       0.50000000 </v>
   <v>       0.34283370       0.54655937       0.68272817 </v>
   <v>       0.31876027       0.55369093       0.71071693 </v>
  </varray>
  <varray name="selective"  type="logical" >
   <v type="logical" >  F  F  F </v>
   <v type="logical" >  F  F  F </v>
   <v type="logical" >  F  F  F </v>
   <v type="logical" >  F  F  F </v>
   <v type="logical" >  F  F  F </v>
   <v type="logical" >  F  F  F </v>
   <v type="logical" >  F  F  F </v>
   <v type="logical" >  F  F  F </v>
   <v type="logical" >  F  F  F </v>
   <v type="logical" >  F  F  F </v>
   <v type="logical" >  F  F  F </v>
   <v type="logical" >  F  F  F </v>
   <v type="logical" >  F  F  F </v>
   <v type="logical" >  F  F  F </v>
   <v type="logical" >  F  F  F </v>
   <v type="logical" >  F  F  F </v>
   <v type="logical" >  F  F  F </v>
   <v type="logical" >  F  F  F </v>
   <v type="logical" >  F  F  F </v>
   <v type="logical" >  F  F  F </v>
   <v type="logical" >  F  F  F </v>
   <v type="logical" >  F  F  F </v>
   <v type="logical" >  F  F  F </v>
   <v type="logical" >  F  F  F </v>
   <v type="logical" >  F  F  F </v>
   <v type="logical" >  F  F  F </v>
   <v type="logical" >  F  F  F </v>
   <v type="logical" >  F  F  F </v>
   <v type="logical" >  F  F  F </v>
   <v type="logical" >  F  F  F </v>
   <v type="logical" >  F  F  F </v>
   <v type="logical" >  F  F  F </v>
   <v type="logical" >  F  F  F </v>
   <v type="logical" >  F  F  F </v>
   <v type="logical" >  F  F  F </v>
   <v type="logical" >  F  F  F </v>
   <v type="logical" >  F  F  F </v>
   <v type="logical" >  F  F  F </v>
   <v type="logical" >  F  F  F </v>
   <v type="logical" >  F  F  F </v>
   <v type="logical" >  F  F  F </v>
   <v type="logical" >  F  F  F </v>
   <v type="logical" >  F  F  F </v>
   <v type="logical" >  F  F  F </v>
   <v type="logical" >  F  F  F </v>
   <v type="logical" >  F  F  F </v>
   <v type="logical" >  F  F  F </v>
   <v type="logical" >  F  F  F </v>
   <v type="logical" >  F  F  F </v>
   <v type="logical" >  F  F  F </v>
   <v type="logical" >  F  F  F </v>
   <v type="logical" >  F  F  F </v>
   <v type="logical" >  F  F  F </v>
   <v type="logical" >  F  F  F </v>
   <v type="logical" >  F  F  F </v>
   <v type="logical" >  F  F  F </v>
   <v type="logical" >  F  F  F </v>
  </varray>
  <nose>
   <v>      -3.00000000       0.00000000       0.00010000       0.00010000 </v>
  </nose>
 </structure>
</modeling>
