       N       E                     dE             d eps       ncg     rms          rms(c)
DAV:   1     0.439309303007E+04    0.43931E+04   -0.10052E+05   688   0.815E+02
DAV:   2     0.203014757652E+04   -0.23629E+04   -0.21212E+04  1208   0.105E+02
DAV:   3     0.246904898016E+03   -0.17832E+04   -0.16719E+04   992   0.919E+01
DAV:   4    -0.133181783115E+03   -0.38009E+03   -0.32364E+03   832   0.440E+01
DAV:   5    -0.180017104074E+03   -0.46835E+02   -0.38751E+02  1072   0.148E+01    0.149E+01
RMM:   6    -0.180255642701E+03   -0.23854E+00   -0.58266E+01   732   0.909E+00    0.226E+01
RMM:   7    -0.183231122564E+03   -0.29755E+01   -0.19036E+01   854   0.484E+00    0.273E+01
RMM:   8    -0.183331907943E+03   -0.10079E+00   -0.68655E+00   816   0.321E+00    0.228E+01
RMM:   9    -0.182160335696E+03    0.11716E+01   -0.56726E+00   724   0.346E+00    0.277E+01
RMM:  10    -0.179926243003E+03    0.22341E+01   -0.27485E+00   746   0.232E+00    0.204E+01
RMM:  11    -0.178864166907E+03    0.10621E+01   -0.22032E+00   725   0.218E+00    0.189E+01
RMM:  12    -0.177234804652E+03    0.16294E+01   -0.14911E+00   725   0.181E+00    0.130E+01
RMM:  13    -0.176556324921E+03    0.67848E+00   -0.15626E+00   705   0.187E+00    0.145E+01
RMM:  14    -0.176122751310E+03    0.43357E+00   -0.10586E+00   707   0.152E+00    0.133E+01
RMM:  15    -0.176493784448E+03   -0.37103E+00   -0.76151E-01   720   0.127E+00    0.137E+01
RMM:  16    -0.176257652677E+03    0.23613E+00   -0.67763E-01   719   0.123E+00    0.118E+01
RMM:  17    -0.175800009156E+03    0.45764E+00   -0.60816E-01   700   0.120E+00    0.117E+01
RMM:  18    -0.175645236153E+03    0.15477E+00   -0.37716E-01   696   0.947E-01    0.101E+01
RMM:  19    -0.175587110627E+03    0.58126E-01   -0.36466E-01   701   0.923E-01    0.988E+00
RMM:  20    -0.175565399102E+03    0.21712E-01   -0.33713E-01   698   0.903E-01    0.131E+01
RMM:  21    -0.175475970043E+03    0.89429E-01   -0.27726E-01   705   0.816E-01    0.976E+00
RMM:  22    -0.175254578309E+03    0.22139E+00   -0.17539E-01   701   0.652E-01    0.618E+00
RMM:  23    -0.175229191242E+03    0.25387E-01   -0.17929E-01   694   0.644E-01    0.653E+00
RMM:  24    -0.175125793693E+03    0.10340E+00   -0.99020E-02   694   0.510E-01    0.522E+00
RMM:  25    -0.175036919086E+03    0.88875E-01   -0.59349E-02   693   0.388E-01    0.357E+00
RMM:  26    -0.175003427834E+03    0.33491E-01   -0.48803E-02   692   0.339E-01    0.304E+00
RMM:  27    -0.174973384604E+03    0.30043E-01   -0.34261E-02   693   0.295E-01    0.254E+00
RMM:  28    -0.174950475797E+03    0.22909E-01   -0.19706E-02   694   0.232E-01    0.185E+00
RMM:  29    -0.174947549501E+03    0.29263E-02   -0.14751E-02   692   0.195E-01    0.192E+00
RMM:  30    -0.174930818293E+03    0.16731E-01   -0.96819E-03   691   0.162E-01    0.116E+00
RMM:  31    -0.174926635058E+03    0.41832E-02   -0.56063E-03   691   0.124E-01    0.889E-01
RMM:  32    -0.174923072174E+03    0.35629E-02   -0.53279E-03   689   0.112E-01    0.722E-01
RMM:  33    -0.174921921864E+03    0.11503E-02   -0.36894E-03   690   0.954E-02    0.704E-01
RMM:  34    -0.174922301281E+03   -0.37942E-03   -0.29542E-03   690   0.868E-02    0.733E-01
RMM:  35    -0.174922741020E+03   -0.43974E-03   -0.25577E-03   687   0.808E-02    0.618E-01
RMM:  36    -0.174923260694E+03   -0.51967E-03   -0.16204E-03   687   0.663E-02    0.479E-01
RMM:  37    -0.174924168706E+03   -0.90801E-03   -0.11202E-03   688   0.534E-02    0.385E-01
RMM:  38    -0.174926656197E+03   -0.24875E-02   -0.11368E-03   687   0.512E-02    0.394E-01
RMM:  39    -0.174928609939E+03   -0.19537E-02   -0.80388E-04   685   0.446E-02    0.251E-01
RMM:  40    -0.174929958865E+03   -0.13489E-02   -0.37771E-04   471   0.319E-02    0.194E-01
RMM:  41    -0.174932051351E+03   -0.20925E-02   -0.40089E-04   498   0.299E-02    0.185E-01
RMM:  42    -0.174934423102E+03   -0.23718E-02   -0.35052E-04   446   0.287E-02    0.126E-01
RMM:  43    -0.174936446755E+03   -0.20237E-02   -0.28691E-04   429   0.246E-02    0.146E-01
RMM:  44    -0.174939164068E+03   -0.27173E-02   -0.35436E-04   470   0.253E-02    0.135E-01
RMM:  45    -0.174941048607E+03   -0.18845E-02   -0.28286E-04   432   0.220E-02    0.127E-01
RMM:  46    -0.174942662123E+03   -0.16135E-02   -0.26260E-04   434   0.195E-02    0.114E-01
RMM:  47    -0.174943742477E+03   -0.10804E-02   -0.18822E-04   416   0.172E-02    0.520E-02
RMM:  48    -0.174944597033E+03   -0.85456E-03   -0.10691E-04   411   0.124E-02    0.664E-02
RMM:  49    -0.174945683678E+03   -0.10866E-02   -0.90921E-05   404   0.112E-02    0.460E-02
RMM:  50    -0.174946054739E+03   -0.37106E-03   -0.44115E-05   400   0.760E-03    0.318E-02
RMM:  51    -0.174946955057E+03   -0.90032E-03   -0.41153E-05   400   0.725E-03    0.297E-02
RMM:  52    -0.174947345166E+03   -0.39011E-03   -0.21104E-05   317   0.552E-03    0.261E-02
RMM:  53    -0.174947828191E+03   -0.48302E-03   -0.17231E-05   327   0.513E-03    0.214E-02
RMM:  54    -0.174948181405E+03   -0.35321E-03   -0.81756E-06   217   0.435E-03    0.171E-02
RMM:  55    -0.174948565576E+03   -0.38417E-03   -0.11321E-05   245   0.453E-03    0.168E-02
RMM:  56    -0.174948747865E+03   -0.18229E-03   -0.45139E-06   153   0.384E-03    0.106E-02
RMM:  57    -0.174948988620E+03   -0.24076E-03   -0.85396E-06   200   0.421E-03    0.108E-02
RMM:  58    -0.174949226228E+03   -0.23761E-03   -0.13748E-05   232   0.419E-03    0.769E-03
RMM:  59    -0.174949376216E+03   -0.14999E-03   -0.60244E-06   156   0.370E-03    0.685E-03
RMM:  60    -0.174949488653E+03   -0.11244E-03   -0.62073E-06   152   0.380E-03    0.495E-03
RMM:  61    -0.174949554412E+03   -0.65760E-04   -0.45690E-06   130   0.363E-03
   1 F= -.17494955E+03 E0= -.17494279E+03  d E =-.270430E-01
