  57  57   0   0
  0.4736842E+03  0.3000000E-08  0.3000000E-08  0.3000000E-08  0.5000000E-15
  1.000000000000000E-004
  CAR 
 6_Pd100_top_free_z(O)                   
      1.34065668    -30.98384021  301     -4.12157878      1.00000000
    -30.984  0.0000E+00  0.0000E+00
    -30.876  0.0000E+00  0.0000E+00
    -30.768  0.0000E+00  0.0000E+00
    -30.661  0.4371E-27  0.4710E-28
    -30.553  0.2227E-23  0.2400E-24
    -30.445  0.6252E-20  0.6739E-21
    -30.337  0.9636E-17  0.1039E-17
    -30.230  0.8125E-14  0.8765E-15
    -30.122  0.3737E-11  0.4036E-12
    -30.014  0.9278E-09  0.1004E-09
    -29.906  0.1232E-06  0.1338E-07
    -29.799  0.8613E-05  0.9414E-06
    -29.691  0.3079E-03  0.3411E-04
    -29.583  0.5314E-02  0.6067E-03
    -29.475  0.3802E-01  0.4704E-02
    -29.368  0.4112E-01  0.9135E-02
    -29.260 -0.4698E+00 -0.4149E-01
    -29.152 -0.4725E+00 -0.9240E-01
    -29.044  0.4599E+01  0.4031E+00
    -28.937  0.9980E+01  0.1478E+01
    -28.829  0.5532E+01  0.2075E+01
    -28.721 -0.1916E+00  0.2054E+01
    -28.613 -0.5710E+00  0.1992E+01
    -28.506  0.1855E-01  0.1994E+01
    -28.398  0.4473E-01  0.1999E+01
    -28.290  0.7144E-02  0.2000E+01
    -28.182  0.4561E-03  0.2000E+01
    -28.075  0.1390E-04  0.2000E+01
    -27.967  0.2157E-06  0.2000E+01
    -27.859  0.1756E-08  0.2000E+01
    -27.751  0.7637E-11  0.2000E+01
    -27.644  0.1855E-13  0.2000E+01
    -27.536  0.0000E+00  0.2000E+01
    -27.428  0.0000E+00  0.2000E+01
    -27.320  0.0000E+00  0.2000E+01
    -27.213  0.0000E+00  0.2000E+01
    -27.105  0.0000E+00  0.2000E+01
    -26.997  0.0000E+00  0.2000E+01
    -26.889  0.0000E+00  0.2000E+01
    -26.782  0.0000E+00  0.2000E+01
    -26.674  0.0000E+00  0.2000E+01
    -26.566  0.0000E+00  0.2000E+01
    -26.458  0.0000E+00  0.2000E+01
    -26.351  0.0000E+00  0.2000E+01
    -26.243  0.0000E+00  0.2000E+01
    -26.135  0.0000E+00  0.2000E+01
    -26.027  0.0000E+00  0.2000E+01
    -25.920  0.0000E+00  0.2000E+01
    -25.812  0.0000E+00  0.2000E+01
    -25.704  0.0000E+00  0.2000E+01
    -25.596  0.0000E+00  0.2000E+01
    -25.489  0.0000E+00  0.2000E+01
    -25.381  0.0000E+00  0.2000E+01
    -25.273  0.0000E+00  0.2000E+01
    -25.165  0.0000E+00  0.2000E+01
    -25.058  0.0000E+00  0.2000E+01
    -24.950  0.0000E+00  0.2000E+01
    -24.842  0.0000E+00  0.2000E+01
    -24.734  0.0000E+00  0.2000E+01
    -24.627  0.0000E+00  0.2000E+01
    -24.519  0.0000E+00  0.2000E+01
    -24.411  0.0000E+00  0.2000E+01
    -24.303  0.0000E+00  0.2000E+01
    -24.196  0.0000E+00  0.2000E+01
    -24.088  0.0000E+00  0.2000E+01
    -23.980  0.0000E+00  0.2000E+01
    -23.872  0.0000E+00  0.2000E+01
    -23.765  0.0000E+00  0.2000E+01
    -23.657  0.0000E+00  0.2000E+01
    -23.549  0.0000E+00  0.2000E+01
    -23.441  0.0000E+00  0.2000E+01
    -23.334  0.0000E+00  0.2000E+01
    -23.226  0.0000E+00  0.2000E+01
    -23.118  0.0000E+00  0.2000E+01
    -23.010  0.0000E+00  0.2000E+01
    -22.903  0.0000E+00  0.2000E+01
    -22.795  0.0000E+00  0.2000E+01
    -22.687  0.0000E+00  0.2000E+01
    -22.579  0.0000E+00  0.2000E+01
    -22.472  0.0000E+00  0.2000E+01
    -22.364  0.0000E+00  0.2000E+01
    -22.256  0.0000E+00  0.2000E+01
    -22.148  0.0000E+00  0.2000E+01
    -22.041  0.0000E+00  0.2000E+01
    -21.933  0.0000E+00  0.2000E+01
    -21.825  0.0000E+00  0.2000E+01
    -21.717  0.0000E+00  0.2000E+01
    -21.610  0.0000E+00  0.2000E+01
    -21.502  0.0000E+00  0.2000E+01
    -21.394  0.0000E+00  0.2000E+01
    -21.286  0.0000E+00  0.2000E+01
    -21.179  0.0000E+00  0.2000E+01
    -21.071  0.0000E+00  0.2000E+01
    -20.963  0.0000E+00  0.2000E+01
    -20.855  0.0000E+00  0.2000E+01
    -20.748  0.0000E+00  0.2000E+01
    -20.640  0.0000E+00  0.2000E+01
    -20.532  0.0000E+00  0.2000E+01
    -20.425  0.0000E+00  0.2000E+01
    -20.317  0.0000E+00  0.2000E+01
    -20.209  0.0000E+00  0.2000E+01
    -20.101  0.0000E+00  0.2000E+01
    -19.994  0.0000E+00  0.2000E+01
    -19.886  0.0000E+00  0.2000E+01
    -19.778  0.0000E+00  0.2000E+01
    -19.670  0.0000E+00  0.2000E+01
    -19.563  0.0000E+00  0.2000E+01
    -19.455  0.0000E+00  0.2000E+01
    -19.347  0.0000E+00  0.2000E+01
    -19.239  0.0000E+00  0.2000E+01
    -19.132  0.0000E+00  0.2000E+01
    -19.024  0.0000E+00  0.2000E+01
    -18.916  0.0000E+00  0.2000E+01
    -18.808  0.0000E+00  0.2000E+01
    -18.701  0.0000E+00  0.2000E+01
    -18.593  0.0000E+00  0.2000E+01
    -18.485  0.0000E+00  0.2000E+01
    -18.377  0.0000E+00  0.2000E+01
    -18.270  0.0000E+00  0.2000E+01
    -18.162  0.0000E+00  0.2000E+01
    -18.054  0.0000E+00  0.2000E+01
    -17.946  0.0000E+00  0.2000E+01
    -17.839  0.0000E+00  0.2000E+01
    -17.731  0.0000E+00  0.2000E+01
    -17.623  0.0000E+00  0.2000E+01
    -17.515  0.0000E+00  0.2000E+01
    -17.408  0.0000E+00  0.2000E+01
    -17.300  0.0000E+00  0.2000E+01
    -17.192  0.0000E+00  0.2000E+01
    -17.084  0.0000E+00  0.2000E+01
    -16.977  0.0000E+00  0.2000E+01
    -16.869  0.0000E+00  0.2000E+01
    -16.761  0.0000E+00  0.2000E+01
    -16.653  0.0000E+00  0.2000E+01
    -16.546  0.0000E+00  0.2000E+01
    -16.438  0.0000E+00  0.2000E+01
    -16.330  0.0000E+00  0.2000E+01
    -16.222  0.0000E+00  0.2000E+01
    -16.115  0.0000E+00  0.2000E+01
    -16.007  0.0000E+00  0.2000E+01
    -15.899  0.0000E+00  0.2000E+01
    -15.791  0.0000E+00  0.2000E+01
    -15.684  0.0000E+00  0.2000E+01
    -15.576  0.0000E+00  0.2000E+01
    -15.468  0.1429E-25  0.2000E+01
    -15.360  0.5738E-22  0.2000E+01
    -15.253  0.1268E-18  0.2000E+01
    -15.145  0.1536E-15  0.2000E+01
    -15.037  0.1016E-12  0.2000E+01
    -14.929  0.3657E-10  0.2000E+01
    -14.822  0.7080E-08  0.2000E+01
    -14.714  0.7291E-06  0.2000E+01
    -14.606  0.3914E-04  0.2000E+01
    -14.498  0.1056E-02  0.2000E+01
    -14.391  0.1319E-01  0.2002E+01
    -14.283  0.5862E-01  0.2008E+01
    -14.175 -0.7112E-01  0.2000E+01
    -14.067 -0.7617E+00  0.1918E+01
    -13.960  0.8083E+00  0.2005E+01
    -13.852  0.7533E+01  0.2817E+01
    -13.744  0.9305E+01  0.3819E+01
    -13.636  0.2628E+01  0.4103E+01
    -13.529 -0.7871E+00  0.4018E+01
    -13.421 -0.2554E+00  0.3990E+01
    -13.313  0.6313E-01  0.3997E+01
    -13.205  0.2461E-01  0.4000E+01
    -13.098  0.3999E-02  0.4000E+01
    -12.990  0.1610E-01  0.4002E+01
    -12.882  0.6194E-01  0.4009E+01
    -12.774 -0.1156E+00  0.3996E+01
    -12.667 -0.7997E+00  0.3910E+01
    -12.559  0.1268E+01  0.4047E+01
    -12.451  0.8134E+01  0.4923E+01
    -12.343  0.8896E+01  0.5882E+01
    -12.236  0.2092E+01  0.6107E+01
    -12.128 -0.8825E+00  0.6012E+01
    -12.020 -0.9519E+00  0.5909E+01
    -11.912  0.8470E+00  0.6001E+01
    -11.805  0.7516E+01  0.6810E+01
    -11.697  0.9329E+01  0.7816E+01
    -11.589  0.2665E+01  0.8103E+01
    -11.481 -0.7844E+00  0.8018E+01
    -11.374 -0.2593E+00  0.7990E+01
    -11.266  0.6301E-01  0.7997E+01
    -11.158  0.2563E-01  0.8000E+01
    -11.050  0.1379E-01  0.8001E+01
    -10.943  0.5518E-01  0.8007E+01
    -10.835 -0.3923E-01  0.8003E+01
    -10.727 -0.7162E+00  0.7926E+01
    -10.619  0.4669E+00  0.7976E+01
    -10.512  0.6986E+01  0.8729E+01
    -10.404  0.9590E+01  0.9762E+01
    -10.296  0.3165E+01  0.1010E+02
    -10.188 -0.7360E+00  0.1002E+02
    -10.081 -0.3131E+00  0.9990E+01
     -9.973  0.6009E-01  0.9997E+01
     -9.865  0.2811E-01  0.1000E+02
     -9.757  0.3225E-02  0.1000E+02
     -9.650  0.1607E-03  0.1000E+02
     -9.542  0.3927E-05  0.1000E+02
     -9.434  0.4941E-07  0.1000E+02
     -9.326  0.3285E-09  0.1000E+02
     -9.219  0.1171E-11  0.1000E+02
     -9.111  0.2061E-14  0.1000E+02
     -9.003  0.0000E+00  0.1000E+02
     -8.895  0.0000E+00  0.1000E+02
     -8.788  0.0000E+00  0.1000E+02
     -8.680  0.0000E+00  0.1000E+02
     -8.572  0.1092E-27  0.1000E+02
     -8.464  0.6108E-24  0.1000E+02
     -8.357  0.1882E-20  0.1000E+02
     -8.249  0.3186E-17  0.1000E+02
     -8.141  0.2953E-14  0.1000E+02
     -8.033  0.1494E-11  0.1000E+02
     -7.926  0.4085E-09  0.1000E+02
     -7.818  0.5988E-07  0.1000E+02
     -7.710  0.4634E-05  0.1000E+02
     -7.602  0.1844E-03  0.1000E+02
     -7.495  0.3589E-02  0.1000E+02
     -7.387  0.3010E-01  0.1000E+02
     -7.279  0.5893E-01  0.1001E+02
     -7.171 -0.3289E+00  0.9975E+01
     -7.064 -0.6366E+00  0.9906E+01
     -6.956  0.3347E+01  0.1027E+02
     -6.848  0.8927E+01  0.1123E+02
     -6.740  0.7940E+01  0.1208E+02
     -6.633  0.8367E+01  0.1299E+02
     -6.525  0.7731E+01  0.1382E+02
     -6.417  0.1971E+01  0.1403E+02
     -6.309  0.4321E+01  0.1450E+02
     -6.202  0.1669E+02  0.1630E+02
     -6.094  0.2898E+02  0.1942E+02
     -5.986  0.2525E+02  0.2214E+02
     -5.878  0.2187E+02  0.2449E+02
     -5.771  0.4247E+02  0.2907E+02
     -5.663  0.9041E+02  0.3881E+02
     -5.555  0.1775E+03  0.5793E+02
     -5.447  0.2692E+03  0.8694E+02
     -5.340  0.2790E+03  0.1170E+03
     -5.232  0.2264E+03  0.1414E+03
     -5.124  0.2300E+03  0.1662E+03
     -5.016  0.3130E+03  0.1999E+03
     -4.909  0.3559E+03  0.2382E+03
     -4.801  0.3047E+03  0.2711E+03
     -4.693  0.2990E+03  0.3033E+03
     -4.586  0.3844E+03  0.3447E+03
     -4.478  0.4214E+03  0.3901E+03
     -4.370  0.4376E+03  0.4373E+03
     -4.262  0.5262E+03  0.4940E+03
     -4.155  0.5039E+03  0.5483E+03
     -4.047  0.2531E+03  0.5755E+03
     -3.939  0.4510E+02  0.5804E+03
     -3.831  0.1911E+02  0.5825E+03
     -3.724  0.3152E+02  0.5858E+03
     -3.616  0.1807E+02  0.5878E+03
     -3.508  0.1416E+02  0.5893E+03
     -3.400  0.1788E+02  0.5912E+03
     -3.293  0.8258E+01  0.5921E+03
     -3.185  0.5711E+01  0.5928E+03
     -3.077  0.3161E+02  0.5962E+03
     -2.969  0.6192E+02  0.6028E+03
     -2.862  0.4753E+02  0.6080E+03
     -2.754  0.1490E+02  0.6096E+03
     -2.646  0.3090E+01  0.6099E+03
     -2.538  0.1133E+02  0.6111E+03
     -2.431  0.2418E+02  0.6137E+03
     -2.323  0.2283E+02  0.6162E+03
     -2.215  0.1720E+02  0.6180E+03
     -2.107  0.2101E+02  0.6203E+03
     -2.000  0.3109E+02  0.6236E+03
     -1.892  0.4206E+02  0.6282E+03
     -1.784  0.4568E+02  0.6331E+03
     -1.676  0.3776E+02  0.6372E+03
     -1.569  0.3322E+02  0.6407E+03
     -1.461  0.3234E+02  0.6442E+03
     -1.353  0.2678E+02  0.6471E+03
     -1.245  0.2154E+02  0.6494E+03
     -1.138  0.2125E+02  0.6517E+03
     -1.030  0.2956E+02  0.6549E+03
     -0.922  0.4789E+02  0.6601E+03
     -0.814  0.5220E+02  0.6657E+03
     -0.707  0.3708E+02  0.6697E+03
     -0.599  0.1905E+02  0.6717E+03
     -0.491  0.3926E+01  0.6722E+03
     -0.383 -0.1388E+01  0.6720E+03
     -0.276 -0.4000E+00  0.6720E+03
     -0.168  0.1519E+00  0.6720E+03
     -0.060  0.5926E-01  0.6720E+03
      0.048  0.6995E-02  0.6720E+03
      0.155  0.3722E-03  0.6720E+03
      0.263  0.9872E-05  0.6720E+03
      0.371  0.1362E-06  0.6720E+03
      0.479  0.9991E-09  0.6720E+03
      0.586  0.3950E-11  0.6720E+03
      0.694  0.8243E-14  0.6720E+03
      0.802  0.0000E+00  0.6720E+03
      0.910  0.0000E+00  0.6720E+03
      1.017  0.0000E+00  0.6720E+03
      1.125  0.0000E+00  0.6720E+03
      1.233  0.0000E+00  0.6720E+03
      1.341  0.0000E+00  0.6720E+03
