<?xml version="1.0" encoding="ISO-8859-1"?>
<modeling>
 <generator>
  <i name="program" type="string">vasp </i>
  <i name="version" type="string">5.4.4.18Apr17-6-g9f103f2a35  </i>
  <i name="subversion" type="string">(build Sep 03 2018 23:53:05) complex            parallel </i>
  <i name="platform" type="string">LinuxIFC </i>
  <i name="date" type="string">2021 11 26 </i>
  <i name="time" type="string">01:45:24 </i>
 </generator>
 <incar>
  <i type="string" name="SYSTEM"> 6_Pd100_top_free_z(O)</i>
  <i type="int" name="ISTART">     0</i>
  <i type="string" name="PREC">normal   			! encut=max(enmax), ngx,y,z</i>
  <i type="string" name="ALGO"> Fast     			! Mix RMM-DIIS and Dav</i>
  <i type="logical" name="ADDGRID"> F  </i>
  <i type="int" name="ISPIN">     1</i>
  <i type="int" name="ICHARG">     2</i>
  <i type="int" name="NELM">   100</i>
  <i type="int" name="NELMIN">     6</i>
  <i type="int" name="IBRION">     2</i>
  <i name="EDIFF">      0.00010000</i>
  <i name="EDIFFG">     -0.05000000</i>
  <i type="int" name="NSW">     0</i>
  <i type="int" name="ISIF">     2</i>
  <i type="int" name="ISYM">     2</i>
  <i name="ENCUT">    400.00000000</i>
  <i type="string" name="LREAL"> Auto     			! Auto or A projection done</i>
  <i type="int" name="ISMEAR">     2</i>
  <i name="SIGMA">      0.20000000</i>
  <i type="logical" name="LWAVE"> F  </i>
  <i type="logical" name="LCHARG"> F  </i>
  <v type="int" name="KPOINT_BSE">    -1     0     0     0</v>
  <i type="int" name="MAXMEM"> 10000</i>
  <i type="int" name="NELM">   100</i>
  <i type="string" name="GGA"> RP         			! Revised PBE</i>
 </incar>
 <structure name="primitive_cell" >
  <crystal>
   <varray name="basis" >
    <v>      30.00000000       0.00000000       0.00000000 </v>
    <v>       0.00000000      30.00000000       0.00000000 </v>
    <v>       0.00000000       0.00000000      30.00000000 </v>
   </varray>
   <i name="volume">  27000.00000000 </i>
   <varray name="rec_basis" >
    <v>       0.03333333       0.00000000       0.00000000 </v>
    <v>       0.00000000       0.03333333       0.00000000 </v>
    <v>       0.00000000       0.00000000       0.03333333 </v>
   </varray>
  </crystal>
  <varray name="positions" >
   <v>       0.44576020       0.32826710       0.41691983 </v>
   <v>      -0.44576020       0.32826710       0.41691983 </v>
   <v>      -0.50000000       0.38250690       0.34021317 </v>
   <v>      -0.50000000       0.27609440      -0.50000000 </v>
   <v>       0.38804720       0.38804720       0.34167483 </v>
   <v>      -0.50000000       0.38416601      -0.50000000 </v>
   <v>       0.44208300       0.44208300       0.41809300 </v>
   <v>       0.38317830       0.38317830      -0.50000000 </v>
   <v>      -0.44208300       0.44208300       0.41809300 </v>
   <v>       0.44576020       0.32826710      -0.41691977 </v>
   <v>       0.32826705       0.44576024       0.41691983 </v>
   <v>       0.29602193       0.39419263       0.44692683 </v>
   <v>       0.26350123       0.37732353       0.43846527 </v>
   <v>      -0.38804720       0.38804720       0.34167483 </v>
   <v>      -0.38317830       0.38317830      -0.50000000 </v>
   <v>      -0.50000000      -0.50000000       0.33478917 </v>
   <v>      -0.50000000      -0.50000000      -0.50000000 </v>
   <v>      -0.44576020       0.32826710      -0.41691977 </v>
   <v>       0.38250685      -0.49999995       0.34021317 </v>
   <v>       0.44208300       0.44208300      -0.41809297 </v>
   <v>       0.38416599      -0.49999998      -0.50000000 </v>
   <v>      -0.44208300       0.44208300      -0.41809297 </v>
   <v>       0.44208298      -0.44208298       0.41809300 </v>
   <v>       0.32826705       0.44576024      -0.41691977 </v>
   <v>      -0.50000000       0.38250690      -0.34021320 </v>
   <v>       0.32826712      -0.44576022       0.41691983 </v>
   <v>      -0.38250685      -0.49999995       0.34021317 </v>
   <v>      -0.32826705       0.44576024       0.41691983 </v>
   <v>       0.27609443       0.49999998      -0.50000000 </v>
   <v>       0.38804720       0.38804720      -0.34167487 </v>
   <v>      -0.38416599      -0.49999998      -0.50000000 </v>
   <v>      -0.44208298      -0.44208298       0.41809300 </v>
   <v>       0.44208298      -0.44208298      -0.41809297 </v>
   <v>      -0.38804720       0.38804720      -0.34167487 </v>
   <v>       0.38804722      -0.38804722       0.34167483 </v>
   <v>       0.38250685      -0.49999995      -0.34021320 </v>
   <v>       0.32826712      -0.44576022      -0.41691977 </v>
   <v>      -0.32826705       0.44576024      -0.41691977 </v>
   <v>       0.50000000      -0.38250681       0.34021317 </v>
   <v>      -0.50000000      -0.38416596      -0.50000000 </v>
   <v>      -0.44208298      -0.44208298      -0.41809297 </v>
   <v>      -0.50000000      -0.50000000      -0.33478913 </v>
   <v>       0.38317828      -0.38317828      -0.50000000 </v>
   <v>      -0.32826712      -0.44576022       0.41691983 </v>
   <v>      -0.27609443       0.49999998      -0.50000000 </v>
   <v>      -0.38804722      -0.38804722       0.34167483 </v>
   <v>      -0.38250685      -0.49999995      -0.34021320 </v>
   <v>       0.44576027      -0.32826707       0.41691983 </v>
   <v>      -0.38317828      -0.38317828      -0.50000000 </v>
   <v>      -0.32826712      -0.44576022      -0.41691977 </v>
   <v>      -0.44576027      -0.32826707       0.41691983 </v>
   <v>       0.38804722      -0.38804722      -0.34167487 </v>
   <v>      -0.50000000      -0.38250681      -0.34021320 </v>
   <v>       0.44576027      -0.32826707      -0.41691977 </v>
   <v>      -0.44576027      -0.32826707      -0.41691977 </v>
   <v>      -0.50000000      -0.27609445       0.50000000 </v>
   <v>      -0.38804722      -0.38804722      -0.34167487 </v>
  </varray>
 </structure>
 <varray name="primitive_index" >
  <v type="int" >        1 </v>
  <v type="int" >        3 </v>
  <v type="int" >        5 </v>
  <v type="int" >        7 </v>
  <v type="int" >       15 </v>
  <v type="int" >       29 </v>
  <v type="int" >       28 </v>
  <v type="int" >       34 </v>
  <v type="int" >       21 </v>
  <v type="int" >       19 </v>
  <v type="int" >       22 </v>
  <v type="int" >       56 </v>
  <v type="int" >       57 </v>
  <v type="int" >       11 </v>
  <v type="int" >       36 </v>
  <v type="int" >       38 </v>
  <v type="int" >       52 </v>
  <v type="int" >       24 </v>
  <v type="int" >       32 </v>
  <v type="int" >       44 </v>
  <v type="int" >       48 </v>
  <v type="int" >       42 </v>
  <v type="int" >       43 </v>
  <v type="int" >       40 </v>
  <v type="int" >        6 </v>
  <v type="int" >        4 </v>
  <v type="int" >       30 </v>
  <v type="int" >       26 </v>
  <v type="int" >        8 </v>
  <v type="int" >       16 </v>
  <v type="int" >       49 </v>
  <v type="int" >       47 </v>
  <v type="int" >       53 </v>
  <v type="int" >       12 </v>
  <v type="int" >       13 </v>
  <v type="int" >       33 </v>
  <v type="int" >       25 </v>
  <v type="int" >       45 </v>
  <v type="int" >       50 </v>
  <v type="int" >       55 </v>
  <v type="int" >       54 </v>
  <v type="int" >       39 </v>
  <v type="int" >       37 </v>
  <v type="int" >        2 </v>
  <v type="int" >        9 </v>
  <v type="int" >       17 </v>
  <v type="int" >       31 </v>
  <v type="int" >       27 </v>
  <v type="int" >       35 </v>
  <v type="int" >       20 </v>
  <v type="int" >       23 </v>
  <v type="int" >       14 </v>
  <v type="int" >       51 </v>
  <v type="int" >       46 </v>
  <v type="int" >       41 </v>
  <v type="int" >       10 </v>
  <v type="int" >       18 </v>
 </varray>
 <kpoints>
  <generation param="Monkhorst-Pack">
   <v type="int" name="divisions">       1        1        1 </v>
   <v name="usershift">      0.00000000       0.00000000       0.00000000 </v>
   <v name="genvec1">      1.00000000       0.00000000       0.00000000 </v>
   <v name="genvec2">      0.00000000       1.00000000       0.00000000 </v>
   <v name="genvec3">      0.00000000       0.00000000       1.00000000 </v>
   <v name="shift">      0.00000000       0.00000000       0.00000000 </v>
  </generation>
  <varray name="kpointlist" >
   <v>       0.00000000       0.00000000       0.00000000 </v>
  </varray>
  <varray name="weights" >
   <v>       1.00000000 </v>
  </varray>
 </kpoints>
 <parameters>
  <separator name="general" >
   <i type="string" name="SYSTEM">6_Pd100_top_free_z(O)</i>
   <i type="logical" name="LCOMPAT"> F  </i>
  </separator>
  <separator name="electronic" >
   <i type="string" name="PREC">normal</i>
   <i name="ENMAX">    400.00000000</i>
   <i name="ENAUG">    644.87300000</i>
   <i name="EDIFF">      0.00010000</i>
   <i type="int" name="IALGO">    68</i>
   <i type="int" name="IWAVPR">    10</i>
   <i type="int" name="NBANDS">   336</i>
   <i name="NELECT">    560.00000000</i>
   <i type="int" name="TURBO">     0</i>
   <i type="int" name="IRESTART">     0</i>
   <i type="int" name="NREBOOT">     0</i>
   <i type="int" name="NMIN">     0</i>
   <i name="EREF">      0.00000000</i>
   <separator name="electronic smearing" >
    <i type="int" name="ISMEAR">     2</i>
    <i name="SIGMA">      0.20000000</i>
    <i name="KSPACING">      0.50000000</i>
    <i type="logical" name="KGAMMA"> T  </i>
   </separator>
   <separator name="electronic projectors" >
    <i type="logical" name="LREAL"> T  </i>
    <v name="ROPT">     -0.00050000     -0.00050000     -0.00050000</v>
    <i type="int" name="LMAXPAW">  -100</i>
    <i type="int" name="LMAXMIX">     2</i>
    <i type="logical" name="NLSPLINE"> F  </i>
   </separator>
   <separator name="electronic startup" >
    <i type="int" name="ISTART">     0</i>
    <i type="int" name="ICHARG">     2</i>
    <i type="int" name="INIWAV">     1</i>
   </separator>
   <separator name="electronic spin" >
    <i type="int" name="ISPIN">     1</i>
    <i type="logical" name="LNONCOLLINEAR"> F  </i>
    <v name="MAGMOM">      1.00000000      1.00000000      1.00000000      1.00000000      1.00000000      1.00000000      1.00000000      1.00000000      1.00000000      1.00000000      1.00000000      1.00000000      1.00000000      1.00000000      1.00000000      1.00000000      1.00000000      1.00000000      1.00000000      1.00000000
      1.00000000      1.00000000      1.00000000      1.00000000      1.00000000      1.00000000      1.00000000      1.00000000      1.00000000      1.00000000      1.00000000      1.00000000      1.00000000      1.00000000      1.00000000      1.00000000      1.00000000      1.00000000      1.00000000      1.00000000
      1.00000000      1.00000000      1.00000000      1.00000000      1.00000000      1.00000000      1.00000000      1.00000000      1.00000000      1.00000000      1.00000000      1.00000000      1.00000000      1.00000000      1.00000000      1.00000000      1.00000000</v>
    <i name="NUPDOWN">     -1.00000000</i>
    <i type="logical" name="LSORBIT"> F  </i>
    <v name="SAXIS">      0.00000000      0.00000000      1.00000000</v>
    <i type="logical" name="LSPIRAL"> F  </i>
    <v name="QSPIRAL">      0.00000000      0.00000000      0.00000000</v>
    <i type="logical" name="LZEROZ"> F  </i>
   </separator>
   <separator name="electronic exchange-correlation" >
    <i type="logical" name="LASPH"> F  </i>
    <i type="logical" name="LMETAGGA"> F  </i>
   </separator>
   <separator name="electronic convergence" >
    <i type="int" name="NELM">   100</i>
    <i type="int" name="NELMDL">    -5</i>
    <i type="int" name="NELMIN">     6</i>
    <i name="ENINI">    400.00000000</i>
    <separator name="electronic convergence detail" >
     <i type="logical" name="LDIAG"> T  </i>
     <i type="logical" name="LSUBROT"> F  </i>
     <i name="WEIMIN">      0.00000000</i>
     <i name="EBREAK">      0.00000007</i>
     <i name="DEPER">      0.30000000</i>
     <i type="int" name="NRMM">     4</i>
     <i name="TIME">      0.40000000</i>
    </separator>
   </separator>
   <separator name="electronic mixer" >
    <i name="AMIX">      0.40000000</i>
    <i name="BMIX">      1.00000000</i>
    <i name="AMIN">      0.10000000</i>
    <i name="AMIX_MAG">      1.60000000</i>
    <i name="BMIX_MAG">      1.00000000</i>
    <separator name="electronic mixer details" >
     <i type="int" name="IMIX">     4</i>
     <i type="logical" name="MIXFIRST"> F  </i>
     <i type="int" name="MAXMIX">   -45</i>
     <i name="WC">    100.00000000</i>
     <i type="int" name="INIMIX">     1</i>
     <i type="int" name="MIXPRE">     1</i>
     <i type="int" name="MREMOVE">     5</i>
    </separator>
   </separator>
   <separator name="electronic dipolcorrection" >
    <i type="logical" name="LDIPOL"> F  </i>
    <i type="logical" name="LMONO"> F  </i>
    <i type="int" name="IDIPOL">     0</i>
    <i name="EPSILON">      1.00000000</i>
    <v name="DIPOL">   -100.00000000   -100.00000000   -100.00000000</v>
    <i name="EFIELD">      0.00000000</i>
   </separator>
  </separator>
  <separator name="grids" >
   <i type="int" name="NGX">   150</i>
   <i type="int" name="NGY">   150</i>
   <i type="int" name="NGZ">   150</i>
   <i type="int" name="NGXF">   300</i>
   <i type="int" name="NGYF">   300</i>
   <i type="int" name="NGZF">   300</i>
   <i type="logical" name="ADDGRID"> F  </i>
  </separator>
  <separator name="ionic" >
   <i type="int" name="NSW">     0</i>
   <i type="int" name="IBRION">    -1</i>
   <i type="int" name="MDALGO">     0</i>
   <i type="int" name="ISIF">     2</i>
   <i name="PSTRESS">      0.00000000</i>
   <i name="EDIFFG">     -0.05000000</i>
   <i type="int" name="NFREE">     1</i>
   <i name="POTIM">      0.50000000</i>
   <i name="SMASS">     -3.00000000</i>
   <i name="SCALEE">      1.00000000</i>
  </separator>
  <separator name="ionic md" >
   <i name="TEBEG">      0.00010000</i>
   <i name="TEEND">      0.00010000</i>
   <i type="int" name="NBLOCK">     1</i>
   <i type="int" name="KBLOCK">     1</i>
   <i type="int" name="NPACO">   256</i>
   <i name="APACO">     16.00000000</i>
  </separator>
  <separator name="symmetry" >
   <i type="int" name="ISYM">     2</i>
   <i name="SYMPREC">      0.00001000</i>
  </separator>
  <separator name="dos" >
   <i type="int" name="LORBIT">     0</i>
   <v name="RWIGS">     -1.00000000     -1.00000000     -1.00000000</v>
   <i type="int" name="NEDOS">   301</i>
   <i name="EMIN">     10.00000000</i>
   <i name="EMAX">    -10.00000000</i>
   <i name="EFERMI">      0.00000000</i>
  </separator>
  <separator name="writing" >
   <i type="int" name="NWRITE">     2</i>
   <i type="logical" name="LWAVE"> F  </i>
   <i type="logical" name="LDOWNSAMPLE"> F  </i>
   <i type="logical" name="LCHARG"> F  </i>
   <i type="logical" name="LPARD"> F  </i>
   <i type="logical" name="LVTOT"> F  </i>
   <i type="logical" name="LVHAR"> F  </i>
   <i type="logical" name="LELF"> F  </i>
   <i type="logical" name="LOPTICS"> F  </i>
   <v name="STM">      0.00000000      0.00000000      0.00000000      0.00000000      0.00000000      0.00000000      0.00000000</v>
  </separator>
  <separator name="performance" >
   <i type="int" name="NPAR">     1</i>
   <i type="int" name="NSIM">     4</i>
   <i type="int" name="NBLK">    -1</i>
   <i type="logical" name="LPLANE"> T  </i>
   <i type="logical" name="LSCALAPACK"> T  </i>
   <i type="logical" name="LSCAAWARE"> F  </i>
   <i type="logical" name="LSCALU"> F  </i>
   <i type="logical" name="LASYNC"> F  </i>
   <i type="logical" name="LORBITALREAL"> F  </i>
  </separator>
  <separator name="miscellaneous" >
   <i type="int" name="IDIOT">     3</i>
   <i type="int" name="ISPECIAL">     0</i>
   <i type="logical" name="LMUSIC"> F  </i>
   <v name="POMASS">    106.42000000     12.01100000     16.00000000</v>
   <v name="DARWINR">      0.00000000      0.00000000      0.00000000</v>
   <v name="DARWINV">      1.00000000      1.00000000      1.00000000</v>
   <i type="logical" name="LCORR"> T  </i>
  </separator>
  <i type="logical" name="GGA_COMPAT"> T  </i>
  <i type="logical" name="LBERRY"> F  </i>
  <i type="int" name="ICORELEVEL">     0</i>
  <i type="logical" name="LDAU"> F  </i>
  <i type="int" name="I_CONSTRAINED_M">     0</i>
  <separator name="electronic exchange-correlation" >
   <i type="string" name="GGA">RP</i>
   <i type="int" name="VOSKOWN">     0</i>
   <i type="logical" name="LHFCALC"> F  </i>
   <i type="string" name="PRECFOCK"></i>
   <i type="logical" name="LSYMGRAD"> F  </i>
   <i type="logical" name="LHFONE"> F  </i>
   <i type="logical" name="LRHFCALC"> F  </i>
   <i type="logical" name="LTHOMAS"> F  </i>
   <i type="logical" name="LMODELHF"> F  </i>
   <i name="ENCUT4O">     -1.00000000</i>
   <i type="int" name="EXXOEP">     0</i>
   <i type="int" name="FOURORBIT">     0</i>
   <i name="AEXX">      0.00000000</i>
   <i name="HFALPHA">      0.00000000</i>
   <i name="MCALPHA">      0.00000000</i>
   <i name="ALDAX">      1.00000000</i>
   <i name="AGGAX">      1.00000000</i>
   <i name="ALDAC">      1.00000000</i>
   <i name="AGGAC">      1.00000000</i>
   <i type="int" name="NKREDX">     1</i>
   <i type="int" name="NKREDY">     1</i>
   <i type="int" name="NKREDZ">     1</i>
   <i type="logical" name="SHIFTRED"> F  </i>
   <i type="logical" name="ODDONLY"> F  </i>
   <i type="logical" name="EVENONLY"> F  </i>
   <i type="int" name="LMAXFOCK">     0</i>
   <i type="int" name="NMAXFOCKAE">     0</i>
   <i type="logical" name="LFOCKAEDFT"> F  </i>
   <i name="HFSCREEN">      0.00000000</i>
   <i name="HFSCREENC">      0.00000000</i>
   <i type="int" name="NBANDSGWLOW">     0</i>
  </separator>
  <separator name="vdW DFT" >
   <i type="logical" name="LUSE_VDW"> F  </i>
   <i name="Zab_VDW">     -0.84910000</i>
   <i name="PARAM1">      0.12340000</i>
   <i name="PARAM2">      1.00000000</i>
   <i name="PARAM3">      0.00000000</i>
  </separator>
  <separator name="model GW" >
   <i type="int" name="MODEL_GW">     0</i>
   <i name="MODEL_EPS0">    284.21052632</i>
   <i name="MODEL_ALPHA">      1.00000000</i>
  </separator>
  <separator name="linear response parameters" >
   <i type="logical" name="LEPSILON"> F  </i>
   <i type="logical" name="LRPA"> F  </i>
   <i type="logical" name="LNABLA"> F  </i>
   <i type="logical" name="LVEL"> F  </i>
   <i type="int" name="KINTER">     0</i>
   <i name="CSHIFT">      0.10000000</i>
   <i name="OMEGAMAX">     -1.00000000</i>
   <i name="DEG_THRESHOLD">      0.00200000</i>
   <i name="RTIME">     -0.10000000</i>
   <i name="WPLASMAI">      0.00000000</i>
   <v name="DFIELD">      0.00000000      0.00000000      0.00000000</v>
   <v name="WPLASMA">      0.00000000      0.00000000      0.00000000      0.00000000      0.00000000      0.00000000      0.00000000      0.00000000      0.00000000</v>
  </separator>
  <separator name="orbital magnetization" >
   <i type="logical" name="NUCIND"> F  </i>
   <v name="MAGPOS">      0.00000000      0.00000000      0.00000000</v>
   <i type="logical" name="LNICSALL"> T  </i>
   <i type="logical" name="ORBITALMAG"> F  </i>
   <i type="logical" name="LMAGBLOCH"> F  </i>
   <i type="logical" name="LCHIMAG"> F  </i>
   <i type="logical" name="LGAUGE"> T  </i>
   <i type="int" name="MAGATOM">     0</i>
   <v name="MAGDIPOL">      0.00000000      0.00000000      0.00000000</v>
   <v name="AVECCONST">      0.00000000      0.00000000      0.00000000</v>
  </separator>
  <separator name="response functions" >
   <i type="logical" name="LADDER"> F  </i>
   <i type="logical" name="LRPAFORCE"> F  </i>
   <i type="logical" name="LFXC"> F  </i>
   <i type="logical" name="LHARTREE"> T  </i>
   <i type="int" name="IBSE">     0</i>
   <v type="int" name="KPOINT">    -1     0     0     0</v>
   <i type="logical" name="LTCTE"> F  </i>
   <i type="logical" name="LTETE"> F  </i>
   <i type="logical" name="LTRIPLET"> F  </i>
   <i type="logical" name="LFXCEPS"> F  </i>
   <i type="logical" name="LFXHEG"> F  </i>
   <i type="int" name="NATURALO">     2</i>
   <i type="logical" name="L2ORDER"> F  </i>
   <i type="logical" name="LMP2LT"> F  </i>
   <i type="logical" name="LUSEW"> F  </i>
   <i name="ENCUTGW">     -2.00000000</i>
   <i name="ENCUTGWSOFT">     -2.00000000</i>
   <i name="ENCUTLF">     -1.00000000</i>
   <i type="int" name="LMAXMP2">    -1</i>
   <i name="SCISSOR">      0.00000000</i>
   <i type="int" name="NOMEGA">     0</i>
   <i type="int" name="NOMEGAR">     0</i>
   <i type="int" name="NBANDSGW">    -1</i>
   <i type="int" name="NBANDSO">    -1</i>
   <i type="int" name="NBANDSV">    -1</i>
   <i type="int" name="NELM">   100</i>
   <i type="int" name="NELMHF">     1</i>
   <i type="int" name="DIM">     3</i>
   <i type="int" name="ANTIRES">     0</i>
   <i name="OMEGAMAX">    -30.00000000</i>
   <i name="OMEGAMIN">    -30.00000000</i>
   <i name="OMEGATL">   -200.00000000</i>
   <i type="int" name="OMEGAGRID">   140</i>
   <i name="CSHIFT">     -0.10000000</i>
   <i type="logical" name="SELFENERGY"> F  </i>
   <i type="logical" name="LSPECTRAL"> F  </i>
   <i type="logical" name="LSPECTRALGW"> F  </i>
   <i type="logical" name="LSINGLES"> F  </i>
   <i type="logical" name="LFERMIGW"> F  </i>
   <i type="logical" name="ODDONLYGW"> F  </i>
   <i type="logical" name="EVENONLYGW"> F  </i>
   <i type="int" name="NKREDLFX">     1</i>
   <i type="int" name="NKREDLFY">     1</i>
   <i type="int" name="NKREDLFZ">     1</i>
   <i type="int" name="MAXMEM"> 10000</i>
   <i type="int" name="TELESCOPE">     0</i>
   <i type="int" name="TAUPAR">     1</i>
   <i type="int" name="OMEGAPAR">    -1</i>
   <i name="LAMBDA">      1.00000000</i>
  </separator>
  <separator name="External order field" >
   <i name="OFIELD_KAPPA">      0.00000000</i>
   <v name="OFIELD_K">      0.00000000      0.00000000      0.00000000</v>
   <i name="OFIELD_Q6_NEAR">      0.00000000</i>
   <i name="OFIELD_Q6_FAR">      0.00000000</i>
   <i name="OFIELD_A">      0.00000000</i>
  </separator>
 </parameters>
 <atominfo>
  <atoms>      57 </atoms>
  <types>       3 </types>
  <array name="atoms" >
   <dimension dim="1">ion</dimension>
   <field type="string">element</field>
   <field type="int">atomtype</field>
   <set>
    <rc><c>Pd</c><c>   1</c></rc>
    <rc><c>Pd</c><c>   1</c></rc>
    <rc><c>Pd</c><c>   1</c></rc>
    <rc><c>Pd</c><c>   1</c></rc>
    <rc><c>Pd</c><c>   1</c></rc>
    <rc><c>Pd</c><c>   1</c></rc>
    <rc><c>Pd</c><c>   1</c></rc>
    <rc><c>Pd</c><c>   1</c></rc>
    <rc><c>Pd</c><c>   1</c></rc>
    <rc><c>Pd</c><c>   1</c></rc>
    <rc><c>Pd</c><c>   1</c></rc>
    <rc><c>Pd</c><c>   1</c></rc>
    <rc><c>Pd</c><c>   1</c></rc>
    <rc><c>Pd</c><c>   1</c></rc>
    <rc><c>Pd</c><c>   1</c></rc>
    <rc><c>Pd</c><c>   1</c></rc>
    <rc><c>Pd</c><c>   1</c></rc>
    <rc><c>Pd</c><c>   1</c></rc>
    <rc><c>Pd</c><c>   1</c></rc>
    <rc><c>Pd</c><c>   1</c></rc>
    <rc><c>Pd</c><c>   1</c></rc>
    <rc><c>Pd</c><c>   1</c></rc>
    <rc><c>Pd</c><c>   1</c></rc>
    <rc><c>Pd</c><c>   1</c></rc>
    <rc><c>Pd</c><c>   1</c></rc>
    <rc><c>Pd</c><c>   1</c></rc>
    <rc><c>Pd</c><c>   1</c></rc>
    <rc><c>Pd</c><c>   1</c></rc>
    <rc><c>Pd</c><c>   1</c></rc>
    <rc><c>Pd</c><c>   1</c></rc>
    <rc><c>Pd</c><c>   1</c></rc>
    <rc><c>Pd</c><c>   1</c></rc>
    <rc><c>Pd</c><c>   1</c></rc>
    <rc><c>Pd</c><c>   1</c></rc>
    <rc><c>Pd</c><c>   1</c></rc>
    <rc><c>Pd</c><c>   1</c></rc>
    <rc><c>Pd</c><c>   1</c></rc>
    <rc><c>Pd</c><c>   1</c></rc>
    <rc><c>Pd</c><c>   1</c></rc>
    <rc><c>Pd</c><c>   1</c></rc>
    <rc><c>Pd</c><c>   1</c></rc>
    <rc><c>Pd</c><c>   1</c></rc>
    <rc><c>Pd</c><c>   1</c></rc>
    <rc><c>Pd</c><c>   1</c></rc>
    <rc><c>Pd</c><c>   1</c></rc>
    <rc><c>Pd</c><c>   1</c></rc>
    <rc><c>Pd</c><c>   1</c></rc>
    <rc><c>Pd</c><c>   1</c></rc>
    <rc><c>Pd</c><c>   1</c></rc>
    <rc><c>Pd</c><c>   1</c></rc>
    <rc><c>Pd</c><c>   1</c></rc>
    <rc><c>Pd</c><c>   1</c></rc>
    <rc><c>Pd</c><c>   1</c></rc>
    <rc><c>Pd</c><c>   1</c></rc>
    <rc><c>Pd</c><c>   1</c></rc>
    <rc><c>C </c><c>   2</c></rc>
    <rc><c>O </c><c>   3</c></rc>
   </set>
  </array>
  <array name="atomtypes" >
   <dimension dim="1">type</dimension>
   <field type="int">atomspertype</field>
   <field type="string">element</field>
   <field>mass</field>
   <field>valence</field>
   <field type="string">pseudopotential</field>
   <set>
    <rc><c>  55</c><c>Pd</c><c>    106.42000000</c><c>     10.00000000</c><c>  PAW_PBE Pd 04Jan2005                  </c></rc>
    <rc><c>   1</c><c>C </c><c>     12.01100000</c><c>      4.00000000</c><c>  PAW_PBE C 08Apr2002                   </c></rc>
    <rc><c>   1</c><c>O </c><c>     16.00000000</c><c>      6.00000000</c><c>  PAW_PBE O 08Apr2002                   </c></rc>
   </set>
  </array>
 </atominfo>
 <structure name="initialpos" >
  <crystal>
   <varray name="basis" >
    <v>      30.00000000       0.00000000       0.00000000 </v>
    <v>       0.00000000      30.00000000       0.00000000 </v>
    <v>       0.00000000       0.00000000      30.00000000 </v>
   </varray>
   <i name="volume">  27000.00000000 </i>
   <varray name="rec_basis" >
    <v>       0.03333333       0.00000000       0.00000000 </v>
    <v>       0.00000000       0.03333333       0.00000000 </v>
    <v>       0.00000000       0.00000000       0.03333333 </v>
   </varray>
  </crystal>
  <varray name="positions" >
   <v>       0.44576020       0.32826710       0.41691983 </v>
   <v>       0.67173288       0.55423978       0.41691983 </v>
   <v>       0.55423980       0.32826710       0.41691983 </v>
   <v>       0.32826712       0.55423978       0.41691983 </v>
   <v>       0.50000000       0.38250690       0.34021317 </v>
   <v>       0.50000000       0.38250690       0.65978680 </v>
   <v>       0.50000000       0.27609440       0.50000000 </v>
   <v>       0.27609443       0.49999998       0.50000000 </v>
   <v>       0.72390557       0.49999998       0.50000000 </v>
   <v>       0.50000000       0.72390555       0.50000000 </v>
   <v>       0.61195280       0.38804720       0.34167483 </v>
   <v>       0.61195280       0.38804720       0.65832513 </v>
   <v>       0.38804722       0.61195278       0.34167483 </v>
   <v>       0.38804722       0.61195278       0.65832513 </v>
   <v>       0.38804720       0.38804720       0.34167483 </v>
   <v>       0.38804720       0.38804720       0.65832513 </v>
   <v>       0.61195278       0.61195278       0.34167483 </v>
   <v>       0.61195278       0.61195278       0.65832513 </v>
   <v>       0.44576020       0.32826710       0.58308023 </v>
   <v>       0.67173288       0.55423978       0.58308023 </v>
   <v>       0.55791699       0.44208301       0.41809300 </v>
   <v>       0.32826705       0.44576024       0.41691983 </v>
   <v>       0.55423973       0.67173293       0.41691983 </v>
   <v>       0.55423980       0.32826710       0.58308023 </v>
   <v>       0.32826712       0.55423978       0.58308023 </v>
   <v>       0.67173295       0.44576024       0.41691983 </v>
   <v>       0.44576027       0.67173293       0.41691983 </v>
   <v>       0.44208301       0.44208301       0.41809300 </v>
   <v>       0.50000000       0.38416601       0.50000000 </v>
   <v>       0.61749315       0.50000005       0.34021317 </v>
   <v>       0.61749315       0.50000005       0.65978680 </v>
   <v>       0.38250685       0.50000005       0.34021317 </v>
   <v>       0.38250685       0.50000005       0.65978680 </v>
   <v>       0.38317830       0.38317830       0.50000000 </v>
   <v>       0.61682172       0.61682172       0.50000000 </v>
   <v>       0.61682170       0.38317830       0.50000000 </v>
   <v>       0.38317828       0.61682172       0.50000000 </v>
   <v>       0.50000000       0.50000000       0.33478917 </v>
   <v>       0.50000000       0.50000000       0.66521087 </v>
   <v>       0.32826705       0.44576024       0.58308023 </v>
   <v>       0.55423973       0.67173293       0.58308023 </v>
   <v>       0.55791699       0.44208301       0.58190703 </v>
   <v>       0.44208298       0.55791702       0.41809300 </v>
   <v>       0.44208301       0.44208301       0.58190703 </v>
   <v>       0.67173295       0.44576024       0.58308023 </v>
   <v>       0.44576027       0.67173293       0.58308023 </v>
   <v>       0.55791702       0.55791702       0.41809300 </v>
   <v>       0.38416599       0.50000002       0.50000000 </v>
   <v>       0.61583401       0.50000002       0.50000000 </v>
   <v>       0.50000000       0.61749319       0.34021317 </v>
   <v>       0.50000000       0.61749319       0.65978680 </v>
   <v>       0.50000000       0.50000000       0.50000000 </v>
   <v>       0.44208298       0.55791702       0.58190703 </v>
   <v>       0.55791702       0.55791702       0.58190703 </v>
   <v>       0.50000000       0.61583404       0.50000000 </v>
   <v>       0.29602193       0.39419263       0.44692683 </v>
   <v>       0.26350123       0.37732353       0.43846527 </v>
  </varray>
  <varray name="selective"  type="logical" >
   <v type="logical" >  F  F  F </v>
   <v type="logical" >  F  F  F </v>
   <v type="logical" >  F  F  F </v>
   <v type="logical" >  F  F  F </v>
   <v type="logical" >  F  F  F </v>
   <v type="logical" >  F  F  F </v>
   <v type="logical" >  F  F  F </v>
   <v type="logical" >  F  F  F </v>
   <v type="logical" >  F  F  F </v>
   <v type="logical" >  F  F  F </v>
   <v type="logical" >  F  F  F </v>
   <v type="logical" >  F  F  F </v>
   <v type="logical" >  F  F  F </v>
   <v type="logical" >  F  F  F </v>
   <v type="logical" >  F  F  F </v>
   <v type="logical" >  F  F  F </v>
   <v type="logical" >  F  F  F </v>
   <v type="logical" >  F  F  F </v>
   <v type="logical" >  F  F  F </v>
   <v type="logical" >  F  F  F </v>
   <v type="logical" >  F  F  F </v>
   <v type="logical" >  F  F  F </v>
   <v type="logical" >  F  F  F </v>
   <v type="logical" >  F  F  F </v>
   <v type="logical" >  F  F  F </v>
   <v type="logical" >  F  F  F </v>
   <v type="logical" >  F  F  F </v>
   <v type="logical" >  F  F  F </v>
   <v type="logical" >  F  F  F </v>
   <v type="logical" >  F  F  F </v>
   <v type="logical" >  F  F  F </v>
   <v type="logical" >  F  F  F </v>
   <v type="logical" >  F  F  F </v>
   <v type="logical" >  F  F  F </v>
   <v type="logical" >  F  F  F </v>
   <v type="logical" >  F  F  F </v>
   <v type="logical" >  F  F  F </v>
   <v type="logical" >  F  F  F </v>
   <v type="logical" >  F  F  F </v>
   <v type="logical" >  F  F  F </v>
   <v type="logical" >  F  F  F </v>
   <v type="logical" >  F  F  F </v>
   <v type="logical" >  F  F  F </v>
   <v type="logical" >  F  F  F </v>
   <v type="logical" >  F  F  F </v>
   <v type="logical" >  F  F  F </v>
   <v type="logical" >  F  F  F </v>
   <v type="logical" >  F  F  F </v>
   <v type="logical" >  F  F  F </v>
   <v type="logical" >  F  F  F </v>
   <v type="logical" >  F  F  F </v>
   <v type="logical" >  F  F  F </v>
   <v type="logical" >  F  F  F </v>
   <v type="logical" >  F  F  F </v>
   <v type="logical" >  F  F  F </v>
   <v type="logical" >  F  F  F </v>
   <v type="logical" >  F  F  F </v>
  </varray>
  <nose>
   <v>      -3.00000000       0.00000000       0.00010000       0.00010000 </v>
  </nose>
 </structure>
 <calculation>
  <scstep>
   <time name="dav"> 1681.07 1681.38</time>
   <time name="total"> 1698.18 1698.49</time>
   <energy>
    <i name="alphaZ">     75.25431677 </i>
    <i name="ewald"> 138503.63866544 </i>
    <i name="hartreedc">-181865.72589186 </i>
    <i name="XCdc">  -1703.15964053 </i>
    <i name="pawpsdc">  44873.02882129 </i>
    <i name="pawaedc"> -41398.84523641 </i>
    <i name="eentropy">     -0.00649507 </i>
    <i name="bandstr">    816.73906527 </i>
    <i name="atom">  45086.50549395 </i>
    <i name="e_fr_energy">   4387.42909885 </i>
    <i name="e_wo_entrp">   4387.43559392 </i>
    <i name="e_0_energy">   4387.43072261 </i>
   </energy>
  </scstep>
  <scstep>
   <time name="dav"> 3030.15 3030.36</time>
   <time name="total"> 3030.15 3030.36</time>
   <energy>
    <i name="e_fr_energy">   2030.76590072 </i>
    <i name="e_wo_entrp">   2030.81657987 </i>
    <i name="e_0_energy">   2030.77857051 </i>
   </energy>
  </scstep>
  <scstep>
   <time name="dav"> 2726.06 2726.26</time>
   <time name="total"> 2726.06 2726.26</time>
   <energy>
    <i name="e_fr_energy">    238.24675015 </i>
    <i name="e_wo_entrp">    238.28907229 </i>
    <i name="e_0_energy">    238.25733068 </i>
   </energy>
  </scstep>
  <scstep>
   <time name="dav"> 1813.05 1813.18</time>
   <time name="total"> 1813.05 1813.18</time>
   <energy>
    <i name="e_fr_energy">   -134.05271718 </i>
    <i name="e_wo_entrp">   -134.04752960 </i>
    <i name="e_0_energy">   -134.05142028 </i>
   </energy>
  </scstep>
  <scstep>
   <time name="dav"> 2233.08 2233.25</time>
   <time name="total"> 2326.15 2326.33</time>
   <energy>
    <i name="e_fr_energy">   -179.56843490 </i>
    <i name="e_wo_entrp">   -180.12111653 </i>
    <i name="e_0_energy">   -179.70660531 </i>
   </energy>
  </scstep>
  <scstep>
   <time name="diag">  275.61  275.63</time>
   <time name="diis">  626.22  626.27</time>
   <time name="orth">   38.89   38.89</time>
   <time name="total"> 1059.06 1059.14</time>
   <energy>
    <i name="e_fr_energy">   -179.64980480 </i>
    <i name="e_wo_entrp">   -179.49744269 </i>
    <i name="e_0_energy">   -179.61171427 </i>
   </energy>
  </scstep>
  <scstep>
   <time name="diag">  186.55  186.56</time>
   <time name="diis">  691.87  691.94</time>
   <time name="orth">   41.71   41.71</time>
   <time name="total"> 1032.01 1032.10</time>
   <energy>
    <i name="e_fr_energy">   -180.87609062 </i>
    <i name="e_wo_entrp">   -180.92563119 </i>
    <i name="e_0_energy">   -180.88847576 </i>
   </energy>
  </scstep>
  <scstep>
   <time name="diag">  191.83  191.85</time>
   <time name="diis">  799.99  800.06</time>
   <time name="orth">   77.44   77.44</time>
   <time name="total"> 1224.75 1224.86</time>
   <energy>
    <i name="e_fr_energy">   -184.23331869 </i>
    <i name="e_wo_entrp">   -184.16051021 </i>
    <i name="e_0_energy">   -184.21511657 </i>
   </energy>
  </scstep>
  <scstep>
   <time name="diag">  277.96  278.00</time>
   <time name="diis">  605.04  605.12</time>
   <time name="orth">   42.33   42.34</time>
   <time name="total"> 1058.70 1058.84</time>
   <energy>
    <i name="e_fr_energy">   -183.57525558 </i>
    <i name="e_wo_entrp">   -183.38146500 </i>
    <i name="e_0_energy">   -183.52680794 </i>
   </energy>
  </scstep>
  <scstep>
   <time name="diag">  203.12  203.16</time>
   <time name="diis">  610.41  610.47</time>
   <time name="orth">   41.61   41.61</time>
   <time name="total">  963.98  964.11</time>
   <energy>
    <i name="e_fr_energy">   -181.27530682 </i>
    <i name="e_wo_entrp">   -181.27141108 </i>
    <i name="e_0_energy">   -181.27433289 </i>
   </energy>
  </scstep>
  <scstep>
   <time name="diag">  184.18  184.20</time>
   <time name="diis">  567.16  567.22</time>
   <time name="orth">   38.30   38.31</time>
   <time name="total">  891.34  891.45</time>
   <energy>
    <i name="e_fr_energy">   -180.05536684 </i>
    <i name="e_wo_entrp">   -179.99998989 </i>
    <i name="e_0_energy">   -180.04152260 </i>
   </energy>
  </scstep>
  <scstep>
   <time name="diag">  175.10  175.12</time>
   <time name="diis">  737.01  737.07</time>
   <time name="orth">   68.18   68.18</time>
   <time name="total"> 1099.15 1099.24</time>
   <energy>
    <i name="e_fr_energy">   -178.21423423 </i>
    <i name="e_wo_entrp">   -178.13123170 </i>
    <i name="e_0_energy">   -178.19348360 </i>
   </energy>
  </scstep>
  <scstep>
   <time name="diag">  256.34  256.37</time>
   <time name="diis">  672.98  673.04</time>
   <time name="orth">   40.91   40.91</time>
   <time name="total"> 1088.92 1089.02</time>
   <energy>
    <i name="e_fr_energy">   -176.64719069 </i>
    <i name="e_wo_entrp">   -176.62266736 </i>
    <i name="e_0_energy">   -176.64105986 </i>
   </energy>
  </scstep>
  <scstep>
   <time name="diag">  190.29  190.31</time>
   <time name="diis">  539.61  539.66</time>
   <time name="orth">   40.51   40.52</time>
   <time name="total">  882.19  882.28</time>
   <energy>
    <i name="e_fr_energy">   -177.16301037 </i>
    <i name="e_wo_entrp">   -177.15090373 </i>
    <i name="e_0_energy">   -177.15998371 </i>
   </energy>
  </scstep>
  <scstep>
   <time name="diag">  181.85  181.87</time>
   <time name="diis">  561.20  561.26</time>
   <time name="orth">   43.81   43.81</time>
   <time name="total">  903.00  903.10</time>
   <energy>
    <i name="e_fr_energy">   -177.01303277 </i>
    <i name="e_wo_entrp">   -176.99022739 </i>
    <i name="e_0_energy">   -177.00733142 </i>
   </energy>
  </scstep>
  <scstep>
   <time name="diag">  209.38  209.40</time>
   <time name="diis">  672.24  672.31</time>
   <time name="orth">   69.78   69.79</time>
   <time name="total"> 1105.89 1105.99</time>
   <energy>
    <i name="e_fr_energy">   -176.75610074 </i>
    <i name="e_wo_entrp">   -176.72512295 </i>
    <i name="e_0_energy">   -176.74835630 </i>
   </energy>
  </scstep>
  <scstep>
   <time name="diag">  258.37  258.39</time>
   <time name="diis">  792.86  792.92</time>
   <time name="orth">   66.23   66.24</time>
   <time name="total"> 1261.36 1261.45</time>
   <energy>
    <i name="e_fr_energy">   -176.37068612 </i>
    <i name="e_wo_entrp">   -176.45989619 </i>
    <i name="e_0_energy">   -176.39298863 </i>
   </energy>
  </scstep>
  <scstep>
   <time name="diag">  306.28  306.32</time>
   <time name="diis">  816.54  816.62</time>
   <time name="orth">   82.05   82.06</time>
   <time name="total"> 1351.98 1352.11</time>
   <energy>
    <i name="e_fr_energy">   -175.70148604 </i>
    <i name="e_wo_entrp">   -175.63729304 </i>
    <i name="e_0_energy">   -175.68543779 </i>
   </energy>
  </scstep>
  <scstep>
   <time name="diag">  317.05  317.08</time>
   <time name="diis">  792.62  792.69</time>
   <time name="orth">   79.76   79.76</time>
   <time name="total"> 1342.25 1342.38</time>
   <energy>
    <i name="e_fr_energy">   -175.63518205 </i>
    <i name="e_wo_entrp">   -175.65859670 </i>
    <i name="e_0_energy">   -175.64103572 </i>
   </energy>
  </scstep>
  <scstep>
   <time name="diag">  313.24  313.27</time>
   <time name="diis">  616.11  616.17</time>
   <time name="orth">   41.08   41.08</time>
   <time name="total"> 1088.61 1088.71</time>
   <energy>
    <i name="e_fr_energy">   -175.68642493 </i>
    <i name="e_wo_entrp">   -175.72411556 </i>
    <i name="e_0_energy">   -175.69584759 </i>
   </energy>
  </scstep>
  <scstep>
   <time name="diag">  261.19  261.21</time>
   <time name="diis">  666.41  666.47</time>
   <time name="orth">   56.23   56.24</time>
   <time name="total"> 1110.90 1111.00</time>
   <energy>
    <i name="e_fr_energy">   -175.74693689 </i>
    <i name="e_wo_entrp">   -175.83502861 </i>
    <i name="e_0_energy">   -175.76895982 </i>
   </energy>
  </scstep>
  <scstep>
   <time name="diag">  266.21  266.23</time>
   <time name="diis">  787.94  788.02</time>
   <time name="orth">   65.15   65.16</time>
   <time name="total"> 1263.50 1263.62</time>
   <energy>
    <i name="e_fr_energy">   -175.39629019 </i>
    <i name="e_wo_entrp">   -175.40278042 </i>
    <i name="e_0_energy">   -175.39791275 </i>
   </energy>
  </scstep>
  <scstep>
   <time name="diag">  286.39  286.42</time>
   <time name="diis">  670.31  670.39</time>
   <time name="orth">   57.39   57.42</time>
   <time name="total"> 1157.87 1158.03</time>
   <energy>
    <i name="e_fr_energy">   -175.29437585 </i>
    <i name="e_wo_entrp">   -175.26413237 </i>
    <i name="e_0_energy">   -175.28681498 </i>
   </energy>
  </scstep>
  <scstep>
   <time name="diag">  267.34  267.36</time>
   <time name="diis">  796.63  796.70</time>
   <time name="orth">   80.06   80.07</time>
   <time name="total"> 1303.97 1304.10</time>
   <energy>
    <i name="e_fr_energy">   -175.17395701 </i>
    <i name="e_wo_entrp">   -175.11929048 </i>
    <i name="e_0_energy">   -175.16029037 </i>
   </energy>
  </scstep>
  <scstep>
   <time name="diag">  291.36  291.39</time>
   <time name="diis">  723.88  723.96</time>
   <time name="orth">   38.64   38.65</time>
   <time name="total"> 1185.82 1185.95</time>
   <energy>
    <i name="e_fr_energy">   -175.07235756 </i>
    <i name="e_wo_entrp">   -175.04425967 </i>
    <i name="e_0_energy">   -175.06533309 </i>
   </energy>
  </scstep>
  <scstep>
   <time name="diag">  285.14  285.16</time>
   <time name="diis">  746.13  746.19</time>
   <time name="orth">   79.26   79.27</time>
   <time name="total"> 1265.50 1265.60</time>
   <energy>
    <i name="e_fr_energy">   -174.95435651 </i>
    <i name="e_wo_entrp">   -174.90989446 </i>
    <i name="e_0_energy">   -174.94324100 </i>
   </energy>
  </scstep>
  <scstep>
   <time name="diag">  306.92  306.94</time>
   <time name="diis">  816.81  816.87</time>
   <time name="orth">   86.63   86.63</time>
   <time name="total"> 1382.46 1382.56</time>
   <energy>
    <i name="e_fr_energy">   -174.89871570 </i>
    <i name="e_wo_entrp">   -174.85495092 </i>
    <i name="e_0_energy">   -174.88777451 </i>
   </energy>
  </scstep>
  <scstep>
   <time name="diag">  315.97  316.00</time>
   <time name="diis">  807.35  807.40</time>
   <time name="orth">   86.19   86.20</time>
   <time name="total"> 1378.34 1378.44</time>
   <energy>
    <i name="e_fr_energy">   -174.90394490 </i>
    <i name="e_wo_entrp">   -174.87298916 </i>
    <i name="e_0_energy">   -174.89620597 </i>
   </energy>
  </scstep>
  <scstep>
   <time name="diag">  227.38  227.41</time>
   <time name="diis">  504.19  504.24</time>
   <time name="orth">   37.88   37.89</time>
   <time name="total">  892.77  892.86</time>
   <energy>
    <i name="e_fr_energy">   -174.85433261 </i>
    <i name="e_wo_entrp">   -174.80239312 </i>
    <i name="e_0_energy">   -174.84134774 </i>
   </energy>
  </scstep>
  <scstep>
   <time name="diag">  176.38  176.39</time>
   <time name="diis">  680.71  680.77</time>
   <time name="orth">   81.65   81.66</time>
   <time name="total"> 1083.88 1083.98</time>
   <energy>
    <i name="e_fr_energy">   -174.84008888 </i>
    <i name="e_wo_entrp">   -174.78638823 </i>
    <i name="e_0_energy">   -174.82666371 </i>
   </energy>
  </scstep>
  <scstep>
   <time name="diag">  309.36  309.39</time>
   <time name="diis">  773.66  773.73</time>
   <time name="orth">   85.30   85.30</time>
   <time name="total"> 1339.70 1339.82</time>
   <energy>
    <i name="e_fr_energy">   -174.82306565 </i>
    <i name="e_wo_entrp">   -174.76318738 </i>
    <i name="e_0_energy">   -174.80809609 </i>
   </energy>
  </scstep>
  <scstep>
   <time name="diag">  332.33  332.36</time>
   <time name="diis">  799.23  799.30</time>
   <time name="orth">   81.54   81.55</time>
   <time name="total"> 1382.68 1382.80</time>
   <energy>
    <i name="e_fr_energy">   -174.79068022 </i>
    <i name="e_wo_entrp">   -174.73154115 </i>
    <i name="e_0_energy">   -174.77589545 </i>
   </energy>
  </scstep>
  <scstep>
   <time name="diag">  314.20  314.23</time>
   <time name="diis">  740.20  740.28</time>
   <time name="orth">   76.60   76.60</time>
   <time name="total"> 1288.29 1288.42</time>
   <energy>
    <i name="e_fr_energy">   -174.78342574 </i>
    <i name="e_wo_entrp">   -174.72783459 </i>
    <i name="e_0_energy">   -174.76952795 </i>
   </energy>
  </scstep>
  <scstep>
   <time name="diag">  228.29  228.32</time>
   <time name="diis">  492.95  493.04</time>
   <time name="orth">   38.60   38.60</time>
   <time name="total">  877.72  877.85</time>
   <energy>
    <i name="e_fr_energy">   -174.77545961 </i>
    <i name="e_wo_entrp">   -174.72383850 </i>
    <i name="e_0_energy">   -174.76255433 </i>
   </energy>
  </scstep>
  <scstep>
   <time name="diag">  180.67  180.70</time>
   <time name="diis">  508.68  508.74</time>
   <time name="orth">   38.66   38.66</time>
   <time name="total">  834.38  834.47</time>
   <energy>
    <i name="e_fr_energy">   -174.77336417 </i>
    <i name="e_wo_entrp">   -174.71720102 </i>
    <i name="e_0_energy">   -174.75932339 </i>
   </energy>
  </scstep>
  <scstep>
   <time name="diag">  173.21  173.22</time>
   <time name="diis">  499.12  499.19</time>
   <time name="orth">   38.83   38.83</time>
   <time name="total">  819.14  819.25</time>
   <energy>
    <i name="e_fr_energy">   -174.77137103 </i>
    <i name="e_wo_entrp">   -174.71611849 </i>
    <i name="e_0_energy">   -174.75755790 </i>
   </energy>
  </scstep>
  <scstep>
   <time name="diag">  179.03  179.05</time>
   <time name="diis">  522.83  522.88</time>
   <time name="orth">   40.57   40.58</time>
   <time name="total">  857.63  857.71</time>
   <energy>
    <i name="e_fr_energy">   -174.76785481 </i>
    <i name="e_wo_entrp">   -174.71650275 </i>
    <i name="e_0_energy">   -174.75501679 </i>
   </energy>
  </scstep>
  <scstep>
   <time name="diag">  188.45  188.47</time>
   <time name="diis">  545.99  546.04</time>
   <time name="orth">   41.27   41.27</time>
   <time name="total">  895.22  895.30</time>
   <energy>
    <i name="e_fr_energy">   -174.76755332 </i>
    <i name="e_wo_entrp">   -174.71295666 </i>
    <i name="e_0_energy">   -174.75390415 </i>
   </energy>
  </scstep>
  <scstep>
   <time name="diag">  191.35  191.37</time>
   <time name="diis">  545.35  545.40</time>
   <time name="orth">   38.57   38.57</time>
   <time name="total">  923.77  923.85</time>
   <energy>
    <i name="e_fr_energy">   -174.76747627 </i>
    <i name="e_wo_entrp">   -174.71530718 </i>
    <i name="e_0_energy">   -174.75443400 </i>
   </energy>
  </scstep>
  <scstep>
   <time name="diag">  303.90  303.93</time>
   <time name="diis">  741.76  741.81</time>
   <time name="orth">   75.25   75.25</time>
   <time name="total"> 1284.75 1284.85</time>
   <energy>
    <i name="e_fr_energy">   -174.76806274 </i>
    <i name="e_wo_entrp">   -174.71380717 </i>
    <i name="e_0_energy">   -174.75449885 </i>
   </energy>
  </scstep>
  <scstep>
   <time name="diag">  302.58  302.61</time>
   <time name="diis">  729.87  729.93</time>
   <time name="orth">   74.87   74.87</time>
   <time name="total"> 1268.02 1268.13</time>
   <energy>
    <i name="e_fr_energy">   -174.77055865 </i>
    <i name="e_wo_entrp">   -174.71779055 </i>
    <i name="e_0_energy">   -174.75736662 </i>
   </energy>
  </scstep>
  <scstep>
   <time name="diag">  194.09  194.11</time>
   <time name="diis">  467.03  467.06</time>
   <time name="orth">   39.83   39.83</time>
   <time name="total">  830.41  830.47</time>
   <energy>
    <i name="e_fr_energy">   -174.77163320 </i>
    <i name="e_wo_entrp">   -174.72009421 </i>
    <i name="e_0_energy">   -174.75874845 </i>
   </energy>
  </scstep>
  <scstep>
   <time name="diag">  185.59  185.60</time>
   <time name="diis">  714.73  714.79</time>
   <time name="orth">   69.24   69.25</time>
   <time name="total"> 1119.88 1119.97</time>
   <energy>
    <i name="e_fr_energy">   -174.77489600 </i>
    <i name="e_wo_entrp">   -174.72250174 </i>
    <i name="e_0_energy">   -174.76179744 </i>
   </energy>
  </scstep>
  <scstep>
   <time name="diag">  292.96  292.99</time>
   <time name="diis">  685.33  685.38</time>
   <time name="orth">   66.22   66.22</time>
   <time name="total"> 1208.56 1208.65</time>
   <energy>
    <i name="e_fr_energy">   -174.77955818 </i>
    <i name="e_wo_entrp">   -174.72793081 </i>
    <i name="e_0_energy">   -174.76665134 </i>
   </energy>
  </scstep>
  <scstep>
   <time name="diag">  305.80  305.83</time>
   <time name="diis">  549.08  549.12</time>
   <time name="orth">   84.43   84.44</time>
   <time name="total"> 1120.21 1120.29</time>
   <energy>
    <i name="e_fr_energy">   -174.78076785 </i>
    <i name="e_wo_entrp">   -174.72964632 </i>
    <i name="e_0_energy">   -174.76798747 </i>
   </energy>
  </scstep>
  <scstep>
   <time name="diag">  285.33  285.36</time>
   <time name="diis">  675.37  675.41</time>
   <time name="orth">   78.10   78.10</time>
   <time name="total"> 1212.19 1212.28</time>
   <energy>
    <i name="e_fr_energy">   -174.78371120 </i>
    <i name="e_wo_entrp">   -174.73114806 </i>
    <i name="e_0_energy">   -174.77057042 </i>
   </energy>
  </scstep>
  <scstep>
   <time name="diag">  321.45  321.48</time>
   <time name="diis">  532.74  532.78</time>
   <time name="orth">   76.62   76.62</time>
   <time name="total"> 1121.74 1121.83</time>
   <energy>
    <i name="e_fr_energy">   -174.78476164 </i>
    <i name="e_wo_entrp">   -174.73284450 </i>
    <i name="e_0_energy">   -174.77178235 </i>
   </energy>
  </scstep>
  <scstep>
   <time name="diag">  336.56  336.59</time>
   <time name="diis">  509.92  509.97</time>
   <time name="orth">   76.10   76.10</time>
   <time name="total"> 1112.66 1112.77</time>
   <energy>
    <i name="e_fr_energy">   -174.78548246 </i>
    <i name="e_wo_entrp">   -174.73350064 </i>
    <i name="e_0_energy">   -174.77248700 </i>
   </energy>
  </scstep>
  <scstep>
   <time name="diag">  325.02  325.07</time>
   <time name="diis">  459.52  459.55</time>
   <time name="orth">   67.83   67.84</time>
   <time name="total"> 1018.08 1018.17</time>
   <energy>
    <i name="e_fr_energy">   -174.78648756 </i>
    <i name="e_wo_entrp">   -174.73404279 </i>
    <i name="e_0_energy">   -174.77337636 </i>
   </energy>
  </scstep>
  <scstep>
   <time name="diag">  278.27  278.29</time>
   <time name="diis">  455.65  455.68</time>
   <time name="orth">   71.77   71.78</time>
   <time name="total">  959.44  959.51</time>
   <energy>
    <i name="e_fr_energy">   -174.78708349 </i>
    <i name="e_wo_entrp">   -174.73446561 </i>
    <i name="e_0_energy">   -174.77392902 </i>
   </energy>
  </scstep>
  <scstep>
   <time name="diag">  277.54  277.58</time>
   <time name="diis">  450.07  450.10</time>
   <time name="orth">   69.99   69.99</time>
   <time name="total">  960.09  960.17</time>
   <energy>
    <i name="e_fr_energy">   -174.78858532 </i>
    <i name="e_wo_entrp">   -174.73595310 </i>
    <i name="e_0_energy">   -174.77542727 </i>
   </energy>
  </scstep>
  <scstep>
   <time name="diag">  285.86  285.89</time>
   <time name="diis">  434.38  434.42</time>
   <time name="orth">   61.66   61.66</time>
   <time name="total">  947.94  948.03</time>
   <energy>
    <i name="e_fr_energy">   -174.78937556 </i>
    <i name="e_wo_entrp">   -174.73720958 </i>
    <i name="e_0_energy">   -174.77633407 </i>
   </energy>
  </scstep>
  <scstep>
   <time name="diag">  283.16  283.19</time>
   <time name="diis">  438.18  438.22</time>
   <time name="orth">   61.04   61.04</time>
   <time name="total">  950.38  950.46</time>
   <energy>
    <i name="e_fr_energy">   -174.79069236 </i>
    <i name="e_wo_entrp">   -174.73815158 </i>
    <i name="e_0_energy">   -174.77755717 </i>
   </energy>
  </scstep>
  <scstep>
   <time name="diag">  272.55  272.58</time>
   <time name="diis">  445.73  445.77</time>
   <time name="orth">   62.05   62.05</time>
   <time name="total">  948.76  948.85</time>
   <energy>
    <i name="e_fr_energy">   -174.79129243 </i>
    <i name="e_wo_entrp">   -174.73873386 </i>
    <i name="e_0_energy">   -174.77815278 </i>
   </energy>
  </scstep>
  <scstep>
   <time name="diag">  311.41  311.46</time>
   <time name="diis">  496.70  496.74</time>
   <time name="orth">   80.53   80.54</time>
   <time name="total"> 1072.12 1072.21</time>
   <energy>
    <i name="e_fr_energy">   -174.79199025 </i>
    <i name="e_wo_entrp">   -174.73948844 </i>
    <i name="e_0_energy">   -174.77886480 </i>
   </energy>
  </scstep>
  <scstep>
   <time name="diag">  323.69  323.71</time>
   <time name="diis">  506.20  506.25</time>
   <time name="orth">   85.36   85.36</time>
   <time name="total">  968.15  968.23</time>
   <energy>
    <i name="alphaZ">     75.25431677 </i>
    <i name="ewald"> 138503.63866544 </i>
    <i name="hartreedc">-182863.98442669 </i>
    <i name="XCdc">  -1692.43298300 </i>
    <i name="pawpsdc">  46132.32164201 </i>
    <i name="pawaedc"> -42602.44903960 </i>
    <i name="eentropy">     -0.05243317 </i>
    <i name="bandstr">  -2813.59329910 </i>
    <i name="atom">  45086.50549395 </i>
    <i name="e_fr_energy">   -174.79206340 </i>
    <i name="e_wo_entrp">   -174.73963023 </i>
    <i name="e_0_energy">   -174.77895511 </i>
   </energy>
  </scstep>
  <structure>
   <crystal>
    <varray name="basis" >
     <v>      30.00000000       0.00000000       0.00000000 </v>
     <v>       0.00000000      30.00000000       0.00000000 </v>
     <v>       0.00000000       0.00000000      30.00000000 </v>
    </varray>
    <i name="volume">  27000.00000000 </i>
    <varray name="rec_basis" >
     <v>       0.03333333       0.00000000       0.00000000 </v>
     <v>       0.00000000       0.03333333       0.00000000 </v>
     <v>       0.00000000       0.00000000       0.03333333 </v>
    </varray>
   </crystal>
   <varray name="positions" >
    <v>       0.44576020       0.32826710       0.41691983 </v>
    <v>       0.67173288       0.55423978       0.41691983 </v>
    <v>       0.55423980       0.32826710       0.41691983 </v>
    <v>       0.32826712       0.55423978       0.41691983 </v>
    <v>       0.50000000       0.38250690       0.34021317 </v>
    <v>       0.50000000       0.38250690       0.65978680 </v>
    <v>       0.50000000       0.27609440       0.50000000 </v>
    <v>       0.27609443       0.49999998       0.50000000 </v>
    <v>       0.72390557       0.49999998       0.50000000 </v>
    <v>       0.50000000       0.72390555       0.50000000 </v>
    <v>       0.61195280       0.38804720       0.34167483 </v>
    <v>       0.61195280       0.38804720       0.65832513 </v>
    <v>       0.38804722       0.61195278       0.34167483 </v>
    <v>       0.38804722       0.61195278       0.65832513 </v>
    <v>       0.38804720       0.38804720       0.34167483 </v>
    <v>       0.38804720       0.38804720       0.65832513 </v>
    <v>       0.61195278       0.61195278       0.34167483 </v>
    <v>       0.61195278       0.61195278       0.65832513 </v>
    <v>       0.44576020       0.32826710       0.58308023 </v>
    <v>       0.67173288       0.55423978       0.58308023 </v>
    <v>       0.55791699       0.44208301       0.41809300 </v>
    <v>       0.32826705       0.44576024       0.41691983 </v>
    <v>       0.55423973       0.67173293       0.41691983 </v>
    <v>       0.55423980       0.32826710       0.58308023 </v>
    <v>       0.32826712       0.55423978       0.58308023 </v>
    <v>       0.67173295       0.44576024       0.41691983 </v>
    <v>       0.44576027       0.67173293       0.41691983 </v>
    <v>       0.44208301       0.44208301       0.41809300 </v>
    <v>       0.50000000       0.38416601       0.50000000 </v>
    <v>       0.61749315       0.50000005       0.34021317 </v>
    <v>       0.61749315       0.50000005       0.65978680 </v>
    <v>       0.38250685       0.50000005       0.34021317 </v>
    <v>       0.38250685       0.50000005       0.65978680 </v>
    <v>       0.38317830       0.38317830       0.50000000 </v>
    <v>       0.61682172       0.61682172       0.50000000 </v>
    <v>       0.61682170       0.38317830       0.50000000 </v>
    <v>       0.38317828       0.61682172       0.50000000 </v>
    <v>       0.50000000       0.50000000       0.33478917 </v>
    <v>       0.50000000       0.50000000       0.66521087 </v>
    <v>       0.32826705       0.44576024       0.58308023 </v>
    <v>       0.55423973       0.67173293       0.58308023 </v>
    <v>       0.55791699       0.44208301       0.58190703 </v>
    <v>       0.44208298       0.55791702       0.41809300 </v>
    <v>       0.44208301       0.44208301       0.58190703 </v>
    <v>       0.67173295       0.44576024       0.58308023 </v>
    <v>       0.44576027       0.67173293       0.58308023 </v>
    <v>       0.55791702       0.55791702       0.41809300 </v>
    <v>       0.38416599       0.50000002       0.50000000 </v>
    <v>       0.61583401       0.50000002       0.50000000 </v>
    <v>       0.50000000       0.61749319       0.34021317 </v>
    <v>       0.50000000       0.61749319       0.65978680 </v>
    <v>       0.50000000       0.50000000       0.50000000 </v>
    <v>       0.44208298       0.55791702       0.58190703 </v>
    <v>       0.55791702       0.55791702       0.58190703 </v>
    <v>       0.50000000       0.61583404       0.50000000 </v>
    <v>       0.29602193       0.39419263       0.44692683 </v>
    <v>       0.26350123       0.37732353       0.43846527 </v>
   </varray>
  </structure>
  <varray name="forces" >
   <v>       0.74781652       1.09479056       0.29010510 </v>
   <v>      -1.10600991      -0.70451975       0.28514821 </v>
   <v>      -0.71601417       1.10552849       0.29292491 </v>
   <v>       1.13316135      -0.62206202       0.25331037 </v>
   <v>       0.00222068       0.41636447       1.27488164 </v>
   <v>      -0.00400279       0.41360140      -1.27845310 </v>
   <v>       0.00070317       1.51806695      -0.00114898 </v>
   <v>       1.46604501       0.01800088       0.01372056 </v>
   <v>      -1.51349290      -0.00670976      -0.00311171 </v>
   <v>      -0.00190701      -1.51709845      -0.00162598 </v>
   <v>      -0.75416000       0.75765912       1.06632892 </v>
   <v>      -0.75532852       0.75394822      -1.06941327 </v>
   <v>       0.72192039      -0.77310310       1.07557762 </v>
   <v>       0.75007329      -0.74789031      -1.06975023 </v>
   <v>       0.77057588       0.74237620       1.02770515 </v>
   <v>       0.75661280       0.75766474      -1.07259803 </v>
   <v>      -0.75750389      -0.75531365       1.06830337 </v>
   <v>      -0.75984079      -0.75614309      -1.06701197 </v>
   <v>       0.70128212       1.11279773      -0.29914554 </v>
   <v>      -1.10355472      -0.70877241      -0.28285283 </v>
   <v>       0.12577833      -0.10632690      -0.15102163 </v>
   <v>       0.70716012      -0.28185670       1.00804162 </v>
   <v>      -0.70304954      -1.10622602       0.29064921 </v>
   <v>      -0.70392552       1.10552039      -0.29857465 </v>
   <v>       1.10798466      -0.68806384      -0.28184722 </v>
   <v>      -1.11111166       0.70059976       0.29240835 </v>
   <v>       0.70726409      -1.10968666       0.30046153 </v>
   <v>      -0.02907833      -0.09580357      -0.17887627 </v>
   <v>       0.00433244      -0.23088160       0.00493713 </v>
   <v>      -0.41413889       0.00054313       1.28182838 </v>
   <v>      -0.41345476       0.00046259      -1.27784012 </v>
   <v>       0.40732453       0.01660859       1.28340908 </v>
   <v>       0.40157867      -0.01026452      -1.28808444 </v>
   <v>       0.48955249       0.76617773      -0.13173340 </v>
   <v>      -0.83920513      -0.82556303      -0.00861861 </v>
   <v>      -0.81729417       0.82939218       0.00492418 </v>
   <v>       0.82774421      -0.83366449       0.00160618 </v>
   <v>      -0.00207205      -0.00705774       1.18324854 </v>
   <v>       0.00912009       0.00092621      -1.17310430 </v>
   <v>       1.12735591       0.71832003      -0.23634895 </v>
   <v>      -0.70625725      -1.10317613      -0.28969823 </v>
   <v>       0.10701103      -0.10861773       0.14719610 </v>
   <v>      -0.11347202       0.10273518      -0.15219689 </v>
   <v>      -0.10165417      -0.11088670       0.17075089 </v>
   <v>      -1.10746798       0.70023779      -0.29278911 </v>
   <v>       0.70255833      -1.10794217      -0.29497096 </v>
   <v>       0.11355660       0.11013921      -0.16014558 </v>
   <v>      -0.17599602       0.07042020       0.04796236 </v>
   <v>       0.22576306      -0.00705817      -0.00127617 </v>
   <v>       0.01036293      -0.41648530       1.28461501 </v>
   <v>       0.00199085      -0.41417864      -1.27967766 </v>
   <v>      -0.00640487       0.00338256      -0.00522640 </v>
   <v>      -0.10086490       0.11382944       0.15496213 </v>
   <v>       0.10658719       0.10767466       0.15942557 </v>
   <v>      -0.00375853       0.22981568       0.00169862 </v>
   <v>       4.66310842       3.47409697      -0.10173734 </v>
   <v>      -4.07552463      -2.58632860      -0.51725118 </v>
  </varray>
  <varray name="stress" >
   <v>      -6.54992114       0.08886936       0.05033653 </v>
   <v>       0.08886932      -6.72784433       0.10267914 </v>
   <v>       0.05033657       0.10267916      -6.76778380 </v>
  </varray>
  <energy>
   <i name="e_fr_energy">   -174.79206340 </i>
   <i name="e_wo_entrp">   -174.77895511 </i>
   <i name="e_0_energy">     -0.05243317 </i>
  </energy>
  <time name="totalsc">68546.5168552.84</time>
  <eigenvalues>
   <array>
    <dimension dim="1">band</dimension>
    <dimension dim="2">kpoint</dimension>
    <dimension dim="3">spin</dimension>
    <field>eigene</field>
    <field>occ</field>
    <set>
     <set comment="spin 1">
      <set comment="kpoint 1">
       <r>  -28.4982    1.0000 </r>
       <r>  -13.2729    1.0000 </r>
       <r>  -11.1589    1.0000 </r>
       <r>  -10.9257    1.0000 </r>
       <r>   -9.9219    1.0000 </r>
       <r>   -6.6513    1.0000 </r>
       <r>   -6.1433    1.0000 </r>
       <r>   -6.1355    1.0000 </r>
       <r>   -6.1339    1.0000 </r>
       <r>   -5.9354    1.0000 </r>
       <r>   -5.8630    1.0000 </r>
       <r>   -5.8309    1.0000 </r>
       <r>   -5.8102    1.0000 </r>
       <r>   -5.7974    1.0000 </r>
       <r>   -5.7430    1.0000 </r>
       <r>   -5.7163    1.0000 </r>
       <r>   -5.6944    1.0000 </r>
       <r>   -5.6872    1.0000 </r>
       <r>   -5.6818    1.0000 </r>
       <r>   -5.6361    1.0000 </r>
       <r>   -5.6312    1.0000 </r>
       <r>   -5.6272    1.0000 </r>
       <r>   -5.6022    1.0000 </r>
       <r>   -5.5936    1.0000 </r>
       <r>   -5.5926    1.0000 </r>
       <r>   -5.5704    1.0000 </r>
       <r>   -5.5525    1.0000 </r>
       <r>   -5.5500    1.0000 </r>
       <r>   -5.5491    1.0000 </r>
       <r>   -5.5414    1.0000 </r>
       <r>   -5.5266    1.0000 </r>
       <r>   -5.5243    1.0000 </r>
       <r>   -5.5212    1.0000 </r>
       <r>   -5.5192    1.0000 </r>
       <r>   -5.5157    1.0000 </r>
       <r>   -5.5125    1.0000 </r>
       <r>   -5.5007    1.0000 </r>
       <r>   -5.4852    1.0000 </r>
       <r>   -5.4828    1.0000 </r>
       <r>   -5.4776    1.0000 </r>
       <r>   -5.4745    1.0000 </r>
       <r>   -5.4719    1.0000 </r>
       <r>   -5.4698    1.0000 </r>
       <r>   -5.4603    1.0000 </r>
       <r>   -5.4564    1.0000 </r>
       <r>   -5.4509    1.0000 </r>
       <r>   -5.4342    1.0000 </r>
       <r>   -5.4316    1.0000 </r>
       <r>   -5.4308    1.0000 </r>
       <r>   -5.4275    1.0000 </r>
       <r>   -5.4242    1.0000 </r>
       <r>   -5.4098    1.0000 </r>
       <r>   -5.4079    1.0000 </r>
       <r>   -5.4047    1.0000 </r>
       <r>   -5.3847    1.0000 </r>
       <r>   -5.3804    1.0000 </r>
       <r>   -5.3531    1.0000 </r>
       <r>   -5.3413    1.0000 </r>
       <r>   -5.3331    1.0000 </r>
       <r>   -5.3302    1.0000 </r>
       <r>   -5.3287    1.0000 </r>
       <r>   -5.3235    1.0000 </r>
       <r>   -5.3183    1.0000 </r>
       <r>   -5.3177    1.0000 </r>
       <r>   -5.3044    1.0000 </r>
       <r>   -5.3023    1.0000 </r>
       <r>   -5.2952    1.0000 </r>
       <r>   -5.2520    1.0000 </r>
       <r>   -5.2426    1.0000 </r>
       <r>   -5.2208    1.0000 </r>
       <r>   -5.2131    1.0000 </r>
       <r>   -5.2088    1.0000 </r>
       <r>   -5.2021    1.0000 </r>
       <r>   -5.1956    1.0000 </r>
       <r>   -5.1945    1.0000 </r>
       <r>   -5.1821    1.0000 </r>
       <r>   -5.1815    1.0000 </r>
       <r>   -5.1776    1.0000 </r>
       <r>   -5.1705    1.0000 </r>
       <r>   -5.1654    1.0000 </r>
       <r>   -5.1575    1.0000 </r>
       <r>   -5.1393    1.0000 </r>
       <r>   -5.1314    1.0000 </r>
       <r>   -5.1277    1.0000 </r>
       <r>   -5.1159    1.0000 </r>
       <r>   -5.1154    1.0000 </r>
       <r>   -5.1092    1.0000 </r>
       <r>   -5.0908    1.0000 </r>
       <r>   -5.0808    1.0000 </r>
       <r>   -5.0713    1.0000 </r>
       <r>   -5.0661    1.0000 </r>
       <r>   -5.0574    1.0000 </r>
       <r>   -5.0560    1.0000 </r>
       <r>   -5.0555    1.0000 </r>
       <r>   -5.0511    1.0000 </r>
       <r>   -5.0494    1.0000 </r>
       <r>   -5.0458    1.0000 </r>
       <r>   -5.0386    1.0000 </r>
       <r>   -5.0348    1.0000 </r>
       <r>   -5.0320    1.0000 </r>
       <r>   -5.0224    1.0000 </r>
       <r>   -5.0198    1.0000 </r>
       <r>   -5.0089    1.0000 </r>
       <r>   -5.0047    1.0000 </r>
       <r>   -5.0043    1.0000 </r>
       <r>   -5.0001    1.0000 </r>
       <r>   -4.9952    1.0000 </r>
       <r>   -4.9931    1.0000 </r>
       <r>   -4.9908    1.0000 </r>
       <r>   -4.9813    1.0000 </r>
       <r>   -4.9780    1.0000 </r>
       <r>   -4.9730    1.0000 </r>
       <r>   -4.9663    1.0000 </r>
       <r>   -4.9631    1.0000 </r>
       <r>   -4.9598    1.0000 </r>
       <r>   -4.9580    1.0000 </r>
       <r>   -4.9473    1.0000 </r>
       <r>   -4.9367    1.0000 </r>
       <r>   -4.9331    1.0000 </r>
       <r>   -4.9271    1.0000 </r>
       <r>   -4.9165    1.0000 </r>
       <r>   -4.9147    1.0000 </r>
       <r>   -4.9104    1.0000 </r>
       <r>   -4.9076    1.0000 </r>
       <r>   -4.9033    1.0000 </r>
       <r>   -4.9027    1.0000 </r>
       <r>   -4.8729    1.0000 </r>
       <r>   -4.8702    1.0000 </r>
       <r>   -4.8572    1.0000 </r>
       <r>   -4.8512    1.0000 </r>
       <r>   -4.8453    1.0000 </r>
       <r>   -4.8410    1.0000 </r>
       <r>   -4.8371    1.0000 </r>
       <r>   -4.8363    1.0000 </r>
       <r>   -4.8318    1.0000 </r>
       <r>   -4.8293    1.0000 </r>
       <r>   -4.8104    0.9999 </r>
       <r>   -4.8009    0.9999 </r>
       <r>   -4.7965    0.9999 </r>
       <r>   -4.7836    0.9999 </r>
       <r>   -4.7799    0.9999 </r>
       <r>   -4.7700    0.9998 </r>
       <r>   -4.7586    0.9998 </r>
       <r>   -4.7529    0.9997 </r>
       <r>   -4.7424    0.9996 </r>
       <r>   -4.7386    0.9996 </r>
       <r>   -4.7289    0.9995 </r>
       <r>   -4.7265    0.9995 </r>
       <r>   -4.7117    0.9993 </r>
       <r>   -4.7038    0.9992 </r>
       <r>   -4.6927    0.9990 </r>
       <r>   -4.6911    0.9990 </r>
       <r>   -4.6868    0.9989 </r>
       <r>   -4.6853    0.9989 </r>
       <r>   -4.6815    0.9988 </r>
       <r>   -4.6759    0.9986 </r>
       <r>   -4.6745    0.9986 </r>
       <r>   -4.6740    0.9986 </r>
       <r>   -4.6708    0.9985 </r>
       <r>   -4.6627    0.9983 </r>
       <r>   -4.6579    0.9982 </r>
       <r>   -4.6541    0.9981 </r>
       <r>   -4.6505    0.9979 </r>
       <r>   -4.6491    0.9979 </r>
       <r>   -4.6481    0.9979 </r>
       <r>   -4.6466    0.9978 </r>
       <r>   -4.6454    0.9978 </r>
       <r>   -4.6435    0.9977 </r>
       <r>   -4.6333    0.9974 </r>
       <r>   -4.6315    0.9973 </r>
       <r>   -4.6129    0.9966 </r>
       <r>   -4.6111    0.9965 </r>
       <r>   -4.6064    0.9964 </r>
       <r>   -4.6013    0.9962 </r>
       <r>   -4.5989    0.9961 </r>
       <r>   -4.5977    0.9960 </r>
       <r>   -4.5952    0.9960 </r>
       <r>   -4.5910    0.9958 </r>
       <r>   -4.5896    0.9958 </r>
       <r>   -4.5886    0.9957 </r>
       <r>   -4.5794    0.9955 </r>
       <r>   -4.5671    0.9952 </r>
       <r>   -4.5660    0.9952 </r>
       <r>   -4.5582    0.9951 </r>
       <r>   -4.5562    0.9951 </r>
       <r>   -4.5553    0.9951 </r>
       <r>   -4.5541    0.9951 </r>
       <r>   -4.5506    0.9951 </r>
       <r>   -4.5504    0.9951 </r>
       <r>   -4.5433    0.9952 </r>
       <r>   -4.5321    0.9955 </r>
       <r>   -4.5166    0.9965 </r>
       <r>   -4.5133    0.9968 </r>
       <r>   -4.5089    0.9972 </r>
       <r>   -4.5048    0.9977 </r>
       <r>   -4.5000    0.9984 </r>
       <r>   -4.4949    0.9992 </r>
       <r>   -4.4880    1.0004 </r>
       <r>   -4.4853    1.0009 </r>
       <r>   -4.4746    1.0034 </r>
       <r>   -4.4734    1.0037 </r>
       <r>   -4.4678    1.0052 </r>
       <r>   -4.4629    1.0066 </r>
       <r>   -4.4580    1.0081 </r>
       <r>   -4.4563    1.0087 </r>
       <r>   -4.4542    1.0094 </r>
       <r>   -4.4494    1.0111 </r>
       <r>   -4.4460    1.0124 </r>
       <r>   -4.4411    1.0143 </r>
       <r>   -4.4406    1.0145 </r>
       <r>   -4.4336    1.0174 </r>
       <r>   -4.4200    1.0235 </r>
       <r>   -4.4173    1.0248 </r>
       <r>   -4.4123    1.0271 </r>
       <r>   -4.4085    1.0290 </r>
       <r>   -4.4068    1.0297 </r>
       <r>   -4.4049    1.0307 </r>
       <r>   -4.4034    1.0314 </r>
       <r>   -4.3976    1.0342 </r>
       <r>   -4.3938    1.0360 </r>
       <r>   -4.3816    1.0415 </r>
       <r>   -4.3776    1.0431 </r>
       <r>   -4.3630    1.0483 </r>
       <r>   -4.3577    1.0497 </r>
       <r>   -4.3517    1.0508 </r>
       <r>   -4.3453    1.0515 </r>
       <r>   -4.3392    1.0516 </r>
       <r>   -4.3387    1.0515 </r>
       <r>   -4.3371    1.0514 </r>
       <r>   -4.3349    1.0512 </r>
       <r>   -4.3344    1.0512 </r>
       <r>   -4.3339    1.0511 </r>
       <r>   -4.3305    1.0505 </r>
       <r>   -4.3263    1.0494 </r>
       <r>   -4.3236    1.0485 </r>
       <r>   -4.3230    1.0483 </r>
       <r>   -4.3222    1.0480 </r>
       <r>   -4.3212    1.0476 </r>
       <r>   -4.3187    1.0464 </r>
       <r>   -4.3129    1.0432 </r>
       <r>   -4.3090    1.0405 </r>
       <r>   -4.3033    1.0358 </r>
       <r>   -4.2995    1.0322 </r>
       <r>   -4.2936    1.0256 </r>
       <r>   -4.2888    1.0194 </r>
       <r>   -4.2880    1.0183 </r>
       <r>   -4.2854    1.0145 </r>
       <r>   -4.2849    1.0138 </r>
       <r>   -4.2795    1.0052 </r>
       <r>   -4.2772    1.0011 </r>
       <r>   -4.2663    0.9796 </r>
       <r>   -4.2649    0.9765 </r>
       <r>   -4.2625    0.9711 </r>
       <r>   -4.2587    0.9618 </r>
       <r>   -4.2568    0.9571 </r>
       <r>   -4.2552    0.9530 </r>
       <r>   -4.2502    0.9393 </r>
       <r>   -4.2495    0.9374 </r>
       <r>   -4.2448    0.9237 </r>
       <r>   -4.2444    0.9225 </r>
       <r>   -4.2431    0.9186 </r>
       <r>   -4.2404    0.9101 </r>
       <r>   -4.2369    0.8987 </r>
       <r>   -4.2364    0.8970 </r>
       <r>   -4.2353    0.8933 </r>
       <r>   -4.2258    0.8596 </r>
       <r>   -4.2254    0.8581 </r>
       <r>   -4.2217    0.8438 </r>
       <r>   -4.2207    0.8402 </r>
       <r>   -4.2185    0.8313 </r>
       <r>   -4.2155    0.8192 </r>
       <r>   -4.2071    0.7839 </r>
       <r>   -4.2025    0.7636 </r>
       <r>   -4.1920    0.7149 </r>
       <r>   -4.1860    0.6858 </r>
       <r>   -4.1848    0.6801 </r>
       <r>   -4.1770    0.6410 </r>
       <r>   -4.1736    0.6236 </r>
       <r>   -4.1728    0.6197 </r>
       <r>   -4.1700    0.6052 </r>
       <r>   -4.1689    0.5994 </r>
       <r>   -4.1581    0.5429 </r>
       <r>   -4.1388    0.4411 </r>
       <r>   -4.1290    0.3903 </r>
       <r>   -4.1279    0.3846 </r>
       <r>   -4.1271    0.3802 </r>
       <r>   -4.1180    0.3340 </r>
       <r>   -4.1105    0.2974 </r>
       <r>   -4.0592    0.0889 </r>
       <r>   -3.9700   -0.0504 </r>
       <r>   -3.9043   -0.0351 </r>
       <r>   -3.8277   -0.0040 </r>
       <r>   -3.8168   -0.0014 </r>
       <r>   -3.7684    0.0045 </r>
       <r>   -3.5025    0.0001 </r>
       <r>   -3.4903    0.0001 </r>
       <r>   -3.3920    0.0000 </r>
       <r>   -3.0599    0.0000 </r>
       <r>   -3.0588    0.0000 </r>
       <r>   -3.0371    0.0000 </r>
       <r>   -3.0290    0.0000 </r>
       <r>   -3.0245    0.0000 </r>
       <r>   -2.9863    0.0000 </r>
       <r>   -2.9369    0.0000 </r>
       <r>   -2.8815    0.0000 </r>
       <r>   -2.5324    0.0000 </r>
       <r>   -2.5232    0.0000 </r>
       <r>   -2.4697    0.0000 </r>
       <r>   -2.2801    0.0000 </r>
       <r>   -2.1522    0.0000 </r>
       <r>   -2.1177    0.0000 </r>
       <r>   -2.1161    0.0000 </r>
       <r>   -2.0002    0.0000 </r>
       <r>   -1.9842    0.0000 </r>
       <r>   -1.9459    0.0000 </r>
       <r>   -1.8628    0.0000 </r>
       <r>   -1.8585    0.0000 </r>
       <r>   -1.7398    0.0000 </r>
       <r>   -1.6706    0.0000 </r>
       <r>   -1.6418    0.0000 </r>
       <r>   -1.6220    0.0000 </r>
       <r>   -1.5598    0.0000 </r>
       <r>   -1.5133    0.0000 </r>
       <r>   -1.4165    0.0000 </r>
       <r>   -1.2807    0.0000 </r>
       <r>   -1.1352    0.0000 </r>
       <r>   -1.1044    0.0000 </r>
       <r>   -1.0447    0.0000 </r>
       <r>   -0.9878    0.0000 </r>
       <r>   -0.9734    0.0000 </r>
       <r>   -0.9651    0.0000 </r>
       <r>   -0.9345    0.0000 </r>
       <r>   -0.9171    0.0000 </r>
       <r>   -0.8592    0.0000 </r>
       <r>   -0.8099    0.0000 </r>
       <r>   -0.6390    0.0000 </r>
      </set>
     </set>
    </set>
   </array>
  </eigenvalues>
  <separator name="orbital magnetization" >
   <v name="MAGDIPOLOUT">      0.00000000      0.00000000      0.00000000</v>
  </separator>
  <dos>
   <i name="efermi">     -4.14996246 </i>
   <total>
    <array>
     <dimension dim="1">gridpoints</dimension>
     <dimension dim="2">spin</dimension>
     <field>energy</field>
     <field>total</field>
     <field>integrated</field>
     <set>
      <set comment="spin 1">
       <r>   -30.4982     0.0000     0.0000 </r>
       <r>   -30.3920     0.0000     0.0000 </r>
       <r>   -30.2858     0.0000     0.0000 </r>
       <r>   -30.1796     0.0000     0.0000 </r>
       <r>   -30.0734     0.0000     0.0000 </r>
       <r>   -29.9672     0.0000     0.0000 </r>
       <r>   -29.8610     0.0000     0.0000 </r>
       <r>   -29.7548     0.0000     0.0000 </r>
       <r>   -29.6486     0.0000     0.0000 </r>
       <r>   -29.5424     0.0000     0.0000 </r>
       <r>   -29.4362     0.0000     0.0000 </r>
       <r>   -29.3300     0.0000     0.0000 </r>
       <r>   -29.2238     0.0002     0.0000 </r>
       <r>   -29.1176     0.0034     0.0004 </r>
       <r>   -29.0114     0.0282     0.0034 </r>
       <r>   -28.9052     0.0611     0.0099 </r>
       <r>   -28.7990    -0.2929    -0.0212 </r>
       <r>   -28.6928    -0.7708    -0.1031 </r>
       <r>   -28.5866     2.7851     0.1927 </r>
       <r>   -28.4804     9.3592     1.1866 </r>
       <r>   -28.3742     7.5673     1.9902 </r>
       <r>   -28.2680     0.8855     2.0842 </r>
       <r>   -28.1618    -0.7796     2.0015 </r>
       <r>   -28.0556    -0.0915     1.9917 </r>
       <r>   -27.9494     0.0611     1.9982 </r>
       <r>   -27.8432     0.0154     1.9998 </r>
       <r>   -27.7370     0.0014     2.0000 </r>
       <r>   -27.6308     0.0001     2.0000 </r>
       <r>   -27.5246     0.0000     2.0000 </r>
       <r>   -27.4184     0.0000     2.0000 </r>
       <r>   -27.3123     0.0000     2.0000 </r>
       <r>   -27.2061     0.0000     2.0000 </r>
       <r>   -27.0999     0.0000     2.0000 </r>
       <r>   -26.9937     0.0000     2.0000 </r>
       <r>   -26.8875     0.0000     2.0000 </r>
       <r>   -26.7813     0.0000     2.0000 </r>
       <r>   -26.6751     0.0000     2.0000 </r>
       <r>   -26.5689     0.0000     2.0000 </r>
       <r>   -26.4627     0.0000     2.0000 </r>
       <r>   -26.3565     0.0000     2.0000 </r>
       <r>   -26.2503     0.0000     2.0000 </r>
       <r>   -26.1441     0.0000     2.0000 </r>
       <r>   -26.0379     0.0000     2.0000 </r>
       <r>   -25.9317     0.0000     2.0000 </r>
       <r>   -25.8255     0.0000     2.0000 </r>
       <r>   -25.7193     0.0000     2.0000 </r>
       <r>   -25.6131     0.0000     2.0000 </r>
       <r>   -25.5069     0.0000     2.0000 </r>
       <r>   -25.4007     0.0000     2.0000 </r>
       <r>   -25.2945     0.0000     2.0000 </r>
       <r>   -25.1883     0.0000     2.0000 </r>
       <r>   -25.0821     0.0000     2.0000 </r>
       <r>   -24.9759     0.0000     2.0000 </r>
       <r>   -24.8697     0.0000     2.0000 </r>
       <r>   -24.7635     0.0000     2.0000 </r>
       <r>   -24.6573     0.0000     2.0000 </r>
       <r>   -24.5511     0.0000     2.0000 </r>
       <r>   -24.4449     0.0000     2.0000 </r>
       <r>   -24.3387     0.0000     2.0000 </r>
       <r>   -24.2325     0.0000     2.0000 </r>
       <r>   -24.1263     0.0000     2.0000 </r>
       <r>   -24.0201     0.0000     2.0000 </r>
       <r>   -23.9139     0.0000     2.0000 </r>
       <r>   -23.8077     0.0000     2.0000 </r>
       <r>   -23.7015     0.0000     2.0000 </r>
       <r>   -23.5953     0.0000     2.0000 </r>
       <r>   -23.4892     0.0000     2.0000 </r>
       <r>   -23.3830     0.0000     2.0000 </r>
       <r>   -23.2768     0.0000     2.0000 </r>
       <r>   -23.1706     0.0000     2.0000 </r>
       <r>   -23.0644     0.0000     2.0000 </r>
       <r>   -22.9582     0.0000     2.0000 </r>
       <r>   -22.8520     0.0000     2.0000 </r>
       <r>   -22.7458     0.0000     2.0000 </r>
       <r>   -22.6396     0.0000     2.0000 </r>
       <r>   -22.5334     0.0000     2.0000 </r>
       <r>   -22.4272     0.0000     2.0000 </r>
       <r>   -22.3210     0.0000     2.0000 </r>
       <r>   -22.2148     0.0000     2.0000 </r>
       <r>   -22.1086     0.0000     2.0000 </r>
       <r>   -22.0024     0.0000     2.0000 </r>
       <r>   -21.8962     0.0000     2.0000 </r>
       <r>   -21.7900     0.0000     2.0000 </r>
       <r>   -21.6838     0.0000     2.0000 </r>
       <r>   -21.5776     0.0000     2.0000 </r>
       <r>   -21.4714     0.0000     2.0000 </r>
       <r>   -21.3652     0.0000     2.0000 </r>
       <r>   -21.2590     0.0000     2.0000 </r>
       <r>   -21.1528     0.0000     2.0000 </r>
       <r>   -21.0466     0.0000     2.0000 </r>
       <r>   -20.9404     0.0000     2.0000 </r>
       <r>   -20.8342     0.0000     2.0000 </r>
       <r>   -20.7280     0.0000     2.0000 </r>
       <r>   -20.6218     0.0000     2.0000 </r>
       <r>   -20.5156     0.0000     2.0000 </r>
       <r>   -20.4094     0.0000     2.0000 </r>
       <r>   -20.3032     0.0000     2.0000 </r>
       <r>   -20.1970     0.0000     2.0000 </r>
       <r>   -20.0908     0.0000     2.0000 </r>
       <r>   -19.9846     0.0000     2.0000 </r>
       <r>   -19.8784     0.0000     2.0000 </r>
       <r>   -19.7723     0.0000     2.0000 </r>
       <r>   -19.6661     0.0000     2.0000 </r>
       <r>   -19.5599     0.0000     2.0000 </r>
       <r>   -19.4537     0.0000     2.0000 </r>
       <r>   -19.3475     0.0000     2.0000 </r>
       <r>   -19.2413     0.0000     2.0000 </r>
       <r>   -19.1351     0.0000     2.0000 </r>
       <r>   -19.0289     0.0000     2.0000 </r>
       <r>   -18.9227     0.0000     2.0000 </r>
       <r>   -18.8165     0.0000     2.0000 </r>
       <r>   -18.7103     0.0000     2.0000 </r>
       <r>   -18.6041     0.0000     2.0000 </r>
       <r>   -18.4979     0.0000     2.0000 </r>
       <r>   -18.3917     0.0000     2.0000 </r>
       <r>   -18.2855     0.0000     2.0000 </r>
       <r>   -18.1793     0.0000     2.0000 </r>
       <r>   -18.0731     0.0000     2.0000 </r>
       <r>   -17.9669     0.0000     2.0000 </r>
       <r>   -17.8607     0.0000     2.0000 </r>
       <r>   -17.7545     0.0000     2.0000 </r>
       <r>   -17.6483     0.0000     2.0000 </r>
       <r>   -17.5421     0.0000     2.0000 </r>
       <r>   -17.4359     0.0000     2.0000 </r>
       <r>   -17.3297     0.0000     2.0000 </r>
       <r>   -17.2235     0.0000     2.0000 </r>
       <r>   -17.1173     0.0000     2.0000 </r>
       <r>   -17.0111     0.0000     2.0000 </r>
       <r>   -16.9049     0.0000     2.0000 </r>
       <r>   -16.7987     0.0000     2.0000 </r>
       <r>   -16.6925     0.0000     2.0000 </r>
       <r>   -16.5863     0.0000     2.0000 </r>
       <r>   -16.4801     0.0000     2.0000 </r>
       <r>   -16.3739     0.0000     2.0000 </r>
       <r>   -16.2677     0.0000     2.0000 </r>
       <r>   -16.1615     0.0000     2.0000 </r>
       <r>   -16.0554     0.0000     2.0000 </r>
       <r>   -15.9492     0.0000     2.0000 </r>
       <r>   -15.8430     0.0000     2.0000 </r>
       <r>   -15.7368     0.0000     2.0000 </r>
       <r>   -15.6306     0.0000     2.0000 </r>
       <r>   -15.5244     0.0000     2.0000 </r>
       <r>   -15.4182     0.0000     2.0000 </r>
       <r>   -15.3120     0.0000     2.0000 </r>
       <r>   -15.2058     0.0000     2.0000 </r>
       <r>   -15.0996     0.0000     2.0000 </r>
       <r>   -14.9934     0.0000     2.0000 </r>
       <r>   -14.8872     0.0000     2.0000 </r>
       <r>   -14.7810     0.0000     2.0000 </r>
       <r>   -14.6748     0.0000     2.0000 </r>
       <r>   -14.5686     0.0000     2.0000 </r>
       <r>   -14.4624     0.0000     2.0000 </r>
       <r>   -14.3562     0.0000     2.0000 </r>
       <r>   -14.2500     0.0000     2.0000 </r>
       <r>   -14.1438     0.0000     2.0000 </r>
       <r>   -14.0376     0.0001     2.0000 </r>
       <r>   -13.9314     0.0012     2.0001 </r>
       <r>   -13.8252     0.0144     2.0017 </r>
       <r>   -13.7190     0.0599     2.0080 </r>
       <r>   -13.6128    -0.0763     1.9999 </r>
       <r>   -13.5066    -0.7637     1.9188 </r>
       <r>   -13.4004     0.7339     1.9967 </r>
       <r>   -13.2942     7.3437     2.7766 </r>
       <r>   -13.1880     9.4828     3.7837 </r>
       <r>   -13.0818     3.0092     4.1032 </r>
       <r>   -12.9756    -0.7476     4.0238 </r>
       <r>   -12.8694    -0.3175     3.9901 </r>
       <r>   -12.7632     0.0593     3.9964 </r>
       <r>   -12.6570     0.0297     3.9996 </r>
       <r>   -12.5508     0.0036     4.0000 </r>
       <r>   -12.4446     0.0002     4.0000 </r>
       <r>   -12.3385     0.0000     4.0000 </r>
       <r>   -12.2323     0.0000     4.0000 </r>
       <r>   -12.1261     0.0000     4.0000 </r>
       <r>   -12.0199     0.0000     4.0000 </r>
       <r>   -11.9137     0.0001     4.0000 </r>
       <r>   -11.8075     0.0016     4.0002 </r>
       <r>   -11.7013     0.0173     4.0020 </r>
       <r>   -11.5951     0.0638     4.0088 </r>
       <r>   -11.4889    -0.1096     3.9971 </r>
       <r>   -11.3827    -0.7467     3.9179 </r>
       <r>   -11.2765     1.1418     4.0391 </r>
       <r>   -11.1703     7.2503     4.8091 </r>
       <r>   -11.0641     9.4249     5.8100 </r>
       <r>   -10.9579     9.0220     6.7681 </r>
       <r>   -10.8517     8.9844     7.7222 </r>
       <r>   -10.7455     3.4736     8.0911 </r>
       <r>   -10.6393    -0.5800     8.0295 </r>
       <r>   -10.5331    -0.3671     7.9905 </r>
       <r>   -10.4269     0.0858     7.9996 </r>
       <r>   -10.3207     0.0913     8.0093 </r>
       <r>   -10.2145    -0.3459     7.9726 </r>
       <r>   -10.1083    -0.7093     7.8972 </r>
       <r>   -10.0021     3.3090     8.2486 </r>
       <r>    -9.8959     9.6259     9.2709 </r>
       <r>    -9.7897     7.0436    10.0189 </r>
       <r>    -9.6835     0.5476    10.0771 </r>
       <r>    -9.5773    -0.7400     9.9985 </r>
       <r>    -9.4711    -0.0579     9.9923 </r>
       <r>    -9.3649     0.0581     9.9985 </r>
       <r>    -9.2587     0.0131     9.9999 </r>
       <r>    -9.1525     0.0011    10.0000 </r>
       <r>    -9.0463     0.0000    10.0000 </r>
       <r>    -8.9401     0.0000    10.0000 </r>
       <r>    -8.8339     0.0000    10.0000 </r>
       <r>    -8.7277     0.0000    10.0000 </r>
       <r>    -8.6216     0.0000    10.0000 </r>
       <r>    -8.5154     0.0000    10.0000 </r>
       <r>    -8.4092     0.0000    10.0000 </r>
       <r>    -8.3030     0.0000    10.0000 </r>
       <r>    -8.1968     0.0000    10.0000 </r>
       <r>    -8.0906     0.0000    10.0000 </r>
       <r>    -7.9844     0.0000    10.0000 </r>
       <r>    -7.8782     0.0000    10.0000 </r>
       <r>    -7.7720     0.0000    10.0000 </r>
       <r>    -7.6658     0.0000    10.0000 </r>
       <r>    -7.5596     0.0000    10.0000 </r>
       <r>    -7.4534     0.0000    10.0000 </r>
       <r>    -7.3472     0.0004    10.0000 </r>
       <r>    -7.2410     0.0067    10.0008 </r>
       <r>    -7.1348     0.0424    10.0053 </r>
       <r>    -7.0286     0.0307    10.0085 </r>
       <r>    -6.9224    -0.5136     9.9540 </r>
       <r>    -6.8162    -0.3999     9.9115 </r>
       <r>    -6.7100     4.8108    10.4224 </r>
       <r>    -6.6038    10.1577    11.5011 </r>
       <r>    -6.4976     5.5571    12.0913 </r>
       <r>    -6.3914    -1.9646    11.8826 </r>
       <r>    -6.2852    -0.3037    11.8504 </r>
       <r>    -6.1790    17.4060    13.6989 </r>
       <r>    -6.0728    28.2057    16.6942 </r>
       <r>    -5.9666    19.5201    18.7672 </r>
       <r>    -5.8604    28.7960    21.8253 </r>
       <r>    -5.7542    56.5994    27.8360 </r>
       <r>    -5.6480   105.8088    39.0725 </r>
       <r>    -5.5418   210.0965    61.3842 </r>
       <r>    -5.4356   294.4728    92.6564 </r>
       <r>    -5.3294   263.3107   120.6192 </r>
       <r>    -5.2232   210.4966   142.9734 </r>
       <r>    -5.1170   253.5104   169.8955 </r>
       <r>    -5.0108   345.0443   206.5382 </r>
       <r>    -4.9047   352.8630   244.0112 </r>
       <r>    -4.7985   293.5693   275.1874 </r>
       <r>    -4.6923   326.5117   309.8621 </r>
       <r>    -4.5861   414.1150   353.8399 </r>
       <r>    -4.4799   423.1296   398.7751 </r>
       <r>    -4.3737   454.8023   447.0738 </r>
       <r>    -4.2675   550.8755   505.5752 </r>
       <r>    -4.1613   476.7209   556.2016 </r>
       <r>    -4.0551   207.3378   578.2203 </r>
       <r>    -3.9489    29.7327   581.3778 </r>
       <r>    -3.8427    19.2892   583.4263 </r>
       <r>    -3.7365    30.6743   586.6838 </r>
       <r>    -3.6303    13.3264   588.0990 </r>
       <r>    -3.5241    13.4621   589.5287 </r>
       <r>    -3.4179    25.4353   592.2298 </r>
       <r>    -3.3117    13.9653   593.7129 </r>
       <r>    -3.2055    -1.0254   593.6040 </r>
       <r>    -3.0993    23.2030   596.0681 </r>
       <r>    -2.9931    63.9780   602.8624 </r>
       <r>    -2.8869    54.7597   608.6777 </r>
       <r>    -2.7807    14.3342   610.2000 </r>
       <r>    -2.6745    -2.4916   609.9354 </r>
       <r>    -2.5683    12.5096   611.2638 </r>
       <r>    -2.4621    28.0203   614.2395 </r>
       <r>    -2.3559    18.3935   616.1929 </r>
       <r>    -2.2497    12.0120   617.4685 </r>
       <r>    -2.1435    26.4189   620.2741 </r>
       <r>    -2.0373    40.4726   624.5722 </r>
       <r>    -1.9311    42.6755   629.1042 </r>
       <r>    -1.8249    35.1171   632.8335 </r>
       <r>    -1.7187    31.6586   636.1956 </r>
       <r>    -1.6125    41.4523   640.5977 </r>
       <r>    -1.5063    40.1850   644.8652 </r>
       <r>    -1.4001    23.7873   647.3914 </r>
       <r>    -1.2939    12.4996   648.7188 </r>
       <r>    -1.1878    13.5224   650.1548 </r>
       <r>    -1.0816    31.3655   653.4858 </r>
       <r>    -0.9754    58.7306   659.7228 </r>
       <r>    -0.8692    61.8049   666.2863 </r>
       <r>    -0.7630    33.2953   669.8222 </r>
       <r>    -0.6568    11.9364   671.0898 </r>
       <r>    -0.5506     6.9660   671.8295 </r>
       <r>    -0.4444     2.2401   672.0674 </r>
       <r>    -0.3382    -0.5429   672.0098 </r>
       <r>    -0.2320    -0.1984   671.9887 </r>
       <r>    -0.1258     0.0737   671.9965 </r>
       <r>    -0.0196     0.0290   671.9996 </r>
       <r>     0.0866     0.0034   672.0000 </r>
       <r>     0.1928     0.0002   672.0000 </r>
       <r>     0.2990     0.0000   672.0000 </r>
       <r>     0.4052     0.0000   672.0000 </r>
       <r>     0.5114     0.0000   672.0000 </r>
       <r>     0.6176     0.0000   672.0000 </r>
       <r>     0.7238     0.0000   672.0000 </r>
       <r>     0.8300     0.0000   672.0000 </r>
       <r>     0.9362     0.0000   672.0000 </r>
       <r>     1.0424     0.0000   672.0000 </r>
       <r>     1.1486     0.0000   672.0000 </r>
       <r>     1.2548     0.0000   672.0000 </r>
       <r>     1.3610     0.0000   672.0000 </r>
      </set>
     </set>
    </array>
   </total>
  </dos>
 </calculation>
 <structure name="finalpos" >
  <crystal>
   <varray name="basis" >
    <v>      30.00000000       0.00000000       0.00000000 </v>
    <v>       0.00000000      30.00000000       0.00000000 </v>
    <v>       0.00000000       0.00000000      30.00000000 </v>
   </varray>
   <i name="volume">  27000.00000000 </i>
   <varray name="rec_basis" >
    <v>       0.03333333       0.00000000       0.00000000 </v>
    <v>       0.00000000       0.03333333       0.00000000 </v>
    <v>       0.00000000       0.00000000       0.03333333 </v>
   </varray>
  </crystal>
  <varray name="positions" >
   <v>       0.44576020       0.32826710       0.41691983 </v>
   <v>       0.67173288       0.55423978       0.41691983 </v>
   <v>       0.55423980       0.32826710       0.41691983 </v>
   <v>       0.32826712       0.55423978       0.41691983 </v>
   <v>       0.50000000       0.38250690       0.34021317 </v>
   <v>       0.50000000       0.38250690       0.65978680 </v>
   <v>       0.50000000       0.27609440       0.50000000 </v>
   <v>       0.27609443       0.49999998       0.50000000 </v>
   <v>       0.72390557       0.49999998       0.50000000 </v>
   <v>       0.50000000       0.72390555       0.50000000 </v>
   <v>       0.61195280       0.38804720       0.34167483 </v>
   <v>       0.61195280       0.38804720       0.65832513 </v>
   <v>       0.38804722       0.61195278       0.34167483 </v>
   <v>       0.38804722       0.61195278       0.65832513 </v>
   <v>       0.38804720       0.38804720       0.34167483 </v>
   <v>       0.38804720       0.38804720       0.65832513 </v>
   <v>       0.61195278       0.61195278       0.34167483 </v>
   <v>       0.61195278       0.61195278       0.65832513 </v>
   <v>       0.44576020       0.32826710       0.58308023 </v>
   <v>       0.67173288       0.55423978       0.58308023 </v>
   <v>       0.55791699       0.44208301       0.41809300 </v>
   <v>       0.32826705       0.44576024       0.41691983 </v>
   <v>       0.55423973       0.67173293       0.41691983 </v>
   <v>       0.55423980       0.32826710       0.58308023 </v>
   <v>       0.32826712       0.55423978       0.58308023 </v>
   <v>       0.67173295       0.44576024       0.41691983 </v>
   <v>       0.44576027       0.67173293       0.41691983 </v>
   <v>       0.44208301       0.44208301       0.41809300 </v>
   <v>       0.50000000       0.38416601       0.50000000 </v>
   <v>       0.61749315       0.50000005       0.34021317 </v>
   <v>       0.61749315       0.50000005       0.65978680 </v>
   <v>       0.38250685       0.50000005       0.34021317 </v>
   <v>       0.38250685       0.50000005       0.65978680 </v>
   <v>       0.38317830       0.38317830       0.50000000 </v>
   <v>       0.61682172       0.61682172       0.50000000 </v>
   <v>       0.61682170       0.38317830       0.50000000 </v>
   <v>       0.38317828       0.61682172       0.50000000 </v>
   <v>       0.50000000       0.50000000       0.33478917 </v>
   <v>       0.50000000       0.50000000       0.66521087 </v>
   <v>       0.32826705       0.44576024       0.58308023 </v>
   <v>       0.55423973       0.67173293       0.58308023 </v>
   <v>       0.55791699       0.44208301       0.58190703 </v>
   <v>       0.44208298       0.55791702       0.41809300 </v>
   <v>       0.44208301       0.44208301       0.58190703 </v>
   <v>       0.67173295       0.44576024       0.58308023 </v>
   <v>       0.44576027       0.67173293       0.58308023 </v>
   <v>       0.55791702       0.55791702       0.41809300 </v>
   <v>       0.38416599       0.50000002       0.50000000 </v>
   <v>       0.61583401       0.50000002       0.50000000 </v>
   <v>       0.50000000       0.61749319       0.34021317 </v>
   <v>       0.50000000       0.61749319       0.65978680 </v>
   <v>       0.50000000       0.50000000       0.50000000 </v>
   <v>       0.44208298       0.55791702       0.58190703 </v>
   <v>       0.55791702       0.55791702       0.58190703 </v>
   <v>       0.50000000       0.61583404       0.50000000 </v>
   <v>       0.29602193       0.39419263       0.44692683 </v>
   <v>       0.26350123       0.37732353       0.43846527 </v>
  </varray>
  <varray name="selective"  type="logical" >
   <v type="logical" >  F  F  F </v>
   <v type="logical" >  F  F  F </v>
   <v type="logical" >  F  F  F </v>
   <v type="logical" >  F  F  F </v>
   <v type="logical" >  F  F  F </v>
   <v type="logical" >  F  F  F </v>
   <v type="logical" >  F  F  F </v>
   <v type="logical" >  F  F  F </v>
   <v type="logical" >  F  F  F </v>
   <v type="logical" >  F  F  F </v>
   <v type="logical" >  F  F  F </v>
   <v type="logical" >  F  F  F </v>
   <v type="logical" >  F  F  F </v>
   <v type="logical" >  F  F  F </v>
   <v type="logical" >  F  F  F </v>
   <v type="logical" >  F  F  F </v>
   <v type="logical" >  F  F  F </v>
   <v type="logical" >  F  F  F </v>
   <v type="logical" >  F  F  F </v>
   <v type="logical" >  F  F  F </v>
   <v type="logical" >  F  F  F </v>
   <v type="logical" >  F  F  F </v>
   <v type="logical" >  F  F  F </v>
   <v type="logical" >  F  F  F </v>
   <v type="logical" >  F  F  F </v>
   <v type="logical" >  F  F  F </v>
   <v type="logical" >  F  F  F </v>
   <v type="logical" >  F  F  F </v>
   <v type="logical" >  F  F  F </v>
   <v type="logical" >  F  F  F </v>
   <v type="logical" >  F  F  F </v>
   <v type="logical" >  F  F  F </v>
   <v type="logical" >  F  F  F </v>
   <v type="logical" >  F  F  F </v>
   <v type="logical" >  F  F  F </v>
   <v type="logical" >  F  F  F </v>
   <v type="logical" >  F  F  F </v>
   <v type="logical" >  F  F  F </v>
   <v type="logical" >  F  F  F </v>
   <v type="logical" >  F  F  F </v>
   <v type="logical" >  F  F  F </v>
   <v type="logical" >  F  F  F </v>
   <v type="logical" >  F  F  F </v>
   <v type="logical" >  F  F  F </v>
   <v type="logical" >  F  F  F </v>
   <v type="logical" >  F  F  F </v>
   <v type="logical" >  F  F  F </v>
   <v type="logical" >  F  F  F </v>
   <v type="logical" >  F  F  F </v>
   <v type="logical" >  F  F  F </v>
   <v type="logical" >  F  F  F </v>
   <v type="logical" >  F  F  F </v>
   <v type="logical" >  F  F  F </v>
   <v type="logical" >  F  F  F </v>
   <v type="logical" >  F  F  F </v>
   <v type="logical" >  F  F  F </v>
   <v type="logical" >  F  F  F </v>
  </varray>
  <nose>
   <v>      -3.00000000       0.00000000       0.00010000       0.00010000 </v>
  </nose>
 </structure>
</modeling>
