 running on    1 total cores
 distrk:  each k-point on    1 cores,    1 groups
 distr:  one band on    1 cores,    1 groups
 using from now: INCAR     
 vasp.5.4.4.18Apr17-6-g9f103f2a35 (build Sep 03 2018 23:53:05) complex          
  
 POSCAR found type information on POSCAR  Pd C  O 
 POSCAR found :  3 types and      57 ions
 scaLAPACK will be used

 ----------------------------------------------------------------------------- 
|                                                                             |
|  ADVICE TO THIS USER RUNNING 'VASP/VAMP'   (HEAR YOUR MASTER'S VOICE ...):  |
|                                                                             |
|      You enforced a specific xc-type in the INCAR file,                     |
|      a different type was found on the POTCAR file                          |
|          I HOPE YOU KNOW, WHAT YOU ARE  DOING                               |
|                                                                             |
 ----------------------------------------------------------------------------- 

 LDA part: xc-table for Pade appr. of Perdew
 POSCAR, INCAR and KPOINTS ok, starting setup
 FFT: planning ...
 WAVECAR not read
 entering main loop
       N       E                     dE             d eps       ncg     rms          rms(c)
DAV:   1     0.438621916611E+04    0.43862E+04   -0.10049E+05   688   0.815E+02
DAV:   2     0.202822267181E+04   -0.23580E+04   -0.21200E+04  1208   0.105E+02
DAV:   3     0.244493101496E+03   -0.17837E+04   -0.16763E+04   984   0.920E+01
DAV:   4    -0.133316700824E+03   -0.37781E+03   -0.32209E+03   832   0.440E+01
DAV:   5    -0.179505021858E+03   -0.46188E+02   -0.38174E+02  1048   0.147E+01    0.145E+01
RMM:   6    -0.179455289633E+03    0.49732E-01   -0.55704E+01   727   0.887E+00    0.210E+01
RMM:   7    -0.181561344178E+03   -0.21061E+01   -0.19296E+01   846   0.480E+00    0.217E+01
RMM:   8    -0.183592216819E+03   -0.20309E+01   -0.61971E+00   800   0.327E+00    0.269E+01
RMM:   9    -0.181746408580E+03    0.18458E+01   -0.47572E+00   732   0.296E+00    0.257E+01
RMM:  10    -0.180082449242E+03    0.16640E+01   -0.27874E+00   735   0.243E+00    0.241E+01
RMM:  11    -0.178064272638E+03    0.20182E+01   -0.18981E+00   730   0.195E+00    0.182E+01
RMM:  12    -0.176940988443E+03    0.11233E+01   -0.17161E+00   724   0.192E+00    0.146E+01
RMM:  13    -0.176450860289E+03    0.49013E+00   -0.11252E+00   723   0.157E+00    0.119E+01
RMM:  14    -0.176620178429E+03   -0.16932E+00   -0.12203E+00   716   0.162E+00    0.177E+01
RMM:  15    -0.176414049907E+03    0.20613E+00   -0.11543E+00   709   0.159E+00    0.153E+01
RMM:  16    -0.176346176114E+03    0.67874E-01   -0.61927E-01   723   0.119E+00    0.157E+01
RMM:  17    -0.175723056852E+03    0.62312E+00   -0.56319E-01   711   0.114E+00    0.982E+00
RMM:  18    -0.175752426569E+03   -0.29370E-01   -0.50998E-01   712   0.109E+00    0.141E+01
RMM:  19    -0.175534006009E+03    0.21842E+00   -0.33675E-01   702   0.869E-01    0.974E+00
RMM:  20    -0.175313943094E+03    0.22006E+00   -0.35209E-01   704   0.901E-01    0.881E+00
RMM:  21    -0.175265407529E+03    0.48536E-01   -0.24064E-01   713   0.747E-01    0.809E+00
RMM:  22    -0.175181112488E+03    0.84295E-01   -0.22321E-01   700   0.729E-01    0.791E+00
RMM:  23    -0.175024200274E+03    0.15691E+00   -0.15840E-01   702   0.612E-01    0.672E+00
RMM:  24    -0.174941982731E+03    0.82218E-01   -0.10430E-01   700   0.496E-01    0.528E+00
RMM:  25    -0.174871917837E+03    0.70065E-01   -0.83041E-02   701   0.443E-01    0.373E+00
RMM:  26    -0.174826396803E+03    0.45521E-01   -0.51667E-02   701   0.358E-01    0.293E+00
RMM:  27    -0.174821789313E+03    0.46075E-02   -0.41783E-02   699   0.327E-01    0.334E+00
RMM:  28    -0.174792757761E+03    0.29032E-01   -0.29430E-02   701   0.284E-01    0.244E+00
RMM:  29    -0.174765278357E+03    0.27479E-01   -0.19133E-02   696   0.227E-01    0.157E+00
RMM:  30    -0.174754333219E+03    0.10945E-01   -0.13586E-02   698   0.186E-01    0.112E+00
RMM:  31    -0.174750369482E+03    0.39637E-02   -0.86058E-03   698   0.144E-01    0.111E+00
RMM:  32    -0.174744725628E+03    0.56439E-02   -0.46426E-03   700   0.113E-01    0.744E-01
RMM:  33    -0.174744412895E+03    0.31273E-03   -0.36030E-03   697   0.970E-02    0.774E-01
RMM:  34    -0.174744976170E+03   -0.56327E-03   -0.37930E-03   697   0.995E-02    0.736E-01
RMM:  35    -0.174744306217E+03    0.66995E-03   -0.27415E-03   697   0.845E-02    0.506E-01
RMM:  36    -0.174745864877E+03   -0.15587E-02   -0.17589E-03   694   0.668E-02    0.515E-01
RMM:  37    -0.174747950122E+03   -0.20852E-02   -0.16154E-03   697   0.636E-02    0.411E-01
RMM:  38    -0.174749004938E+03   -0.10548E-02   -0.79959E-04   685   0.453E-02    0.351E-01
RMM:  39    -0.174751508879E+03   -0.25039E-02   -0.76410E-04   678   0.422E-02    0.315E-01
RMM:  40    -0.174752843549E+03   -0.13347E-02   -0.40354E-04   503   0.329E-02    0.226E-01
RMM:  41    -0.174754368637E+03   -0.15251E-02   -0.26777E-04   428   0.271E-02    0.205E-01
RMM:  42    -0.174756824355E+03   -0.24557E-02   -0.29425E-04   435   0.279E-02    0.154E-01
RMM:  43    -0.174758379512E+03   -0.15552E-02   -0.23985E-04   425   0.231E-02    0.137E-01
RMM:  44    -0.174761348548E+03   -0.29690E-02   -0.40452E-04   495   0.265E-02    0.176E-01
RMM:  45    -0.174762850794E+03   -0.15022E-02   -0.21673E-04   428   0.204E-02    0.160E-01
RMM:  46    -0.174765163742E+03   -0.23129E-02   -0.26936E-04   437   0.199E-02    0.959E-02
RMM:  47    -0.174766443536E+03   -0.12798E-02   -0.17814E-04   426   0.169E-02    0.608E-02
RMM:  48    -0.174767588856E+03   -0.11453E-02   -0.15328E-04   420   0.147E-02    0.906E-02
RMM:  49    -0.174768415129E+03   -0.82627E-03   -0.12122E-04   416   0.126E-02    0.379E-02
RMM:  50    -0.174768736640E+03   -0.32151E-03   -0.52184E-05   411   0.815E-03    0.386E-02
RMM:  51    -0.174769657246E+03   -0.92061E-03   -0.46816E-05   405   0.729E-03    0.341E-02
RMM:  52    -0.174769982987E+03   -0.32574E-03   -0.23196E-05   325   0.561E-03    0.173E-02
RMM:  53    -0.174770370843E+03   -0.38786E-03   -0.14658E-05   290   0.486E-03    0.240E-02
RMM:  54    -0.174770754744E+03   -0.38390E-03   -0.78259E-06   196   0.432E-03    0.113E-02
RMM:  55    -0.174771049725E+03   -0.29498E-03   -0.10057E-05   250   0.444E-03    0.140E-02
RMM:  56    -0.174771346136E+03   -0.29641E-03   -0.77293E-06   198   0.402E-03    0.186E-02
RMM:  57    -0.174771522422E+03   -0.17629E-03   -0.37500E-06   149   0.368E-03    0.849E-03
RMM:  58    -0.174771730201E+03   -0.20778E-03   -0.12746E-05   222   0.418E-03    0.924E-03
RMM:  59    -0.174771864383E+03   -0.13418E-03   -0.43462E-06   142   0.362E-03    0.466E-03
RMM:  60    -0.174771960171E+03   -0.95788E-04   -0.70314E-06   164   0.380E-03
   1 F= -.17477196E+03 E0= -.17475739E+03  d E =-.582793E-01
================================= SLURM INFO ===================================
Command: run-cluster -n 1 -m 10000 -j 0199_vasp --same-node /opt/VASP/vasp
Exit code: 0
Job name: 0199_vasp
Job time: 0 days 5h:5m:9s
MPI task count: 1
Working dir: /home/pashkov/pyFitIt/pyfitit/data/random_pd_co_new/sample/0199
Job was running on nodes: h3
Task per node: 1
       JobID     MaxRSS  MaxDiskRead MaxDiskWrite    Elapsed    JobName 
------------ ---------- ------------ ------------ ---------- ---------- 
105559                                              05:05:09  0199_vasp 
105559.batch                                        05:05:09      batch 
