<?xml version="1.0" encoding="ISO-8859-1"?>
<modeling>
 <generator>
  <i name="program" type="string">vasp </i>
  <i name="version" type="string">5.4.4.18Apr17-6-g9f103f2a35  </i>
  <i name="subversion" type="string">(build Sep 03 2018 23:53:05) complex            parallel </i>
  <i name="platform" type="string">LinuxIFC </i>
  <i name="date" type="string">2021 11 26 </i>
  <i name="time" type="string">16:57:19 </i>
 </generator>
 <incar>
  <i type="string" name="SYSTEM"> 6_Pd100_top_free_z(O)</i>
  <i type="int" name="ISTART">     0</i>
  <i type="string" name="PREC">normal   			! encut=max(enmax), ngx,y,z</i>
  <i type="string" name="ALGO"> Fast     			! Mix RMM-DIIS and Dav</i>
  <i type="logical" name="ADDGRID"> F  </i>
  <i type="int" name="ISPIN">     1</i>
  <i type="int" name="ICHARG">     2</i>
  <i type="int" name="NELM">   100</i>
  <i type="int" name="NELMIN">     6</i>
  <i type="int" name="IBRION">     2</i>
  <i name="EDIFF">      0.00010000</i>
  <i name="EDIFFG">     -0.05000000</i>
  <i type="int" name="NSW">     0</i>
  <i type="int" name="ISIF">     2</i>
  <i type="int" name="ISYM">     2</i>
  <i name="ENCUT">    400.00000000</i>
  <i type="string" name="LREAL"> Auto     			! Auto or A projection done</i>
  <i type="int" name="ISMEAR">     2</i>
  <i name="SIGMA">      0.20000000</i>
  <i type="logical" name="LWAVE"> F  </i>
  <i type="logical" name="LCHARG"> F  </i>
  <v type="int" name="KPOINT_BSE">    -1     0     0     0</v>
  <i type="int" name="MAXMEM"> 10000</i>
  <i type="int" name="NELM">   100</i>
  <i type="string" name="GGA"> RP         			! Revised PBE</i>
 </incar>
 <structure name="primitive_cell" >
  <crystal>
   <varray name="basis" >
    <v>      30.00000000       0.00000000       0.00000000 </v>
    <v>       0.00000000      30.00000000       0.00000000 </v>
    <v>       0.00000000       0.00000000      30.00000000 </v>
   </varray>
   <i name="volume">  27000.00000000 </i>
   <varray name="rec_basis" >
    <v>       0.03333333       0.00000000       0.00000000 </v>
    <v>       0.00000000       0.03333333       0.00000000 </v>
    <v>       0.00000000       0.00000000       0.03333333 </v>
   </varray>
  </crystal>
  <varray name="positions" >
   <v>       0.44576020       0.32826710       0.41691983 </v>
   <v>      -0.44576020       0.32826710       0.41691983 </v>
   <v>      -0.50000000       0.38250690       0.34021317 </v>
   <v>      -0.50000000       0.27609440      -0.50000000 </v>
   <v>       0.38804720       0.38804720       0.34167483 </v>
   <v>      -0.50000000       0.38416601      -0.50000000 </v>
   <v>       0.44208300       0.44208300       0.41809300 </v>
   <v>       0.38317830       0.38317830      -0.50000000 </v>
   <v>      -0.44208300       0.44208300       0.41809300 </v>
   <v>       0.44576020       0.32826710      -0.41691977 </v>
   <v>       0.32826705       0.44576024       0.41691983 </v>
   <v>      -0.38804720       0.38804720       0.34167483 </v>
   <v>      -0.38317830       0.38317830      -0.50000000 </v>
   <v>      -0.50000000      -0.50000000       0.33478917 </v>
   <v>      -0.50000000      -0.50000000      -0.50000000 </v>
   <v>      -0.44576020       0.32826710      -0.41691977 </v>
   <v>       0.38250685      -0.49999995       0.34021317 </v>
   <v>       0.44208300       0.44208300      -0.41809297 </v>
   <v>       0.38416599      -0.49999998      -0.50000000 </v>
   <v>      -0.44208300       0.44208300      -0.41809297 </v>
   <v>       0.44208298      -0.44208298       0.41809300 </v>
   <v>       0.32826705       0.44576024      -0.41691977 </v>
   <v>      -0.50000000       0.38250690      -0.34021320 </v>
   <v>       0.32826712      -0.44576022       0.41691983 </v>
   <v>      -0.38250685      -0.49999995       0.34021317 </v>
   <v>      -0.32826705       0.44576024       0.41691983 </v>
   <v>       0.27609443       0.49999998      -0.50000000 </v>
   <v>       0.38804720       0.38804720      -0.34167487 </v>
   <v>      -0.38416599      -0.49999998      -0.50000000 </v>
   <v>      -0.44208298      -0.44208298       0.41809300 </v>
   <v>       0.44208298      -0.44208298      -0.41809297 </v>
   <v>      -0.38804720       0.38804720      -0.34167487 </v>
   <v>       0.38804722      -0.38804722       0.34167483 </v>
   <v>       0.38250685      -0.49999995      -0.34021320 </v>
   <v>       0.32826712      -0.44576022      -0.41691977 </v>
   <v>      -0.32826705       0.44576024      -0.41691977 </v>
   <v>       0.50000000      -0.38250681       0.34021317 </v>
   <v>      -0.50000000      -0.38416596      -0.50000000 </v>
   <v>      -0.44208298      -0.44208298      -0.41809297 </v>
   <v>      -0.50000000      -0.50000000      -0.33478913 </v>
   <v>       0.38317828      -0.38317828      -0.50000000 </v>
   <v>      -0.32826712      -0.44576022       0.41691983 </v>
   <v>       0.44241610      -0.47006750      -0.33195743 </v>
   <v>      -0.27609443       0.49999998      -0.50000000 </v>
   <v>      -0.38804722      -0.38804722       0.34167483 </v>
   <v>      -0.38250685      -0.49999995      -0.34021320 </v>
   <v>       0.44576027      -0.32826707       0.41691983 </v>
   <v>      -0.38317828      -0.38317828      -0.50000000 </v>
   <v>       0.43039677      -0.46381977      -0.29688233 </v>
   <v>      -0.32826712      -0.44576022      -0.41691977 </v>
   <v>      -0.44576027      -0.32826707       0.41691983 </v>
   <v>       0.38804722      -0.38804722      -0.34167487 </v>
   <v>      -0.50000000      -0.38250681      -0.34021320 </v>
   <v>       0.44576027      -0.32826707      -0.41691977 </v>
   <v>      -0.44576027      -0.32826707      -0.41691977 </v>
   <v>      -0.50000000      -0.27609445       0.50000000 </v>
   <v>      -0.38804722      -0.38804722      -0.34167487 </v>
  </varray>
 </structure>
 <varray name="primitive_index" >
  <v type="int" >        1 </v>
  <v type="int" >        3 </v>
  <v type="int" >        5 </v>
  <v type="int" >        7 </v>
  <v type="int" >       15 </v>
  <v type="int" >       29 </v>
  <v type="int" >       28 </v>
  <v type="int" >       34 </v>
  <v type="int" >       21 </v>
  <v type="int" >       19 </v>
  <v type="int" >       22 </v>
  <v type="int" >       11 </v>
  <v type="int" >       36 </v>
  <v type="int" >       38 </v>
  <v type="int" >       52 </v>
  <v type="int" >       24 </v>
  <v type="int" >       32 </v>
  <v type="int" >       44 </v>
  <v type="int" >       48 </v>
  <v type="int" >       42 </v>
  <v type="int" >       43 </v>
  <v type="int" >       40 </v>
  <v type="int" >        6 </v>
  <v type="int" >        4 </v>
  <v type="int" >       30 </v>
  <v type="int" >       26 </v>
  <v type="int" >        8 </v>
  <v type="int" >       16 </v>
  <v type="int" >       49 </v>
  <v type="int" >       47 </v>
  <v type="int" >       53 </v>
  <v type="int" >       12 </v>
  <v type="int" >       13 </v>
  <v type="int" >       33 </v>
  <v type="int" >       25 </v>
  <v type="int" >       45 </v>
  <v type="int" >       50 </v>
  <v type="int" >       55 </v>
  <v type="int" >       54 </v>
  <v type="int" >       39 </v>
  <v type="int" >       37 </v>
  <v type="int" >        2 </v>
  <v type="int" >       56 </v>
  <v type="int" >        9 </v>
  <v type="int" >       17 </v>
  <v type="int" >       31 </v>
  <v type="int" >       27 </v>
  <v type="int" >       35 </v>
  <v type="int" >       57 </v>
  <v type="int" >       20 </v>
  <v type="int" >       23 </v>
  <v type="int" >       14 </v>
  <v type="int" >       51 </v>
  <v type="int" >       46 </v>
  <v type="int" >       41 </v>
  <v type="int" >       10 </v>
  <v type="int" >       18 </v>
 </varray>
 <kpoints>
  <generation param="Monkhorst-Pack">
   <v type="int" name="divisions">       1        1        1 </v>
   <v name="usershift">      0.00000000       0.00000000       0.00000000 </v>
   <v name="genvec1">      1.00000000       0.00000000       0.00000000 </v>
   <v name="genvec2">      0.00000000       1.00000000       0.00000000 </v>
   <v name="genvec3">      0.00000000       0.00000000       1.00000000 </v>
   <v name="shift">      0.00000000       0.00000000       0.00000000 </v>
  </generation>
  <varray name="kpointlist" >
   <v>       0.00000000       0.00000000       0.00000000 </v>
  </varray>
  <varray name="weights" >
   <v>       1.00000000 </v>
  </varray>
 </kpoints>
 <parameters>
  <separator name="general" >
   <i type="string" name="SYSTEM">6_Pd100_top_free_z(O)</i>
   <i type="logical" name="LCOMPAT"> F  </i>
  </separator>
  <separator name="electronic" >
   <i type="string" name="PREC">normal</i>
   <i name="ENMAX">    400.00000000</i>
   <i name="ENAUG">    644.87300000</i>
   <i name="EDIFF">      0.00010000</i>
   <i type="int" name="IALGO">    68</i>
   <i type="int" name="IWAVPR">    10</i>
   <i type="int" name="NBANDS">   336</i>
   <i name="NELECT">    560.00000000</i>
   <i type="int" name="TURBO">     0</i>
   <i type="int" name="IRESTART">     0</i>
   <i type="int" name="NREBOOT">     0</i>
   <i type="int" name="NMIN">     0</i>
   <i name="EREF">      0.00000000</i>
   <separator name="electronic smearing" >
    <i type="int" name="ISMEAR">     2</i>
    <i name="SIGMA">      0.20000000</i>
    <i name="KSPACING">      0.50000000</i>
    <i type="logical" name="KGAMMA"> T  </i>
   </separator>
   <separator name="electronic projectors" >
    <i type="logical" name="LREAL"> T  </i>
    <v name="ROPT">     -0.00050000     -0.00050000     -0.00050000</v>
    <i type="int" name="LMAXPAW">  -100</i>
    <i type="int" name="LMAXMIX">     2</i>
    <i type="logical" name="NLSPLINE"> F  </i>
   </separator>
   <separator name="electronic startup" >
    <i type="int" name="ISTART">     0</i>
    <i type="int" name="ICHARG">     2</i>
    <i type="int" name="INIWAV">     1</i>
   </separator>
   <separator name="electronic spin" >
    <i type="int" name="ISPIN">     1</i>
    <i type="logical" name="LNONCOLLINEAR"> F  </i>
    <v name="MAGMOM">      1.00000000      1.00000000      1.00000000      1.00000000      1.00000000      1.00000000      1.00000000      1.00000000      1.00000000      1.00000000      1.00000000      1.00000000      1.00000000      1.00000000      1.00000000      1.00000000      1.00000000      1.00000000      1.00000000      1.00000000
      1.00000000      1.00000000      1.00000000      1.00000000      1.00000000      1.00000000      1.00000000      1.00000000      1.00000000      1.00000000      1.00000000      1.00000000      1.00000000      1.00000000      1.00000000      1.00000000      1.00000000      1.00000000      1.00000000      1.00000000
      1.00000000      1.00000000      1.00000000      1.00000000      1.00000000      1.00000000      1.00000000      1.00000000      1.00000000      1.00000000      1.00000000      1.00000000      1.00000000      1.00000000      1.00000000      1.00000000      1.00000000</v>
    <i name="NUPDOWN">     -1.00000000</i>
    <i type="logical" name="LSORBIT"> F  </i>
    <v name="SAXIS">      0.00000000      0.00000000      1.00000000</v>
    <i type="logical" name="LSPIRAL"> F  </i>
    <v name="QSPIRAL">      0.00000000      0.00000000      0.00000000</v>
    <i type="logical" name="LZEROZ"> F  </i>
   </separator>
   <separator name="electronic exchange-correlation" >
    <i type="logical" name="LASPH"> F  </i>
    <i type="logical" name="LMETAGGA"> F  </i>
   </separator>
   <separator name="electronic convergence" >
    <i type="int" name="NELM">   100</i>
    <i type="int" name="NELMDL">    -5</i>
    <i type="int" name="NELMIN">     6</i>
    <i name="ENINI">    400.00000000</i>
    <separator name="electronic convergence detail" >
     <i type="logical" name="LDIAG"> T  </i>
     <i type="logical" name="LSUBROT"> F  </i>
     <i name="WEIMIN">      0.00000000</i>
     <i name="EBREAK">      0.00000007</i>
     <i name="DEPER">      0.30000000</i>
     <i type="int" name="NRMM">     4</i>
     <i name="TIME">      0.40000000</i>
    </separator>
   </separator>
   <separator name="electronic mixer" >
    <i name="AMIX">      0.40000000</i>
    <i name="BMIX">      1.00000000</i>
    <i name="AMIN">      0.10000000</i>
    <i name="AMIX_MAG">      1.60000000</i>
    <i name="BMIX_MAG">      1.00000000</i>
    <separator name="electronic mixer details" >
     <i type="int" name="IMIX">     4</i>
     <i type="logical" name="MIXFIRST"> F  </i>
     <i type="int" name="MAXMIX">   -45</i>
     <i name="WC">    100.00000000</i>
     <i type="int" name="INIMIX">     1</i>
     <i type="int" name="MIXPRE">     1</i>
     <i type="int" name="MREMOVE">     5</i>
    </separator>
   </separator>
   <separator name="electronic dipolcorrection" >
    <i type="logical" name="LDIPOL"> F  </i>
    <i type="logical" name="LMONO"> F  </i>
    <i type="int" name="IDIPOL">     0</i>
    <i name="EPSILON">      1.00000000</i>
    <v name="DIPOL">   -100.00000000   -100.00000000   -100.00000000</v>
    <i name="EFIELD">      0.00000000</i>
   </separator>
  </separator>
  <separator name="grids" >
   <i type="int" name="NGX">   150</i>
   <i type="int" name="NGY">   150</i>
   <i type="int" name="NGZ">   150</i>
   <i type="int" name="NGXF">   300</i>
   <i type="int" name="NGYF">   300</i>
   <i type="int" name="NGZF">   300</i>
   <i type="logical" name="ADDGRID"> F  </i>
  </separator>
  <separator name="ionic" >
   <i type="int" name="NSW">     0</i>
   <i type="int" name="IBRION">    -1</i>
   <i type="int" name="MDALGO">     0</i>
   <i type="int" name="ISIF">     2</i>
   <i name="PSTRESS">      0.00000000</i>
   <i name="EDIFFG">     -0.05000000</i>
   <i type="int" name="NFREE">     1</i>
   <i name="POTIM">      0.50000000</i>
   <i name="SMASS">     -3.00000000</i>
   <i name="SCALEE">      1.00000000</i>
  </separator>
  <separator name="ionic md" >
   <i name="TEBEG">      0.00010000</i>
   <i name="TEEND">      0.00010000</i>
   <i type="int" name="NBLOCK">     1</i>
   <i type="int" name="KBLOCK">     1</i>
   <i type="int" name="NPACO">   256</i>
   <i name="APACO">     16.00000000</i>
  </separator>
  <separator name="symmetry" >
   <i type="int" name="ISYM">     2</i>
   <i name="SYMPREC">      0.00001000</i>
  </separator>
  <separator name="dos" >
   <i type="int" name="LORBIT">     0</i>
   <v name="RWIGS">     -1.00000000     -1.00000000     -1.00000000</v>
   <i type="int" name="NEDOS">   301</i>
   <i name="EMIN">     10.00000000</i>
   <i name="EMAX">    -10.00000000</i>
   <i name="EFERMI">      0.00000000</i>
  </separator>
  <separator name="writing" >
   <i type="int" name="NWRITE">     2</i>
   <i type="logical" name="LWAVE"> F  </i>
   <i type="logical" name="LDOWNSAMPLE"> F  </i>
   <i type="logical" name="LCHARG"> F  </i>
   <i type="logical" name="LPARD"> F  </i>
   <i type="logical" name="LVTOT"> F  </i>
   <i type="logical" name="LVHAR"> F  </i>
   <i type="logical" name="LELF"> F  </i>
   <i type="logical" name="LOPTICS"> F  </i>
   <v name="STM">      0.00000000      0.00000000      0.00000000      0.00000000      0.00000000      0.00000000      0.00000000</v>
  </separator>
  <separator name="performance" >
   <i type="int" name="NPAR">     1</i>
   <i type="int" name="NSIM">     4</i>
   <i type="int" name="NBLK">    -1</i>
   <i type="logical" name="LPLANE"> T  </i>
   <i type="logical" name="LSCALAPACK"> T  </i>
   <i type="logical" name="LSCAAWARE"> F  </i>
   <i type="logical" name="LSCALU"> F  </i>
   <i type="logical" name="LASYNC"> F  </i>
   <i type="logical" name="LORBITALREAL"> F  </i>
  </separator>
  <separator name="miscellaneous" >
   <i type="int" name="IDIOT">     3</i>
   <i type="int" name="ISPECIAL">     0</i>
   <i type="logical" name="LMUSIC"> F  </i>
   <v name="POMASS">    106.42000000     12.01100000     16.00000000</v>
   <v name="DARWINR">      0.00000000      0.00000000      0.00000000</v>
   <v name="DARWINV">      1.00000000      1.00000000      1.00000000</v>
   <i type="logical" name="LCORR"> T  </i>
  </separator>
  <i type="logical" name="GGA_COMPAT"> T  </i>
  <i type="logical" name="LBERRY"> F  </i>
  <i type="int" name="ICORELEVEL">     0</i>
  <i type="logical" name="LDAU"> F  </i>
  <i type="int" name="I_CONSTRAINED_M">     0</i>
  <separator name="electronic exchange-correlation" >
   <i type="string" name="GGA">RP</i>
   <i type="int" name="VOSKOWN">     0</i>
   <i type="logical" name="LHFCALC"> F  </i>
   <i type="string" name="PRECFOCK"></i>
   <i type="logical" name="LSYMGRAD"> F  </i>
   <i type="logical" name="LHFONE"> F  </i>
   <i type="logical" name="LRHFCALC"> F  </i>
   <i type="logical" name="LTHOMAS"> F  </i>
   <i type="logical" name="LMODELHF"> F  </i>
   <i name="ENCUT4O">     -1.00000000</i>
   <i type="int" name="EXXOEP">     0</i>
   <i type="int" name="FOURORBIT">     0</i>
   <i name="AEXX">      0.00000000</i>
   <i name="HFALPHA">      0.00000000</i>
   <i name="MCALPHA">      0.00000000</i>
   <i name="ALDAX">      1.00000000</i>
   <i name="AGGAX">      1.00000000</i>
   <i name="ALDAC">      1.00000000</i>
   <i name="AGGAC">      1.00000000</i>
   <i type="int" name="NKREDX">     1</i>
   <i type="int" name="NKREDY">     1</i>
   <i type="int" name="NKREDZ">     1</i>
   <i type="logical" name="SHIFTRED"> F  </i>
   <i type="logical" name="ODDONLY"> F  </i>
   <i type="logical" name="EVENONLY"> F  </i>
   <i type="int" name="LMAXFOCK">     0</i>
   <i type="int" name="NMAXFOCKAE">     0</i>
   <i type="logical" name="LFOCKAEDFT"> F  </i>
   <i name="HFSCREEN">      0.00000000</i>
   <i name="HFSCREENC">      0.00000000</i>
   <i type="int" name="NBANDSGWLOW">     0</i>
  </separator>
  <separator name="vdW DFT" >
   <i type="logical" name="LUSE_VDW"> F  </i>
   <i name="Zab_VDW">     -0.84910000</i>
   <i name="PARAM1">      0.12340000</i>
   <i name="PARAM2">      1.00000000</i>
   <i name="PARAM3">      0.00000000</i>
  </separator>
  <separator name="model GW" >
   <i type="int" name="MODEL_GW">     0</i>
   <i name="MODEL_EPS0">    284.21052632</i>
   <i name="MODEL_ALPHA">      1.00000000</i>
  </separator>
  <separator name="linear response parameters" >
   <i type="logical" name="LEPSILON"> F  </i>
   <i type="logical" name="LRPA"> F  </i>
   <i type="logical" name="LNABLA"> F  </i>
   <i type="logical" name="LVEL"> F  </i>
   <i type="int" name="KINTER">     0</i>
   <i name="CSHIFT">      0.10000000</i>
   <i name="OMEGAMAX">     -1.00000000</i>
   <i name="DEG_THRESHOLD">      0.00200000</i>
   <i name="RTIME">     -0.10000000</i>
   <i name="WPLASMAI">      0.00000000</i>
   <v name="DFIELD">      0.00000000      0.00000000      0.00000000</v>
   <v name="WPLASMA">      0.00000000      0.00000000      0.00000000      0.00000000      0.00000000      0.00000000      0.00000000      0.00000000      0.00000000</v>
  </separator>
  <separator name="orbital magnetization" >
   <i type="logical" name="NUCIND"> F  </i>
   <v name="MAGPOS">      0.00000000      0.00000000      0.00000000</v>
   <i type="logical" name="LNICSALL"> T  </i>
   <i type="logical" name="ORBITALMAG"> F  </i>
   <i type="logical" name="LMAGBLOCH"> F  </i>
   <i type="logical" name="LCHIMAG"> F  </i>
   <i type="logical" name="LGAUGE"> T  </i>
   <i type="int" name="MAGATOM">     0</i>
   <v name="MAGDIPOL">      0.00000000      0.00000000      0.00000000</v>
   <v name="AVECCONST">      0.00000000      0.00000000      0.00000000</v>
  </separator>
  <separator name="response functions" >
   <i type="logical" name="LADDER"> F  </i>
   <i type="logical" name="LRPAFORCE"> F  </i>
   <i type="logical" name="LFXC"> F  </i>
   <i type="logical" name="LHARTREE"> T  </i>
   <i type="int" name="IBSE">     0</i>
   <v type="int" name="KPOINT">    -1     0     0     0</v>
   <i type="logical" name="LTCTE"> F  </i>
   <i type="logical" name="LTETE"> F  </i>
   <i type="logical" name="LTRIPLET"> F  </i>
   <i type="logical" name="LFXCEPS"> F  </i>
   <i type="logical" name="LFXHEG"> F  </i>
   <i type="int" name="NATURALO">     2</i>
   <i type="logical" name="L2ORDER"> F  </i>
   <i type="logical" name="LMP2LT"> F  </i>
   <i type="logical" name="LUSEW"> F  </i>
   <i name="ENCUTGW">     -2.00000000</i>
   <i name="ENCUTGWSOFT">     -2.00000000</i>
   <i name="ENCUTLF">     -1.00000000</i>
   <i type="int" name="LMAXMP2">    -1</i>
   <i name="SCISSOR">      0.00000000</i>
   <i type="int" name="NOMEGA">     0</i>
   <i type="int" name="NOMEGAR">     0</i>
   <i type="int" name="NBANDSGW">    -1</i>
   <i type="int" name="NBANDSO">    -1</i>
   <i type="int" name="NBANDSV">    -1</i>
   <i type="int" name="NELM">   100</i>
   <i type="int" name="NELMHF">     1</i>
   <i type="int" name="DIM">     3</i>
   <i type="int" name="ANTIRES">     0</i>
   <i name="OMEGAMAX">    -30.00000000</i>
   <i name="OMEGAMIN">    -30.00000000</i>
   <i name="OMEGATL">   -200.00000000</i>
   <i type="int" name="OMEGAGRID">   140</i>
   <i name="CSHIFT">     -0.10000000</i>
   <i type="logical" name="SELFENERGY"> F  </i>
   <i type="logical" name="LSPECTRAL"> F  </i>
   <i type="logical" name="LSPECTRALGW"> F  </i>
   <i type="logical" name="LSINGLES"> F  </i>
   <i type="logical" name="LFERMIGW"> F  </i>
   <i type="logical" name="ODDONLYGW"> F  </i>
   <i type="logical" name="EVENONLYGW"> F  </i>
   <i type="int" name="NKREDLFX">     1</i>
   <i type="int" name="NKREDLFY">     1</i>
   <i type="int" name="NKREDLFZ">     1</i>
   <i type="int" name="MAXMEM"> 10000</i>
   <i type="int" name="TELESCOPE">     0</i>
   <i type="int" name="TAUPAR">     1</i>
   <i type="int" name="OMEGAPAR">    -1</i>
   <i name="LAMBDA">      1.00000000</i>
  </separator>
  <separator name="External order field" >
   <i name="OFIELD_KAPPA">      0.00000000</i>
   <v name="OFIELD_K">      0.00000000      0.00000000      0.00000000</v>
   <i name="OFIELD_Q6_NEAR">      0.00000000</i>
   <i name="OFIELD_Q6_FAR">      0.00000000</i>
   <i name="OFIELD_A">      0.00000000</i>
  </separator>
 </parameters>
 <atominfo>
  <atoms>      57 </atoms>
  <types>       3 </types>
  <array name="atoms" >
   <dimension dim="1">ion</dimension>
   <field type="string">element</field>
   <field type="int">atomtype</field>
   <set>
    <rc><c>Pd</c><c>   1</c></rc>
    <rc><c>Pd</c><c>   1</c></rc>
    <rc><c>Pd</c><c>   1</c></rc>
    <rc><c>Pd</c><c>   1</c></rc>
    <rc><c>Pd</c><c>   1</c></rc>
    <rc><c>Pd</c><c>   1</c></rc>
    <rc><c>Pd</c><c>   1</c></rc>
    <rc><c>Pd</c><c>   1</c></rc>
    <rc><c>Pd</c><c>   1</c></rc>
    <rc><c>Pd</c><c>   1</c></rc>
    <rc><c>Pd</c><c>   1</c></rc>
    <rc><c>Pd</c><c>   1</c></rc>
    <rc><c>Pd</c><c>   1</c></rc>
    <rc><c>Pd</c><c>   1</c></rc>
    <rc><c>Pd</c><c>   1</c></rc>
    <rc><c>Pd</c><c>   1</c></rc>
    <rc><c>Pd</c><c>   1</c></rc>
    <rc><c>Pd</c><c>   1</c></rc>
    <rc><c>Pd</c><c>   1</c></rc>
    <rc><c>Pd</c><c>   1</c></rc>
    <rc><c>Pd</c><c>   1</c></rc>
    <rc><c>Pd</c><c>   1</c></rc>
    <rc><c>Pd</c><c>   1</c></rc>
    <rc><c>Pd</c><c>   1</c></rc>
    <rc><c>Pd</c><c>   1</c></rc>
    <rc><c>Pd</c><c>   1</c></rc>
    <rc><c>Pd</c><c>   1</c></rc>
    <rc><c>Pd</c><c>   1</c></rc>
    <rc><c>Pd</c><c>   1</c></rc>
    <rc><c>Pd</c><c>   1</c></rc>
    <rc><c>Pd</c><c>   1</c></rc>
    <rc><c>Pd</c><c>   1</c></rc>
    <rc><c>Pd</c><c>   1</c></rc>
    <rc><c>Pd</c><c>   1</c></rc>
    <rc><c>Pd</c><c>   1</c></rc>
    <rc><c>Pd</c><c>   1</c></rc>
    <rc><c>Pd</c><c>   1</c></rc>
    <rc><c>Pd</c><c>   1</c></rc>
    <rc><c>Pd</c><c>   1</c></rc>
    <rc><c>Pd</c><c>   1</c></rc>
    <rc><c>Pd</c><c>   1</c></rc>
    <rc><c>Pd</c><c>   1</c></rc>
    <rc><c>Pd</c><c>   1</c></rc>
    <rc><c>Pd</c><c>   1</c></rc>
    <rc><c>Pd</c><c>   1</c></rc>
    <rc><c>Pd</c><c>   1</c></rc>
    <rc><c>Pd</c><c>   1</c></rc>
    <rc><c>Pd</c><c>   1</c></rc>
    <rc><c>Pd</c><c>   1</c></rc>
    <rc><c>Pd</c><c>   1</c></rc>
    <rc><c>Pd</c><c>   1</c></rc>
    <rc><c>Pd</c><c>   1</c></rc>
    <rc><c>Pd</c><c>   1</c></rc>
    <rc><c>Pd</c><c>   1</c></rc>
    <rc><c>Pd</c><c>   1</c></rc>
    <rc><c>C </c><c>   2</c></rc>
    <rc><c>O </c><c>   3</c></rc>
   </set>
  </array>
  <array name="atomtypes" >
   <dimension dim="1">type</dimension>
   <field type="int">atomspertype</field>
   <field type="string">element</field>
   <field>mass</field>
   <field>valence</field>
   <field type="string">pseudopotential</field>
   <set>
    <rc><c>  55</c><c>Pd</c><c>    106.42000000</c><c>     10.00000000</c><c>  PAW_PBE Pd 04Jan2005                  </c></rc>
    <rc><c>   1</c><c>C </c><c>     12.01100000</c><c>      4.00000000</c><c>  PAW_PBE C 08Apr2002                   </c></rc>
    <rc><c>   1</c><c>O </c><c>     16.00000000</c><c>      6.00000000</c><c>  PAW_PBE O 08Apr2002                   </c></rc>
   </set>
  </array>
 </atominfo>
 <structure name="initialpos" >
  <crystal>
   <varray name="basis" >
    <v>      30.00000000       0.00000000       0.00000000 </v>
    <v>       0.00000000      30.00000000       0.00000000 </v>
    <v>       0.00000000       0.00000000      30.00000000 </v>
   </varray>
   <i name="volume">  27000.00000000 </i>
   <varray name="rec_basis" >
    <v>       0.03333333       0.00000000       0.00000000 </v>
    <v>       0.00000000       0.03333333       0.00000000 </v>
    <v>       0.00000000       0.00000000       0.03333333 </v>
   </varray>
  </crystal>
  <varray name="positions" >
   <v>       0.44576020       0.32826710       0.41691983 </v>
   <v>       0.67173288       0.55423978       0.41691983 </v>
   <v>       0.55423980       0.32826710       0.41691983 </v>
   <v>       0.32826712       0.55423978       0.41691983 </v>
   <v>       0.50000000       0.38250690       0.34021317 </v>
   <v>       0.50000000       0.38250690       0.65978680 </v>
   <v>       0.50000000       0.27609440       0.50000000 </v>
   <v>       0.27609443       0.49999998       0.50000000 </v>
   <v>       0.72390557       0.49999998       0.50000000 </v>
   <v>       0.50000000       0.72390555       0.50000000 </v>
   <v>       0.61195280       0.38804720       0.34167483 </v>
   <v>       0.61195280       0.38804720       0.65832513 </v>
   <v>       0.38804722       0.61195278       0.34167483 </v>
   <v>       0.38804722       0.61195278       0.65832513 </v>
   <v>       0.38804720       0.38804720       0.34167483 </v>
   <v>       0.38804720       0.38804720       0.65832513 </v>
   <v>       0.61195278       0.61195278       0.34167483 </v>
   <v>       0.61195278       0.61195278       0.65832513 </v>
   <v>       0.44576020       0.32826710       0.58308023 </v>
   <v>       0.67173288       0.55423978       0.58308023 </v>
   <v>       0.55791699       0.44208301       0.41809300 </v>
   <v>       0.32826705       0.44576024       0.41691983 </v>
   <v>       0.55423973       0.67173293       0.41691983 </v>
   <v>       0.55423980       0.32826710       0.58308023 </v>
   <v>       0.32826712       0.55423978       0.58308023 </v>
   <v>       0.67173295       0.44576024       0.41691983 </v>
   <v>       0.44576027       0.67173293       0.41691983 </v>
   <v>       0.44208301       0.44208301       0.41809300 </v>
   <v>       0.50000000       0.38416601       0.50000000 </v>
   <v>       0.61749315       0.50000005       0.34021317 </v>
   <v>       0.61749315       0.50000005       0.65978680 </v>
   <v>       0.38250685       0.50000005       0.34021317 </v>
   <v>       0.38250685       0.50000005       0.65978680 </v>
   <v>       0.38317830       0.38317830       0.50000000 </v>
   <v>       0.61682172       0.61682172       0.50000000 </v>
   <v>       0.61682170       0.38317830       0.50000000 </v>
   <v>       0.38317828       0.61682172       0.50000000 </v>
   <v>       0.50000000       0.50000000       0.33478917 </v>
   <v>       0.50000000       0.50000000       0.66521087 </v>
   <v>       0.32826705       0.44576024       0.58308023 </v>
   <v>       0.55423973       0.67173293       0.58308023 </v>
   <v>       0.55791699       0.44208301       0.58190703 </v>
   <v>       0.44208298       0.55791702       0.41809300 </v>
   <v>       0.44208301       0.44208301       0.58190703 </v>
   <v>       0.67173295       0.44576024       0.58308023 </v>
   <v>       0.44576027       0.67173293       0.58308023 </v>
   <v>       0.55791702       0.55791702       0.41809300 </v>
   <v>       0.38416599       0.50000002       0.50000000 </v>
   <v>       0.61583401       0.50000002       0.50000000 </v>
   <v>       0.50000000       0.61749319       0.34021317 </v>
   <v>       0.50000000       0.61749319       0.65978680 </v>
   <v>       0.50000000       0.50000000       0.50000000 </v>
   <v>       0.44208298       0.55791702       0.58190703 </v>
   <v>       0.55791702       0.55791702       0.58190703 </v>
   <v>       0.50000000       0.61583404       0.50000000 </v>
   <v>       0.44241610       0.52993250       0.66804257 </v>
   <v>       0.43039677       0.53618023       0.70311767 </v>
  </varray>
  <varray name="selective"  type="logical" >
   <v type="logical" >  F  F  F </v>
   <v type="logical" >  F  F  F </v>
   <v type="logical" >  F  F  F </v>
   <v type="logical" >  F  F  F </v>
   <v type="logical" >  F  F  F </v>
   <v type="logical" >  F  F  F </v>
   <v type="logical" >  F  F  F </v>
   <v type="logical" >  F  F  F </v>
   <v type="logical" >  F  F  F </v>
   <v type="logical" >  F  F  F </v>
   <v type="logical" >  F  F  F </v>
   <v type="logical" >  F  F  F </v>
   <v type="logical" >  F  F  F </v>
   <v type="logical" >  F  F  F </v>
   <v type="logical" >  F  F  F </v>
   <v type="logical" >  F  F  F </v>
   <v type="logical" >  F  F  F </v>
   <v type="logical" >  F  F  F </v>
   <v type="logical" >  F  F  F </v>
   <v type="logical" >  F  F  F </v>
   <v type="logical" >  F  F  F </v>
   <v type="logical" >  F  F  F </v>
   <v type="logical" >  F  F  F </v>
   <v type="logical" >  F  F  F </v>
   <v type="logical" >  F  F  F </v>
   <v type="logical" >  F  F  F </v>
   <v type="logical" >  F  F  F </v>
   <v type="logical" >  F  F  F </v>
   <v type="logical" >  F  F  F </v>
   <v type="logical" >  F  F  F </v>
   <v type="logical" >  F  F  F </v>
   <v type="logical" >  F  F  F </v>
   <v type="logical" >  F  F  F </v>
   <v type="logical" >  F  F  F </v>
   <v type="logical" >  F  F  F </v>
   <v type="logical" >  F  F  F </v>
   <v type="logical" >  F  F  F </v>
   <v type="logical" >  F  F  F </v>
   <v type="logical" >  F  F  F </v>
   <v type="logical" >  F  F  F </v>
   <v type="logical" >  F  F  F </v>
   <v type="logical" >  F  F  F </v>
   <v type="logical" >  F  F  F </v>
   <v type="logical" >  F  F  F </v>
   <v type="logical" >  F  F  F </v>
   <v type="logical" >  F  F  F </v>
   <v type="logical" >  F  F  F </v>
   <v type="logical" >  F  F  F </v>
   <v type="logical" >  F  F  F </v>
   <v type="logical" >  F  F  F </v>
   <v type="logical" >  F  F  F </v>
   <v type="logical" >  F  F  F </v>
   <v type="logical" >  F  F  F </v>
   <v type="logical" >  F  F  F </v>
   <v type="logical" >  F  F  F </v>
   <v type="logical" >  F  F  F </v>
   <v type="logical" >  F  F  F </v>
  </varray>
  <nose>
   <v>      -3.00000000       0.00000000       0.00010000       0.00010000 </v>
  </nose>
 </structure>
 <calculation>
  <scstep>
   <time name="dav">  366.54  366.61</time>
   <time name="total">  380.69  380.77</time>
   <energy>
    <i name="alphaZ">     75.25431677 </i>
    <i name="ewald"> 140446.44887251 </i>
    <i name="hartreedc">-183794.99045618 </i>
    <i name="XCdc">  -1701.32182735 </i>
    <i name="pawpsdc">  44873.02882129 </i>
    <i name="pawaedc"> -41398.84523641 </i>
    <i name="eentropy">      0.02680735 </i>
    <i name="bandstr">    813.57665341 </i>
    <i name="atom">  45086.50549395 </i>
    <i name="e_fr_energy">   4399.68344535 </i>
    <i name="e_wo_entrp">   4399.65663800 </i>
    <i name="e_0_energy">   4399.67674351 </i>
   </energy>
  </scstep>
  <scstep>
   <time name="dav">  587.11  587.14</time>
   <time name="total">  587.12  587.14</time>
   <energy>
    <i name="e_fr_energy">   2008.80976845 </i>
    <i name="e_wo_entrp">   2008.81747940 </i>
    <i name="e_0_energy">   2008.81169619 </i>
   </energy>
  </scstep>
  <scstep>
   <time name="dav">  495.43  495.43</time>
   <time name="total">  495.43  495.44</time>
   <energy>
    <i name="e_fr_energy">    230.56787315 </i>
    <i name="e_wo_entrp">    230.57846881 </i>
    <i name="e_0_energy">    230.57052206 </i>
   </energy>
  </scstep>
  <scstep>
   <time name="dav">  423.56  423.57</time>
   <time name="total">  423.57  423.57</time>
   <energy>
    <i name="e_fr_energy">   -135.04038413 </i>
    <i name="e_wo_entrp">   -135.03173961 </i>
    <i name="e_0_energy">   -135.03822300 </i>
   </energy>
  </scstep>
  <scstep>
   <time name="dav">  521.92  521.92</time>
   <time name="total">  547.88  547.89</time>
   <energy>
    <i name="e_fr_energy">   -180.15757162 </i>
    <i name="e_wo_entrp">   -180.64798300 </i>
    <i name="e_0_energy">   -180.28017447 </i>
   </energy>
  </scstep>
  <scstep>
   <time name="diag">   67.16   67.16</time>
   <time name="diis">  194.81  194.82</time>
   <time name="orth">   13.20   13.20</time>
   <time name="total">  314.42  314.43</time>
   <energy>
    <i name="e_fr_energy">   -179.45677724 </i>
    <i name="e_wo_entrp">   -179.30187176 </i>
    <i name="e_0_energy">   -179.41805087 </i>
   </energy>
  </scstep>
  <scstep>
   <time name="diag">   67.15   67.15</time>
   <time name="diis">  221.74  221.74</time>
   <time name="orth">   13.46   13.46</time>
   <time name="total">  341.57  341.57</time>
   <energy>
    <i name="e_fr_energy">   -182.12423234 </i>
    <i name="e_wo_entrp">   -182.09265188 </i>
    <i name="e_0_energy">   -182.11633722 </i>
   </energy>
  </scstep>
  <scstep>
   <time name="diag">   68.63   68.63</time>
   <time name="diis">  208.60  208.61</time>
   <time name="orth">   13.41   13.41</time>
   <time name="total">  329.93  329.94</time>
   <energy>
    <i name="e_fr_energy">   -184.93986457 </i>
    <i name="e_wo_entrp">   -184.94451203 </i>
    <i name="e_0_energy">   -184.94102643 </i>
   </energy>
  </scstep>
  <scstep>
   <time name="diag">   69.16   69.17</time>
   <time name="diis">  198.64  198.64</time>
   <time name="orth">   13.29   13.29</time>
   <time name="total">  320.37  320.37</time>
   <energy>
    <i name="e_fr_energy">   -182.49304238 </i>
    <i name="e_wo_entrp">   -182.31572187 </i>
    <i name="e_0_energy">   -182.44871225 </i>
   </energy>
  </scstep>
  <scstep>
   <time name="diag">   69.91   69.91</time>
   <time name="diis">  192.71  192.72</time>
   <time name="orth">   13.40   13.40</time>
   <time name="total">  315.35  315.37</time>
   <energy>
    <i name="e_fr_energy">   -179.99818756 </i>
    <i name="e_wo_entrp">   -179.93036366 </i>
    <i name="e_0_energy">   -179.98123158 </i>
   </energy>
  </scstep>
  <scstep>
   <time name="diag">   69.75   69.75</time>
   <time name="diis">  192.13  192.14</time>
   <time name="orth">   13.32   13.32</time>
   <time name="total">  314.99  315.02</time>
   <energy>
    <i name="e_fr_energy">   -178.16536129 </i>
    <i name="e_wo_entrp">   -178.18619427 </i>
    <i name="e_0_energy">   -178.17056953 </i>
   </energy>
  </scstep>
  <scstep>
   <time name="diag">   69.18   69.18</time>
   <time name="diis">  192.80  192.81</time>
   <time name="orth">   13.14   13.14</time>
   <time name="total">  315.05  315.06</time>
   <energy>
    <i name="e_fr_energy">   -176.93904931 </i>
    <i name="e_wo_entrp">   -177.01779852 </i>
    <i name="e_0_energy">   -176.95873661 </i>
   </energy>
  </scstep>
  <scstep>
   <time name="diag">   69.03   69.04</time>
   <time name="diis">  193.30  193.31</time>
   <time name="orth">   13.05   13.05</time>
   <time name="total">  315.52  315.54</time>
   <energy>
    <i name="e_fr_energy">   -177.24999516 </i>
    <i name="e_wo_entrp">   -177.23048923 </i>
    <i name="e_0_energy">   -177.24511868 </i>
   </energy>
  </scstep>
  <scstep>
   <time name="diag">   69.52   69.52</time>
   <time name="diis">  186.13  186.14</time>
   <time name="orth">   13.18   13.18</time>
   <time name="total">  309.83  309.85</time>
   <energy>
    <i name="e_fr_energy">   -177.45217616 </i>
    <i name="e_wo_entrp">   -177.60737984 </i>
    <i name="e_0_energy">   -177.49097708 </i>
   </energy>
  </scstep>
  <scstep>
   <time name="diag">   69.81   69.81</time>
   <time name="diis">  186.49  186.50</time>
   <time name="orth">   13.33   13.33</time>
   <time name="total">  310.47  310.47</time>
   <energy>
    <i name="e_fr_energy">   -176.22937670 </i>
    <i name="e_wo_entrp">   -176.18926009 </i>
    <i name="e_0_energy">   -176.21934755 </i>
   </energy>
  </scstep>
  <scstep>
   <time name="diag">   69.47   69.47</time>
   <time name="diis">  184.60  184.61</time>
   <time name="orth">   13.35   13.35</time>
   <time name="total">  308.18  308.19</time>
   <energy>
    <i name="e_fr_energy">   -175.69780000 </i>
    <i name="e_wo_entrp">   -175.64378469 </i>
    <i name="e_0_energy">   -175.68429617 </i>
   </energy>
  </scstep>
  <scstep>
   <time name="diag">   68.97   68.98</time>
   <time name="diis">  186.74  186.74</time>
   <time name="orth">   13.58   13.58</time>
   <time name="total">  309.97  309.98</time>
   <energy>
    <i name="e_fr_energy">   -175.56835229 </i>
    <i name="e_wo_entrp">   -175.53892620 </i>
    <i name="e_0_energy">   -175.56099576 </i>
   </energy>
  </scstep>
  <scstep>
   <time name="diag">   70.07   70.07</time>
   <time name="diis">  185.31  185.31</time>
   <time name="orth">   13.77   13.77</time>
   <time name="total">  310.19  310.19</time>
   <energy>
    <i name="e_fr_energy">   -175.60227270 </i>
    <i name="e_wo_entrp">   -175.66242605 </i>
    <i name="e_0_energy">   -175.61731103 </i>
   </energy>
  </scstep>
  <scstep>
   <time name="diag">   70.28   70.28</time>
   <time name="diis">  182.51  182.51</time>
   <time name="orth">   13.64   13.64</time>
   <time name="total">  307.88  307.89</time>
   <energy>
    <i name="e_fr_energy">   -175.33890285 </i>
    <i name="e_wo_entrp">   -175.38099880 </i>
    <i name="e_0_energy">   -175.34942684 </i>
   </energy>
  </scstep>
  <scstep>
   <time name="diag">   70.03   70.03</time>
   <time name="diis">  187.13  187.13</time>
   <time name="orth">   13.71   13.71</time>
   <time name="total">  312.09  312.09</time>
   <energy>
    <i name="e_fr_energy">   -175.23209853 </i>
    <i name="e_wo_entrp">   -175.26603311 </i>
    <i name="e_0_energy">   -175.24058218 </i>
   </energy>
  </scstep>
  <scstep>
   <time name="diag">   69.53   69.53</time>
   <time name="diis">  182.04  182.04</time>
   <time name="orth">   13.66   13.66</time>
   <time name="total">  306.36  306.36</time>
   <energy>
    <i name="e_fr_energy">   -175.07416257 </i>
    <i name="e_wo_entrp">   -175.06808980 </i>
    <i name="e_0_energy">   -175.07264438 </i>
   </energy>
  </scstep>
  <scstep>
   <time name="diag">   71.03   71.03</time>
   <time name="diis">  184.15  184.15</time>
   <time name="orth">   13.86   13.86</time>
   <time name="total">  310.50  310.50</time>
   <energy>
    <i name="e_fr_energy">   -174.98310586 </i>
    <i name="e_wo_entrp">   -174.94710781 </i>
    <i name="e_0_energy">   -174.97410634 </i>
   </energy>
  </scstep>
  <scstep>
   <time name="diag">   70.29   70.29</time>
   <time name="diis">  185.63  185.64</time>
   <time name="orth">   13.67   13.67</time>
   <time name="total">  310.38  310.39</time>
   <energy>
    <i name="e_fr_energy">   -174.76951978 </i>
    <i name="e_wo_entrp">   -174.73804829 </i>
    <i name="e_0_energy">   -174.76165190 </i>
   </energy>
  </scstep>
  <scstep>
   <time name="diag">   70.37   70.37</time>
   <time name="diis">  180.26  180.26</time>
   <time name="orth">   13.84   13.84</time>
   <time name="total">  305.82  305.83</time>
   <energy>
    <i name="e_fr_energy">   -174.69893176 </i>
    <i name="e_wo_entrp">   -174.67248339 </i>
    <i name="e_0_energy">   -174.69231967 </i>
   </energy>
  </scstep>
  <scstep>
   <time name="diag">   71.10   71.10</time>
   <time name="diis">  180.35  180.35</time>
   <time name="orth">   13.83   13.83</time>
   <time name="total">  306.62  306.62</time>
   <energy>
    <i name="e_fr_energy">   -174.66862347 </i>
    <i name="e_wo_entrp">   -174.62838342 </i>
    <i name="e_0_energy">   -174.65856346 </i>
   </energy>
  </scstep>
  <scstep>
   <time name="diag">   69.75   69.75</time>
   <time name="diis">  181.75  181.75</time>
   <time name="orth">   13.68   13.68</time>
   <time name="total">  306.47  306.47</time>
   <energy>
    <i name="e_fr_energy">   -174.61613805 </i>
    <i name="e_wo_entrp">   -174.58016156 </i>
    <i name="e_0_energy">   -174.60714392 </i>
   </energy>
  </scstep>
  <scstep>
   <time name="diag">   69.80   69.80</time>
   <time name="diis">  181.31  181.32</time>
   <time name="orth">   13.58   13.58</time>
   <time name="total">  305.27  305.28</time>
   <energy>
    <i name="e_fr_energy">   -174.60838209 </i>
    <i name="e_wo_entrp">   -174.56856546 </i>
    <i name="e_0_energy">   -174.59842793 </i>
   </energy>
  </scstep>
  <scstep>
   <time name="diag">   69.11   69.11</time>
   <time name="diis">  181.73  181.73</time>
   <time name="orth">   13.69   13.69</time>
   <time name="total">  304.79  304.79</time>
   <energy>
    <i name="e_fr_energy">   -174.59162829 </i>
    <i name="e_wo_entrp">   -174.56275811 </i>
    <i name="e_0_energy">   -174.58441075 </i>
   </energy>
  </scstep>
  <scstep>
   <time name="diag">   68.22   68.22</time>
   <time name="diis">  180.49  180.49</time>
   <time name="orth">   13.45   13.45</time>
   <time name="total">  302.36  302.36</time>
   <energy>
    <i name="e_fr_energy">   -174.57232093 </i>
    <i name="e_wo_entrp">   -174.53852904 </i>
    <i name="e_0_energy">   -174.56387296 </i>
   </energy>
  </scstep>
  <scstep>
   <time name="diag">   69.08   69.08</time>
   <time name="diis">  181.80  181.80</time>
   <time name="orth">   13.58   13.58</time>
   <time name="total">  305.00  305.01</time>
   <energy>
    <i name="e_fr_energy">   -174.56953844 </i>
    <i name="e_wo_entrp">   -174.53864979 </i>
    <i name="e_0_energy">   -174.56181628 </i>
   </energy>
  </scstep>
  <scstep>
   <time name="diag">   69.53   69.53</time>
   <time name="diis">  181.03  181.04</time>
   <time name="orth">   13.75   13.75</time>
   <time name="total">  305.32  305.33</time>
   <energy>
    <i name="e_fr_energy">   -174.56383074 </i>
    <i name="e_wo_entrp">   -174.52988712 </i>
    <i name="e_0_energy">   -174.55534484 </i>
   </energy>
  </scstep>
  <scstep>
   <time name="diag">   69.34   69.34</time>
   <time name="diis">  181.23  181.23</time>
   <time name="orth">   13.68   13.68</time>
   <time name="total">  305.37  305.38</time>
   <energy>
    <i name="e_fr_energy">   -174.55969524 </i>
    <i name="e_wo_entrp">   -174.52814722 </i>
    <i name="e_0_energy">   -174.55180823 </i>
   </energy>
  </scstep>
  <scstep>
   <time name="diag">   68.50   68.50</time>
   <time name="diis">  180.83  180.83</time>
   <time name="orth">   13.53   13.53</time>
   <time name="total">  303.95  303.95</time>
   <energy>
    <i name="e_fr_energy">   -174.55711453 </i>
    <i name="e_wo_entrp">   -174.52711116 </i>
    <i name="e_0_energy">   -174.54961369 </i>
   </energy>
  </scstep>
  <scstep>
   <time name="diag">   68.92   68.92</time>
   <time name="diis">  178.81  178.81</time>
   <time name="orth">   13.74   13.74</time>
   <time name="total">  303.09  303.09</time>
   <energy>
    <i name="e_fr_energy">   -174.55860621 </i>
    <i name="e_wo_entrp">   -174.52239876 </i>
    <i name="e_0_energy">   -174.54955435 </i>
   </energy>
  </scstep>
  <scstep>
   <time name="diag">   69.06   69.06</time>
   <time name="diis">  177.66  177.66</time>
   <time name="orth">   13.84   13.84</time>
   <time name="total">  302.24  302.24</time>
   <energy>
    <i name="e_fr_energy">   -174.55975506 </i>
    <i name="e_wo_entrp">   -174.52300517 </i>
    <i name="e_0_energy">   -174.55056759 </i>
   </energy>
  </scstep>
  <scstep>
   <time name="diag">   68.03   68.03</time>
   <time name="diis">  179.07  179.07</time>
   <time name="orth">   13.37   13.37</time>
   <time name="total">  301.76  301.76</time>
   <energy>
    <i name="e_fr_energy">   -174.56027926 </i>
    <i name="e_wo_entrp">   -174.52626073 </i>
    <i name="e_0_energy">   -174.55177462 </i>
   </energy>
  </scstep>
  <scstep>
   <time name="diag">   67.76   67.76</time>
   <time name="diis">  178.16  178.16</time>
   <time name="orth">   13.69   13.69</time>
   <time name="total">  301.54  301.55</time>
   <energy>
    <i name="e_fr_energy">   -174.56192206 </i>
    <i name="e_wo_entrp">   -174.52879106 </i>
    <i name="e_0_energy">   -174.55363931 </i>
   </energy>
  </scstep>
  <scstep>
   <time name="diag">   69.76   69.77</time>
   <time name="diis">  175.98  175.98</time>
   <time name="orth">   13.99   13.99</time>
   <time name="total">  301.97  301.98</time>
   <energy>
    <i name="e_fr_energy">   -174.56247854 </i>
    <i name="e_wo_entrp">   -174.52989629 </i>
    <i name="e_0_energy">   -174.55433298 </i>
   </energy>
  </scstep>
  <scstep>
   <time name="diag">   68.39   68.40</time>
   <time name="diis">  141.72  141.72</time>
   <time name="orth">   13.14   13.14</time>
   <time name="total">  265.42  265.43</time>
   <energy>
    <i name="e_fr_energy">   -174.56402949 </i>
    <i name="e_wo_entrp">   -174.53157253 </i>
    <i name="e_0_energy">   -174.55591525 </i>
   </energy>
  </scstep>
  <scstep>
   <time name="diag">   68.26   68.26</time>
   <time name="diis">  118.69  118.69</time>
   <time name="orth">   13.58   13.58</time>
   <time name="total">  241.61  241.61</time>
   <energy>
    <i name="e_fr_energy">   -174.56553694 </i>
    <i name="e_wo_entrp">   -174.53112580 </i>
    <i name="e_0_energy">   -174.55693416 </i>
   </energy>
  </scstep>
  <scstep>
   <time name="diag">   67.17   67.17</time>
   <time name="diis">  123.06  123.07</time>
   <time name="orth">   13.68   13.68</time>
   <time name="total">  245.54  245.55</time>
   <energy>
    <i name="e_fr_energy">   -174.56760017 </i>
    <i name="e_wo_entrp">   -174.53393190 </i>
    <i name="e_0_energy">   -174.55918310 </i>
   </energy>
  </scstep>
  <scstep>
   <time name="diag">   67.14   67.14</time>
   <time name="diis">  142.75  142.76</time>
   <time name="orth">   13.63   13.63</time>
   <time name="total">  265.64  265.66</time>
   <energy>
    <i name="e_fr_energy">   -174.57084988 </i>
    <i name="e_wo_entrp">   -174.53776118 </i>
    <i name="e_0_energy">   -174.56257771 </i>
   </energy>
  </scstep>
  <scstep>
   <time name="diag">   67.46   67.46</time>
   <time name="diis">  121.55  121.55</time>
   <time name="orth">   13.61   13.61</time>
   <time name="total">  245.14  245.14</time>
   <energy>
    <i name="e_fr_energy">   -174.57294050 </i>
    <i name="e_wo_entrp">   -174.53984617 </i>
    <i name="e_0_energy">   -174.56466692 </i>
   </energy>
  </scstep>
  <scstep>
   <time name="diag">   68.70   68.70</time>
   <time name="diis">  146.16  146.16</time>
   <time name="orth">   13.55   13.55</time>
   <time name="total">  271.18  271.18</time>
   <energy>
    <i name="e_fr_energy">   -174.57617846 </i>
    <i name="e_wo_entrp">   -174.54343691 </i>
    <i name="e_0_energy">   -174.56799307 </i>
   </energy>
  </scstep>
  <scstep>
   <time name="diag">   68.16   68.16</time>
   <time name="diis">  120.72  120.78</time>
   <time name="orth">   13.33   13.33</time>
   <time name="total">  244.86  244.94</time>
   <energy>
    <i name="e_fr_energy">   -174.57750750 </i>
    <i name="e_wo_entrp">   -174.54428310 </i>
    <i name="e_0_energy">   -174.56920140 </i>
   </energy>
  </scstep>
  <scstep>
   <time name="diag">   68.13   68.13</time>
   <time name="diis">  118.40  118.41</time>
   <time name="orth">   13.44   13.44</time>
   <time name="total">  242.19  242.19</time>
   <energy>
    <i name="e_fr_energy">   -174.57903679 </i>
    <i name="e_wo_entrp">   -174.54576270 </i>
    <i name="e_0_energy">   -174.57071826 </i>
   </energy>
  </scstep>
  <scstep>
   <time name="diag">   66.90   66.90</time>
   <time name="diis">  116.22  116.22</time>
   <time name="orth">   13.65   13.65</time>
   <time name="total">  239.27  239.27</time>
   <energy>
    <i name="e_fr_energy">   -174.58008827 </i>
    <i name="e_wo_entrp">   -174.54725006 </i>
    <i name="e_0_energy">   -174.57187872 </i>
   </energy>
  </scstep>
  <scstep>
   <time name="diag">   67.33   67.33</time>
   <time name="diis">  115.01  115.01</time>
   <time name="orth">   13.68   13.68</time>
   <time name="total">  239.66  239.66</time>
   <energy>
    <i name="e_fr_energy">   -174.58093412 </i>
    <i name="e_wo_entrp">   -174.54770195 </i>
    <i name="e_0_energy">   -174.57262608 </i>
   </energy>
  </scstep>
  <scstep>
   <time name="diag">   68.24   68.24</time>
   <time name="diis">  112.67  112.67</time>
   <time name="orth">   13.47   13.47</time>
   <time name="total">  238.00  238.00</time>
   <energy>
    <i name="e_fr_energy">   -174.58189346 </i>
    <i name="e_wo_entrp">   -174.54901869 </i>
    <i name="e_0_energy">   -174.57367477 </i>
   </energy>
  </scstep>
  <scstep>
   <time name="diag">   68.41   68.41</time>
   <time name="diis">  113.90  113.90</time>
   <time name="orth">   13.21   13.21</time>
   <time name="total">  238.26  238.26</time>
   <energy>
    <i name="e_fr_energy">   -174.58227018 </i>
    <i name="e_wo_entrp">   -174.54941079 </i>
    <i name="e_0_energy">   -174.57405533 </i>
   </energy>
  </scstep>
  <scstep>
   <time name="diag">   68.03   68.03</time>
   <time name="diis">  115.38  115.38</time>
   <time name="orth">   13.76   13.76</time>
   <time name="total">  240.10  240.11</time>
   <energy>
    <i name="e_fr_energy">   -174.58293058 </i>
    <i name="e_wo_entrp">   -174.55001326 </i>
    <i name="e_0_energy">   -174.57470125 </i>
   </energy>
  </scstep>
  <scstep>
   <time name="diag">   67.89   67.89</time>
   <time name="diis">  111.00  111.00</time>
   <time name="orth">   13.60   13.60</time>
   <time name="total">  235.52  235.52</time>
   <energy>
    <i name="e_fr_energy">   -174.58335157 </i>
    <i name="e_wo_entrp">   -174.55039326 </i>
    <i name="e_0_energy">   -174.57511199 </i>
   </energy>
  </scstep>
  <scstep>
   <time name="diag">   68.33   68.33</time>
   <time name="diis">  105.41  105.41</time>
   <time name="orth">   13.79   13.79</time>
   <time name="total">  231.32  231.32</time>
   <energy>
    <i name="e_fr_energy">   -174.58386998 </i>
    <i name="e_wo_entrp">   -174.55099390 </i>
    <i name="e_0_energy">   -174.57565096 </i>
   </energy>
  </scstep>
  <scstep>
   <time name="diag">   68.75   68.75</time>
   <time name="diis">  103.35  103.35</time>
   <time name="orth">   13.69   13.69</time>
   <time name="total">  229.78  229.78</time>
   <energy>
    <i name="e_fr_energy">   -174.58434924 </i>
    <i name="e_wo_entrp">   -174.55147577 </i>
    <i name="e_0_energy">   -174.57613087 </i>
   </energy>
  </scstep>
  <scstep>
   <time name="diag">   69.09   69.09</time>
   <time name="diis">   89.06   89.06</time>
   <time name="orth">   13.74   13.74</time>
   <time name="total">  215.63  215.63</time>
   <energy>
    <i name="e_fr_energy">   -174.58459933 </i>
    <i name="e_wo_entrp">   -174.55172279 </i>
    <i name="e_0_energy">   -174.57638019 </i>
   </energy>
  </scstep>
  <scstep>
   <time name="diag">   70.05   70.05</time>
   <time name="diis">   87.53   87.53</time>
   <time name="orth">   13.64   13.64</time>
   <time name="total">  214.62  214.63</time>
   <energy>
    <i name="e_fr_energy">   -174.58489725 </i>
    <i name="e_wo_entrp">   -174.55201815 </i>
    <i name="e_0_energy">   -174.57667747 </i>
   </energy>
  </scstep>
  <scstep>
   <time name="diag">   68.94   68.95</time>
   <time name="diis">   84.97   84.97</time>
   <time name="orth">   13.67   13.67</time>
   <time name="total">  211.95  211.96</time>
   <energy>
    <i name="e_fr_energy">   -174.58504850 </i>
    <i name="e_wo_entrp">   -174.55215792 </i>
    <i name="e_0_energy">   -174.57682585 </i>
   </energy>
  </scstep>
  <scstep>
   <time name="diag">   67.98   67.99</time>
   <time name="diis">   81.21   81.21</time>
   <time name="orth">   14.03   14.03</time>
   <time name="total">  207.73  207.74</time>
   <energy>
    <i name="e_fr_energy">   -174.58529575 </i>
    <i name="e_wo_entrp">   -174.55243030 </i>
    <i name="e_0_energy">   -174.57707939 </i>
   </energy>
  </scstep>
  <scstep>
   <time name="diag">   69.64   69.64</time>
   <time name="diis">   77.15   77.15</time>
   <time name="orth">   13.80   13.80</time>
   <time name="total">  204.68  204.69</time>
   <energy>
    <i name="e_fr_energy">   -174.58539589 </i>
    <i name="e_wo_entrp">   -174.55256403 </i>
    <i name="e_0_energy">   -174.57718792 </i>
   </energy>
  </scstep>
  <scstep>
   <time name="diag">   69.30   69.30</time>
   <time name="diis">   93.60   93.60</time>
   <time name="orth">   13.87   13.87</time>
   <time name="total">  221.89  221.90</time>
   <energy>
    <i name="e_fr_energy">   -174.58562864 </i>
    <i name="e_wo_entrp">   -174.55271446 </i>
    <i name="e_0_energy">   -174.57740010 </i>
   </energy>
  </scstep>
  <scstep>
   <time name="diag">   69.12   69.12</time>
   <time name="diis">   80.50   80.50</time>
   <time name="orth">   13.53   13.53</time>
   <time name="total">  207.21  207.22</time>
   <energy>
    <i name="e_fr_energy">   -174.58574089 </i>
    <i name="e_wo_entrp">   -174.55283005 </i>
    <i name="e_0_energy">   -174.57751318 </i>
   </energy>
  </scstep>
  <scstep>
   <time name="diag">   69.86   69.86</time>
   <time name="diis">   77.56   77.56</time>
   <time name="orth">   13.61   13.61</time>
   <time name="total">  175.55  175.55</time>
   <energy>
    <i name="alphaZ">     75.25431677 </i>
    <i name="ewald"> 140446.44887251 </i>
    <i name="hartreedc">-184808.58761972 </i>
    <i name="XCdc">  -1690.59425888 </i>
    <i name="pawpsdc">  46295.38298733 </i>
    <i name="pawaedc"> -42766.11925679 </i>
    <i name="eentropy">     -0.03285638 </i>
    <i name="bandstr">  -2812.84347364 </i>
    <i name="atom">  45086.50549395 </i>
    <i name="e_fr_energy">   -174.58579485 </i>
    <i name="e_wo_entrp">   -174.55293847 </i>
    <i name="e_0_energy">   -174.57758075 </i>
   </energy>
  </scstep>
  <structure>
   <crystal>
    <varray name="basis" >
     <v>      30.00000000       0.00000000       0.00000000 </v>
     <v>       0.00000000      30.00000000       0.00000000 </v>
     <v>       0.00000000       0.00000000      30.00000000 </v>
    </varray>
    <i name="volume">  27000.00000000 </i>
    <varray name="rec_basis" >
     <v>       0.03333333       0.00000000       0.00000000 </v>
     <v>       0.00000000       0.03333333       0.00000000 </v>
     <v>       0.00000000       0.00000000       0.03333333 </v>
    </varray>
   </crystal>
   <varray name="positions" >
    <v>       0.44576020       0.32826710       0.41691983 </v>
    <v>       0.67173288       0.55423978       0.41691983 </v>
    <v>       0.55423980       0.32826710       0.41691983 </v>
    <v>       0.32826712       0.55423978       0.41691983 </v>
    <v>       0.50000000       0.38250690       0.34021317 </v>
    <v>       0.50000000       0.38250690       0.65978680 </v>
    <v>       0.50000000       0.27609440       0.50000000 </v>
    <v>       0.27609443       0.49999998       0.50000000 </v>
    <v>       0.72390557       0.49999998       0.50000000 </v>
    <v>       0.50000000       0.72390555       0.50000000 </v>
    <v>       0.61195280       0.38804720       0.34167483 </v>
    <v>       0.61195280       0.38804720       0.65832513 </v>
    <v>       0.38804722       0.61195278       0.34167483 </v>
    <v>       0.38804722       0.61195278       0.65832513 </v>
    <v>       0.38804720       0.38804720       0.34167483 </v>
    <v>       0.38804720       0.38804720       0.65832513 </v>
    <v>       0.61195278       0.61195278       0.34167483 </v>
    <v>       0.61195278       0.61195278       0.65832513 </v>
    <v>       0.44576020       0.32826710       0.58308023 </v>
    <v>       0.67173288       0.55423978       0.58308023 </v>
    <v>       0.55791699       0.44208301       0.41809300 </v>
    <v>       0.32826705       0.44576024       0.41691983 </v>
    <v>       0.55423973       0.67173293       0.41691983 </v>
    <v>       0.55423980       0.32826710       0.58308023 </v>
    <v>       0.32826712       0.55423978       0.58308023 </v>
    <v>       0.67173295       0.44576024       0.41691983 </v>
    <v>       0.44576027       0.67173293       0.41691983 </v>
    <v>       0.44208301       0.44208301       0.41809300 </v>
    <v>       0.50000000       0.38416601       0.50000000 </v>
    <v>       0.61749315       0.50000005       0.34021317 </v>
    <v>       0.61749315       0.50000005       0.65978680 </v>
    <v>       0.38250685       0.50000005       0.34021317 </v>
    <v>       0.38250685       0.50000005       0.65978680 </v>
    <v>       0.38317830       0.38317830       0.50000000 </v>
    <v>       0.61682172       0.61682172       0.50000000 </v>
    <v>       0.61682170       0.38317830       0.50000000 </v>
    <v>       0.38317828       0.61682172       0.50000000 </v>
    <v>       0.50000000       0.50000000       0.33478917 </v>
    <v>       0.50000000       0.50000000       0.66521087 </v>
    <v>       0.32826705       0.44576024       0.58308023 </v>
    <v>       0.55423973       0.67173293       0.58308023 </v>
    <v>       0.55791699       0.44208301       0.58190703 </v>
    <v>       0.44208298       0.55791702       0.41809300 </v>
    <v>       0.44208301       0.44208301       0.58190703 </v>
    <v>       0.67173295       0.44576024       0.58308023 </v>
    <v>       0.44576027       0.67173293       0.58308023 </v>
    <v>       0.55791702       0.55791702       0.41809300 </v>
    <v>       0.38416599       0.50000002       0.50000000 </v>
    <v>       0.61583401       0.50000002       0.50000000 </v>
    <v>       0.50000000       0.61749319       0.34021317 </v>
    <v>       0.50000000       0.61749319       0.65978680 </v>
    <v>       0.50000000       0.50000000       0.50000000 </v>
    <v>       0.44208298       0.55791702       0.58190703 </v>
    <v>       0.55791702       0.55791702       0.58190703 </v>
    <v>       0.50000000       0.61583404       0.50000000 </v>
    <v>       0.44241610       0.52993250       0.66804257 </v>
    <v>       0.43039677       0.53618023       0.70311767 </v>
   </varray>
  </structure>
  <varray name="forces" >
   <v>       0.69979833       1.11014213       0.28898907 </v>
   <v>      -1.10859660      -0.69856613       0.29014403 </v>
   <v>      -0.69762187       1.10770348       0.29386978 </v>
   <v>       1.11183527      -0.69965464       0.29415018 </v>
   <v>      -0.00889841       0.41092603       1.27889904 </v>
   <v>       0.01857519       0.34016294      -1.29760135 </v>
   <v>      -0.00355651       1.51274173       0.00374229 </v>
   <v>       1.51226093       0.02074666       0.02665050 </v>
   <v>      -1.51324014       0.00409173       0.00104482 </v>
   <v>      -0.00820057      -1.50386389       0.01282800 </v>
   <v>      -0.75190872       0.74853109       1.07687968 </v>
   <v>      -0.76301965       0.76099138      -1.06225156 </v>
   <v>       0.75472357      -0.75545700       1.07148987 </v>
   <v>       0.60160398      -0.44031774      -1.12103302 </v>
   <v>       0.75341712       0.75509540       1.07199406 </v>
   <v>       0.73558090       0.66886296      -1.07913787 </v>
   <v>      -0.75642322      -0.74900776       1.07215689 </v>
   <v>      -0.74516951      -0.74542991      -1.06967984 </v>
   <v>       0.69155726       1.11120808      -0.29676526 </v>
   <v>      -1.10909026      -0.69564268      -0.29804423 </v>
   <v>       0.11341459      -0.11494491      -0.14925483 </v>
   <v>       1.11267236       0.69707706       0.28639546 </v>
   <v>      -0.69314489      -1.10925042       0.27889039 </v>
   <v>      -0.70165531       1.11410335      -0.28812644 </v>
   <v>       1.02262213      -0.71084865      -0.40412508 </v>
   <v>      -1.10659928       0.69597051       0.29190310 </v>
   <v>       0.70238116      -1.11453356       0.29504734 </v>
   <v>      -0.10725757      -0.11208564      -0.16031091 </v>
   <v>       0.00363870      -0.22640149      -0.00637060 </v>
   <v>      -0.40748826       0.00800127       1.27960566 </v>
   <v>      -0.32529340      -0.01263789      -1.28899698 </v>
   <v>       0.41993223      -0.00087379       1.27809017 </v>
   <v>      -0.65234453      -0.74124657      -2.13573124 </v>
   <v>       0.83728803       0.83013401       0.00622651 </v>
   <v>      -0.82820370      -0.83198651       0.00323813 </v>
   <v>      -0.82290765       0.82537681      -0.01190762 </v>
   <v>       0.85132799      -0.83741229       0.00883340 </v>
   <v>      -0.01210458       0.00768668       1.17983248 </v>
   <v>       0.49104897      -0.05862860      -1.61610171 </v>
   <v>       1.10302830       0.70443328      -0.28497773 </v>
   <v>      -0.69686702      -1.09985605      -0.29648896 </v>
   <v>       0.13655829      -0.12908743       0.13671980 </v>
   <v>      -0.11067035       0.11061581      -0.15569798 </v>
   <v>      -0.10676442      -0.24125778       0.04694816 </v>
   <v>      -1.11895813       0.70003705      -0.28892197 </v>
   <v>       0.71954904      -1.08005179      -0.32819758 </v>
   <v>       0.10825627       0.11092604      -0.15422636 </v>
   <v>      -0.23597866      -0.00406512      -0.00118183 </v>
   <v>       0.22323668      -0.00259319       0.00093454 </v>
   <v>       0.00160517      -0.41770089       1.27636871 </v>
   <v>       0.07766822      -0.34416690      -1.30784615 </v>
   <v>      -0.00005682      -0.00187021      -0.02012508 </v>
   <v>      -0.10071822       0.05489813       0.54126393 </v>
   <v>       0.17675244       0.12467228       0.11339049 </v>
   <v>      -0.00821467       0.23289020       0.00816931 </v>
   <v>       3.16667059      -1.96390542      -8.46272974 </v>
   <v>      -2.64605082       2.67531872       9.77113613 </v>
  </varray>
  <varray name="stress" >
   <v>      -6.44924797      -0.00464953      -0.16675231 </v>
   <v>      -0.00464952      -6.55544726       0.19749885 </v>
   <v>      -0.16675230       0.19749881      -6.14764612 </v>
  </varray>
  <energy>
   <i name="e_fr_energy">   -174.58579485 </i>
   <i name="e_wo_entrp">   -174.57758075 </i>
   <i name="e_0_energy">     -0.03285638 </i>
  </energy>
  <time name="totalsc">18586.2818586.89</time>
  <eigenvalues>
   <array>
    <dimension dim="1">band</dimension>
    <dimension dim="2">kpoint</dimension>
    <dimension dim="3">spin</dimension>
    <field>eigene</field>
    <field>occ</field>
    <set>
     <set comment="spin 1">
      <set comment="kpoint 1">
       <r>  -28.7340    1.0000 </r>
       <r>  -13.6034    1.0000 </r>
       <r>  -12.0689    1.0000 </r>
       <r>  -11.5338    1.0000 </r>
       <r>  -10.3470    1.0000 </r>
       <r>   -6.6265    1.0000 </r>
       <r>   -6.5441    1.0000 </r>
       <r>   -6.1756    1.0000 </r>
       <r>   -6.1188    1.0000 </r>
       <r>   -6.1145    1.0000 </r>
       <r>   -6.0192    1.0000 </r>
       <r>   -5.8580    1.0000 </r>
       <r>   -5.8389    1.0000 </r>
       <r>   -5.8059    1.0000 </r>
       <r>   -5.7879    1.0000 </r>
       <r>   -5.7327    1.0000 </r>
       <r>   -5.7023    1.0000 </r>
       <r>   -5.6702    1.0000 </r>
       <r>   -5.6669    1.0000 </r>
       <r>   -5.6629    1.0000 </r>
       <r>   -5.6425    1.0000 </r>
       <r>   -5.6207    1.0000 </r>
       <r>   -5.6102    1.0000 </r>
       <r>   -5.5921    1.0000 </r>
       <r>   -5.5848    1.0000 </r>
       <r>   -5.5803    1.0000 </r>
       <r>   -5.5762    1.0000 </r>
       <r>   -5.5634    1.0000 </r>
       <r>   -5.5498    1.0000 </r>
       <r>   -5.5389    1.0000 </r>
       <r>   -5.5294    1.0000 </r>
       <r>   -5.5155    1.0000 </r>
       <r>   -5.5102    1.0000 </r>
       <r>   -5.5058    1.0000 </r>
       <r>   -5.4991    1.0000 </r>
       <r>   -5.4966    1.0000 </r>
       <r>   -5.4930    1.0000 </r>
       <r>   -5.4842    1.0000 </r>
       <r>   -5.4754    1.0000 </r>
       <r>   -5.4691    1.0000 </r>
       <r>   -5.4641    1.0000 </r>
       <r>   -5.4602    1.0000 </r>
       <r>   -5.4563    1.0000 </r>
       <r>   -5.4515    1.0000 </r>
       <r>   -5.4480    1.0000 </r>
       <r>   -5.4459    1.0000 </r>
       <r>   -5.4333    1.0000 </r>
       <r>   -5.4274    1.0000 </r>
       <r>   -5.4204    1.0000 </r>
       <r>   -5.4125    1.0000 </r>
       <r>   -5.4044    1.0000 </r>
       <r>   -5.3940    1.0000 </r>
       <r>   -5.3924    1.0000 </r>
       <r>   -5.3817    1.0000 </r>
       <r>   -5.3792    1.0000 </r>
       <r>   -5.3718    1.0000 </r>
       <r>   -5.3586    1.0000 </r>
       <r>   -5.3472    1.0000 </r>
       <r>   -5.3393    1.0000 </r>
       <r>   -5.3204    1.0000 </r>
       <r>   -5.3190    1.0000 </r>
       <r>   -5.3072    1.0000 </r>
       <r>   -5.2987    1.0000 </r>
       <r>   -5.2970    1.0000 </r>
       <r>   -5.2917    1.0000 </r>
       <r>   -5.2847    1.0000 </r>
       <r>   -5.2815    1.0000 </r>
       <r>   -5.2799    1.0000 </r>
       <r>   -5.2632    1.0000 </r>
       <r>   -5.2480    1.0000 </r>
       <r>   -5.2333    1.0000 </r>
       <r>   -5.2097    1.0000 </r>
       <r>   -5.2007    1.0000 </r>
       <r>   -5.1954    1.0000 </r>
       <r>   -5.1819    1.0000 </r>
       <r>   -5.1697    1.0000 </r>
       <r>   -5.1638    1.0000 </r>
       <r>   -5.1590    1.0000 </r>
       <r>   -5.1582    1.0000 </r>
       <r>   -5.1512    1.0000 </r>
       <r>   -5.1409    1.0000 </r>
       <r>   -5.1283    1.0000 </r>
       <r>   -5.1252    1.0000 </r>
       <r>   -5.1159    1.0000 </r>
       <r>   -5.1089    1.0000 </r>
       <r>   -5.1026    1.0000 </r>
       <r>   -5.0969    1.0000 </r>
       <r>   -5.0923    1.0000 </r>
       <r>   -5.0889    1.0000 </r>
       <r>   -5.0819    1.0000 </r>
       <r>   -5.0697    1.0000 </r>
       <r>   -5.0613    1.0000 </r>
       <r>   -5.0453    1.0000 </r>
       <r>   -5.0426    1.0000 </r>
       <r>   -5.0359    1.0000 </r>
       <r>   -5.0336    1.0000 </r>
       <r>   -5.0291    1.0000 </r>
       <r>   -5.0269    1.0000 </r>
       <r>   -5.0188    1.0000 </r>
       <r>   -5.0144    1.0000 </r>
       <r>   -5.0102    1.0000 </r>
       <r>   -5.0052    1.0000 </r>
       <r>   -4.9993    1.0000 </r>
       <r>   -4.9938    1.0000 </r>
       <r>   -4.9915    1.0000 </r>
       <r>   -4.9855    1.0000 </r>
       <r>   -4.9817    1.0000 </r>
       <r>   -4.9798    1.0000 </r>
       <r>   -4.9747    1.0000 </r>
       <r>   -4.9730    1.0000 </r>
       <r>   -4.9659    1.0000 </r>
       <r>   -4.9623    1.0000 </r>
       <r>   -4.9554    1.0000 </r>
       <r>   -4.9486    1.0000 </r>
       <r>   -4.9410    1.0000 </r>
       <r>   -4.9350    1.0000 </r>
       <r>   -4.9339    1.0000 </r>
       <r>   -4.9266    1.0000 </r>
       <r>   -4.9184    1.0000 </r>
       <r>   -4.9125    1.0000 </r>
       <r>   -4.9030    1.0000 </r>
       <r>   -4.9016    1.0000 </r>
       <r>   -4.8939    1.0000 </r>
       <r>   -4.8934    1.0000 </r>
       <r>   -4.8847    1.0000 </r>
       <r>   -4.8810    1.0000 </r>
       <r>   -4.8795    1.0000 </r>
       <r>   -4.8648    1.0000 </r>
       <r>   -4.8571    1.0000 </r>
       <r>   -4.8467    1.0000 </r>
       <r>   -4.8373    1.0000 </r>
       <r>   -4.8290    1.0000 </r>
       <r>   -4.8241    1.0000 </r>
       <r>   -4.8185    1.0000 </r>
       <r>   -4.8159    1.0000 </r>
       <r>   -4.8089    1.0000 </r>
       <r>   -4.8056    1.0000 </r>
       <r>   -4.7991    1.0000 </r>
       <r>   -4.7876    0.9999 </r>
       <r>   -4.7808    0.9999 </r>
       <r>   -4.7745    0.9999 </r>
       <r>   -4.7557    0.9999 </r>
       <r>   -4.7439    0.9998 </r>
       <r>   -4.7364    0.9998 </r>
       <r>   -4.7321    0.9997 </r>
       <r>   -4.7254    0.9997 </r>
       <r>   -4.7161    0.9996 </r>
       <r>   -4.7129    0.9996 </r>
       <r>   -4.7111    0.9996 </r>
       <r>   -4.6975    0.9994 </r>
       <r>   -4.6872    0.9993 </r>
       <r>   -4.6837    0.9993 </r>
       <r>   -4.6797    0.9992 </r>
       <r>   -4.6700    0.9990 </r>
       <r>   -4.6629    0.9989 </r>
       <r>   -4.6579    0.9988 </r>
       <r>   -4.6550    0.9987 </r>
       <r>   -4.6530    0.9987 </r>
       <r>   -4.6508    0.9986 </r>
       <r>   -4.6484    0.9986 </r>
       <r>   -4.6408    0.9984 </r>
       <r>   -4.6376    0.9983 </r>
       <r>   -4.6322    0.9981 </r>
       <r>   -4.6307    0.9981 </r>
       <r>   -4.6268    0.9980 </r>
       <r>   -4.6227    0.9978 </r>
       <r>   -4.6213    0.9978 </r>
       <r>   -4.6184    0.9977 </r>
       <r>   -4.6139    0.9976 </r>
       <r>   -4.6091    0.9974 </r>
       <r>   -4.6061    0.9973 </r>
       <r>   -4.6020    0.9971 </r>
       <r>   -4.5915    0.9967 </r>
       <r>   -4.5842    0.9965 </r>
       <r>   -4.5814    0.9964 </r>
       <r>   -4.5752    0.9961 </r>
       <r>   -4.5744    0.9961 </r>
       <r>   -4.5712    0.9960 </r>
       <r>   -4.5670    0.9958 </r>
       <r>   -4.5629    0.9957 </r>
       <r>   -4.5588    0.9956 </r>
       <r>   -4.5509    0.9954 </r>
       <r>   -4.5443    0.9952 </r>
       <r>   -4.5395    0.9951 </r>
       <r>   -4.5350    0.9951 </r>
       <r>   -4.5310    0.9951 </r>
       <r>   -4.5282    0.9951 </r>
       <r>   -4.5271    0.9951 </r>
       <r>   -4.5224    0.9951 </r>
       <r>   -4.5174    0.9952 </r>
       <r>   -4.5056    0.9956 </r>
       <r>   -4.4978    0.9960 </r>
       <r>   -4.4962    0.9961 </r>
       <r>   -4.4876    0.9969 </r>
       <r>   -4.4831    0.9974 </r>
       <r>   -4.4789    0.9979 </r>
       <r>   -4.4732    0.9987 </r>
       <r>   -4.4648    1.0001 </r>
       <r>   -4.4630    1.0004 </r>
       <r>   -4.4592    1.0012 </r>
       <r>   -4.4577    1.0015 </r>
       <r>   -4.4505    1.0032 </r>
       <r>   -4.4459    1.0044 </r>
       <r>   -4.4415    1.0056 </r>
       <r>   -4.4382    1.0066 </r>
       <r>   -4.4352    1.0075 </r>
       <r>   -4.4322    1.0085 </r>
       <r>   -4.4279    1.0099 </r>
       <r>   -4.4230    1.0117 </r>
       <r>   -4.4180    1.0136 </r>
       <r>   -4.4119    1.0161 </r>
       <r>   -4.4012    1.0207 </r>
       <r>   -4.3979    1.0222 </r>
       <r>   -4.3951    1.0235 </r>
       <r>   -4.3914    1.0253 </r>
       <r>   -4.3869    1.0274 </r>
       <r>   -4.3839    1.0289 </r>
       <r>   -4.3811    1.0302 </r>
       <r>   -4.3778    1.0318 </r>
       <r>   -4.3774    1.0320 </r>
       <r>   -4.3684    1.0363 </r>
       <r>   -4.3593    1.0404 </r>
       <r>   -4.3455    1.0459 </r>
       <r>   -4.3430    1.0468 </r>
       <r>   -4.3336    1.0495 </r>
       <r>   -4.3260    1.0510 </r>
       <r>   -4.3204    1.0515 </r>
       <r>   -4.3153    1.0516 </r>
       <r>   -4.3141    1.0516 </r>
       <r>   -4.3125    1.0515 </r>
       <r>   -4.3098    1.0512 </r>
       <r>   -4.3087    1.0510 </r>
       <r>   -4.3056    1.0505 </r>
       <r>   -4.3054    1.0504 </r>
       <r>   -4.3028    1.0498 </r>
       <r>   -4.3012    1.0493 </r>
       <r>   -4.2987    1.0484 </r>
       <r>   -4.2954    1.0471 </r>
       <r>   -4.2935    1.0462 </r>
       <r>   -4.2906    1.0447 </r>
       <r>   -4.2824    1.0391 </r>
       <r>   -4.2785    1.0358 </r>
       <r>   -4.2756    1.0330 </r>
       <r>   -4.2739    1.0313 </r>
       <r>   -4.2715    1.0287 </r>
       <r>   -4.2686    1.0253 </r>
       <r>   -4.2641    1.0196 </r>
       <r>   -4.2603    1.0140 </r>
       <r>   -4.2590    1.0121 </r>
       <r>   -4.2522    1.0007 </r>
       <r>   -4.2445    0.9859 </r>
       <r>   -4.2442    0.9852 </r>
       <r>   -4.2413    0.9791 </r>
       <r>   -4.2347    0.9638 </r>
       <r>   -4.2307    0.9538 </r>
       <r>   -4.2289    0.9489 </r>
       <r>   -4.2260    0.9410 </r>
       <r>   -4.2246    0.9370 </r>
       <r>   -4.2216    0.9283 </r>
       <r>   -4.2209    0.9264 </r>
       <r>   -4.2175    0.9160 </r>
       <r>   -4.2147    0.9071 </r>
       <r>   -4.2135    0.9033 </r>
       <r>   -4.2130    0.9016 </r>
       <r>   -4.2112    0.8955 </r>
       <r>   -4.2028    0.8663 </r>
       <r>   -4.2009    0.8592 </r>
       <r>   -4.1967    0.8431 </r>
       <r>   -4.1948    0.8356 </r>
       <r>   -4.1919    0.8239 </r>
       <r>   -4.1909    0.8199 </r>
       <r>   -4.1816    0.7806 </r>
       <r>   -4.1753    0.7524 </r>
       <r>   -4.1683    0.7198 </r>
       <r>   -4.1649    0.7038 </r>
       <r>   -4.1634    0.6966 </r>
       <r>   -4.1562    0.6610 </r>
       <r>   -4.1506    0.6326 </r>
       <r>   -4.1485    0.6222 </r>
       <r>   -4.1443    0.6004 </r>
       <r>   -4.1373    0.5640 </r>
       <r>   -4.1331    0.5420 </r>
       <r>   -4.1224    0.4855 </r>
       <r>   -4.1113    0.4268 </r>
       <r>   -4.1061    0.3995 </r>
       <r>   -4.1032    0.3847 </r>
       <r>   -4.0951    0.3435 </r>
       <r>   -4.0862    0.2998 </r>
       <r>   -3.9652   -0.0412 </r>
       <r>   -3.9212   -0.0504 </r>
       <r>   -3.8880   -0.0390 </r>
       <r>   -3.8045   -0.0044 </r>
       <r>   -3.7929   -0.0016 </r>
       <r>   -3.6959    0.0045 </r>
       <r>   -3.4804    0.0001 </r>
       <r>   -3.4614    0.0001 </r>
       <r>   -3.2150    0.0000 </r>
       <r>   -3.0508    0.0000 </r>
       <r>   -3.0382    0.0000 </r>
       <r>   -3.0288    0.0000 </r>
       <r>   -3.0083    0.0000 </r>
       <r>   -2.9929    0.0000 </r>
       <r>   -2.9689    0.0000 </r>
       <r>   -2.9182    0.0000 </r>
       <r>   -2.7818    0.0000 </r>
       <r>   -2.5124    0.0000 </r>
       <r>   -2.4995    0.0000 </r>
       <r>   -2.3899    0.0000 </r>
       <r>   -2.2637    0.0000 </r>
       <r>   -2.1398    0.0000 </r>
       <r>   -2.0988    0.0000 </r>
       <r>   -2.0310    0.0000 </r>
       <r>   -1.9622    0.0000 </r>
       <r>   -1.9288    0.0000 </r>
       <r>   -1.8704    0.0000 </r>
       <r>   -1.8359    0.0000 </r>
       <r>   -1.8002    0.0000 </r>
       <r>   -1.7666    0.0000 </r>
       <r>   -1.6753    0.0000 </r>
       <r>   -1.6131    0.0000 </r>
       <r>   -1.5662    0.0000 </r>
       <r>   -1.5222    0.0000 </r>
       <r>   -1.4445    0.0000 </r>
       <r>   -1.3980    0.0000 </r>
       <r>   -1.2642    0.0000 </r>
       <r>   -1.1764    0.0000 </r>
       <r>   -1.0704    0.0000 </r>
       <r>   -1.0039    0.0000 </r>
       <r>   -0.9545    0.0000 </r>
       <r>   -0.9522    0.0000 </r>
       <r>   -0.9116    0.0000 </r>
       <r>   -0.8995    0.0000 </r>
       <r>   -0.8506    0.0000 </r>
       <r>   -0.8008    0.0000 </r>
       <r>   -0.7701    0.0000 </r>
       <r>   -0.6035    0.0000 </r>
      </set>
     </set>
    </set>
   </array>
  </eigenvalues>
  <separator name="orbital magnetization" >
   <v name="MAGDIPOLOUT">      0.00000000      0.00000000      0.00000000</v>
  </separator>
  <dos>
   <i name="efermi">     -4.12518124 </i>
   <total>
    <array>
     <dimension dim="1">gridpoints</dimension>
     <dimension dim="2">spin</dimension>
     <field>energy</field>
     <field>total</field>
     <field>integrated</field>
     <set>
      <set comment="spin 1">
       <r>   -30.7340     0.0000     0.0000 </r>
       <r>   -30.6269     0.0000     0.0000 </r>
       <r>   -30.5198     0.0000     0.0000 </r>
       <r>   -30.4127     0.0000     0.0000 </r>
       <r>   -30.3056     0.0000     0.0000 </r>
       <r>   -30.1985     0.0000     0.0000 </r>
       <r>   -30.0914     0.0000     0.0000 </r>
       <r>   -29.9843     0.0000     0.0000 </r>
       <r>   -29.8772     0.0000     0.0000 </r>
       <r>   -29.7701     0.0000     0.0000 </r>
       <r>   -29.6630     0.0000     0.0000 </r>
       <r>   -29.5559     0.0000     0.0000 </r>
       <r>   -29.4488     0.0002     0.0000 </r>
       <r>   -29.3416     0.0044     0.0005 </r>
       <r>   -29.2345     0.0338     0.0041 </r>
       <r>   -29.1274     0.0520     0.0097 </r>
       <r>   -29.0203    -0.3938    -0.0325 </r>
       <r>   -28.9132    -0.6339    -0.1004 </r>
       <r>   -28.8061     3.8192     0.3087 </r>
       <r>   -28.6990     9.8244     1.3609 </r>
       <r>   -28.5919     6.4082     2.0472 </r>
       <r>   -28.4848     0.1844     2.0669 </r>
       <r>   -28.3777    -0.6705     1.9951 </r>
       <r>   -28.2706    -0.0175     1.9933 </r>
       <r>   -28.1635     0.0523     1.9989 </r>
       <r>   -28.0564     0.0100     1.9999 </r>
       <r>   -27.9493     0.0007     2.0000 </r>
       <r>   -27.8422     0.0000     2.0000 </r>
       <r>   -27.7351     0.0000     2.0000 </r>
       <r>   -27.6280     0.0000     2.0000 </r>
       <r>   -27.5209     0.0000     2.0000 </r>
       <r>   -27.4138     0.0000     2.0000 </r>
       <r>   -27.3067     0.0000     2.0000 </r>
       <r>   -27.1996     0.0000     2.0000 </r>
       <r>   -27.0925     0.0000     2.0000 </r>
       <r>   -26.9854     0.0000     2.0000 </r>
       <r>   -26.8783     0.0000     2.0000 </r>
       <r>   -26.7712     0.0000     2.0000 </r>
       <r>   -26.6641     0.0000     2.0000 </r>
       <r>   -26.5570     0.0000     2.0000 </r>
       <r>   -26.4499     0.0000     2.0000 </r>
       <r>   -26.3428     0.0000     2.0000 </r>
       <r>   -26.2357     0.0000     2.0000 </r>
       <r>   -26.1286     0.0000     2.0000 </r>
       <r>   -26.0215     0.0000     2.0000 </r>
       <r>   -25.9144     0.0000     2.0000 </r>
       <r>   -25.8073     0.0000     2.0000 </r>
       <r>   -25.7002     0.0000     2.0000 </r>
       <r>   -25.5931     0.0000     2.0000 </r>
       <r>   -25.4860     0.0000     2.0000 </r>
       <r>   -25.3789     0.0000     2.0000 </r>
       <r>   -25.2718     0.0000     2.0000 </r>
       <r>   -25.1647     0.0000     2.0000 </r>
       <r>   -25.0576     0.0000     2.0000 </r>
       <r>   -24.9505     0.0000     2.0000 </r>
       <r>   -24.8434     0.0000     2.0000 </r>
       <r>   -24.7363     0.0000     2.0000 </r>
       <r>   -24.6292     0.0000     2.0000 </r>
       <r>   -24.5221     0.0000     2.0000 </r>
       <r>   -24.4150     0.0000     2.0000 </r>
       <r>   -24.3079     0.0000     2.0000 </r>
       <r>   -24.2008     0.0000     2.0000 </r>
       <r>   -24.0937     0.0000     2.0000 </r>
       <r>   -23.9866     0.0000     2.0000 </r>
       <r>   -23.8795     0.0000     2.0000 </r>
       <r>   -23.7724     0.0000     2.0000 </r>
       <r>   -23.6653     0.0000     2.0000 </r>
       <r>   -23.5582     0.0000     2.0000 </r>
       <r>   -23.4511     0.0000     2.0000 </r>
       <r>   -23.3440     0.0000     2.0000 </r>
       <r>   -23.2369     0.0000     2.0000 </r>
       <r>   -23.1298     0.0000     2.0000 </r>
       <r>   -23.0227     0.0000     2.0000 </r>
       <r>   -22.9156     0.0000     2.0000 </r>
       <r>   -22.8085     0.0000     2.0000 </r>
       <r>   -22.7014     0.0000     2.0000 </r>
       <r>   -22.5943     0.0000     2.0000 </r>
       <r>   -22.4872     0.0000     2.0000 </r>
       <r>   -22.3801     0.0000     2.0000 </r>
       <r>   -22.2730     0.0000     2.0000 </r>
       <r>   -22.1659     0.0000     2.0000 </r>
       <r>   -22.0588     0.0000     2.0000 </r>
       <r>   -21.9516     0.0000     2.0000 </r>
       <r>   -21.8445     0.0000     2.0000 </r>
       <r>   -21.7374     0.0000     2.0000 </r>
       <r>   -21.6303     0.0000     2.0000 </r>
       <r>   -21.5232     0.0000     2.0000 </r>
       <r>   -21.4161     0.0000     2.0000 </r>
       <r>   -21.3090     0.0000     2.0000 </r>
       <r>   -21.2019     0.0000     2.0000 </r>
       <r>   -21.0948     0.0000     2.0000 </r>
       <r>   -20.9877     0.0000     2.0000 </r>
       <r>   -20.8806     0.0000     2.0000 </r>
       <r>   -20.7735     0.0000     2.0000 </r>
       <r>   -20.6664     0.0000     2.0000 </r>
       <r>   -20.5593     0.0000     2.0000 </r>
       <r>   -20.4522     0.0000     2.0000 </r>
       <r>   -20.3451     0.0000     2.0000 </r>
       <r>   -20.2380     0.0000     2.0000 </r>
       <r>   -20.1309     0.0000     2.0000 </r>
       <r>   -20.0238     0.0000     2.0000 </r>
       <r>   -19.9167     0.0000     2.0000 </r>
       <r>   -19.8096     0.0000     2.0000 </r>
       <r>   -19.7025     0.0000     2.0000 </r>
       <r>   -19.5954     0.0000     2.0000 </r>
       <r>   -19.4883     0.0000     2.0000 </r>
       <r>   -19.3812     0.0000     2.0000 </r>
       <r>   -19.2741     0.0000     2.0000 </r>
       <r>   -19.1670     0.0000     2.0000 </r>
       <r>   -19.0599     0.0000     2.0000 </r>
       <r>   -18.9528     0.0000     2.0000 </r>
       <r>   -18.8457     0.0000     2.0000 </r>
       <r>   -18.7386     0.0000     2.0000 </r>
       <r>   -18.6315     0.0000     2.0000 </r>
       <r>   -18.5244     0.0000     2.0000 </r>
       <r>   -18.4173     0.0000     2.0000 </r>
       <r>   -18.3102     0.0000     2.0000 </r>
       <r>   -18.2031     0.0000     2.0000 </r>
       <r>   -18.0960     0.0000     2.0000 </r>
       <r>   -17.9889     0.0000     2.0000 </r>
       <r>   -17.8818     0.0000     2.0000 </r>
       <r>   -17.7747     0.0000     2.0000 </r>
       <r>   -17.6676     0.0000     2.0000 </r>
       <r>   -17.5605     0.0000     2.0000 </r>
       <r>   -17.4534     0.0000     2.0000 </r>
       <r>   -17.3463     0.0000     2.0000 </r>
       <r>   -17.2392     0.0000     2.0000 </r>
       <r>   -17.1321     0.0000     2.0000 </r>
       <r>   -17.0250     0.0000     2.0000 </r>
       <r>   -16.9179     0.0000     2.0000 </r>
       <r>   -16.8108     0.0000     2.0000 </r>
       <r>   -16.7037     0.0000     2.0000 </r>
       <r>   -16.5966     0.0000     2.0000 </r>
       <r>   -16.4895     0.0000     2.0000 </r>
       <r>   -16.3824     0.0000     2.0000 </r>
       <r>   -16.2753     0.0000     2.0000 </r>
       <r>   -16.1682     0.0000     2.0000 </r>
       <r>   -16.0611     0.0000     2.0000 </r>
       <r>   -15.9540     0.0000     2.0000 </r>
       <r>   -15.8469     0.0000     2.0000 </r>
       <r>   -15.7398     0.0000     2.0000 </r>
       <r>   -15.6327     0.0000     2.0000 </r>
       <r>   -15.5256     0.0000     2.0000 </r>
       <r>   -15.4185     0.0000     2.0000 </r>
       <r>   -15.3114     0.0000     2.0000 </r>
       <r>   -15.2043     0.0000     2.0000 </r>
       <r>   -15.0972     0.0000     2.0000 </r>
       <r>   -14.9901     0.0000     2.0000 </r>
       <r>   -14.8830     0.0000     2.0000 </r>
       <r>   -14.7759     0.0000     2.0000 </r>
       <r>   -14.6688     0.0000     2.0000 </r>
       <r>   -14.5616     0.0000     2.0000 </r>
       <r>   -14.4545     0.0000     2.0000 </r>
       <r>   -14.3474     0.0001     2.0000 </r>
       <r>   -14.2403     0.0022     2.0002 </r>
       <r>   -14.1332     0.0214     2.0025 </r>
       <r>   -14.0261     0.0643     2.0094 </r>
       <r>   -13.9190    -0.1962     1.9884 </r>
       <r>   -13.8119    -0.8156     1.9011 </r>
       <r>   -13.7048     1.9919     2.1144 </r>
       <r>   -13.5977     8.8263     3.0597 </r>
       <r>   -13.4906     8.2471     3.9430 </r>
       <r>   -13.3835     1.3934     4.0922 </r>
       <r>   -13.2764    -0.8088     4.0056 </r>
       <r>   -13.1693    -0.1344     3.9912 </r>
       <r>   -13.0622     0.0631     3.9979 </r>
       <r>   -12.9551     0.0175     3.9998 </r>
       <r>   -12.8480     0.0016     4.0000 </r>
       <r>   -12.7409     0.0009     4.0001 </r>
       <r>   -12.6338     0.0112     4.0013 </r>
       <r>   -12.5267     0.0549     4.0072 </r>
       <r>   -12.4196    -0.0349     4.0034 </r>
       <r>   -12.3125    -0.7061     3.9278 </r>
       <r>   -12.2054     0.3749     3.9680 </r>
       <r>   -12.0983     6.7947     4.6957 </r>
       <r>   -11.9912     9.7533     5.7403 </r>
       <r>   -11.8841     3.4123     6.1057 </r>
       <r>   -11.7770    -1.4031     5.9555 </r>
       <r>   -11.6699     0.0334     5.9590 </r>
       <r>   -11.5628     6.8630     6.6941 </r>
       <r>   -11.4557     9.7206     7.7352 </r>
       <r>   -11.3486     3.4296     8.1025 </r>
       <r>   -11.2415    -0.6980     8.0277 </r>
       <r>   -11.1344    -0.3505     7.9902 </r>
       <r>   -11.0273     0.0574     7.9963 </r>
       <r>   -10.9202     0.0404     8.0007 </r>
       <r>   -10.8131     0.0548     8.0065 </r>
       <r>   -10.7060    -0.0093     8.0055 </r>
       <r>   -10.5989    -0.6517     7.9357 </r>
       <r>   -10.4918     0.0966     7.9461 </r>
       <r>   -10.3847     6.2181     8.6120 </r>
       <r>   -10.2776     9.8755     9.6697 </r>
       <r>   -10.1705     4.0074    10.0989 </r>
       <r>   -10.0634    -0.5982    10.0348 </r>
       <r>    -9.9563    -0.4146     9.9904 </r>
       <r>    -9.8492     0.0493     9.9957 </r>
       <r>    -9.7421     0.0351     9.9995 </r>
       <r>    -9.6350     0.0047    10.0000 </r>
       <r>    -9.5279     0.0003    10.0000 </r>
       <r>    -9.4208     0.0000    10.0000 </r>
       <r>    -9.3137     0.0000    10.0000 </r>
       <r>    -9.2066     0.0000    10.0000 </r>
       <r>    -9.0995     0.0000    10.0000 </r>
       <r>    -8.9924     0.0000    10.0000 </r>
       <r>    -8.8853     0.0000    10.0000 </r>
       <r>    -8.7782     0.0000    10.0000 </r>
       <r>    -8.6711     0.0000    10.0000 </r>
       <r>    -8.5640     0.0000    10.0000 </r>
       <r>    -8.4569     0.0000    10.0000 </r>
       <r>    -8.3498     0.0000    10.0000 </r>
       <r>    -8.2427     0.0000    10.0000 </r>
       <r>    -8.1356     0.0000    10.0000 </r>
       <r>    -8.0285     0.0000    10.0000 </r>
       <r>    -7.9214     0.0000    10.0000 </r>
       <r>    -7.8143     0.0000    10.0000 </r>
       <r>    -7.7072     0.0000    10.0000 </r>
       <r>    -7.6001     0.0000    10.0000 </r>
       <r>    -7.4930     0.0000    10.0000 </r>
       <r>    -7.3859     0.0001    10.0000 </r>
       <r>    -7.2788     0.0016    10.0002 </r>
       <r>    -7.1716     0.0190    10.0022 </r>
       <r>    -7.0645     0.0872    10.0116 </r>
       <r>    -6.9574    -0.0515    10.0060 </r>
       <r>    -6.8503    -1.0524     9.8933 </r>
       <r>    -6.7432     0.4215     9.9385 </r>
       <r>    -6.6361    10.6711    11.0814 </r>
       <r>    -6.5290    18.3747    13.0493 </r>
       <r>    -6.4219     8.7931    13.9911 </r>
       <r>    -6.3148    -1.3135    13.8504 </r>
       <r>    -6.2077    10.3443    14.9583 </r>
       <r>    -6.1006    30.2595    18.1991 </r>
       <r>    -5.9935    26.9480    21.0853 </r>
       <r>    -5.8864    20.9327    23.3272 </r>
       <r>    -5.7793    40.0312    27.6146 </r>
       <r>    -5.6722    82.7499    36.4772 </r>
       <r>    -5.5651   170.2400    54.7102 </r>
       <r>    -5.4580   269.1026    83.5315 </r>
       <r>    -5.3509   281.8726   113.7204 </r>
       <r>    -5.2438   226.5128   137.9803 </r>
       <r>    -5.1367   227.2068   162.3145 </r>
       <r>    -5.0296   310.5736   195.5773 </r>
       <r>    -4.9225   359.2693   234.0556 </r>
       <r>    -4.8154   310.8859   267.3519 </r>
       <r>    -4.7083   295.9256   299.0460 </r>
       <r>    -4.6012   376.8974   339.4123 </r>
       <r>    -4.4941   420.2751   384.4243 </r>
       <r>    -4.3870   430.9797   430.5829 </r>
       <r>    -4.2799   516.5361   485.9046 </r>
       <r>    -4.1728   524.0785   542.0342 </r>
       <r>    -4.0657   294.1363   573.5366 </r>
       <r>    -3.9586    63.0987   580.2946 </r>
       <r>    -3.8515    16.7164   582.0850 </r>
       <r>    -3.7444    31.2551   585.4324 </r>
       <r>    -3.6373    20.1408   587.5895 </r>
       <r>    -3.5302    13.1116   588.9938 </r>
       <r>    -3.4231    18.1319   590.9358 </r>
       <r>    -3.3160    10.9293   592.1063 </r>
       <r>    -3.2089     4.6091   592.5999 </r>
       <r>    -3.1018    24.2981   595.2023 </r>
       <r>    -2.9947    58.6241   601.4810 </r>
       <r>    -2.8876    54.1097   607.2763 </r>
       <r>    -2.7805    20.0821   609.4271 </r>
       <r>    -2.6734     3.5337   609.8055 </r>
       <r>    -2.5663     8.8943   610.7581 </r>
       <r>    -2.4592    22.6011   613.1788 </r>
       <r>    -2.3521    22.3777   615.5754 </r>
       <r>    -2.2450    15.9854   617.2875 </r>
       <r>    -2.1379    20.6826   619.5026 </r>
       <r>    -2.0308    30.8115   622.8026 </r>
       <r>    -1.9237    40.0277   627.0896 </r>
       <r>    -1.8166    45.6015   631.9736 </r>
       <r>    -1.7095    39.4581   636.1996 </r>
       <r>    -1.6024    33.8455   639.8245 </r>
       <r>    -1.4953    35.4445   643.6207 </r>
       <r>    -1.3882    29.8489   646.8175 </r>
       <r>    -1.2811    19.8615   648.9447 </r>
       <r>    -1.1740    16.3298   650.6937 </r>
       <r>    -1.0669    23.4798   653.2084 </r>
       <r>    -0.9598    46.1999   658.1565 </r>
       <r>    -0.8527    60.1552   664.5992 </r>
       <r>    -0.7456    41.8311   669.0794 </r>
       <r>    -0.6385    17.4162   670.9447 </r>
       <r>    -0.5314     7.8153   671.7817 </r>
       <r>    -0.4243     2.6323   672.0636 </r>
       <r>    -0.3172    -0.4518   672.0152 </r>
       <r>    -0.2101    -0.2559   671.9878 </r>
       <r>    -0.1030     0.0738   671.9957 </r>
       <r>     0.0041     0.0353   671.9995 </r>
       <r>     0.1112     0.0045   672.0000 </r>
       <r>     0.2184     0.0002   672.0000 </r>
       <r>     0.3255     0.0000   672.0000 </r>
       <r>     0.4326     0.0000   672.0000 </r>
       <r>     0.5397     0.0000   672.0000 </r>
       <r>     0.6468     0.0000   672.0000 </r>
       <r>     0.7539     0.0000   672.0000 </r>
       <r>     0.8610     0.0000   672.0000 </r>
       <r>     0.9681     0.0000   672.0000 </r>
       <r>     1.0752     0.0000   672.0000 </r>
       <r>     1.1823     0.0000   672.0000 </r>
       <r>     1.2894     0.0000   672.0000 </r>
       <r>     1.3965     0.0000   672.0000 </r>
      </set>
     </set>
    </array>
   </total>
  </dos>
 </calculation>
 <structure name="finalpos" >
  <crystal>
   <varray name="basis" >
    <v>      30.00000000       0.00000000       0.00000000 </v>
    <v>       0.00000000      30.00000000       0.00000000 </v>
    <v>       0.00000000       0.00000000      30.00000000 </v>
   </varray>
   <i name="volume">  27000.00000000 </i>
   <varray name="rec_basis" >
    <v>       0.03333333       0.00000000       0.00000000 </v>
    <v>       0.00000000       0.03333333       0.00000000 </v>
    <v>       0.00000000       0.00000000       0.03333333 </v>
   </varray>
  </crystal>
  <varray name="positions" >
   <v>       0.44576020       0.32826710       0.41691983 </v>
   <v>       0.67173288       0.55423978       0.41691983 </v>
   <v>       0.55423980       0.32826710       0.41691983 </v>
   <v>       0.32826712       0.55423978       0.41691983 </v>
   <v>       0.50000000       0.38250690       0.34021317 </v>
   <v>       0.50000000       0.38250690       0.65978680 </v>
   <v>       0.50000000       0.27609440       0.50000000 </v>
   <v>       0.27609443       0.49999998       0.50000000 </v>
   <v>       0.72390557       0.49999998       0.50000000 </v>
   <v>       0.50000000       0.72390555       0.50000000 </v>
   <v>       0.61195280       0.38804720       0.34167483 </v>
   <v>       0.61195280       0.38804720       0.65832513 </v>
   <v>       0.38804722       0.61195278       0.34167483 </v>
   <v>       0.38804722       0.61195278       0.65832513 </v>
   <v>       0.38804720       0.38804720       0.34167483 </v>
   <v>       0.38804720       0.38804720       0.65832513 </v>
   <v>       0.61195278       0.61195278       0.34167483 </v>
   <v>       0.61195278       0.61195278       0.65832513 </v>
   <v>       0.44576020       0.32826710       0.58308023 </v>
   <v>       0.67173288       0.55423978       0.58308023 </v>
   <v>       0.55791699       0.44208301       0.41809300 </v>
   <v>       0.32826705       0.44576024       0.41691983 </v>
   <v>       0.55423973       0.67173293       0.41691983 </v>
   <v>       0.55423980       0.32826710       0.58308023 </v>
   <v>       0.32826712       0.55423978       0.58308023 </v>
   <v>       0.67173295       0.44576024       0.41691983 </v>
   <v>       0.44576027       0.67173293       0.41691983 </v>
   <v>       0.44208301       0.44208301       0.41809300 </v>
   <v>       0.50000000       0.38416601       0.50000000 </v>
   <v>       0.61749315       0.50000005       0.34021317 </v>
   <v>       0.61749315       0.50000005       0.65978680 </v>
   <v>       0.38250685       0.50000005       0.34021317 </v>
   <v>       0.38250685       0.50000005       0.65978680 </v>
   <v>       0.38317830       0.38317830       0.50000000 </v>
   <v>       0.61682172       0.61682172       0.50000000 </v>
   <v>       0.61682170       0.38317830       0.50000000 </v>
   <v>       0.38317828       0.61682172       0.50000000 </v>
   <v>       0.50000000       0.50000000       0.33478917 </v>
   <v>       0.50000000       0.50000000       0.66521087 </v>
   <v>       0.32826705       0.44576024       0.58308023 </v>
   <v>       0.55423973       0.67173293       0.58308023 </v>
   <v>       0.55791699       0.44208301       0.58190703 </v>
   <v>       0.44208298       0.55791702       0.41809300 </v>
   <v>       0.44208301       0.44208301       0.58190703 </v>
   <v>       0.67173295       0.44576024       0.58308023 </v>
   <v>       0.44576027       0.67173293       0.58308023 </v>
   <v>       0.55791702       0.55791702       0.41809300 </v>
   <v>       0.38416599       0.50000002       0.50000000 </v>
   <v>       0.61583401       0.50000002       0.50000000 </v>
   <v>       0.50000000       0.61749319       0.34021317 </v>
   <v>       0.50000000       0.61749319       0.65978680 </v>
   <v>       0.50000000       0.50000000       0.50000000 </v>
   <v>       0.44208298       0.55791702       0.58190703 </v>
   <v>       0.55791702       0.55791702       0.58190703 </v>
   <v>       0.50000000       0.61583404       0.50000000 </v>
   <v>       0.44241610       0.52993250       0.66804257 </v>
   <v>       0.43039677       0.53618023       0.70311767 </v>
  </varray>
  <varray name="selective"  type="logical" >
   <v type="logical" >  F  F  F </v>
   <v type="logical" >  F  F  F </v>
   <v type="logical" >  F  F  F </v>
   <v type="logical" >  F  F  F </v>
   <v type="logical" >  F  F  F </v>
   <v type="logical" >  F  F  F </v>
   <v type="logical" >  F  F  F </v>
   <v type="logical" >  F  F  F </v>
   <v type="logical" >  F  F  F </v>
   <v type="logical" >  F  F  F </v>
   <v type="logical" >  F  F  F </v>
   <v type="logical" >  F  F  F </v>
   <v type="logical" >  F  F  F </v>
   <v type="logical" >  F  F  F </v>
   <v type="logical" >  F  F  F </v>
   <v type="logical" >  F  F  F </v>
   <v type="logical" >  F  F  F </v>
   <v type="logical" >  F  F  F </v>
   <v type="logical" >  F  F  F </v>
   <v type="logical" >  F  F  F </v>
   <v type="logical" >  F  F  F </v>
   <v type="logical" >  F  F  F </v>
   <v type="logical" >  F  F  F </v>
   <v type="logical" >  F  F  F </v>
   <v type="logical" >  F  F  F </v>
   <v type="logical" >  F  F  F </v>
   <v type="logical" >  F  F  F </v>
   <v type="logical" >  F  F  F </v>
   <v type="logical" >  F  F  F </v>
   <v type="logical" >  F  F  F </v>
   <v type="logical" >  F  F  F </v>
   <v type="logical" >  F  F  F </v>
   <v type="logical" >  F  F  F </v>
   <v type="logical" >  F  F  F </v>
   <v type="logical" >  F  F  F </v>
   <v type="logical" >  F  F  F </v>
   <v type="logical" >  F  F  F </v>
   <v type="logical" >  F  F  F </v>
   <v type="logical" >  F  F  F </v>
   <v type="logical" >  F  F  F </v>
   <v type="logical" >  F  F  F </v>
   <v type="logical" >  F  F  F </v>
   <v type="logical" >  F  F  F </v>
   <v type="logical" >  F  F  F </v>
   <v type="logical" >  F  F  F </v>
   <v type="logical" >  F  F  F </v>
   <v type="logical" >  F  F  F </v>
   <v type="logical" >  F  F  F </v>
   <v type="logical" >  F  F  F </v>
   <v type="logical" >  F  F  F </v>
   <v type="logical" >  F  F  F </v>
   <v type="logical" >  F  F  F </v>
   <v type="logical" >  F  F  F </v>
   <v type="logical" >  F  F  F </v>
   <v type="logical" >  F  F  F </v>
   <v type="logical" >  F  F  F </v>
   <v type="logical" >  F  F  F </v>
  </varray>
  <nose>
   <v>      -3.00000000       0.00000000       0.00010000       0.00010000 </v>
  </nose>
 </structure>
</modeling>
