<?xml version="1.0" encoding="ISO-8859-1"?>
<modeling>
 <generator>
  <i name="program" type="string">vasp </i>
  <i name="version" type="string">5.4.4.18Apr17-6-g9f103f2a35  </i>
  <i name="subversion" type="string">(build Sep 03 2018 23:53:05) complex            parallel </i>
  <i name="platform" type="string">LinuxIFC </i>
  <i name="date" type="string">2021 11 26 </i>
  <i name="time" type="string">07:45:23 </i>
 </generator>
 <incar>
  <i type="string" name="SYSTEM"> 6_Pd100_top_free_z(O)</i>
  <i type="int" name="ISTART">     0</i>
  <i type="string" name="PREC">normal   			! encut=max(enmax), ngx,y,z</i>
  <i type="string" name="ALGO"> Fast     			! Mix RMM-DIIS and Dav</i>
  <i type="logical" name="ADDGRID"> F  </i>
  <i type="int" name="ISPIN">     1</i>
  <i type="int" name="ICHARG">     2</i>
  <i type="int" name="NELM">   100</i>
  <i type="int" name="NELMIN">     6</i>
  <i type="int" name="IBRION">     2</i>
  <i name="EDIFF">      0.00010000</i>
  <i name="EDIFFG">     -0.05000000</i>
  <i type="int" name="NSW">     0</i>
  <i type="int" name="ISIF">     2</i>
  <i type="int" name="ISYM">     2</i>
  <i name="ENCUT">    400.00000000</i>
  <i type="string" name="LREAL"> Auto     			! Auto or A projection done</i>
  <i type="int" name="ISMEAR">     2</i>
  <i name="SIGMA">      0.20000000</i>
  <i type="logical" name="LWAVE"> F  </i>
  <i type="logical" name="LCHARG"> F  </i>
  <v type="int" name="KPOINT_BSE">    -1     0     0     0</v>
  <i type="int" name="MAXMEM"> 10000</i>
  <i type="int" name="NELM">   100</i>
  <i type="string" name="GGA"> RP         			! Revised PBE</i>
 </incar>
 <structure name="primitive_cell" >
  <crystal>
   <varray name="basis" >
    <v>      30.00000000       0.00000000       0.00000000 </v>
    <v>       0.00000000      30.00000000       0.00000000 </v>
    <v>       0.00000000       0.00000000      30.00000000 </v>
   </varray>
   <i name="volume">  27000.00000000 </i>
   <varray name="rec_basis" >
    <v>       0.03333333       0.00000000       0.00000000 </v>
    <v>       0.00000000       0.03333333       0.00000000 </v>
    <v>       0.00000000       0.00000000       0.03333333 </v>
   </varray>
  </crystal>
  <varray name="positions" >
   <v>       0.44576020       0.32826710       0.41691983 </v>
   <v>      -0.44576020       0.32826710       0.41691983 </v>
   <v>      -0.50000000       0.38250690       0.34021317 </v>
   <v>      -0.50000000       0.27609440      -0.50000000 </v>
   <v>       0.38804720       0.38804720       0.34167483 </v>
   <v>      -0.50000000       0.38416601      -0.50000000 </v>
   <v>       0.44208300       0.44208300       0.41809300 </v>
   <v>       0.38317830       0.38317830      -0.50000000 </v>
   <v>      -0.44208300       0.44208300       0.41809300 </v>
   <v>       0.44576020       0.32826710      -0.41691977 </v>
   <v>       0.32826705       0.44576024       0.41691983 </v>
   <v>      -0.38804720       0.38804720       0.34167483 </v>
   <v>      -0.38317830       0.38317830      -0.50000000 </v>
   <v>      -0.50000000      -0.50000000       0.33478917 </v>
   <v>      -0.50000000      -0.50000000      -0.50000000 </v>
   <v>      -0.44576020       0.32826710      -0.41691977 </v>
   <v>       0.38250685      -0.49999995       0.34021317 </v>
   <v>       0.44208300       0.44208300      -0.41809297 </v>
   <v>       0.38416599      -0.49999998      -0.50000000 </v>
   <v>      -0.44208300       0.44208300      -0.41809297 </v>
   <v>       0.44208298      -0.44208298       0.41809300 </v>
   <v>       0.32826705       0.44576024      -0.41691977 </v>
   <v>      -0.50000000       0.38250690      -0.34021320 </v>
   <v>       0.32826712      -0.44576022       0.41691983 </v>
   <v>      -0.38250685      -0.49999995       0.34021317 </v>
   <v>      -0.32826705       0.44576024       0.41691983 </v>
   <v>       0.27609443       0.49999998      -0.50000000 </v>
   <v>       0.38804720       0.38804720      -0.34167487 </v>
   <v>      -0.38416599      -0.49999998      -0.50000000 </v>
   <v>      -0.44208298      -0.44208298       0.41809300 </v>
   <v>      -0.48290587      -0.47286130       0.25134823 </v>
   <v>       0.44208298      -0.44208298      -0.41809297 </v>
   <v>      -0.48034220      -0.46879123       0.21405720 </v>
   <v>      -0.38804720       0.38804720      -0.34167487 </v>
   <v>       0.38804722      -0.38804722       0.34167483 </v>
   <v>       0.38250685      -0.49999995      -0.34021320 </v>
   <v>       0.32826712      -0.44576022      -0.41691977 </v>
   <v>      -0.32826705       0.44576024      -0.41691977 </v>
   <v>       0.50000000      -0.38250681       0.34021317 </v>
   <v>      -0.50000000      -0.38416596      -0.50000000 </v>
   <v>      -0.44208298      -0.44208298      -0.41809297 </v>
   <v>      -0.50000000      -0.50000000      -0.33478913 </v>
   <v>       0.38317828      -0.38317828      -0.50000000 </v>
   <v>      -0.32826712      -0.44576022       0.41691983 </v>
   <v>      -0.27609443       0.49999998      -0.50000000 </v>
   <v>      -0.38804722      -0.38804722       0.34167483 </v>
   <v>      -0.38250685      -0.49999995      -0.34021320 </v>
   <v>       0.44576027      -0.32826707       0.41691983 </v>
   <v>      -0.38317828      -0.38317828      -0.50000000 </v>
   <v>      -0.32826712      -0.44576022      -0.41691977 </v>
   <v>      -0.44576027      -0.32826707       0.41691983 </v>
   <v>       0.38804722      -0.38804722      -0.34167487 </v>
   <v>      -0.50000000      -0.38250681      -0.34021320 </v>
   <v>       0.44576027      -0.32826707      -0.41691977 </v>
   <v>      -0.44576027      -0.32826707      -0.41691977 </v>
   <v>      -0.50000000      -0.27609445       0.50000000 </v>
   <v>      -0.38804722      -0.38804722      -0.34167487 </v>
  </varray>
 </structure>
 <varray name="primitive_index" >
  <v type="int" >        1 </v>
  <v type="int" >        3 </v>
  <v type="int" >        5 </v>
  <v type="int" >        7 </v>
  <v type="int" >       15 </v>
  <v type="int" >       29 </v>
  <v type="int" >       28 </v>
  <v type="int" >       34 </v>
  <v type="int" >       21 </v>
  <v type="int" >       19 </v>
  <v type="int" >       22 </v>
  <v type="int" >       11 </v>
  <v type="int" >       36 </v>
  <v type="int" >       38 </v>
  <v type="int" >       52 </v>
  <v type="int" >       24 </v>
  <v type="int" >       32 </v>
  <v type="int" >       44 </v>
  <v type="int" >       48 </v>
  <v type="int" >       42 </v>
  <v type="int" >       43 </v>
  <v type="int" >       40 </v>
  <v type="int" >        6 </v>
  <v type="int" >        4 </v>
  <v type="int" >       30 </v>
  <v type="int" >       26 </v>
  <v type="int" >        8 </v>
  <v type="int" >       16 </v>
  <v type="int" >       49 </v>
  <v type="int" >       47 </v>
  <v type="int" >       56 </v>
  <v type="int" >       53 </v>
  <v type="int" >       57 </v>
  <v type="int" >       12 </v>
  <v type="int" >       13 </v>
  <v type="int" >       33 </v>
  <v type="int" >       25 </v>
  <v type="int" >       45 </v>
  <v type="int" >       50 </v>
  <v type="int" >       55 </v>
  <v type="int" >       54 </v>
  <v type="int" >       39 </v>
  <v type="int" >       37 </v>
  <v type="int" >        2 </v>
  <v type="int" >        9 </v>
  <v type="int" >       17 </v>
  <v type="int" >       31 </v>
  <v type="int" >       27 </v>
  <v type="int" >       35 </v>
  <v type="int" >       20 </v>
  <v type="int" >       23 </v>
  <v type="int" >       14 </v>
  <v type="int" >       51 </v>
  <v type="int" >       46 </v>
  <v type="int" >       41 </v>
  <v type="int" >       10 </v>
  <v type="int" >       18 </v>
 </varray>
 <kpoints>
  <generation param="Monkhorst-Pack">
   <v type="int" name="divisions">       1        1        1 </v>
   <v name="usershift">      0.00000000       0.00000000       0.00000000 </v>
   <v name="genvec1">      1.00000000       0.00000000       0.00000000 </v>
   <v name="genvec2">      0.00000000       1.00000000       0.00000000 </v>
   <v name="genvec3">      0.00000000       0.00000000       1.00000000 </v>
   <v name="shift">      0.00000000       0.00000000       0.00000000 </v>
  </generation>
  <varray name="kpointlist" >
   <v>       0.00000000       0.00000000       0.00000000 </v>
  </varray>
  <varray name="weights" >
   <v>       1.00000000 </v>
  </varray>
 </kpoints>
 <parameters>
  <separator name="general" >
   <i type="string" name="SYSTEM">6_Pd100_top_free_z(O)</i>
   <i type="logical" name="LCOMPAT"> F  </i>
  </separator>
  <separator name="electronic" >
   <i type="string" name="PREC">normal</i>
   <i name="ENMAX">    400.00000000</i>
   <i name="ENAUG">    644.87300000</i>
   <i name="EDIFF">      0.00010000</i>
   <i type="int" name="IALGO">    68</i>
   <i type="int" name="IWAVPR">    10</i>
   <i type="int" name="NBANDS">   336</i>
   <i name="NELECT">    560.00000000</i>
   <i type="int" name="TURBO">     0</i>
   <i type="int" name="IRESTART">     0</i>
   <i type="int" name="NREBOOT">     0</i>
   <i type="int" name="NMIN">     0</i>
   <i name="EREF">      0.00000000</i>
   <separator name="electronic smearing" >
    <i type="int" name="ISMEAR">     2</i>
    <i name="SIGMA">      0.20000000</i>
    <i name="KSPACING">      0.50000000</i>
    <i type="logical" name="KGAMMA"> T  </i>
   </separator>
   <separator name="electronic projectors" >
    <i type="logical" name="LREAL"> T  </i>
    <v name="ROPT">     -0.00050000     -0.00050000     -0.00050000</v>
    <i type="int" name="LMAXPAW">  -100</i>
    <i type="int" name="LMAXMIX">     2</i>
    <i type="logical" name="NLSPLINE"> F  </i>
   </separator>
   <separator name="electronic startup" >
    <i type="int" name="ISTART">     0</i>
    <i type="int" name="ICHARG">     2</i>
    <i type="int" name="INIWAV">     1</i>
   </separator>
   <separator name="electronic spin" >
    <i type="int" name="ISPIN">     1</i>
    <i type="logical" name="LNONCOLLINEAR"> F  </i>
    <v name="MAGMOM">      1.00000000      1.00000000      1.00000000      1.00000000      1.00000000      1.00000000      1.00000000      1.00000000      1.00000000      1.00000000      1.00000000      1.00000000      1.00000000      1.00000000      1.00000000      1.00000000      1.00000000      1.00000000      1.00000000      1.00000000
      1.00000000      1.00000000      1.00000000      1.00000000      1.00000000      1.00000000      1.00000000      1.00000000      1.00000000      1.00000000      1.00000000      1.00000000      1.00000000      1.00000000      1.00000000      1.00000000      1.00000000      1.00000000      1.00000000      1.00000000
      1.00000000      1.00000000      1.00000000      1.00000000      1.00000000      1.00000000      1.00000000      1.00000000      1.00000000      1.00000000      1.00000000      1.00000000      1.00000000      1.00000000      1.00000000      1.00000000      1.00000000</v>
    <i name="NUPDOWN">     -1.00000000</i>
    <i type="logical" name="LSORBIT"> F  </i>
    <v name="SAXIS">      0.00000000      0.00000000      1.00000000</v>
    <i type="logical" name="LSPIRAL"> F  </i>
    <v name="QSPIRAL">      0.00000000      0.00000000      0.00000000</v>
    <i type="logical" name="LZEROZ"> F  </i>
   </separator>
   <separator name="electronic exchange-correlation" >
    <i type="logical" name="LASPH"> F  </i>
    <i type="logical" name="LMETAGGA"> F  </i>
   </separator>
   <separator name="electronic convergence" >
    <i type="int" name="NELM">   100</i>
    <i type="int" name="NELMDL">    -5</i>
    <i type="int" name="NELMIN">     6</i>
    <i name="ENINI">    400.00000000</i>
    <separator name="electronic convergence detail" >
     <i type="logical" name="LDIAG"> T  </i>
     <i type="logical" name="LSUBROT"> F  </i>
     <i name="WEIMIN">      0.00000000</i>
     <i name="EBREAK">      0.00000007</i>
     <i name="DEPER">      0.30000000</i>
     <i type="int" name="NRMM">     4</i>
     <i name="TIME">      0.40000000</i>
    </separator>
   </separator>
   <separator name="electronic mixer" >
    <i name="AMIX">      0.40000000</i>
    <i name="BMIX">      1.00000000</i>
    <i name="AMIN">      0.10000000</i>
    <i name="AMIX_MAG">      1.60000000</i>
    <i name="BMIX_MAG">      1.00000000</i>
    <separator name="electronic mixer details" >
     <i type="int" name="IMIX">     4</i>
     <i type="logical" name="MIXFIRST"> F  </i>
     <i type="int" name="MAXMIX">   -45</i>
     <i name="WC">    100.00000000</i>
     <i type="int" name="INIMIX">     1</i>
     <i type="int" name="MIXPRE">     1</i>
     <i type="int" name="MREMOVE">     5</i>
    </separator>
   </separator>
   <separator name="electronic dipolcorrection" >
    <i type="logical" name="LDIPOL"> F  </i>
    <i type="logical" name="LMONO"> F  </i>
    <i type="int" name="IDIPOL">     0</i>
    <i name="EPSILON">      1.00000000</i>
    <v name="DIPOL">   -100.00000000   -100.00000000   -100.00000000</v>
    <i name="EFIELD">      0.00000000</i>
   </separator>
  </separator>
  <separator name="grids" >
   <i type="int" name="NGX">   150</i>
   <i type="int" name="NGY">   150</i>
   <i type="int" name="NGZ">   150</i>
   <i type="int" name="NGXF">   300</i>
   <i type="int" name="NGYF">   300</i>
   <i type="int" name="NGZF">   300</i>
   <i type="logical" name="ADDGRID"> F  </i>
  </separator>
  <separator name="ionic" >
   <i type="int" name="NSW">     0</i>
   <i type="int" name="IBRION">    -1</i>
   <i type="int" name="MDALGO">     0</i>
   <i type="int" name="ISIF">     2</i>
   <i name="PSTRESS">      0.00000000</i>
   <i name="EDIFFG">     -0.05000000</i>
   <i type="int" name="NFREE">     1</i>
   <i name="POTIM">      0.50000000</i>
   <i name="SMASS">     -3.00000000</i>
   <i name="SCALEE">      1.00000000</i>
  </separator>
  <separator name="ionic md" >
   <i name="TEBEG">      0.00010000</i>
   <i name="TEEND">      0.00010000</i>
   <i type="int" name="NBLOCK">     1</i>
   <i type="int" name="KBLOCK">     1</i>
   <i type="int" name="NPACO">   256</i>
   <i name="APACO">     16.00000000</i>
  </separator>
  <separator name="symmetry" >
   <i type="int" name="ISYM">     2</i>
   <i name="SYMPREC">      0.00001000</i>
  </separator>
  <separator name="dos" >
   <i type="int" name="LORBIT">     0</i>
   <v name="RWIGS">     -1.00000000     -1.00000000     -1.00000000</v>
   <i type="int" name="NEDOS">   301</i>
   <i name="EMIN">     10.00000000</i>
   <i name="EMAX">    -10.00000000</i>
   <i name="EFERMI">      0.00000000</i>
  </separator>
  <separator name="writing" >
   <i type="int" name="NWRITE">     2</i>
   <i type="logical" name="LWAVE"> F  </i>
   <i type="logical" name="LDOWNSAMPLE"> F  </i>
   <i type="logical" name="LCHARG"> F  </i>
   <i type="logical" name="LPARD"> F  </i>
   <i type="logical" name="LVTOT"> F  </i>
   <i type="logical" name="LVHAR"> F  </i>
   <i type="logical" name="LELF"> F  </i>
   <i type="logical" name="LOPTICS"> F  </i>
   <v name="STM">      0.00000000      0.00000000      0.00000000      0.00000000      0.00000000      0.00000000      0.00000000</v>
  </separator>
  <separator name="performance" >
   <i type="int" name="NPAR">     1</i>
   <i type="int" name="NSIM">     4</i>
   <i type="int" name="NBLK">    -1</i>
   <i type="logical" name="LPLANE"> T  </i>
   <i type="logical" name="LSCALAPACK"> T  </i>
   <i type="logical" name="LSCAAWARE"> F  </i>
   <i type="logical" name="LSCALU"> F  </i>
   <i type="logical" name="LASYNC"> F  </i>
   <i type="logical" name="LORBITALREAL"> F  </i>
  </separator>
  <separator name="miscellaneous" >
   <i type="int" name="IDIOT">     3</i>
   <i type="int" name="ISPECIAL">     0</i>
   <i type="logical" name="LMUSIC"> F  </i>
   <v name="POMASS">    106.42000000     12.01100000     16.00000000</v>
   <v name="DARWINR">      0.00000000      0.00000000      0.00000000</v>
   <v name="DARWINV">      1.00000000      1.00000000      1.00000000</v>
   <i type="logical" name="LCORR"> T  </i>
  </separator>
  <i type="logical" name="GGA_COMPAT"> T  </i>
  <i type="logical" name="LBERRY"> F  </i>
  <i type="int" name="ICORELEVEL">     0</i>
  <i type="logical" name="LDAU"> F  </i>
  <i type="int" name="I_CONSTRAINED_M">     0</i>
  <separator name="electronic exchange-correlation" >
   <i type="string" name="GGA">RP</i>
   <i type="int" name="VOSKOWN">     0</i>
   <i type="logical" name="LHFCALC"> F  </i>
   <i type="string" name="PRECFOCK"></i>
   <i type="logical" name="LSYMGRAD"> F  </i>
   <i type="logical" name="LHFONE"> F  </i>
   <i type="logical" name="LRHFCALC"> F  </i>
   <i type="logical" name="LTHOMAS"> F  </i>
   <i type="logical" name="LMODELHF"> F  </i>
   <i name="ENCUT4O">     -1.00000000</i>
   <i type="int" name="EXXOEP">     0</i>
   <i type="int" name="FOURORBIT">     0</i>
   <i name="AEXX">      0.00000000</i>
   <i name="HFALPHA">      0.00000000</i>
   <i name="MCALPHA">      0.00000000</i>
   <i name="ALDAX">      1.00000000</i>
   <i name="AGGAX">      1.00000000</i>
   <i name="ALDAC">      1.00000000</i>
   <i name="AGGAC">      1.00000000</i>
   <i type="int" name="NKREDX">     1</i>
   <i type="int" name="NKREDY">     1</i>
   <i type="int" name="NKREDZ">     1</i>
   <i type="logical" name="SHIFTRED"> F  </i>
   <i type="logical" name="ODDONLY"> F  </i>
   <i type="logical" name="EVENONLY"> F  </i>
   <i type="int" name="LMAXFOCK">     0</i>
   <i type="int" name="NMAXFOCKAE">     0</i>
   <i type="logical" name="LFOCKAEDFT"> F  </i>
   <i name="HFSCREEN">      0.00000000</i>
   <i name="HFSCREENC">      0.00000000</i>
   <i type="int" name="NBANDSGWLOW">     0</i>
  </separator>
  <separator name="vdW DFT" >
   <i type="logical" name="LUSE_VDW"> F  </i>
   <i name="Zab_VDW">     -0.84910000</i>
   <i name="PARAM1">      0.12340000</i>
   <i name="PARAM2">      1.00000000</i>
   <i name="PARAM3">      0.00000000</i>
  </separator>
  <separator name="model GW" >
   <i type="int" name="MODEL_GW">     0</i>
   <i name="MODEL_EPS0">    284.21052632</i>
   <i name="MODEL_ALPHA">      1.00000000</i>
  </separator>
  <separator name="linear response parameters" >
   <i type="logical" name="LEPSILON"> F  </i>
   <i type="logical" name="LRPA"> F  </i>
   <i type="logical" name="LNABLA"> F  </i>
   <i type="logical" name="LVEL"> F  </i>
   <i type="int" name="KINTER">     0</i>
   <i name="CSHIFT">      0.10000000</i>
   <i name="OMEGAMAX">     -1.00000000</i>
   <i name="DEG_THRESHOLD">      0.00200000</i>
   <i name="RTIME">     -0.10000000</i>
   <i name="WPLASMAI">      0.00000000</i>
   <v name="DFIELD">      0.00000000      0.00000000      0.00000000</v>
   <v name="WPLASMA">      0.00000000      0.00000000      0.00000000      0.00000000      0.00000000      0.00000000      0.00000000      0.00000000      0.00000000</v>
  </separator>
  <separator name="orbital magnetization" >
   <i type="logical" name="NUCIND"> F  </i>
   <v name="MAGPOS">      0.00000000      0.00000000      0.00000000</v>
   <i type="logical" name="LNICSALL"> T  </i>
   <i type="logical" name="ORBITALMAG"> F  </i>
   <i type="logical" name="LMAGBLOCH"> F  </i>
   <i type="logical" name="LCHIMAG"> F  </i>
   <i type="logical" name="LGAUGE"> T  </i>
   <i type="int" name="MAGATOM">     0</i>
   <v name="MAGDIPOL">      0.00000000      0.00000000      0.00000000</v>
   <v name="AVECCONST">      0.00000000      0.00000000      0.00000000</v>
  </separator>
  <separator name="response functions" >
   <i type="logical" name="LADDER"> F  </i>
   <i type="logical" name="LRPAFORCE"> F  </i>
   <i type="logical" name="LFXC"> F  </i>
   <i type="logical" name="LHARTREE"> T  </i>
   <i type="int" name="IBSE">     0</i>
   <v type="int" name="KPOINT">    -1     0     0     0</v>
   <i type="logical" name="LTCTE"> F  </i>
   <i type="logical" name="LTETE"> F  </i>
   <i type="logical" name="LTRIPLET"> F  </i>
   <i type="logical" name="LFXCEPS"> F  </i>
   <i type="logical" name="LFXHEG"> F  </i>
   <i type="int" name="NATURALO">     2</i>
   <i type="logical" name="L2ORDER"> F  </i>
   <i type="logical" name="LMP2LT"> F  </i>
   <i type="logical" name="LUSEW"> F  </i>
   <i name="ENCUTGW">     -2.00000000</i>
   <i name="ENCUTGWSOFT">     -2.00000000</i>
   <i name="ENCUTLF">     -1.00000000</i>
   <i type="int" name="LMAXMP2">    -1</i>
   <i name="SCISSOR">      0.00000000</i>
   <i type="int" name="NOMEGA">     0</i>
   <i type="int" name="NOMEGAR">     0</i>
   <i type="int" name="NBANDSGW">    -1</i>
   <i type="int" name="NBANDSO">    -1</i>
   <i type="int" name="NBANDSV">    -1</i>
   <i type="int" name="NELM">   100</i>
   <i type="int" name="NELMHF">     1</i>
   <i type="int" name="DIM">     3</i>
   <i type="int" name="ANTIRES">     0</i>
   <i name="OMEGAMAX">    -30.00000000</i>
   <i name="OMEGAMIN">    -30.00000000</i>
   <i name="OMEGATL">   -200.00000000</i>
   <i type="int" name="OMEGAGRID">   140</i>
   <i name="CSHIFT">     -0.10000000</i>
   <i type="logical" name="SELFENERGY"> F  </i>
   <i type="logical" name="LSPECTRAL"> F  </i>
   <i type="logical" name="LSPECTRALGW"> F  </i>
   <i type="logical" name="LSINGLES"> F  </i>
   <i type="logical" name="LFERMIGW"> F  </i>
   <i type="logical" name="ODDONLYGW"> F  </i>
   <i type="logical" name="EVENONLYGW"> F  </i>
   <i type="int" name="NKREDLFX">     1</i>
   <i type="int" name="NKREDLFY">     1</i>
   <i type="int" name="NKREDLFZ">     1</i>
   <i type="int" name="MAXMEM"> 10000</i>
   <i type="int" name="TELESCOPE">     0</i>
   <i type="int" name="TAUPAR">     1</i>
   <i type="int" name="OMEGAPAR">    -1</i>
   <i name="LAMBDA">      1.00000000</i>
  </separator>
  <separator name="External order field" >
   <i name="OFIELD_KAPPA">      0.00000000</i>
   <v name="OFIELD_K">      0.00000000      0.00000000      0.00000000</v>
   <i name="OFIELD_Q6_NEAR">      0.00000000</i>
   <i name="OFIELD_Q6_FAR">      0.00000000</i>
   <i name="OFIELD_A">      0.00000000</i>
  </separator>
 </parameters>
 <atominfo>
  <atoms>      57 </atoms>
  <types>       3 </types>
  <array name="atoms" >
   <dimension dim="1">ion</dimension>
   <field type="string">element</field>
   <field type="int">atomtype</field>
   <set>
    <rc><c>Pd</c><c>   1</c></rc>
    <rc><c>Pd</c><c>   1</c></rc>
    <rc><c>Pd</c><c>   1</c></rc>
    <rc><c>Pd</c><c>   1</c></rc>
    <rc><c>Pd</c><c>   1</c></rc>
    <rc><c>Pd</c><c>   1</c></rc>
    <rc><c>Pd</c><c>   1</c></rc>
    <rc><c>Pd</c><c>   1</c></rc>
    <rc><c>Pd</c><c>   1</c></rc>
    <rc><c>Pd</c><c>   1</c></rc>
    <rc><c>Pd</c><c>   1</c></rc>
    <rc><c>Pd</c><c>   1</c></rc>
    <rc><c>Pd</c><c>   1</c></rc>
    <rc><c>Pd</c><c>   1</c></rc>
    <rc><c>Pd</c><c>   1</c></rc>
    <rc><c>Pd</c><c>   1</c></rc>
    <rc><c>Pd</c><c>   1</c></rc>
    <rc><c>Pd</c><c>   1</c></rc>
    <rc><c>Pd</c><c>   1</c></rc>
    <rc><c>Pd</c><c>   1</c></rc>
    <rc><c>Pd</c><c>   1</c></rc>
    <rc><c>Pd</c><c>   1</c></rc>
    <rc><c>Pd</c><c>   1</c></rc>
    <rc><c>Pd</c><c>   1</c></rc>
    <rc><c>Pd</c><c>   1</c></rc>
    <rc><c>Pd</c><c>   1</c></rc>
    <rc><c>Pd</c><c>   1</c></rc>
    <rc><c>Pd</c><c>   1</c></rc>
    <rc><c>Pd</c><c>   1</c></rc>
    <rc><c>Pd</c><c>   1</c></rc>
    <rc><c>Pd</c><c>   1</c></rc>
    <rc><c>Pd</c><c>   1</c></rc>
    <rc><c>Pd</c><c>   1</c></rc>
    <rc><c>Pd</c><c>   1</c></rc>
    <rc><c>Pd</c><c>   1</c></rc>
    <rc><c>Pd</c><c>   1</c></rc>
    <rc><c>Pd</c><c>   1</c></rc>
    <rc><c>Pd</c><c>   1</c></rc>
    <rc><c>Pd</c><c>   1</c></rc>
    <rc><c>Pd</c><c>   1</c></rc>
    <rc><c>Pd</c><c>   1</c></rc>
    <rc><c>Pd</c><c>   1</c></rc>
    <rc><c>Pd</c><c>   1</c></rc>
    <rc><c>Pd</c><c>   1</c></rc>
    <rc><c>Pd</c><c>   1</c></rc>
    <rc><c>Pd</c><c>   1</c></rc>
    <rc><c>Pd</c><c>   1</c></rc>
    <rc><c>Pd</c><c>   1</c></rc>
    <rc><c>Pd</c><c>   1</c></rc>
    <rc><c>Pd</c><c>   1</c></rc>
    <rc><c>Pd</c><c>   1</c></rc>
    <rc><c>Pd</c><c>   1</c></rc>
    <rc><c>Pd</c><c>   1</c></rc>
    <rc><c>Pd</c><c>   1</c></rc>
    <rc><c>Pd</c><c>   1</c></rc>
    <rc><c>C </c><c>   2</c></rc>
    <rc><c>O </c><c>   3</c></rc>
   </set>
  </array>
  <array name="atomtypes" >
   <dimension dim="1">type</dimension>
   <field type="int">atomspertype</field>
   <field type="string">element</field>
   <field>mass</field>
   <field>valence</field>
   <field type="string">pseudopotential</field>
   <set>
    <rc><c>  55</c><c>Pd</c><c>    106.42000000</c><c>     10.00000000</c><c>  PAW_PBE Pd 04Jan2005                  </c></rc>
    <rc><c>   1</c><c>C </c><c>     12.01100000</c><c>      4.00000000</c><c>  PAW_PBE C 08Apr2002                   </c></rc>
    <rc><c>   1</c><c>O </c><c>     16.00000000</c><c>      6.00000000</c><c>  PAW_PBE O 08Apr2002                   </c></rc>
   </set>
  </array>
 </atominfo>
 <structure name="initialpos" >
  <crystal>
   <varray name="basis" >
    <v>      30.00000000       0.00000000       0.00000000 </v>
    <v>       0.00000000      30.00000000       0.00000000 </v>
    <v>       0.00000000       0.00000000      30.00000000 </v>
   </varray>
   <i name="volume">  27000.00000000 </i>
   <varray name="rec_basis" >
    <v>       0.03333333       0.00000000       0.00000000 </v>
    <v>       0.00000000       0.03333333       0.00000000 </v>
    <v>       0.00000000       0.00000000       0.03333333 </v>
   </varray>
  </crystal>
  <varray name="positions" >
   <v>       0.44576020       0.32826710       0.41691983 </v>
   <v>       0.67173288       0.55423978       0.41691983 </v>
   <v>       0.55423980       0.32826710       0.41691983 </v>
   <v>       0.32826712       0.55423978       0.41691983 </v>
   <v>       0.50000000       0.38250690       0.34021317 </v>
   <v>       0.50000000       0.38250690       0.65978680 </v>
   <v>       0.50000000       0.27609440       0.50000000 </v>
   <v>       0.27609443       0.49999998       0.50000000 </v>
   <v>       0.72390557       0.49999998       0.50000000 </v>
   <v>       0.50000000       0.72390555       0.50000000 </v>
   <v>       0.61195280       0.38804720       0.34167483 </v>
   <v>       0.61195280       0.38804720       0.65832513 </v>
   <v>       0.38804722       0.61195278       0.34167483 </v>
   <v>       0.38804722       0.61195278       0.65832513 </v>
   <v>       0.38804720       0.38804720       0.34167483 </v>
   <v>       0.38804720       0.38804720       0.65832513 </v>
   <v>       0.61195278       0.61195278       0.34167483 </v>
   <v>       0.61195278       0.61195278       0.65832513 </v>
   <v>       0.44576020       0.32826710       0.58308023 </v>
   <v>       0.67173288       0.55423978       0.58308023 </v>
   <v>       0.55791699       0.44208301       0.41809300 </v>
   <v>       0.32826705       0.44576024       0.41691983 </v>
   <v>       0.55423973       0.67173293       0.41691983 </v>
   <v>       0.55423980       0.32826710       0.58308023 </v>
   <v>       0.32826712       0.55423978       0.58308023 </v>
   <v>       0.67173295       0.44576024       0.41691983 </v>
   <v>       0.44576027       0.67173293       0.41691983 </v>
   <v>       0.44208301       0.44208301       0.41809300 </v>
   <v>       0.50000000       0.38416601       0.50000000 </v>
   <v>       0.61749315       0.50000005       0.34021317 </v>
   <v>       0.61749315       0.50000005       0.65978680 </v>
   <v>       0.38250685       0.50000005       0.34021317 </v>
   <v>       0.38250685       0.50000005       0.65978680 </v>
   <v>       0.38317830       0.38317830       0.50000000 </v>
   <v>       0.61682172       0.61682172       0.50000000 </v>
   <v>       0.61682170       0.38317830       0.50000000 </v>
   <v>       0.38317828       0.61682172       0.50000000 </v>
   <v>       0.50000000       0.50000000       0.33478917 </v>
   <v>       0.50000000       0.50000000       0.66521087 </v>
   <v>       0.32826705       0.44576024       0.58308023 </v>
   <v>       0.55423973       0.67173293       0.58308023 </v>
   <v>       0.55791699       0.44208301       0.58190703 </v>
   <v>       0.44208298       0.55791702       0.41809300 </v>
   <v>       0.44208301       0.44208301       0.58190703 </v>
   <v>       0.67173295       0.44576024       0.58308023 </v>
   <v>       0.44576027       0.67173293       0.58308023 </v>
   <v>       0.55791702       0.55791702       0.41809300 </v>
   <v>       0.38416599       0.50000002       0.50000000 </v>
   <v>       0.61583401       0.50000002       0.50000000 </v>
   <v>       0.50000000       0.61749319       0.34021317 </v>
   <v>       0.50000000       0.61749319       0.65978680 </v>
   <v>       0.50000000       0.50000000       0.50000000 </v>
   <v>       0.44208298       0.55791702       0.58190703 </v>
   <v>       0.55791702       0.55791702       0.58190703 </v>
   <v>       0.50000000       0.61583404       0.50000000 </v>
   <v>       0.51709413       0.52713870       0.25134823 </v>
   <v>       0.51965780       0.53120877       0.21405720 </v>
  </varray>
  <varray name="selective"  type="logical" >
   <v type="logical" >  F  F  F </v>
   <v type="logical" >  F  F  F </v>
   <v type="logical" >  F  F  F </v>
   <v type="logical" >  F  F  F </v>
   <v type="logical" >  F  F  F </v>
   <v type="logical" >  F  F  F </v>
   <v type="logical" >  F  F  F </v>
   <v type="logical" >  F  F  F </v>
   <v type="logical" >  F  F  F </v>
   <v type="logical" >  F  F  F </v>
   <v type="logical" >  F  F  F </v>
   <v type="logical" >  F  F  F </v>
   <v type="logical" >  F  F  F </v>
   <v type="logical" >  F  F  F </v>
   <v type="logical" >  F  F  F </v>
   <v type="logical" >  F  F  F </v>
   <v type="logical" >  F  F  F </v>
   <v type="logical" >  F  F  F </v>
   <v type="logical" >  F  F  F </v>
   <v type="logical" >  F  F  F </v>
   <v type="logical" >  F  F  F </v>
   <v type="logical" >  F  F  F </v>
   <v type="logical" >  F  F  F </v>
   <v type="logical" >  F  F  F </v>
   <v type="logical" >  F  F  F </v>
   <v type="logical" >  F  F  F </v>
   <v type="logical" >  F  F  F </v>
   <v type="logical" >  F  F  F </v>
   <v type="logical" >  F  F  F </v>
   <v type="logical" >  F  F  F </v>
   <v type="logical" >  F  F  F </v>
   <v type="logical" >  F  F  F </v>
   <v type="logical" >  F  F  F </v>
   <v type="logical" >  F  F  F </v>
   <v type="logical" >  F  F  F </v>
   <v type="logical" >  F  F  F </v>
   <v type="logical" >  F  F  F </v>
   <v type="logical" >  F  F  F </v>
   <v type="logical" >  F  F  F </v>
   <v type="logical" >  F  F  F </v>
   <v type="logical" >  F  F  F </v>
   <v type="logical" >  F  F  F </v>
   <v type="logical" >  F  F  F </v>
   <v type="logical" >  F  F  F </v>
   <v type="logical" >  F  F  F </v>
   <v type="logical" >  F  F  F </v>
   <v type="logical" >  F  F  F </v>
   <v type="logical" >  F  F  F </v>
   <v type="logical" >  F  F  F </v>
   <v type="logical" >  F  F  F </v>
   <v type="logical" >  F  F  F </v>
   <v type="logical" >  F  F  F </v>
   <v type="logical" >  F  F  F </v>
   <v type="logical" >  F  F  F </v>
   <v type="logical" >  F  F  F </v>
   <v type="logical" >  F  F  F </v>
   <v type="logical" >  F  F  F </v>
  </varray>
  <nose>
   <v>      -3.00000000       0.00000000       0.00010000       0.00010000 </v>
  </nose>
 </structure>
 <calculation>
  <scstep>
   <time name="dav">  591.35  591.56</time>
   <time name="total">  612.58  612.80</time>
   <energy>
    <i name="alphaZ">     75.25431677 </i>
    <i name="ewald"> 137955.19077366 </i>
    <i name="hartreedc">-181323.18353187 </i>
    <i name="XCdc">  -1703.99813505 </i>
    <i name="pawpsdc">  44873.02882129 </i>
    <i name="pawaedc"> -41398.84523641 </i>
    <i name="eentropy">      0.03429336 </i>
    <i name="bandstr">    818.49285943 </i>
    <i name="atom">  45086.50549395 </i>
    <i name="e_fr_energy">   4382.47965514 </i>
    <i name="e_wo_entrp">   4382.44536178 </i>
    <i name="e_0_energy">   4382.47108180 </i>
   </energy>
  </scstep>
  <scstep>
   <time name="dav"> 1094.81 1094.94</time>
   <time name="total"> 1094.82 1094.94</time>
   <energy>
    <i name="e_fr_energy">   2027.56499453 </i>
    <i name="e_wo_entrp">   2027.58277066 </i>
    <i name="e_0_energy">   2027.56943856 </i>
   </energy>
  </scstep>
  <scstep>
   <time name="dav">  900.13  900.23</time>
   <time name="total">  900.13  900.23</time>
   <energy>
    <i name="e_fr_energy">    245.75774683 </i>
    <i name="e_wo_entrp">    245.79245563 </i>
    <i name="e_0_energy">    245.76642403 </i>
   </energy>
  </scstep>
  <scstep>
   <time name="dav">  650.57  650.63</time>
   <time name="total">  650.58  650.63</time>
   <energy>
    <i name="e_fr_energy">   -132.27248164 </i>
    <i name="e_wo_entrp">   -132.27689335 </i>
    <i name="e_0_energy">   -132.27358457 </i>
   </energy>
  </scstep>
  <scstep>
   <time name="dav">  788.70  788.77</time>
   <time name="total">  822.67  822.74</time>
   <energy>
    <i name="e_fr_energy">   -178.53915270 </i>
    <i name="e_wo_entrp">   -179.05369134 </i>
    <i name="e_0_energy">   -178.66778736 </i>
   </energy>
  </scstep>
  <scstep>
   <time name="diag">  107.17  107.18</time>
   <time name="diis">  249.18  249.20</time>
   <time name="orth">   27.30   27.30</time>
   <time name="total">  436.15  436.20</time>
   <energy>
    <i name="e_fr_energy">   -178.91464469 </i>
    <i name="e_wo_entrp">   -178.69185663 </i>
    <i name="e_0_energy">   -178.85894767 </i>
   </energy>
  </scstep>
  <scstep>
   <time name="diag">  106.06  106.07</time>
   <time name="diis">  306.37  306.40</time>
   <time name="orth">   25.90   25.91</time>
   <time name="total">  489.88  489.93</time>
   <energy>
    <i name="e_fr_energy">   -180.58096320 </i>
    <i name="e_wo_entrp">   -180.66856601 </i>
    <i name="e_0_energy">   -180.60286390 </i>
   </energy>
  </scstep>
  <scstep>
   <time name="diag">  102.71  102.72</time>
   <time name="diis">  276.98  277.01</time>
   <time name="orth">   26.85   26.85</time>
   <time name="total">  459.65  459.70</time>
   <energy>
    <i name="e_fr_energy">   -182.29608702 </i>
    <i name="e_wo_entrp">   -182.19938621 </i>
    <i name="e_0_energy">   -182.27191182 </i>
   </energy>
  </scstep>
  <scstep>
   <time name="diag">  105.31  105.32</time>
   <time name="diis">  252.25  252.28</time>
   <time name="orth">   26.86   26.86</time>
   <time name="total">  437.85  437.90</time>
   <energy>
    <i name="e_fr_energy">   -181.85486487 </i>
    <i name="e_wo_entrp">   -181.78088741 </i>
    <i name="e_0_energy">   -181.83637051 </i>
   </energy>
  </scstep>
  <scstep>
   <time name="diag">  107.15  107.17</time>
   <time name="diis">  248.84  248.88</time>
   <time name="orth">   27.73   27.73</time>
   <time name="total">  438.99  439.06</time>
   <energy>
    <i name="e_fr_energy">   -179.59927432 </i>
    <i name="e_wo_entrp">   -179.48557904 </i>
    <i name="e_0_energy">   -179.57085050 </i>
   </energy>
  </scstep>
  <scstep>
   <time name="diag">  107.77  107.78</time>
   <time name="diis">  254.47  254.49</time>
   <time name="orth">   26.90   26.90</time>
   <time name="total">  442.45  442.50</time>
   <energy>
    <i name="e_fr_energy">   -177.79429536 </i>
    <i name="e_wo_entrp">   -177.72940329 </i>
    <i name="e_0_energy">   -177.77807234 </i>
   </energy>
  </scstep>
  <scstep>
   <time name="diag">  102.11  102.12</time>
   <time name="diis">  253.93  253.96</time>
   <time name="orth">   26.92   26.92</time>
   <time name="total">  433.71  433.76</time>
   <energy>
    <i name="e_fr_energy">   -176.78346689 </i>
    <i name="e_wo_entrp">   -176.64842821 </i>
    <i name="e_0_energy">   -176.74970722 </i>
   </energy>
  </scstep>
  <scstep>
   <time name="diag">  109.57  109.58</time>
   <time name="diis">  376.47  376.51</time>
   <time name="orth">   33.43   33.43</time>
   <time name="total">  577.31  577.37</time>
   <energy>
    <i name="e_fr_energy">   -176.05773419 </i>
    <i name="e_wo_entrp">   -175.96612929 </i>
    <i name="e_0_energy">   -176.03483296 </i>
   </energy>
  </scstep>
  <scstep>
   <time name="diag">  107.08  107.09</time>
   <time name="diis">  295.11  295.14</time>
   <time name="orth">   28.00   28.01</time>
   <time name="total">  484.30  484.35</time>
   <energy>
    <i name="e_fr_energy">   -175.61380024 </i>
    <i name="e_wo_entrp">   -175.50800590 </i>
    <i name="e_0_energy">   -175.58735165 </i>
   </energy>
  </scstep>
  <scstep>
   <time name="diag">  113.37  113.38</time>
   <time name="diis">  282.62  282.65</time>
   <time name="orth">   27.90   27.90</time>
   <time name="total">  479.83  479.89</time>
   <energy>
    <i name="e_fr_energy">   -175.80882562 </i>
    <i name="e_wo_entrp">   -175.75141770 </i>
    <i name="e_0_energy">   -175.79447364 </i>
   </energy>
  </scstep>
  <scstep>
   <time name="diag">  118.23  118.24</time>
   <time name="diis">  283.29  283.32</time>
   <time name="orth">   27.71   27.71</time>
   <time name="total">  485.41  485.46</time>
   <energy>
    <i name="e_fr_energy">   -175.50463175 </i>
    <i name="e_wo_entrp">   -175.43092393 </i>
    <i name="e_0_energy">   -175.48620480 </i>
   </energy>
  </scstep>
  <scstep>
   <time name="diag">  104.62  104.63</time>
   <time name="diis">  300.65  300.68</time>
   <time name="orth">   30.68   30.68</time>
   <time name="total">  497.73  497.78</time>
   <energy>
    <i name="e_fr_energy">   -174.90398100 </i>
    <i name="e_wo_entrp">   -174.86765314 </i>
    <i name="e_0_energy">   -174.89489903 </i>
   </energy>
  </scstep>
  <scstep>
   <time name="diag">  104.39  104.40</time>
   <time name="diis">  247.00  247.03</time>
   <time name="orth">   26.76   26.77</time>
   <time name="total">  433.64  433.68</time>
   <energy>
    <i name="e_fr_energy">   -174.46728125 </i>
    <i name="e_wo_entrp">   -174.40827783 </i>
    <i name="e_0_energy">   -174.45253040 </i>
   </energy>
  </scstep>
  <scstep>
   <time name="diag">  114.39  114.40</time>
   <time name="diis">  293.60  293.62</time>
   <time name="orth">   28.95   28.95</time>
   <time name="total">  495.96  496.00</time>
   <energy>
    <i name="e_fr_energy">   -174.49821619 </i>
    <i name="e_wo_entrp">   -174.49176386 </i>
    <i name="e_0_energy">   -174.49660311 </i>
   </energy>
  </scstep>
  <scstep>
   <time name="diag">  103.01  103.02</time>
   <time name="diis">  254.36  254.38</time>
   <time name="orth">   27.06   27.06</time>
   <time name="total">  439.75  439.79</time>
   <energy>
    <i name="e_fr_energy">   -174.48576011 </i>
    <i name="e_wo_entrp">   -174.47971515 </i>
    <i name="e_0_energy">   -174.48424887 </i>
   </energy>
  </scstep>
  <scstep>
   <time name="diag">  105.21  105.22</time>
   <time name="diis">  279.34  279.37</time>
   <time name="orth">   28.34   28.34</time>
   <time name="total">  470.80  470.85</time>
   <energy>
    <i name="e_fr_energy">   -174.38591438 </i>
    <i name="e_wo_entrp">   -174.39349315 </i>
    <i name="e_0_energy">   -174.38780907 </i>
   </energy>
  </scstep>
  <scstep>
   <time name="diag">  118.08  118.10</time>
   <time name="diis">  270.64  270.67</time>
   <time name="orth">   27.23   27.23</time>
   <time name="total">  473.10  473.16</time>
   <energy>
    <i name="e_fr_energy">   -174.20456744 </i>
    <i name="e_wo_entrp">   -174.16349690 </i>
    <i name="e_0_energy">   -174.19429980 </i>
   </energy>
  </scstep>
  <scstep>
   <time name="diag">  102.74  102.75</time>
   <time name="diis">  251.82  251.86</time>
   <time name="orth">   26.69   26.69</time>
   <time name="total">  434.53  434.58</time>
   <energy>
    <i name="e_fr_energy">   -174.14032050 </i>
    <i name="e_wo_entrp">   -174.03843641 </i>
    <i name="e_0_energy">   -174.11484948 </i>
   </energy>
  </scstep>
  <scstep>
   <time name="diag">  100.75  100.76</time>
   <time name="diis">  271.73  271.76</time>
   <time name="orth">   28.58   28.59</time>
   <time name="total">  458.32  458.37</time>
   <energy>
    <i name="e_fr_energy">   -174.16341566 </i>
    <i name="e_wo_entrp">   -174.06978390 </i>
    <i name="e_0_energy">   -174.14000772 </i>
   </energy>
  </scstep>
  <scstep>
   <time name="diag">  114.43  114.44</time>
   <time name="diis">  280.10  280.13</time>
   <time name="orth">   28.97   28.97</time>
   <time name="total">  484.07  484.12</time>
   <energy>
    <i name="e_fr_energy">   -174.04791281 </i>
    <i name="e_wo_entrp">   -173.96425229 </i>
    <i name="e_0_energy">   -174.02699768 </i>
   </energy>
  </scstep>
  <scstep>
   <time name="diag">  103.41  103.42</time>
   <time name="diis">  241.49  241.51</time>
   <time name="orth">   27.40   27.40</time>
   <time name="total">  425.87  425.91</time>
   <energy>
    <i name="e_fr_energy">   -173.96074372 </i>
    <i name="e_wo_entrp">   -173.87869003 </i>
    <i name="e_0_energy">   -173.94023030 </i>
   </energy>
  </scstep>
  <scstep>
   <time name="diag">  102.35  102.36</time>
   <time name="diis">  245.20  245.22</time>
   <time name="orth">   26.67   26.67</time>
   <time name="total">  428.02  428.06</time>
   <energy>
    <i name="e_fr_energy">   -173.91937122 </i>
    <i name="e_wo_entrp">   -173.84068342 </i>
    <i name="e_0_energy">   -173.89969927 </i>
   </energy>
  </scstep>
  <scstep>
   <time name="diag">  105.45  105.46</time>
   <time name="diis">  261.44  261.47</time>
   <time name="orth">   28.53   28.53</time>
   <time name="total">  456.39  456.43</time>
   <energy>
    <i name="e_fr_energy">   -173.90619380 </i>
    <i name="e_wo_entrp">   -173.82246758 </i>
    <i name="e_0_energy">   -173.88526225 </i>
   </energy>
  </scstep>
  <scstep>
   <time name="diag">  116.99  117.00</time>
   <time name="diis">  300.48  300.51</time>
   <time name="orth">   29.09   29.10</time>
   <time name="total">  512.85  512.91</time>
   <energy>
    <i name="e_fr_energy">   -173.87984574 </i>
    <i name="e_wo_entrp">   -173.79145837 </i>
    <i name="e_0_energy">   -173.85774890 </i>
   </energy>
  </scstep>
  <scstep>
   <time name="diag">  117.04  117.05</time>
   <time name="diis">  264.01  264.03</time>
   <time name="orth">   26.38   26.39</time>
   <time name="total">  466.02  466.07</time>
   <energy>
    <i name="e_fr_energy">   -173.86685416 </i>
    <i name="e_wo_entrp">   -173.78600439 </i>
    <i name="e_0_energy">   -173.84664172 </i>
   </energy>
  </scstep>
  <scstep>
   <time name="diag">  107.64  107.66</time>
   <time name="diis">  252.93  252.95</time>
   <time name="orth">   26.28   26.28</time>
   <time name="total">  441.92  441.97</time>
   <energy>
    <i name="e_fr_energy">   -173.86131601 </i>
    <i name="e_wo_entrp">   -173.77758370 </i>
    <i name="e_0_energy">   -173.84038293 </i>
   </energy>
  </scstep>
  <scstep>
   <time name="diag">  106.00  106.01</time>
   <time name="diis">  256.95  256.97</time>
   <time name="orth">   27.00   27.00</time>
   <time name="total">  443.68  443.73</time>
   <energy>
    <i name="e_fr_energy">   -173.85375029 </i>
    <i name="e_wo_entrp">   -173.77097945 </i>
    <i name="e_0_energy">   -173.83305758 </i>
   </energy>
  </scstep>
  <scstep>
   <time name="diag">  104.84  104.85</time>
   <time name="diis">  259.40  259.43</time>
   <time name="orth">   27.85   27.85</time>
   <time name="total">  449.32  449.37</time>
   <energy>
    <i name="e_fr_energy">   -173.85309738 </i>
    <i name="e_wo_entrp">   -173.77298432 </i>
    <i name="e_0_energy">   -173.83306912 </i>
   </energy>
  </scstep>
  <scstep>
   <time name="diag">  112.94  112.96</time>
   <time name="diis">  298.10  298.14</time>
   <time name="orth">   29.54   29.55</time>
   <time name="total">  501.64  501.70</time>
   <energy>
    <i name="e_fr_energy">   -173.85118622 </i>
    <i name="e_wo_entrp">   -173.77214214 </i>
    <i name="e_0_energy">   -173.83142520 </i>
   </energy>
  </scstep>
  <scstep>
   <time name="diag">  118.17  118.18</time>
   <time name="diis">  319.62  319.66</time>
   <time name="orth">   29.80   29.81</time>
   <time name="total">  534.46  534.52</time>
   <energy>
    <i name="e_fr_energy">   -173.85009186 </i>
    <i name="e_wo_entrp">   -173.77004854 </i>
    <i name="e_0_energy">   -173.83008103 </i>
   </energy>
  </scstep>
  <scstep>
   <time name="diag">  113.61  113.62</time>
   <time name="diis">  260.62  260.65</time>
   <time name="orth">   27.30   27.30</time>
   <time name="total">  458.93  458.98</time>
   <energy>
    <i name="e_fr_energy">   -173.85235082 </i>
    <i name="e_wo_entrp">   -173.77109230 </i>
    <i name="e_0_energy">   -173.83203619 </i>
   </energy>
  </scstep>
  <scstep>
   <time name="diag">  103.52  103.53</time>
   <time name="diis">  257.23  257.27</time>
   <time name="orth">   27.11   27.11</time>
   <time name="total">  441.78  441.83</time>
   <energy>
    <i name="e_fr_energy">   -173.85367977 </i>
    <i name="e_wo_entrp">   -173.76957363 </i>
    <i name="e_0_energy">   -173.83265323 </i>
   </energy>
  </scstep>
  <scstep>
   <time name="diag">  103.82  103.83</time>
   <time name="diis">  254.17  254.19</time>
   <time name="orth">   27.16   27.16</time>
   <time name="total">  439.79  439.83</time>
   <energy>
    <i name="e_fr_energy">   -173.85496646 </i>
    <i name="e_wo_entrp">   -173.77303486 </i>
    <i name="e_0_energy">   -173.83448356 </i>
   </energy>
  </scstep>
  <scstep>
   <time name="diag">  104.56  104.57</time>
   <time name="diis">  253.97  254.01</time>
   <time name="orth">   27.37   27.37</time>
   <time name="total">  440.78  440.83</time>
   <energy>
    <i name="e_fr_energy">   -173.85930248 </i>
    <i name="e_wo_entrp">   -173.77879789 </i>
    <i name="e_0_energy">   -173.83917633 </i>
   </energy>
  </scstep>
  <scstep>
   <time name="diag">  104.47  104.49</time>
   <time name="diis">  250.73  250.76</time>
   <time name="orth">   27.66   27.66</time>
   <time name="total">  439.44  439.49</time>
   <energy>
    <i name="e_fr_energy">   -173.86115844 </i>
    <i name="e_wo_entrp">   -173.78110122 </i>
    <i name="e_0_energy">   -173.84114414 </i>
   </energy>
  </scstep>
  <scstep>
   <time name="diag">  114.72  114.73</time>
   <time name="diis">  265.36  265.38</time>
   <time name="orth">   27.82   27.82</time>
   <time name="total">  471.26  471.31</time>
   <energy>
    <i name="e_fr_energy">   -173.86391702 </i>
    <i name="e_wo_entrp">   -173.78374975 </i>
    <i name="e_0_energy">   -173.84387520 </i>
   </energy>
  </scstep>
  <scstep>
   <time name="diag">  119.92  119.93</time>
   <time name="diis">  227.57  227.60</time>
   <time name="orth">   30.01   30.02</time>
   <time name="total">  442.57  442.61</time>
   <energy>
    <i name="e_fr_energy">   -173.86534436 </i>
    <i name="e_wo_entrp">   -173.78529875 </i>
    <i name="e_0_energy">   -173.84533296 </i>
   </energy>
  </scstep>
  <scstep>
   <time name="diag">  110.93  110.94</time>
   <time name="diis">  200.51  200.53</time>
   <time name="orth">   31.13   31.13</time>
   <time name="total">  413.30  413.34</time>
   <energy>
    <i name="e_fr_energy">   -173.86626348 </i>
    <i name="e_wo_entrp">   -173.78633150 </i>
    <i name="e_0_energy">   -173.84628049 </i>
   </energy>
  </scstep>
  <scstep>
   <time name="diag">  116.63  116.64</time>
   <time name="diis">  160.38  160.39</time>
   <time name="orth">   29.13   29.13</time>
   <time name="total">  373.00  373.04</time>
   <energy>
    <i name="e_fr_energy">   -173.86788597 </i>
    <i name="e_wo_entrp">   -173.78755558 </i>
    <i name="e_0_energy">   -173.84780337 </i>
   </energy>
  </scstep>
  <scstep>
   <time name="diag">  109.63  109.64</time>
   <time name="diis">  148.78  148.79</time>
   <time name="orth">   26.35   26.35</time>
   <time name="total">  344.24  344.28</time>
   <energy>
    <i name="e_fr_energy">   -173.86869834 </i>
    <i name="e_wo_entrp">   -173.78848170 </i>
    <i name="e_0_energy">   -173.84864418 </i>
   </energy>
  </scstep>
  <scstep>
   <time name="diag">  108.85  108.86</time>
   <time name="diis">  160.54  160.56</time>
   <time name="orth">   26.95   26.96</time>
   <time name="total">  352.07  352.11</time>
   <energy>
    <i name="e_fr_energy">   -173.87127885 </i>
    <i name="e_wo_entrp">   -173.79072773 </i>
    <i name="e_0_energy">   -173.85114107 </i>
   </energy>
  </scstep>
  <scstep>
   <time name="diag">  102.47  102.48</time>
   <time name="diis">  169.95  169.97</time>
   <time name="orth">   26.58   26.58</time>
   <time name="total">  353.18  353.22</time>
   <energy>
    <i name="e_fr_energy">   -173.87316429 </i>
    <i name="e_wo_entrp">   -173.79311047 </i>
    <i name="e_0_energy">   -173.85315083 </i>
   </energy>
  </scstep>
  <scstep>
   <time name="diag">   99.44   99.45</time>
   <time name="diis">  161.39  161.41</time>
   <time name="orth">   27.98   27.98</time>
   <time name="total">  348.93  348.96</time>
   <energy>
    <i name="e_fr_energy">   -173.87459059 </i>
    <i name="e_wo_entrp">   -173.79358758 </i>
    <i name="e_0_energy">   -173.85433984 </i>
   </energy>
  </scstep>
  <scstep>
   <time name="diag">  101.61  101.62</time>
   <time name="diis">  152.97  152.98</time>
   <time name="orth">   28.50   28.50</time>
   <time name="total">  345.61  345.65</time>
   <energy>
    <i name="e_fr_energy">   -173.87615213 </i>
    <i name="e_wo_entrp">   -173.79566371 </i>
    <i name="e_0_energy">   -173.85603002 </i>
   </energy>
  </scstep>
  <scstep>
   <time name="diag">  108.87  108.89</time>
   <time name="diis">  146.00  146.02</time>
   <time name="orth">   26.42   26.42</time>
   <time name="total">  342.32  342.36</time>
   <energy>
    <i name="e_fr_energy">   -173.87652132 </i>
    <i name="e_wo_entrp">   -173.79588828 </i>
    <i name="e_0_energy">   -173.85636306 </i>
   </energy>
  </scstep>
  <scstep>
   <time name="diag">  109.60  109.61</time>
   <time name="diis">  156.66  156.68</time>
   <time name="orth">   26.55   26.55</time>
   <time name="total">  348.67  348.70</time>
   <energy>
    <i name="e_fr_energy">   -173.87718867 </i>
    <i name="e_wo_entrp">   -173.79656287 </i>
    <i name="e_0_energy">   -173.85703222 </i>
   </energy>
  </scstep>
  <scstep>
   <time name="diag">  106.89  106.89</time>
   <time name="diis">  168.35  168.38</time>
   <time name="orth">   30.22   30.22</time>
   <time name="total">  365.50  365.54</time>
   <energy>
    <i name="e_fr_energy">   -173.87743446 </i>
    <i name="e_wo_entrp">   -173.79697480 </i>
    <i name="e_0_energy">   -173.85731955 </i>
   </energy>
  </scstep>
  <scstep>
   <time name="diag">  108.15  108.16</time>
   <time name="diis">  157.55  157.57</time>
   <time name="orth">   30.58   30.59</time>
   <time name="total">  365.47  365.51</time>
   <energy>
    <i name="e_fr_energy">   -173.87777157 </i>
    <i name="e_wo_entrp">   -173.79729042 </i>
    <i name="e_0_energy">   -173.85765129 </i>
   </energy>
  </scstep>
  <scstep>
   <time name="diag">  117.86  117.87</time>
   <time name="diis">  138.29  138.31</time>
   <time name="orth">   29.41   29.41</time>
   <time name="total">  359.80  359.85</time>
   <energy>
    <i name="e_fr_energy">   -173.87819856 </i>
    <i name="e_wo_entrp">   -173.79775786 </i>
    <i name="e_0_energy">   -173.85808838 </i>
   </energy>
  </scstep>
  <scstep>
   <time name="diag">  125.98  125.99</time>
   <time name="diis">  138.86  138.87</time>
   <time name="orth">   30.50   30.51</time>
   <time name="total">  367.13  367.18</time>
   <energy>
    <i name="e_fr_energy">   -173.87837281 </i>
    <i name="e_wo_entrp">   -173.79796625 </i>
    <i name="e_0_energy">   -173.85827117 </i>
   </energy>
  </scstep>
  <scstep>
   <time name="diag">  127.35  127.38</time>
   <time name="diis">  170.24  170.26</time>
   <time name="orth">   30.69   30.69</time>
   <time name="total">  397.57  397.64</time>
   <energy>
    <i name="e_fr_energy">   -173.87883105 </i>
    <i name="e_wo_entrp">   -173.79833369 </i>
    <i name="e_0_energy">   -173.85870671 </i>
   </energy>
  </scstep>
  <scstep>
   <time name="diag">  109.31  109.34</time>
   <time name="diis">  109.48  109.49</time>
   <time name="orth">   28.12   28.12</time>
   <time name="total">  311.25  311.29</time>
   <energy>
    <i name="e_fr_energy">   -173.87899320 </i>
    <i name="e_wo_entrp">   -173.79857049 </i>
    <i name="e_0_energy">   -173.85888752 </i>
   </energy>
  </scstep>
  <scstep>
   <time name="diag">  110.51  110.53</time>
   <time name="diis">  110.63  110.64</time>
   <time name="orth">   26.80   26.80</time>
   <time name="total">  306.21  306.27</time>
   <energy>
    <i name="e_fr_energy">   -173.87919053 </i>
    <i name="e_wo_entrp">   -173.79875500 </i>
    <i name="e_0_energy">   -173.85908165 </i>
   </energy>
  </scstep>
  <scstep>
   <time name="diag">  109.80  109.81</time>
   <time name="diis">  113.81  113.82</time>
   <time name="orth">   27.35   27.35</time>
   <time name="total">  311.22  311.25</time>
   <energy>
    <i name="e_fr_energy">   -173.87932688 </i>
    <i name="e_wo_entrp">   -173.79890899 </i>
    <i name="e_0_energy">   -173.85922241 </i>
   </energy>
  </scstep>
  <scstep>
   <time name="diag">  102.64  102.65</time>
   <time name="diis">  118.28  118.29</time>
   <time name="orth">   28.74   28.74</time>
   <time name="total">  310.19  310.22</time>
   <energy>
    <i name="e_fr_energy">   -173.87945768 </i>
    <i name="e_wo_entrp">   -173.79901228 </i>
    <i name="e_0_energy">   -173.85934633 </i>
   </energy>
  </scstep>
  <scstep>
   <time name="diag">  106.18  106.19</time>
   <time name="diis">  102.38  102.39</time>
   <time name="orth">   27.81   27.81</time>
   <time name="total">  257.03  257.05</time>
   <energy>
    <i name="alphaZ">     75.25431677 </i>
    <i name="ewald"> 137955.19077366 </i>
    <i name="hartreedc">-182330.97032887 </i>
    <i name="XCdc">  -1693.30995184 </i>
    <i name="pawpsdc">  46037.48164832 </i>
    <i name="pawaedc"> -42506.82109236 </i>
    <i name="eentropy">     -0.08044140 </i>
    <i name="bandstr">  -2797.12996888 </i>
    <i name="atom">  45086.50549395 </i>
    <i name="e_fr_energy">   -173.87955064 </i>
    <i name="e_wo_entrp">   -173.79910924 </i>
    <i name="e_0_energy">   -173.85944029 </i>
   </energy>
  </scstep>
  <structure>
   <crystal>
    <varray name="basis" >
     <v>      30.00000000       0.00000000       0.00000000 </v>
     <v>       0.00000000      30.00000000       0.00000000 </v>
     <v>       0.00000000       0.00000000      30.00000000 </v>
    </varray>
    <i name="volume">  27000.00000000 </i>
    <varray name="rec_basis" >
     <v>       0.03333333       0.00000000       0.00000000 </v>
     <v>       0.00000000       0.03333333       0.00000000 </v>
     <v>       0.00000000       0.00000000       0.03333333 </v>
    </varray>
   </crystal>
   <varray name="positions" >
    <v>       0.44576020       0.32826710       0.41691983 </v>
    <v>       0.67173288       0.55423978       0.41691983 </v>
    <v>       0.55423980       0.32826710       0.41691983 </v>
    <v>       0.32826712       0.55423978       0.41691983 </v>
    <v>       0.50000000       0.38250690       0.34021317 </v>
    <v>       0.50000000       0.38250690       0.65978680 </v>
    <v>       0.50000000       0.27609440       0.50000000 </v>
    <v>       0.27609443       0.49999998       0.50000000 </v>
    <v>       0.72390557       0.49999998       0.50000000 </v>
    <v>       0.50000000       0.72390555       0.50000000 </v>
    <v>       0.61195280       0.38804720       0.34167483 </v>
    <v>       0.61195280       0.38804720       0.65832513 </v>
    <v>       0.38804722       0.61195278       0.34167483 </v>
    <v>       0.38804722       0.61195278       0.65832513 </v>
    <v>       0.38804720       0.38804720       0.34167483 </v>
    <v>       0.38804720       0.38804720       0.65832513 </v>
    <v>       0.61195278       0.61195278       0.34167483 </v>
    <v>       0.61195278       0.61195278       0.65832513 </v>
    <v>       0.44576020       0.32826710       0.58308023 </v>
    <v>       0.67173288       0.55423978       0.58308023 </v>
    <v>       0.55791699       0.44208301       0.41809300 </v>
    <v>       0.32826705       0.44576024       0.41691983 </v>
    <v>       0.55423973       0.67173293       0.41691983 </v>
    <v>       0.55423980       0.32826710       0.58308023 </v>
    <v>       0.32826712       0.55423978       0.58308023 </v>
    <v>       0.67173295       0.44576024       0.41691983 </v>
    <v>       0.44576027       0.67173293       0.41691983 </v>
    <v>       0.44208301       0.44208301       0.41809300 </v>
    <v>       0.50000000       0.38416601       0.50000000 </v>
    <v>       0.61749315       0.50000005       0.34021317 </v>
    <v>       0.61749315       0.50000005       0.65978680 </v>
    <v>       0.38250685       0.50000005       0.34021317 </v>
    <v>       0.38250685       0.50000005       0.65978680 </v>
    <v>       0.38317830       0.38317830       0.50000000 </v>
    <v>       0.61682172       0.61682172       0.50000000 </v>
    <v>       0.61682170       0.38317830       0.50000000 </v>
    <v>       0.38317828       0.61682172       0.50000000 </v>
    <v>       0.50000000       0.50000000       0.33478917 </v>
    <v>       0.50000000       0.50000000       0.66521087 </v>
    <v>       0.32826705       0.44576024       0.58308023 </v>
    <v>       0.55423973       0.67173293       0.58308023 </v>
    <v>       0.55791699       0.44208301       0.58190703 </v>
    <v>       0.44208298       0.55791702       0.41809300 </v>
    <v>       0.44208301       0.44208301       0.58190703 </v>
    <v>       0.67173295       0.44576024       0.58308023 </v>
    <v>       0.44576027       0.67173293       0.58308023 </v>
    <v>       0.55791702       0.55791702       0.41809300 </v>
    <v>       0.38416599       0.50000002       0.50000000 </v>
    <v>       0.61583401       0.50000002       0.50000000 </v>
    <v>       0.50000000       0.61749319       0.34021317 </v>
    <v>       0.50000000       0.61749319       0.65978680 </v>
    <v>       0.50000000       0.50000000       0.50000000 </v>
    <v>       0.44208298       0.55791702       0.58190703 </v>
    <v>       0.55791702       0.55791702       0.58190703 </v>
    <v>       0.50000000       0.61583404       0.50000000 </v>
    <v>       0.51709413       0.52713870       0.25134823 </v>
    <v>       0.51965780       0.53120877       0.21405720 </v>
   </varray>
  </structure>
  <varray name="forces" >
   <v>       0.70176219       1.10696489       0.29070005 </v>
   <v>      -1.10440688      -0.70115483       0.29389630 </v>
   <v>      -0.70027554       1.10695849       0.29180967 </v>
   <v>       1.10662079      -0.70011195       0.29268830 </v>
   <v>      -0.00046529       0.39903448       1.30369405 </v>
   <v>       0.00017726       0.40888996      -1.28106986 </v>
   <v>      -0.00006311       1.51505248       0.00010948 </v>
   <v>       1.51451112       0.00007527      -0.00025842 </v>
   <v>      -1.51373936       0.00024266      -0.00178920 </v>
   <v>       0.00036590      -1.51367565      -0.00250779 </v>
   <v>      -0.75698619       0.75509879       1.07349999 </v>
   <v>      -0.75436776       0.75543425      -1.07294939 </v>
   <v>       0.75347974      -0.75696587       1.07461351 </v>
   <v>       0.75585793      -0.75447948      -1.07334891 </v>
   <v>       0.75592454       0.75604533       1.07149941 </v>
   <v>       0.75471657       0.75501029      -1.07287976 </v>
   <v>      -0.75013300      -0.75212068       1.07709644 </v>
   <v>      -0.75556727      -0.75490128      -1.07261588 </v>
   <v>       0.70247330       1.10770010      -0.29363624 </v>
   <v>      -1.10747381      -0.70165634      -0.29056327 </v>
   <v>       0.10501602      -0.11986164      -0.15408715 </v>
   <v>       1.10748627       0.70271741       0.29010769 </v>
   <v>      -0.70230853      -1.10415692       0.29346848 </v>
   <v>      -0.70210936       1.10664763      -0.29191752 </v>
   <v>       1.10699068      -0.70213819      -0.29129522 </v>
   <v>      -1.10929660       0.70474550       0.28916282 </v>
   <v>       0.70479220      -1.10804307       0.28956858 </v>
   <v>      -0.08301953      -0.08668818      -0.17866557 </v>
   <v>      -0.00116921      -0.22376797      -0.00021297 </v>
   <v>      -0.37534583      -0.00383432       1.31226864 </v>
   <v>      -0.41019157       0.00050299      -1.28075535 </v>
   <v>       0.39437981      -0.00156222       1.30641528 </v>
   <v>       0.40927790       0.00041131      -1.28117016 </v>
   <v>       0.82250730       0.82178456       0.01100210 </v>
   <v>      -0.82648413      -0.82672464       0.00270894 </v>
   <v>      -0.82369147       0.82121458       0.01059198 </v>
   <v>       0.82260678      -0.82482653       0.00840816 </v>
   <v>       0.14739619       0.23203111       0.17511869 </v>
   <v>       0.00146148       0.00248930      -1.18204478 </v>
   <v>       1.10800592       0.70230696      -0.29362351 </v>
   <v>      -0.70208576      -1.10833015      -0.29025485 </v>
   <v>       0.11270143      -0.11303156       0.15592829 </v>
   <v>      -0.12998866       0.11526082      -0.14721199 </v>
   <v>      -0.11271005      -0.11263611       0.15590723 </v>
   <v>      -1.10817645       0.70091608      -0.29159446 </v>
   <v>       0.70126587      -1.10873755      -0.29054363 </v>
   <v>       0.13286272       0.12940541      -0.14127080 </v>
   <v>      -0.22372308      -0.00183420       0.00071003 </v>
   <v>       0.22293840      -0.00120758       0.00245797 </v>
   <v>      -0.00095831      -0.37689981       1.30275118 </v>
   <v>       0.00029398      -0.41007518      -1.28128210 </v>
   <v>       0.00007377       0.00011142      -0.00631074 </v>
   <v>      -0.11337123       0.11281035       0.15622563 </v>
   <v>       0.11301095       0.11290807       0.15618698 </v>
   <v>      -0.00051917       0.22290161       0.00311272 </v>
   <v>      -0.39402643      -0.60111570       3.60128275 </v>
   <v>       0.20369661       0.31486548      -2.72913184 </v>
  </varray>
  <varray name="stress" >
   <v>      -6.74252144      -0.00927077       0.01973969 </v>
   <v>      -0.00927079      -6.75111700       0.02900372 </v>
   <v>       0.01973968       0.02900375      -6.71189221 </v>
  </varray>
  <energy>
   <i name="e_fr_energy">   -173.87955064 </i>
   <i name="e_wo_entrp">   -173.85944029 </i>
   <i name="e_0_energy">     -0.08044140 </i>
  </energy>
  <time name="totalsc">28270.8128274.03</time>
  <eigenvalues>
   <array>
    <dimension dim="1">band</dimension>
    <dimension dim="2">kpoint</dimension>
    <dimension dim="3">spin</dimension>
    <field>eigene</field>
    <field>occ</field>
    <set>
     <set comment="spin 1">
      <set comment="kpoint 1">
       <r>  -29.1953    1.0000 </r>
       <r>  -13.7150    1.0000 </r>
       <r>  -11.4965    1.0000 </r>
       <r>  -11.4960    1.0000 </r>
       <r>   -9.2992    1.0000 </r>
       <r>   -6.6211    1.0000 </r>
       <r>   -6.1044    1.0000 </r>
       <r>   -6.1038    1.0000 </r>
       <r>   -6.0958    1.0000 </r>
       <r>   -5.7900    1.0000 </r>
       <r>   -5.7895    1.0000 </r>
       <r>   -5.7881    1.0000 </r>
       <r>   -5.7214    1.0000 </r>
       <r>   -5.6695    1.0000 </r>
       <r>   -5.6611    1.0000 </r>
       <r>   -5.6610    1.0000 </r>
       <r>   -5.6607    1.0000 </r>
       <r>   -5.5992    1.0000 </r>
       <r>   -5.5973    1.0000 </r>
       <r>   -5.5837    1.0000 </r>
       <r>   -5.5727    1.0000 </r>
       <r>   -5.5726    1.0000 </r>
       <r>   -5.5716    1.0000 </r>
       <r>   -5.5281    1.0000 </r>
       <r>   -5.5280    1.0000 </r>
       <r>   -5.5252    1.0000 </r>
       <r>   -5.5235    1.0000 </r>
       <r>   -5.4973    1.0000 </r>
       <r>   -5.4967    1.0000 </r>
       <r>   -5.4959    1.0000 </r>
       <r>   -5.4909    1.0000 </r>
       <r>   -5.4906    1.0000 </r>
       <r>   -5.4901    1.0000 </r>
       <r>   -5.4898    1.0000 </r>
       <r>   -5.4881    1.0000 </r>
       <r>   -5.4544    1.0000 </r>
       <r>   -5.4541    1.0000 </r>
       <r>   -5.4468    1.0000 </r>
       <r>   -5.4459    1.0000 </r>
       <r>   -5.4448    1.0000 </r>
       <r>   -5.4434    1.0000 </r>
       <r>   -5.4431    1.0000 </r>
       <r>   -5.4429    1.0000 </r>
       <r>   -5.4085    1.0000 </r>
       <r>   -5.4084    1.0000 </r>
       <r>   -5.4055    1.0000 </r>
       <r>   -5.4047    1.0000 </r>
       <r>   -5.4028    1.0000 </r>
       <r>   -5.4001    1.0000 </r>
       <r>   -5.3990    1.0000 </r>
       <r>   -5.3979    1.0000 </r>
       <r>   -5.3850    1.0000 </r>
       <r>   -5.3821    1.0000 </r>
       <r>   -5.3818    1.0000 </r>
       <r>   -5.3676    1.0000 </r>
       <r>   -5.3060    1.0000 </r>
       <r>   -5.3050    1.0000 </r>
       <r>   -5.3039    1.0000 </r>
       <r>   -5.3030    1.0000 </r>
       <r>   -5.2924    1.0000 </r>
       <r>   -5.2921    1.0000 </r>
       <r>   -5.2919    1.0000 </r>
       <r>   -5.2788    1.0000 </r>
       <r>   -5.2771    1.0000 </r>
       <r>   -5.2757    1.0000 </r>
       <r>   -5.2651    1.0000 </r>
       <r>   -5.2639    1.0000 </r>
       <r>   -5.1933    1.0000 </r>
       <r>   -5.1868    1.0000 </r>
       <r>   -5.1833    1.0000 </r>
       <r>   -5.1815    1.0000 </r>
       <r>   -5.1565    1.0000 </r>
       <r>   -5.1562    1.0000 </r>
       <r>   -5.1549    1.0000 </r>
       <r>   -5.1535    1.0000 </r>
       <r>   -5.1504    1.0000 </r>
       <r>   -5.1400    1.0000 </r>
       <r>   -5.1389    1.0000 </r>
       <r>   -5.1372    1.0000 </r>
       <r>   -5.1231    1.0000 </r>
       <r>   -5.1033    1.0000 </r>
       <r>   -5.0997    1.0000 </r>
       <r>   -5.0994    1.0000 </r>
       <r>   -5.0905    1.0000 </r>
       <r>   -5.0797    1.0000 </r>
       <r>   -5.0790    1.0000 </r>
       <r>   -5.0782    1.0000 </r>
       <r>   -5.0373    1.0000 </r>
       <r>   -5.0343    1.0000 </r>
       <r>   -5.0321    1.0000 </r>
       <r>   -5.0313    1.0000 </r>
       <r>   -5.0307    1.0000 </r>
       <r>   -5.0290    1.0000 </r>
       <r>   -5.0240    1.0000 </r>
       <r>   -5.0238    1.0000 </r>
       <r>   -5.0159    1.0000 </r>
       <r>   -5.0119    1.0000 </r>
       <r>   -5.0035    1.0000 </r>
       <r>   -4.9940    1.0000 </r>
       <r>   -4.9931    1.0000 </r>
       <r>   -4.9809    1.0000 </r>
       <r>   -4.9809    1.0000 </r>
       <r>   -4.9807    1.0000 </r>
       <r>   -4.9700    1.0000 </r>
       <r>   -4.9691    1.0000 </r>
       <r>   -4.9666    1.0000 </r>
       <r>   -4.9558    1.0000 </r>
       <r>   -4.9555    1.0000 </r>
       <r>   -4.9553    1.0000 </r>
       <r>   -4.9482    1.0000 </r>
       <r>   -4.9441    1.0000 </r>
       <r>   -4.9426    1.0000 </r>
       <r>   -4.9369    1.0000 </r>
       <r>   -4.9313    1.0000 </r>
       <r>   -4.9284    1.0000 </r>
       <r>   -4.9282    1.0000 </r>
       <r>   -4.9174    1.0000 </r>
       <r>   -4.8936    1.0000 </r>
       <r>   -4.8930    1.0000 </r>
       <r>   -4.8927    1.0000 </r>
       <r>   -4.8841    1.0000 </r>
       <r>   -4.8834    1.0000 </r>
       <r>   -4.8811    1.0000 </r>
       <r>   -4.8782    1.0000 </r>
       <r>   -4.8773    1.0000 </r>
       <r>   -4.8770    1.0000 </r>
       <r>   -4.8280    1.0000 </r>
       <r>   -4.8228    1.0000 </r>
       <r>   -4.8200    1.0000 </r>
       <r>   -4.8189    1.0000 </r>
       <r>   -4.8177    1.0000 </r>
       <r>   -4.8169    1.0000 </r>
       <r>   -4.8066    1.0000 </r>
       <r>   -4.8064    1.0000 </r>
       <r>   -4.8055    1.0000 </r>
       <r>   -4.7802    0.9999 </r>
       <r>   -4.7703    0.9999 </r>
       <r>   -4.7670    0.9999 </r>
       <r>   -4.7670    0.9999 </r>
       <r>   -4.7572    0.9999 </r>
       <r>   -4.7482    0.9998 </r>
       <r>   -4.7371    0.9998 </r>
       <r>   -4.7129    0.9996 </r>
       <r>   -4.7128    0.9996 </r>
       <r>   -4.7124    0.9996 </r>
       <r>   -4.7067    0.9996 </r>
       <r>   -4.7017    0.9995 </r>
       <r>   -4.6827    0.9993 </r>
       <r>   -4.6755    0.9992 </r>
       <r>   -4.6717    0.9991 </r>
       <r>   -4.6663    0.9990 </r>
       <r>   -4.6581    0.9988 </r>
       <r>   -4.6527    0.9987 </r>
       <r>   -4.6504    0.9987 </r>
       <r>   -4.6494    0.9986 </r>
       <r>   -4.6487    0.9986 </r>
       <r>   -4.6479    0.9986 </r>
       <r>   -4.6478    0.9986 </r>
       <r>   -4.6391    0.9984 </r>
       <r>   -4.6287    0.9981 </r>
       <r>   -4.6263    0.9980 </r>
       <r>   -4.6261    0.9980 </r>
       <r>   -4.6235    0.9979 </r>
       <r>   -4.6229    0.9979 </r>
       <r>   -4.6209    0.9979 </r>
       <r>   -4.6208    0.9978 </r>
       <r>   -4.6181    0.9978 </r>
       <r>   -4.6157    0.9977 </r>
       <r>   -4.6054    0.9973 </r>
       <r>   -4.6034    0.9972 </r>
       <r>   -4.5869    0.9966 </r>
       <r>   -4.5785    0.9963 </r>
       <r>   -4.5738    0.9961 </r>
       <r>   -4.5727    0.9961 </r>
       <r>   -4.5726    0.9961 </r>
       <r>   -4.5689    0.9960 </r>
       <r>   -4.5681    0.9959 </r>
       <r>   -4.5635    0.9958 </r>
       <r>   -4.5595    0.9957 </r>
       <r>   -4.5589    0.9956 </r>
       <r>   -4.5488    0.9954 </r>
       <r>   -4.5292    0.9951 </r>
       <r>   -4.5280    0.9951 </r>
       <r>   -4.5273    0.9951 </r>
       <r>   -4.5272    0.9951 </r>
       <r>   -4.5267    0.9951 </r>
       <r>   -4.5265    0.9951 </r>
       <r>   -4.5265    0.9951 </r>
       <r>   -4.5243    0.9951 </r>
       <r>   -4.5239    0.9951 </r>
       <r>   -4.4840    0.9970 </r>
       <r>   -4.4814    0.9973 </r>
       <r>   -4.4800    0.9975 </r>
       <r>   -4.4795    0.9976 </r>
       <r>   -4.4787    0.9977 </r>
       <r>   -4.4664    0.9995 </r>
       <r>   -4.4564    1.0014 </r>
       <r>   -4.4559    1.0015 </r>
       <r>   -4.4530    1.0021 </r>
       <r>   -4.4439    1.0044 </r>
       <r>   -4.4431    1.0046 </r>
       <r>   -4.4349    1.0070 </r>
       <r>   -4.4319    1.0079 </r>
       <r>   -4.4316    1.0081 </r>
       <r>   -4.4236    1.0108 </r>
       <r>   -4.4228    1.0111 </r>
       <r>   -4.4223    1.0113 </r>
       <r>   -4.4208    1.0118 </r>
       <r>   -4.4200    1.0121 </r>
       <r>   -4.4148    1.0141 </r>
       <r>   -4.4018    1.0196 </r>
       <r>   -4.3860    1.0269 </r>
       <r>   -4.3845    1.0276 </r>
       <r>   -4.3838    1.0280 </r>
       <r>   -4.3831    1.0283 </r>
       <r>   -4.3791    1.0302 </r>
       <r>   -4.3765    1.0315 </r>
       <r>   -4.3757    1.0319 </r>
       <r>   -4.3748    1.0323 </r>
       <r>   -4.3499    1.0436 </r>
       <r>   -4.3465    1.0449 </r>
       <r>   -4.3394    1.0473 </r>
       <r>   -4.3185    1.0515 </r>
       <r>   -4.3163    1.0516 </r>
       <r>   -4.3133    1.0516 </r>
       <r>   -4.3126    1.0516 </r>
       <r>   -4.3125    1.0516 </r>
       <r>   -4.3113    1.0515 </r>
       <r>   -4.3110    1.0515 </r>
       <r>   -4.3084    1.0512 </r>
       <r>   -4.3046    1.0506 </r>
       <r>   -4.3032    1.0504 </r>
       <r>   -4.2993    1.0493 </r>
       <r>   -4.2984    1.0490 </r>
       <r>   -4.2965    1.0484 </r>
       <r>   -4.2962    1.0482 </r>
       <r>   -4.2954    1.0479 </r>
       <r>   -4.2944    1.0475 </r>
       <r>   -4.2919    1.0464 </r>
       <r>   -4.2918    1.0463 </r>
       <r>   -4.2783    1.0374 </r>
       <r>   -4.2749    1.0343 </r>
       <r>   -4.2649    1.0231 </r>
       <r>   -4.2644    1.0225 </r>
       <r>   -4.2594    1.0157 </r>
       <r>   -4.2589    1.0149 </r>
       <r>   -4.2585    1.0142 </r>
       <r>   -4.2579    1.0133 </r>
       <r>   -4.2526    1.0048 </r>
       <r>   -4.2485    0.9975 </r>
       <r>   -4.2377    0.9753 </r>
       <r>   -4.2312    0.9599 </r>
       <r>   -4.2302    0.9574 </r>
       <r>   -4.2294    0.9553 </r>
       <r>   -4.2243    0.9416 </r>
       <r>   -4.2234    0.9393 </r>
       <r>   -4.2233    0.9388 </r>
       <r>   -4.2195    0.9280 </r>
       <r>   -4.2180    0.9234 </r>
       <r>   -4.2179    0.9232 </r>
       <r>   -4.2123    0.9057 </r>
       <r>   -4.2113    0.9023 </r>
       <r>   -4.2111    0.9016 </r>
       <r>   -4.2107    0.9006 </r>
       <r>   -4.2078    0.8908 </r>
       <r>   -4.1960    0.8478 </r>
       <r>   -4.1949    0.8438 </r>
       <r>   -4.1927    0.8350 </r>
       <r>   -4.1922    0.8331 </r>
       <r>   -4.1895    0.8223 </r>
       <r>   -4.1893    0.8215 </r>
       <r>   -4.1888    0.8192 </r>
       <r>   -4.1671    0.7236 </r>
       <r>   -4.1659    0.7181 </r>
       <r>   -4.1645    0.7113 </r>
       <r>   -4.1555    0.6672 </r>
       <r>   -4.1549    0.6641 </r>
       <r>   -4.1508    0.6434 </r>
       <r>   -4.1438    0.6076 </r>
       <r>   -4.1432    0.6048 </r>
       <r>   -4.1428    0.6028 </r>
       <r>   -4.1292    0.5313 </r>
       <r>   -4.1035    0.3962 </r>
       <r>   -4.1033    0.3953 </r>
       <r>   -4.1025    0.3910 </r>
       <r>   -4.0993    0.3750 </r>
       <r>   -4.0875    0.3157 </r>
       <r>   -4.0847    0.3019 </r>
       <r>   -4.0722    0.2431 </r>
       <r>   -3.9446   -0.0500 </r>
       <r>   -3.8729   -0.0329 </r>
       <r>   -3.7944   -0.0024 </r>
       <r>   -3.7933   -0.0021 </r>
       <r>   -3.7903   -0.0014 </r>
       <r>   -3.4674    0.0001 </r>
       <r>   -3.4665    0.0001 </r>
       <r>   -3.4160    0.0000 </r>
       <r>   -3.0310    0.0000 </r>
       <r>   -3.0301    0.0000 </r>
       <r>   -2.9998    0.0000 </r>
       <r>   -2.9905    0.0000 </r>
       <r>   -2.9883    0.0000 </r>
       <r>   -2.9873    0.0000 </r>
       <r>   -2.9061    0.0000 </r>
       <r>   -2.8618    0.0000 </r>
       <r>   -2.5386    0.0000 </r>
       <r>   -2.5245    0.0000 </r>
       <r>   -2.4936    0.0000 </r>
       <r>   -2.2707    0.0000 </r>
       <r>   -2.0973    0.0000 </r>
       <r>   -2.0960    0.0000 </r>
       <r>   -2.0936    0.0000 </r>
       <r>   -1.9421    0.0000 </r>
       <r>   -1.9252    0.0000 </r>
       <r>   -1.8948    0.0000 </r>
       <r>   -1.8665    0.0000 </r>
       <r>   -1.8246    0.0000 </r>
       <r>   -1.7648    0.0000 </r>
       <r>   -1.7470    0.0000 </r>
       <r>   -1.7000    0.0000 </r>
       <r>   -1.6194    0.0000 </r>
       <r>   -1.5353    0.0000 </r>
       <r>   -1.5222    0.0000 </r>
       <r>   -1.4874    0.0000 </r>
       <r>   -1.4802    0.0000 </r>
       <r>   -1.1533    0.0000 </r>
       <r>   -1.1452    0.0000 </r>
       <r>   -1.0621    0.0000 </r>
       <r>   -0.9660    0.0000 </r>
       <r>   -0.9645    0.0000 </r>
       <r>   -0.9563    0.0000 </r>
       <r>   -0.9175    0.0000 </r>
       <r>   -0.9083    0.0000 </r>
       <r>   -0.8953    0.0000 </r>
       <r>   -0.7794    0.0000 </r>
       <r>   -0.7416    0.0000 </r>
      </set>
     </set>
    </set>
   </array>
  </eigenvalues>
  <separator name="orbital magnetization" >
   <v name="MAGDIPOLOUT">      0.00000000      0.00000000      0.00000000</v>
  </separator>
  <dos>
   <i name="efermi">     -4.12324112 </i>
   <total>
    <array>
     <dimension dim="1">gridpoints</dimension>
     <dimension dim="2">spin</dimension>
     <field>energy</field>
     <field>total</field>
     <field>integrated</field>
     <set>
      <set comment="spin 1">
       <r>   -31.1953     0.0000     0.0000 </r>
       <r>   -31.0872     0.0000     0.0000 </r>
       <r>   -30.9790     0.0000     0.0000 </r>
       <r>   -30.8708     0.0000     0.0000 </r>
       <r>   -30.7626     0.0000     0.0000 </r>
       <r>   -30.6544     0.0000     0.0000 </r>
       <r>   -30.5463     0.0000     0.0000 </r>
       <r>   -30.4381     0.0000     0.0000 </r>
       <r>   -30.3299     0.0000     0.0000 </r>
       <r>   -30.2217     0.0000     0.0000 </r>
       <r>   -30.1136     0.0000     0.0000 </r>
       <r>   -30.0054     0.0000     0.0000 </r>
       <r>   -29.8972     0.0004     0.0000 </r>
       <r>   -29.7890     0.0060     0.0007 </r>
       <r>   -29.6808     0.0409     0.0051 </r>
       <r>   -29.5727     0.0315     0.0085 </r>
       <r>   -29.4645    -0.5209    -0.0478 </r>
       <r>   -29.3563    -0.3323    -0.0838 </r>
       <r>   -29.2481     5.1268     0.4708 </r>
       <r>   -29.1399     9.9990     1.5525 </r>
       <r>   -29.0318     4.9425     2.0872 </r>
       <r>   -28.9236    -0.3865     2.0454 </r>
       <r>   -28.8154    -0.5008     1.9912 </r>
       <r>   -28.7072     0.0357     1.9951 </r>
       <r>   -28.5990     0.0396     1.9994 </r>
       <r>   -28.4909     0.0057     2.0000 </r>
       <r>   -28.3827     0.0003     2.0000 </r>
       <r>   -28.2745     0.0000     2.0000 </r>
       <r>   -28.1663     0.0000     2.0000 </r>
       <r>   -28.0582     0.0000     2.0000 </r>
       <r>   -27.9500     0.0000     2.0000 </r>
       <r>   -27.8418     0.0000     2.0000 </r>
       <r>   -27.7336     0.0000     2.0000 </r>
       <r>   -27.6254     0.0000     2.0000 </r>
       <r>   -27.5173     0.0000     2.0000 </r>
       <r>   -27.4091     0.0000     2.0000 </r>
       <r>   -27.3009     0.0000     2.0000 </r>
       <r>   -27.1927     0.0000     2.0000 </r>
       <r>   -27.0845     0.0000     2.0000 </r>
       <r>   -26.9764     0.0000     2.0000 </r>
       <r>   -26.8682     0.0000     2.0000 </r>
       <r>   -26.7600     0.0000     2.0000 </r>
       <r>   -26.6518     0.0000     2.0000 </r>
       <r>   -26.5436     0.0000     2.0000 </r>
       <r>   -26.4355     0.0000     2.0000 </r>
       <r>   -26.3273     0.0000     2.0000 </r>
       <r>   -26.2191     0.0000     2.0000 </r>
       <r>   -26.1109     0.0000     2.0000 </r>
       <r>   -26.0027     0.0000     2.0000 </r>
       <r>   -25.8946     0.0000     2.0000 </r>
       <r>   -25.7864     0.0000     2.0000 </r>
       <r>   -25.6782     0.0000     2.0000 </r>
       <r>   -25.5700     0.0000     2.0000 </r>
       <r>   -25.4619     0.0000     2.0000 </r>
       <r>   -25.3537     0.0000     2.0000 </r>
       <r>   -25.2455     0.0000     2.0000 </r>
       <r>   -25.1373     0.0000     2.0000 </r>
       <r>   -25.0291     0.0000     2.0000 </r>
       <r>   -24.9210     0.0000     2.0000 </r>
       <r>   -24.8128     0.0000     2.0000 </r>
       <r>   -24.7046     0.0000     2.0000 </r>
       <r>   -24.5964     0.0000     2.0000 </r>
       <r>   -24.4882     0.0000     2.0000 </r>
       <r>   -24.3801     0.0000     2.0000 </r>
       <r>   -24.2719     0.0000     2.0000 </r>
       <r>   -24.1637     0.0000     2.0000 </r>
       <r>   -24.0555     0.0000     2.0000 </r>
       <r>   -23.9473     0.0000     2.0000 </r>
       <r>   -23.8392     0.0000     2.0000 </r>
       <r>   -23.7310     0.0000     2.0000 </r>
       <r>   -23.6228     0.0000     2.0000 </r>
       <r>   -23.5146     0.0000     2.0000 </r>
       <r>   -23.4064     0.0000     2.0000 </r>
       <r>   -23.2983     0.0000     2.0000 </r>
       <r>   -23.1901     0.0000     2.0000 </r>
       <r>   -23.0819     0.0000     2.0000 </r>
       <r>   -22.9737     0.0000     2.0000 </r>
       <r>   -22.8656     0.0000     2.0000 </r>
       <r>   -22.7574     0.0000     2.0000 </r>
       <r>   -22.6492     0.0000     2.0000 </r>
       <r>   -22.5410     0.0000     2.0000 </r>
       <r>   -22.4328     0.0000     2.0000 </r>
       <r>   -22.3247     0.0000     2.0000 </r>
       <r>   -22.2165     0.0000     2.0000 </r>
       <r>   -22.1083     0.0000     2.0000 </r>
       <r>   -22.0001     0.0000     2.0000 </r>
       <r>   -21.8919     0.0000     2.0000 </r>
       <r>   -21.7838     0.0000     2.0000 </r>
       <r>   -21.6756     0.0000     2.0000 </r>
       <r>   -21.5674     0.0000     2.0000 </r>
       <r>   -21.4592     0.0000     2.0000 </r>
       <r>   -21.3510     0.0000     2.0000 </r>
       <r>   -21.2429     0.0000     2.0000 </r>
       <r>   -21.1347     0.0000     2.0000 </r>
       <r>   -21.0265     0.0000     2.0000 </r>
       <r>   -20.9183     0.0000     2.0000 </r>
       <r>   -20.8101     0.0000     2.0000 </r>
       <r>   -20.7020     0.0000     2.0000 </r>
       <r>   -20.5938     0.0000     2.0000 </r>
       <r>   -20.4856     0.0000     2.0000 </r>
       <r>   -20.3774     0.0000     2.0000 </r>
       <r>   -20.2693     0.0000     2.0000 </r>
       <r>   -20.1611     0.0000     2.0000 </r>
       <r>   -20.0529     0.0000     2.0000 </r>
       <r>   -19.9447     0.0000     2.0000 </r>
       <r>   -19.8365     0.0000     2.0000 </r>
       <r>   -19.7284     0.0000     2.0000 </r>
       <r>   -19.6202     0.0000     2.0000 </r>
       <r>   -19.5120     0.0000     2.0000 </r>
       <r>   -19.4038     0.0000     2.0000 </r>
       <r>   -19.2956     0.0000     2.0000 </r>
       <r>   -19.1875     0.0000     2.0000 </r>
       <r>   -19.0793     0.0000     2.0000 </r>
       <r>   -18.9711     0.0000     2.0000 </r>
       <r>   -18.8629     0.0000     2.0000 </r>
       <r>   -18.7547     0.0000     2.0000 </r>
       <r>   -18.6466     0.0000     2.0000 </r>
       <r>   -18.5384     0.0000     2.0000 </r>
       <r>   -18.4302     0.0000     2.0000 </r>
       <r>   -18.3220     0.0000     2.0000 </r>
       <r>   -18.2138     0.0000     2.0000 </r>
       <r>   -18.1057     0.0000     2.0000 </r>
       <r>   -17.9975     0.0000     2.0000 </r>
       <r>   -17.8893     0.0000     2.0000 </r>
       <r>   -17.7811     0.0000     2.0000 </r>
       <r>   -17.6730     0.0000     2.0000 </r>
       <r>   -17.5648     0.0000     2.0000 </r>
       <r>   -17.4566     0.0000     2.0000 </r>
       <r>   -17.3484     0.0000     2.0000 </r>
       <r>   -17.2402     0.0000     2.0000 </r>
       <r>   -17.1321     0.0000     2.0000 </r>
       <r>   -17.0239     0.0000     2.0000 </r>
       <r>   -16.9157     0.0000     2.0000 </r>
       <r>   -16.8075     0.0000     2.0000 </r>
       <r>   -16.6993     0.0000     2.0000 </r>
       <r>   -16.5912     0.0000     2.0000 </r>
       <r>   -16.4830     0.0000     2.0000 </r>
       <r>   -16.3748     0.0000     2.0000 </r>
       <r>   -16.2666     0.0000     2.0000 </r>
       <r>   -16.1584     0.0000     2.0000 </r>
       <r>   -16.0503     0.0000     2.0000 </r>
       <r>   -15.9421     0.0000     2.0000 </r>
       <r>   -15.8339     0.0000     2.0000 </r>
       <r>   -15.7257     0.0000     2.0000 </r>
       <r>   -15.6175     0.0000     2.0000 </r>
       <r>   -15.5094     0.0000     2.0000 </r>
       <r>   -15.4012     0.0000     2.0000 </r>
       <r>   -15.2930     0.0000     2.0000 </r>
       <r>   -15.1848     0.0000     2.0000 </r>
       <r>   -15.0767     0.0000     2.0000 </r>
       <r>   -14.9685     0.0000     2.0000 </r>
       <r>   -14.8603     0.0000     2.0000 </r>
       <r>   -14.7521     0.0000     2.0000 </r>
       <r>   -14.6439     0.0000     2.0000 </r>
       <r>   -14.5358     0.0000     2.0000 </r>
       <r>   -14.4276     0.0003     2.0000 </r>
       <r>   -14.3194     0.0047     2.0005 </r>
       <r>   -14.2112     0.0356     2.0044 </r>
       <r>   -14.1030     0.0466     2.0094 </r>
       <r>   -13.9949    -0.4389     1.9619 </r>
       <r>   -13.8867    -0.5311     1.9045 </r>
       <r>   -13.7785     4.3761     2.3779 </r>
       <r>   -13.6703     9.9518     3.4545 </r>
       <r>   -13.5621     5.6965     4.0707 </r>
       <r>   -13.4540    -0.1405     4.0555 </r>
       <r>   -13.3458    -0.5820     3.9926 </r>
       <r>   -13.2376     0.0161     3.9943 </r>
       <r>   -13.1294     0.0451     3.9992 </r>
       <r>   -13.0212     0.0072     3.9999 </r>
       <r>   -12.9131     0.0005     4.0000 </r>
       <r>   -12.8049     0.0000     4.0000 </r>
       <r>   -12.6967     0.0000     4.0000 </r>
       <r>   -12.5885     0.0000     4.0000 </r>
       <r>   -12.4804     0.0000     4.0000 </r>
       <r>   -12.3722     0.0000     4.0000 </r>
       <r>   -12.2640     0.0001     4.0000 </r>
       <r>   -12.1558     0.0024     4.0003 </r>
       <r>   -12.0476     0.0288     4.0034 </r>
       <r>   -11.9395     0.1208     4.0164 </r>
       <r>   -11.8313    -0.1891     3.9960 </r>
       <r>   -11.7231    -1.5710     3.8261 </r>
       <r>   -11.6149     2.1820     4.0621 </r>
       <r>   -11.5067    15.8751     5.7795 </r>
       <r>   -11.3986    18.0222     7.7291 </r>
       <r>   -11.2904     4.3556     8.2003 </r>
       <r>   -11.1822    -1.6197     8.0250 </r>
       <r>   -11.0740    -0.4060     7.9811 </r>
       <r>   -10.9658     0.1282     7.9950 </r>
       <r>   -10.8577     0.0421     7.9995 </r>
       <r>   -10.7495     0.0041     8.0000 </r>
       <r>   -10.6413     0.0002     8.0000 </r>
       <r>   -10.5331     0.0000     8.0000 </r>
       <r>   -10.4249     0.0000     8.0000 </r>
       <r>   -10.3168     0.0000     8.0000 </r>
       <r>   -10.2086     0.0000     8.0000 </r>
       <r>   -10.1004     0.0000     8.0000 </r>
       <r>    -9.9922     0.0005     8.0001 </r>
       <r>    -9.8841     0.0073     8.0008 </r>
       <r>    -9.7759     0.0454     8.0058 </r>
       <r>    -9.6677     0.0146     8.0073 </r>
       <r>    -9.5595    -0.5872     7.9438 </r>
       <r>    -9.4513    -0.1224     7.9306 </r>
       <r>    -9.3432     5.7448     8.5520 </r>
       <r>    -9.2350     9.9445     9.6278 </r>
       <r>    -9.1268     4.3283    10.0961 </r>
       <r>    -9.0186    -0.5418    10.0374 </r>
       <r>    -8.9104    -0.4337     9.9905 </r>
       <r>    -8.8023     0.0473     9.9957 </r>
       <r>    -8.6941     0.0353     9.9995 </r>
       <r>    -8.5859     0.0046    10.0000 </r>
       <r>    -8.4777     0.0003    10.0000 </r>
       <r>    -8.3695     0.0000    10.0000 </r>
       <r>    -8.2614     0.0000    10.0000 </r>
       <r>    -8.1532     0.0000    10.0000 </r>
       <r>    -8.0450     0.0000    10.0000 </r>
       <r>    -7.9368     0.0000    10.0000 </r>
       <r>    -7.8286     0.0000    10.0000 </r>
       <r>    -7.7205     0.0000    10.0000 </r>
       <r>    -7.6123     0.0000    10.0000 </r>
       <r>    -7.5041     0.0000    10.0000 </r>
       <r>    -7.3959     0.0000    10.0000 </r>
       <r>    -7.2878     0.0010    10.0001 </r>
       <r>    -7.1796     0.0126    10.0015 </r>
       <r>    -7.0714     0.0578    10.0077 </r>
       <r>    -6.9632    -0.0646    10.0007 </r>
       <r>    -6.8550    -0.7548     9.9191 </r>
       <r>    -6.7469     0.7805    10.0035 </r>
       <r>    -6.6387     7.5615    10.8215 </r>
       <r>    -6.5305     9.4916    11.8483 </r>
       <r>    -6.4223     2.1166    12.0773 </r>
       <r>    -6.3141    -3.1439    11.7372 </r>
       <r>    -6.2060     5.4686    12.3287 </r>
       <r>    -6.0978    25.9482    15.1358 </r>
       <r>    -5.9896    22.5854    17.5791 </r>
       <r>    -5.8814     7.7872    18.4215 </r>
       <r>    -5.7732    25.8565    21.2186 </r>
       <r>    -5.6651    69.8680    28.7769 </r>
       <r>    -5.5569   163.7868    46.4952 </r>
       <r>    -5.4487   286.0061    77.4351 </r>
       <r>    -5.3405   295.4351   109.3950 </r>
       <r>    -5.2323   216.2849   132.7925 </r>
       <r>    -5.1242   221.7470   156.7809 </r>
       <r>    -5.0160   321.9333   191.6074 </r>
       <r>    -4.9078   370.2373   231.6594 </r>
       <r>    -4.7996   311.4131   265.3478 </r>
       <r>    -4.6915   308.9775   298.7727 </r>
       <r>    -4.5833   400.8741   342.1389 </r>
       <r>    -4.4751   424.3396   388.0436 </r>
       <r>    -4.3669   437.4558   435.3672 </r>
       <r>    -4.2587   542.0984   494.0109 </r>
       <r>    -4.1506   517.0751   549.9477 </r>
       <r>    -4.0424   252.2627   577.2373 </r>
       <r>    -3.9342    39.3828   581.4977 </r>
       <r>    -3.8260    17.8976   583.4338 </r>
       <r>    -3.7178    31.7103   586.8642 </r>
       <r>    -3.6097    11.3301   588.0899 </r>
       <r>    -3.5015    13.8422   589.5873 </r>
       <r>    -3.3933    28.4488   592.6649 </r>
       <r>    -3.2851    12.2816   593.9935 </r>
       <r>    -3.1769    -4.0706   593.5531 </r>
       <r>    -3.0688    23.5056   596.0959 </r>
       <r>    -2.9606    65.8968   603.2246 </r>
       <r>    -2.8524    53.1778   608.9773 </r>
       <r>    -2.7442    10.7282   610.1379 </r>
       <r>    -2.6361     1.1408   610.2613 </r>
       <r>    -2.5279    22.0899   612.6510 </r>
       <r>    -2.4197    26.2513   615.4908 </r>
       <r>    -2.3115    10.4681   616.6232 </r>
       <r>    -2.2033    11.3885   617.8553 </r>
       <r>    -2.0952    26.3404   620.7047 </r>
       <r>    -1.9870    36.6565   624.6702 </r>
       <r>    -1.8788    47.0710   629.7623 </r>
       <r>    -1.7706    51.2280   635.3041 </r>
       <r>    -1.6624    40.7966   639.7174 </r>
       <r>    -1.5543    40.2369   644.0702 </r>
       <r>    -1.4461    40.4518   648.4463 </r>
       <r>    -1.3379    15.5154   650.1247 </r>
       <r>    -1.2297     2.4622   650.3911 </r>
       <r>    -1.1215    18.8776   652.4332 </r>
       <r>    -1.0134    43.5070   657.1398 </r>
       <r>    -0.9052    62.4188   663.8922 </r>
       <r>    -0.7970    50.4810   669.3532 </r>
       <r>    -0.6888    22.0452   671.7380 </r>
       <r>    -0.5806     3.9969   672.1704 </r>
       <r>    -0.4725    -1.3605   672.0232 </r>
       <r>    -0.3643    -0.4570   671.9738 </r>
       <r>    -0.2561     0.1631   671.9914 </r>
       <r>    -0.1479     0.0702   671.9990 </r>
       <r>    -0.0398     0.0087   671.9999 </r>
       <r>     0.0684     0.0005   672.0000 </r>
       <r>     0.1766     0.0000   672.0000 </r>
       <r>     0.2848     0.0000   672.0000 </r>
       <r>     0.3930     0.0000   672.0000 </r>
       <r>     0.5011     0.0000   672.0000 </r>
       <r>     0.6093     0.0000   672.0000 </r>
       <r>     0.7175     0.0000   672.0000 </r>
       <r>     0.8257     0.0000   672.0000 </r>
       <r>     0.9339     0.0000   672.0000 </r>
       <r>     1.0420     0.0000   672.0000 </r>
       <r>     1.1502     0.0000   672.0000 </r>
       <r>     1.2584     0.0000   672.0000 </r>
      </set>
     </set>
    </array>
   </total>
  </dos>
 </calculation>
 <structure name="finalpos" >
  <crystal>
   <varray name="basis" >
    <v>      30.00000000       0.00000000       0.00000000 </v>
    <v>       0.00000000      30.00000000       0.00000000 </v>
    <v>       0.00000000       0.00000000      30.00000000 </v>
   </varray>
   <i name="volume">  27000.00000000 </i>
   <varray name="rec_basis" >
    <v>       0.03333333       0.00000000       0.00000000 </v>
    <v>       0.00000000       0.03333333       0.00000000 </v>
    <v>       0.00000000       0.00000000       0.03333333 </v>
   </varray>
  </crystal>
  <varray name="positions" >
   <v>       0.44576020       0.32826710       0.41691983 </v>
   <v>       0.67173288       0.55423978       0.41691983 </v>
   <v>       0.55423980       0.32826710       0.41691983 </v>
   <v>       0.32826712       0.55423978       0.41691983 </v>
   <v>       0.50000000       0.38250690       0.34021317 </v>
   <v>       0.50000000       0.38250690       0.65978680 </v>
   <v>       0.50000000       0.27609440       0.50000000 </v>
   <v>       0.27609443       0.49999998       0.50000000 </v>
   <v>       0.72390557       0.49999998       0.50000000 </v>
   <v>       0.50000000       0.72390555       0.50000000 </v>
   <v>       0.61195280       0.38804720       0.34167483 </v>
   <v>       0.61195280       0.38804720       0.65832513 </v>
   <v>       0.38804722       0.61195278       0.34167483 </v>
   <v>       0.38804722       0.61195278       0.65832513 </v>
   <v>       0.38804720       0.38804720       0.34167483 </v>
   <v>       0.38804720       0.38804720       0.65832513 </v>
   <v>       0.61195278       0.61195278       0.34167483 </v>
   <v>       0.61195278       0.61195278       0.65832513 </v>
   <v>       0.44576020       0.32826710       0.58308023 </v>
   <v>       0.67173288       0.55423978       0.58308023 </v>
   <v>       0.55791699       0.44208301       0.41809300 </v>
   <v>       0.32826705       0.44576024       0.41691983 </v>
   <v>       0.55423973       0.67173293       0.41691983 </v>
   <v>       0.55423980       0.32826710       0.58308023 </v>
   <v>       0.32826712       0.55423978       0.58308023 </v>
   <v>       0.67173295       0.44576024       0.41691983 </v>
   <v>       0.44576027       0.67173293       0.41691983 </v>
   <v>       0.44208301       0.44208301       0.41809300 </v>
   <v>       0.50000000       0.38416601       0.50000000 </v>
   <v>       0.61749315       0.50000005       0.34021317 </v>
   <v>       0.61749315       0.50000005       0.65978680 </v>
   <v>       0.38250685       0.50000005       0.34021317 </v>
   <v>       0.38250685       0.50000005       0.65978680 </v>
   <v>       0.38317830       0.38317830       0.50000000 </v>
   <v>       0.61682172       0.61682172       0.50000000 </v>
   <v>       0.61682170       0.38317830       0.50000000 </v>
   <v>       0.38317828       0.61682172       0.50000000 </v>
   <v>       0.50000000       0.50000000       0.33478917 </v>
   <v>       0.50000000       0.50000000       0.66521087 </v>
   <v>       0.32826705       0.44576024       0.58308023 </v>
   <v>       0.55423973       0.67173293       0.58308023 </v>
   <v>       0.55791699       0.44208301       0.58190703 </v>
   <v>       0.44208298       0.55791702       0.41809300 </v>
   <v>       0.44208301       0.44208301       0.58190703 </v>
   <v>       0.67173295       0.44576024       0.58308023 </v>
   <v>       0.44576027       0.67173293       0.58308023 </v>
   <v>       0.55791702       0.55791702       0.41809300 </v>
   <v>       0.38416599       0.50000002       0.50000000 </v>
   <v>       0.61583401       0.50000002       0.50000000 </v>
   <v>       0.50000000       0.61749319       0.34021317 </v>
   <v>       0.50000000       0.61749319       0.65978680 </v>
   <v>       0.50000000       0.50000000       0.50000000 </v>
   <v>       0.44208298       0.55791702       0.58190703 </v>
   <v>       0.55791702       0.55791702       0.58190703 </v>
   <v>       0.50000000       0.61583404       0.50000000 </v>
   <v>       0.51709413       0.52713870       0.25134823 </v>
   <v>       0.51965780       0.53120877       0.21405720 </v>
  </varray>
  <varray name="selective"  type="logical" >
   <v type="logical" >  F  F  F </v>
   <v type="logical" >  F  F  F </v>
   <v type="logical" >  F  F  F </v>
   <v type="logical" >  F  F  F </v>
   <v type="logical" >  F  F  F </v>
   <v type="logical" >  F  F  F </v>
   <v type="logical" >  F  F  F </v>
   <v type="logical" >  F  F  F </v>
   <v type="logical" >  F  F  F </v>
   <v type="logical" >  F  F  F </v>
   <v type="logical" >  F  F  F </v>
   <v type="logical" >  F  F  F </v>
   <v type="logical" >  F  F  F </v>
   <v type="logical" >  F  F  F </v>
   <v type="logical" >  F  F  F </v>
   <v type="logical" >  F  F  F </v>
   <v type="logical" >  F  F  F </v>
   <v type="logical" >  F  F  F </v>
   <v type="logical" >  F  F  F </v>
   <v type="logical" >  F  F  F </v>
   <v type="logical" >  F  F  F </v>
   <v type="logical" >  F  F  F </v>
   <v type="logical" >  F  F  F </v>
   <v type="logical" >  F  F  F </v>
   <v type="logical" >  F  F  F </v>
   <v type="logical" >  F  F  F </v>
   <v type="logical" >  F  F  F </v>
   <v type="logical" >  F  F  F </v>
   <v type="logical" >  F  F  F </v>
   <v type="logical" >  F  F  F </v>
   <v type="logical" >  F  F  F </v>
   <v type="logical" >  F  F  F </v>
   <v type="logical" >  F  F  F </v>
   <v type="logical" >  F  F  F </v>
   <v type="logical" >  F  F  F </v>
   <v type="logical" >  F  F  F </v>
   <v type="logical" >  F  F  F </v>
   <v type="logical" >  F  F  F </v>
   <v type="logical" >  F  F  F </v>
   <v type="logical" >  F  F  F </v>
   <v type="logical" >  F  F  F </v>
   <v type="logical" >  F  F  F </v>
   <v type="logical" >  F  F  F </v>
   <v type="logical" >  F  F  F </v>
   <v type="logical" >  F  F  F </v>
   <v type="logical" >  F  F  F </v>
   <v type="logical" >  F  F  F </v>
   <v type="logical" >  F  F  F </v>
   <v type="logical" >  F  F  F </v>
   <v type="logical" >  F  F  F </v>
   <v type="logical" >  F  F  F </v>
   <v type="logical" >  F  F  F </v>
   <v type="logical" >  F  F  F </v>
   <v type="logical" >  F  F  F </v>
   <v type="logical" >  F  F  F </v>
   <v type="logical" >  F  F  F </v>
   <v type="logical" >  F  F  F </v>
  </varray>
  <nose>
   <v>      -3.00000000       0.00000000       0.00010000       0.00010000 </v>
  </nose>
 </structure>
</modeling>
