  57  57   0   0
  0.4736842E+03  0.3000000E-08  0.3000000E-08  0.3000000E-08  0.5000000E-15
  1.000000000000000E-004
  CAR 
 6_Pd100_top_free_z(O)                   
      1.38783340    -31.30050473  301     -4.12558391      1.00000000
    -31.301  0.0000E+00  0.0000E+00
    -31.192  0.0000E+00  0.0000E+00
    -31.083  0.0000E+00  0.0000E+00
    -30.974  0.5822E-27  0.6344E-28
    -30.865  0.3190E-23  0.3476E-24
    -30.756  0.9495E-20  0.1035E-20
    -30.647  0.1531E-16  0.1669E-17
    -30.538  0.1332E-13  0.1453E-14
    -30.429  0.6228E-11  0.6801E-12
    -30.320  0.1550E-08  0.1695E-09
    -30.211  0.2031E-06  0.2230E-07
    -30.102  0.1377E-04  0.1523E-05
    -29.993  0.4682E-03  0.5254E-04
    -29.884  0.7468E-02  0.8662E-03
    -29.775  0.4628E-01  0.5909E-02
    -29.666  0.8541E-02  0.6839E-02
    -29.557 -0.6110E+00 -0.5974E-01
    -29.448 -0.5966E-02 -0.6039E-01
    -29.339  0.6082E+01  0.6023E+00
    -29.230  0.9858E+01  0.1676E+01
    -29.121  0.3890E+01  0.2100E+01
    -29.012 -0.6366E+00  0.2031E+01
    -28.903 -0.3744E+00  0.1990E+01
    -28.794  0.5522E-01  0.1996E+01
    -28.685  0.3083E-01  0.2000E+01
    -28.576  0.3643E-02  0.2000E+01
    -28.468  0.1815E-03  0.2000E+01
    -28.359  0.4352E-05  0.2000E+01
    -28.250  0.5290E-07  0.2000E+01
    -28.141  0.3347E-09  0.2000E+01
    -28.032  0.1119E-11  0.2000E+01
    -27.923  0.2038E-14  0.2000E+01
    -27.814  0.0000E+00  0.2000E+01
    -27.705  0.0000E+00  0.2000E+01
    -27.596  0.0000E+00  0.2000E+01
    -27.487  0.0000E+00  0.2000E+01
    -27.378  0.0000E+00  0.2000E+01
    -27.269  0.0000E+00  0.2000E+01
    -27.160  0.0000E+00  0.2000E+01
    -27.051  0.0000E+00  0.2000E+01
    -26.942  0.0000E+00  0.2000E+01
    -26.833  0.0000E+00  0.2000E+01
    -26.724  0.0000E+00  0.2000E+01
    -26.615  0.0000E+00  0.2000E+01
    -26.506  0.0000E+00  0.2000E+01
    -26.397  0.0000E+00  0.2000E+01
    -26.288  0.0000E+00  0.2000E+01
    -26.179  0.0000E+00  0.2000E+01
    -26.070  0.0000E+00  0.2000E+01
    -25.961  0.0000E+00  0.2000E+01
    -25.852  0.0000E+00  0.2000E+01
    -25.743  0.0000E+00  0.2000E+01
    -25.635  0.0000E+00  0.2000E+01
    -25.526  0.0000E+00  0.2000E+01
    -25.417  0.0000E+00  0.2000E+01
    -25.308  0.0000E+00  0.2000E+01
    -25.199  0.0000E+00  0.2000E+01
    -25.090  0.0000E+00  0.2000E+01
    -24.981  0.0000E+00  0.2000E+01
    -24.872  0.0000E+00  0.2000E+01
    -24.763  0.0000E+00  0.2000E+01
    -24.654  0.0000E+00  0.2000E+01
    -24.545  0.0000E+00  0.2000E+01
    -24.436  0.0000E+00  0.2000E+01
    -24.327  0.0000E+00  0.2000E+01
    -24.218  0.0000E+00  0.2000E+01
    -24.109  0.0000E+00  0.2000E+01
    -24.000  0.0000E+00  0.2000E+01
    -23.891  0.0000E+00  0.2000E+01
    -23.782  0.0000E+00  0.2000E+01
    -23.673  0.0000E+00  0.2000E+01
    -23.564  0.0000E+00  0.2000E+01
    -23.455  0.0000E+00  0.2000E+01
    -23.346  0.0000E+00  0.2000E+01
    -23.237  0.0000E+00  0.2000E+01
    -23.128  0.0000E+00  0.2000E+01
    -23.019  0.0000E+00  0.2000E+01
    -22.910  0.0000E+00  0.2000E+01
    -22.802  0.0000E+00  0.2000E+01
    -22.693  0.0000E+00  0.2000E+01
    -22.584  0.0000E+00  0.2000E+01
    -22.475  0.0000E+00  0.2000E+01
    -22.366  0.0000E+00  0.2000E+01
    -22.257  0.0000E+00  0.2000E+01
    -22.148  0.0000E+00  0.2000E+01
    -22.039  0.0000E+00  0.2000E+01
    -21.930  0.0000E+00  0.2000E+01
    -21.821  0.0000E+00  0.2000E+01
    -21.712  0.0000E+00  0.2000E+01
    -21.603  0.0000E+00  0.2000E+01
    -21.494  0.0000E+00  0.2000E+01
    -21.385  0.0000E+00  0.2000E+01
    -21.276  0.0000E+00  0.2000E+01
    -21.167  0.0000E+00  0.2000E+01
    -21.058  0.0000E+00  0.2000E+01
    -20.949  0.0000E+00  0.2000E+01
    -20.840  0.0000E+00  0.2000E+01
    -20.731  0.0000E+00  0.2000E+01
    -20.622  0.0000E+00  0.2000E+01
    -20.513  0.0000E+00  0.2000E+01
    -20.404  0.0000E+00  0.2000E+01
    -20.295  0.0000E+00  0.2000E+01
    -20.186  0.0000E+00  0.2000E+01
    -20.078  0.0000E+00  0.2000E+01
    -19.969  0.0000E+00  0.2000E+01
    -19.860  0.0000E+00  0.2000E+01
    -19.751  0.0000E+00  0.2000E+01
    -19.642  0.0000E+00  0.2000E+01
    -19.533  0.0000E+00  0.2000E+01
    -19.424  0.0000E+00  0.2000E+01
    -19.315  0.0000E+00  0.2000E+01
    -19.206  0.0000E+00  0.2000E+01
    -19.097  0.0000E+00  0.2000E+01
    -18.988  0.0000E+00  0.2000E+01
    -18.879  0.0000E+00  0.2000E+01
    -18.770  0.0000E+00  0.2000E+01
    -18.661  0.0000E+00  0.2000E+01
    -18.552  0.0000E+00  0.2000E+01
    -18.443  0.0000E+00  0.2000E+01
    -18.334  0.0000E+00  0.2000E+01
    -18.225  0.0000E+00  0.2000E+01
    -18.116  0.0000E+00  0.2000E+01
    -18.007  0.0000E+00  0.2000E+01
    -17.898  0.0000E+00  0.2000E+01
    -17.789  0.0000E+00  0.2000E+01
    -17.680  0.0000E+00  0.2000E+01
    -17.571  0.0000E+00  0.2000E+01
    -17.462  0.0000E+00  0.2000E+01
    -17.353  0.0000E+00  0.2000E+01
    -17.245  0.0000E+00  0.2000E+01
    -17.136  0.0000E+00  0.2000E+01
    -17.027  0.0000E+00  0.2000E+01
    -16.918  0.0000E+00  0.2000E+01
    -16.809  0.0000E+00  0.2000E+01
    -16.700  0.0000E+00  0.2000E+01
    -16.591  0.0000E+00  0.2000E+01
    -16.482  0.0000E+00  0.2000E+01
    -16.373  0.0000E+00  0.2000E+01
    -16.264  0.0000E+00  0.2000E+01
    -16.155  0.0000E+00  0.2000E+01
    -16.046  0.0000E+00  0.2000E+01
    -15.937  0.0000E+00  0.2000E+01
    -15.828  0.0000E+00  0.2000E+01
    -15.719  0.0000E+00  0.2000E+01
    -15.610  0.0000E+00  0.2000E+01
    -15.501  0.1935E-27  0.2000E+01
    -15.392  0.1142E-23  0.2000E+01
    -15.283  0.3666E-20  0.2000E+01
    -15.174  0.6375E-17  0.2000E+01
    -15.065  0.5985E-14  0.2000E+01
    -14.956  0.3023E-11  0.2000E+01
    -14.847  0.8132E-09  0.2000E+01
    -14.738  0.1154E-06  0.2000E+01
    -14.629  0.8501E-05  0.2000E+01
    -14.520  0.3154E-03  0.2000E+01
    -14.412  0.5554E-02  0.2001E+01
    -14.303  0.3952E-01  0.2005E+01
    -14.194  0.3449E-01  0.2009E+01
    -14.085 -0.5110E+00  0.1953E+01
    -13.976 -0.3392E+00  0.1916E+01
    -13.867  0.5146E+01  0.2477E+01
    -13.758  0.9989E+01  0.3565E+01
    -13.649  0.4815E+01  0.4090E+01
    -13.540 -0.4330E+00  0.4043E+01
    -13.431 -0.4750E+00  0.3991E+01
    -13.322  0.4135E-01  0.3995E+01
    -13.213  0.3718E-01  0.3999E+01
    -13.104  0.4987E-02  0.4000E+01
    -12.995  0.2736E-03  0.4000E+01
    -12.886  0.7151E-05  0.4000E+01
    -12.777  0.9434E-07  0.4000E+01
    -12.668  0.8805E-09  0.4000E+01
    -12.559  0.4190E-07  0.4000E+01
    -12.450  0.3916E-05  0.4000E+01
    -12.341  0.1867E-03  0.4000E+01
    -12.232  0.4343E-02  0.4000E+01
    -12.123  0.4426E-01  0.4005E+01
    -12.014  0.1274E+00  0.4019E+01
    -11.905 -0.4618E+00  0.3969E+01
    -11.796 -0.1588E+01  0.3796E+01
    -11.688  0.5077E+01  0.4349E+01
    -11.579  0.1856E+02  0.6372E+01
    -11.470  0.1495E+02  0.8000E+01
    -11.361  0.1456E+01  0.8159E+01
    -11.252 -0.1488E+01  0.7997E+01
    -11.143 -0.1090E+00  0.7985E+01
    -11.034  0.1125E+00  0.7997E+01
    -10.925  0.2310E-01  0.8000E+01
    -10.816  0.1700E-02  0.8000E+01
    -10.707  0.5749E-04  0.8000E+01
    -10.598  0.9656E-06  0.8000E+01
    -10.489  0.9127E-08  0.8000E+01
    -10.380  0.1105E-06  0.8000E+01
    -10.271  0.8188E-05  0.8000E+01
    -10.162  0.3058E-03  0.8000E+01
    -10.053  0.5426E-02  0.8001E+01
     -9.944  0.3901E-01  0.8005E+01
     -9.835  0.3607E-01  0.8009E+01
     -9.726 -0.5032E+00  0.7954E+01
     -9.617 -0.3606E+00  0.7915E+01
     -9.508  0.5074E+01  0.8468E+01
     -9.399  0.9991E+01  0.9556E+01
     -9.290  0.4887E+01  0.1009E+02
     -9.181 -0.4136E+00  0.1004E+02
     -9.072 -0.4828E+00  0.9991E+01
     -8.963  0.3995E-01  0.9995E+01
     -8.855  0.3769E-01  0.9999E+01
     -8.746  0.5106E-02  0.1000E+02
     -8.637  0.2822E-03  0.1000E+02
     -8.528  0.7426E-05  0.1000E+02
     -8.419  0.9858E-07  0.1000E+02
     -8.310  0.6794E-09  0.1000E+02
     -8.201  0.2472E-11  0.1000E+02
     -8.092  0.4076E-14  0.1000E+02
     -7.983  0.6244E-17  0.1000E+02
     -7.874  0.5872E-14  0.1000E+02
     -7.765  0.2971E-11  0.1000E+02
     -7.656  0.8008E-09  0.1000E+02
     -7.547  0.1139E-06  0.1000E+02
     -7.438  0.8403E-05  0.1000E+02
     -7.329  0.3124E-03  0.1000E+02
     -7.220  0.5514E-02  0.1000E+02
     -7.111  0.3937E-01  0.1000E+02
     -7.002  0.3498E-01  0.1001E+02
     -6.893 -0.5086E+00  0.9953E+01
     -6.784 -0.3440E+00  0.9916E+01
     -6.675  0.5151E+01  0.1048E+02
     -6.566  0.1014E+02  0.1158E+02
     -6.457  0.4787E+01  0.1210E+02
     -6.348 -0.2418E+01  0.1184E+02
     -6.239  0.6897E+00  0.1192E+02
     -6.130  0.2048E+02  0.1415E+02
     -6.022  0.2711E+02  0.1710E+02
     -5.913  0.9544E+01  0.1814E+02
     -5.804  0.1761E+02  0.2006E+02
     -5.695  0.5659E+02  0.2623E+02
     -5.586  0.1352E+03  0.4096E+02
     -5.477  0.2604E+03  0.6934E+02
     -5.368  0.3056E+03  0.1026E+03
     -5.259  0.2343E+03  0.1282E+03
     -5.150  0.2115E+03  0.1512E+03
     -5.041  0.2976E+03  0.1836E+03
     -4.932  0.3684E+03  0.2238E+03
     -4.823  0.3228E+03  0.2590E+03
     -4.714  0.2941E+03  0.2910E+03
     -4.605  0.3848E+03  0.3329E+03
     -4.496  0.4331E+03  0.3801E+03
     -4.387  0.4289E+03  0.4269E+03
     -4.278  0.5218E+03  0.4837E+03
     -4.169  0.5419E+03  0.5428E+03
     -4.060  0.2996E+03  0.5754E+03
     -3.951  0.5376E+02  0.5813E+03
     -3.842  0.1207E+02  0.5826E+03
     -3.733  0.3396E+02  0.5863E+03
     -3.624  0.1571E+02  0.5880E+03
     -3.515  0.1236E+02  0.5893E+03
     -3.406  0.2835E+02  0.5924E+03
     -3.297  0.1466E+02  0.5940E+03
     -3.189 -0.4235E+01  0.5936E+03
     -3.080  0.1889E+02  0.5956E+03
     -2.971  0.6416E+02  0.6026E+03
     -2.862  0.5835E+02  0.6090E+03
     -2.753  0.1294E+02  0.6104E+03
     -2.644 -0.4628E+01  0.6099E+03
     -2.535  0.1417E+02  0.6114E+03
     -2.426  0.3169E+02  0.6149E+03
     -2.317  0.2032E+02  0.6171E+03
     -2.208  0.8137E+01  0.6180E+03
     -2.099  0.2446E+02  0.6206E+03
     -1.990  0.4412E+02  0.6254E+03
     -1.881  0.4148E+02  0.6300E+03
     -1.772  0.3954E+02  0.6343E+03
     -1.663  0.4617E+02  0.6393E+03
     -1.554  0.4882E+02  0.6446E+03
     -1.445  0.3693E+02  0.6487E+03
     -1.336  0.1384E+02  0.6502E+03
     -1.227  0.1138E+02  0.6514E+03
     -1.118  0.2282E+02  0.6539E+03
     -1.009  0.3520E+02  0.6577E+03
     -0.900  0.5509E+02  0.6637E+03
     -0.791  0.4443E+02  0.6686E+03
     -0.682  0.1747E+02  0.6705E+03
     -0.573  0.9436E+01  0.6715E+03
     -0.465  0.5020E+01  0.6720E+03
     -0.356 -0.9802E-02  0.6720E+03
     -0.247 -0.4819E+00  0.6720E+03
     -0.138  0.4029E-01  0.6720E+03
     -0.029  0.4929E-01  0.6720E+03
      0.080  0.7601E-02  0.6720E+03
      0.189  0.4711E-03  0.6720E+03
      0.298  0.1381E-04  0.6720E+03
      0.407  0.2033E-06  0.6720E+03
      0.516  0.1550E-08  0.6720E+03
      0.625  0.6228E-11  0.6720E+03
      0.734  0.1426E-13  0.6720E+03
      0.843  0.0000E+00  0.6720E+03
      0.952  0.0000E+00  0.6720E+03
      1.061  0.0000E+00  0.6720E+03
      1.170  0.0000E+00  0.6720E+03
      1.279  0.0000E+00  0.6720E+03
      1.388  0.0000E+00  0.6720E+03
