   57   57    1    1
  0.4736842E+03  0.3000000E-08  0.3000000E-08  0.3000000E-08  0.5000000E-15
  1.000000000000000E-004
  CAR 
 6_Pd100_top_free_z(O)                   
    560      1    336
 
  0.0000000E+00  0.0000000E+00  0.0000000E+00  0.1000000E+01
    1      -28.196427   1.000000
    2      -13.445192   1.000000
    3      -11.246266   1.000000
    4      -10.815978   1.000000
    5      -10.579670   1.000000
    6       -6.733521   1.000000
    7       -6.673743   1.000000
    8       -6.617949   1.000000
    9       -6.211236   1.000000
   10       -6.142966   1.000000
   11       -6.138653   1.000000
   12       -5.965875   1.000000
   13       -5.844113   1.000000
   14       -5.828672   1.000000
   15       -5.822794   1.000000
   16       -5.785741   1.000000
   17       -5.755561   1.000000
   18       -5.714799   1.000000
   19       -5.706244   1.000000
   20       -5.695841   1.000000
   21       -5.692474   1.000000
   22       -5.658337   1.000000
   23       -5.635753   1.000000
   24       -5.617457   1.000000
   25       -5.611600   1.000000
   26       -5.605734   1.000000
   27       -5.596345   1.000000
   28       -5.586667   1.000000
   29       -5.562253   1.000000
   30       -5.561074   1.000000
   31       -5.550622   1.000000
   32       -5.541997   1.000000
   33       -5.533303   1.000000
   34       -5.532511   1.000000
   35       -5.526712   1.000000
   36       -5.526620   1.000000
   37       -5.521657   1.000000
   38       -5.513792   1.000000
   39       -5.510156   1.000000
   40       -5.492366   1.000000
   41       -5.488191   1.000000
   42       -5.486582   1.000000
   43       -5.482016   1.000000
   44       -5.480855   1.000000
   45       -5.477189   1.000000
   46       -5.468738   1.000000
   47       -5.450106   1.000000
   48       -5.445139   1.000000
   49       -5.441525   1.000000
   50       -5.439040   1.000000
   51       -5.437658   1.000000
   52       -5.435636   1.000000
   53       -5.420234   1.000000
   54       -5.419440   1.000000
   55       -5.410404   1.000000
   56       -5.409466   1.000000
   57       -5.394312   1.000000
   58       -5.384148   1.000000
   59       -5.365578   1.000000
   60       -5.346139   1.000000
   61       -5.339827   1.000000
   62       -5.335016   1.000000
   63       -5.330599   1.000000
   64       -5.327010   1.000000
   65       -5.320020   1.000000
   66       -5.315979   1.000000
   67       -5.314101   1.000000
   68       -5.306521   1.000000
   69       -5.268152   1.000000
   70       -5.252806   1.000000
   71       -5.242434   1.000000
   72       -5.223861   1.000000
   73       -5.221836   1.000000
   74       -5.213118   1.000000
   75       -5.204739   1.000000
   76       -5.194898   1.000000
   77       -5.193878   1.000000
   78       -5.191255   1.000000
   79       -5.179755   1.000000
   80       -5.178497   1.000000
   81       -5.177994   1.000000
   82       -5.153173   1.000000
   83       -5.145775   1.000000
   84       -5.140485   1.000000
   85       -5.133427   1.000000
   86       -5.127939   1.000000
   87       -5.125579   1.000000
   88       -5.113329   1.000000
   89       -5.106288   1.000000
   90       -5.092255   1.000000
   91       -5.088296   1.000000
   92       -5.073540   1.000000
   93       -5.068941   1.000000
   94       -5.067926   1.000000
   95       -5.067404   1.000000
   96       -5.063842   1.000000
   97       -5.056405   1.000000
   98       -5.052172   1.000000
   99       -5.051088   1.000000
  100       -5.042482   1.000000
  101       -5.038445   1.000000
  102       -5.035347   1.000000
  103       -5.024324   1.000000
  104       -5.017617   1.000000
  105       -5.017127   1.000000
  106       -5.016710   1.000000
  107       -5.012021   1.000000
  108       -5.004459   1.000000
  109       -4.996235   1.000000
  110       -4.993473   1.000000
  111       -4.991247   1.000000
  112       -4.986400   1.000000
  113       -4.975320   1.000000
  114       -4.974117   0.999999
  115       -4.971378   0.999999
  116       -4.970232   0.999999
  117       -4.959254   0.999999
  118       -4.956944   0.999999
  119       -4.946781   0.999999
  120       -4.932508   0.999998
  121       -4.927427   0.999997
  122       -4.925579   0.999997
  123       -4.921358   0.999997
  124       -4.916968   0.999996
  125       -4.915069   0.999996
  126       -4.913204   0.999996
  127       -4.904926   0.999994
  128       -4.887542   0.999990
  129       -4.877033   0.999987
  130       -4.865933   0.999981
  131       -4.854517   0.999974
  132       -4.853838   0.999973
  133       -4.852991   0.999973
  134       -4.849633   0.999970
  135       -4.845356   0.999966
  136       -4.843297   0.999964
  137       -4.822297   0.999935
  138       -4.813631   0.999918
  139       -4.807267   0.999903
  140       -4.800749   0.999885
  141       -4.789368   0.999846
  142       -4.785131   0.999829
  143       -4.778687   0.999799
  144       -4.770447   0.999755
  145       -4.755101   0.999650
  146       -4.751143   0.999617
  147       -4.742761   0.999540
  148       -4.734703   0.999452
  149       -4.732677   0.999428
  150       -4.717477   0.999219
  151       -4.709798   0.999092
  152       -4.704333   0.998992
  153       -4.701627   0.998940
  154       -4.696624   0.998837
  155       -4.693951   0.998779
  156       -4.686272   0.998601
  157       -4.686190   0.998599
  158       -4.684872   0.998567
  159       -4.683404   0.998531
  160       -4.679295   0.998425
  161       -4.673541   0.998268
  162       -4.662811   0.997949
  163       -4.660356   0.997871
  164       -4.660099   0.997863
  165       -4.658659   0.997816
  166       -4.658271   0.997804
  167       -4.657442   0.997777
  168       -4.653848   0.997657
  169       -4.647095   0.997425
  170       -4.645801   0.997379
  171       -4.630734   0.996827
  172       -4.624337   0.996587
  173       -4.615262   0.996248
  174       -4.613834   0.996195
  175       -4.610263   0.996065
  176       -4.609047   0.996022
  177       -4.606100   0.995918
  178       -4.603193   0.995819
  179       -4.602186   0.995785
  180       -4.594517   0.995544
  181       -4.589456   0.995404
  182       -4.582834   0.995250
  183       -4.580494   0.995205
  184       -4.572856   0.995098
  185       -4.570444   0.995079
  186       -4.567494   0.995066
  187       -4.564315   0.995067
  188       -4.563475   0.995070
  189       -4.561650   0.995080
  190       -4.558659   0.995110
  191       -4.539344   0.995738
  192       -4.538618   0.995779
  193       -4.528162   0.996533
  194       -4.524682   0.996858
  195       -4.516746   0.997751
  196       -4.515387   0.997927
  197       -4.513742   0.998148
  198       -4.504791   0.999535
  199       -4.497000   1.001007
  200       -4.487849   1.003071
  201       -4.487569   1.003140
  202       -4.479006   1.005422
  203       -4.476009   1.006300
  204       -4.471372   1.007740
  205       -4.468807   1.008578
  206       -4.468341   1.008733
  207       -4.461053   1.011289
  208       -4.459668   1.011801
  209       -4.453572   1.014149
  210       -4.451333   1.015049
  211       -4.441797   1.019087
  212       -4.437344   1.021074
  213       -4.430064   1.024433
  214       -4.427043   1.025858
  215       -4.421699   1.028410
  216       -4.420950   1.028770
  217       -4.419614   1.029413
  218       -4.417042   1.030651
  219       -4.413893   1.032167
  220       -4.410937   1.033585
  221       -4.397744   1.039715
  222       -4.381605   1.046206
  223       -4.377927   1.047428
  224       -4.376123   1.047983
  225       -4.363824   1.050819
  226       -4.361811   1.051102
  227       -4.350220   1.051515
  228       -4.349641   1.051476
  229       -4.348332   1.051364
  230       -4.346674   1.051176
  231       -4.346329   1.051130
  232       -4.344826   1.050903
  233       -4.341380   1.050209
  234       -4.338636   1.049475
  235       -4.335974   1.048603
  236       -4.334969   1.048232
  237       -4.334069   1.047879
  238       -4.333290   1.047558
  239       -4.330839   1.046452
  240       -4.327674   1.044801
  241       -4.322294   1.041391
  242       -4.313462   1.034030
  243       -4.310904   1.031463
  244       -4.302971   1.022180
  245       -4.300818   1.019303
  246       -4.300342   1.018646
  247       -4.296254   1.012682
  248       -4.295835   1.012039
  249       -4.291456   1.004937
  250       -4.284260   0.991761
  251       -4.280364   0.983826
  252       -4.277003   0.976521
  253       -4.273970   0.969558
  254       -4.270799   0.961902
  255       -4.266906   0.951972
  256       -4.266310   0.950400
  257       -4.261770   0.937969
  258       -4.261269   0.936550
  259       -4.257939   0.926862
  260       -4.256430   0.922329
  261       -4.254903   0.917654
  262       -4.252513   0.910158
  263       -4.249780   0.901316
  264       -4.248490   0.897043
  265       -4.247739   0.894528
  266       -4.238863   0.863200
  267       -4.238500   0.861858
  268       -4.233857   0.844266
  269       -4.233354   0.842314
  270       -4.230513   0.831128
  271       -4.227554   0.819181
  272       -4.220070   0.787692
  273       -4.216421   0.771704
  274       -4.205263   0.720483
  275       -4.197593   0.683471
  276       -4.195811   0.674684
  277       -4.188429   0.637671
  278       -4.186548   0.628089
  279       -4.185766   0.624093
  280       -4.181896   0.604185
  281       -4.174587   0.566125
  282       -4.170673   0.545558
  283       -4.150444   0.438787
  284       -4.140376   0.386414
  285       -4.139959   0.384269
  286       -4.139494   0.381880
  287       -4.129583   0.331757
  288       -4.122301   0.296094
  289       -4.085179   0.136605
  290       -3.975091  -0.051426
  291       -3.909149  -0.031661
  292       -3.842606  -0.004726
  293       -3.826856  -0.000958
  294       -3.754600   0.004926
  295       -3.516926   0.000098
  296       -3.500692   0.000063
  297       -3.403743   0.000003
  298       -3.076779   0.000000
  299       -3.071746   0.000000
  300       -3.049657   0.000000
  301       -3.040410   0.000000
  302       -3.038730   0.000000
  303       -2.964697   0.000000
  304       -2.946437   0.000000
  305       -2.900509   0.000000
  306       -2.539368   0.000000
  307       -2.531929   0.000000
  308       -2.387028   0.000000
  309       -2.345322   0.000000
  310       -2.141405   0.000000
  311       -2.127998   0.000000
  312       -2.122626   0.000000
  313       -1.995267   0.000000
  314       -1.980172   0.000000
  315       -1.952979   0.000000
  316       -1.877579   0.000000
  317       -1.829894   0.000000
  318       -1.746473   0.000000
  319       -1.663050   0.000000
  320       -1.650283   0.000000
  321       -1.620460   0.000000
  322       -1.570883   0.000000
  323       -1.457316   0.000000
  324       -1.331977   0.000000
  325       -1.254471   0.000000
  326       -1.166364   0.000000
  327       -1.072359   0.000000
  328       -1.015459   0.000000
  329       -0.999775   0.000000
  330       -0.976650   0.000000
  331       -0.971742   0.000000
  332       -0.933127   0.000000
  333       -0.906340   0.000000
  334       -0.837591   0.000000
  335       -0.831289   0.000000
  336       -0.784136   0.000000
