 running on    1 total cores
 distrk:  each k-point on    1 cores,    1 groups
 distr:  one band on    1 cores,    1 groups
 using from now: INCAR     
 vasp.5.4.4.18Apr17-6-g9f103f2a35 (build Sep 03 2018 23:53:05) complex          
  
 POSCAR found type information on POSCAR  Pd C  O 
 POSCAR found :  3 types and      57 ions
 scaLAPACK will be used

 ----------------------------------------------------------------------------- 
|                                                                             |
|  ADVICE TO THIS USER RUNNING 'VASP/VAMP'   (HEAR YOUR MASTER'S VOICE ...):  |
|                                                                             |
|      You enforced a specific xc-type in the INCAR file,                     |
|      a different type was found on the POTCAR file                          |
|          I HOPE YOU KNOW, WHAT YOU ARE  DOING                               |
|                                                                             |
 ----------------------------------------------------------------------------- 

 LDA part: xc-table for Pade appr. of Perdew
 POSCAR, INCAR and KPOINTS ok, starting setup
 FFT: planning ...
 WAVECAR not read
 entering main loop
       N       E                     dE             d eps       ncg     rms          rms(c)
DAV:   1     0.439513909097E+04    0.43951E+04   -0.10053E+05   688   0.815E+02
DAV:   2     0.202930557096E+04   -0.23658E+04   -0.21264E+04  1208   0.106E+02
DAV:   3     0.247126855924E+03   -0.17822E+04   -0.16735E+04   984   0.921E+01
DAV:   4    -0.132527723983E+03   -0.37965E+03   -0.32310E+03   832   0.440E+01
DAV:   5    -0.179823345332E+03   -0.47296E+02   -0.39178E+02  1040   0.149E+01    0.171E+01
RMM:   6    -0.179460329526E+03    0.36302E+00   -0.61419E+01   723   0.917E+00    0.241E+01
RMM:   7    -0.183434713577E+03   -0.39744E+01   -0.21727E+01   864   0.474E+00    0.244E+01
RMM:   8    -0.186115406034E+03   -0.26807E+01   -0.88971E+00   776   0.374E+00    0.278E+01
RMM:   9    -0.183577428964E+03    0.25380E+01   -0.72525E+00   726   0.385E+00    0.295E+01
RMM:  10    -0.181509171455E+03    0.20683E+01   -0.36865E+00   738   0.268E+00    0.255E+01
RMM:  11    -0.179250845601E+03    0.22583E+01   -0.27438E+00   734   0.242E+00    0.203E+01
RMM:  12    -0.177696464395E+03    0.15544E+01   -0.25201E+00   717   0.234E+00    0.179E+01
RMM:  13    -0.176752654405E+03    0.94381E+00   -0.15110E+00   714   0.180E+00    0.135E+01
RMM:  14    -0.177254111766E+03   -0.50146E+00   -0.19583E+00   712   0.205E+00    0.233E+01
RMM:  15    -0.175944787816E+03    0.13093E+01   -0.15644E+00   707   0.183E+00    0.147E+01
RMM:  16    -0.176055845810E+03   -0.11106E+00   -0.63522E-01   722   0.118E+00    0.177E+01
RMM:  17    -0.175466081854E+03    0.58976E+00   -0.50297E-01   718   0.106E+00    0.111E+01
RMM:  18    -0.175400416440E+03    0.65665E-01   -0.58998E-01   702   0.115E+00    0.117E+01
RMM:  19    -0.175119408790E+03    0.28101E+00   -0.34451E-01   696   0.906E-01    0.998E+00
RMM:  20    -0.174981671863E+03    0.13774E+00   -0.24640E-01   705   0.779E-01    0.972E+00
RMM:  21    -0.174847799214E+03    0.13387E+00   -0.22721E-01   703   0.724E-01    0.794E+00
RMM:  22    -0.174855760153E+03   -0.79609E-02   -0.20585E-01   697   0.678E-01    0.665E+00
RMM:  23    -0.174765192626E+03    0.90568E-01   -0.16798E-01   703   0.631E-01    0.710E+00
RMM:  24    -0.174672476020E+03    0.92717E-01   -0.11274E-01   698   0.525E-01    0.580E+00
RMM:  25    -0.174617087191E+03    0.55389E-01   -0.10961E-01   697   0.504E-01    0.515E+00
RMM:  26    -0.174577855783E+03    0.39231E-01   -0.94884E-02   694   0.472E-01    0.452E+00
RMM:  27    -0.174511335126E+03    0.66521E-01   -0.65353E-02   695   0.402E-01    0.364E+00
RMM:  28    -0.174478201714E+03    0.33133E-01   -0.40391E-02   693   0.323E-01    0.282E+00
RMM:  29    -0.174466033732E+03    0.12168E-01   -0.23900E-02   701   0.248E-01    0.249E+00
RMM:  30    -0.174444618201E+03    0.21416E-01   -0.22081E-02   692   0.239E-01    0.172E+00
RMM:  31    -0.174433006137E+03    0.11612E-01   -0.12462E-02   691   0.185E-01    0.117E+00
RMM:  32    -0.174429978257E+03    0.30279E-02   -0.89741E-03   695   0.148E-01    0.107E+00
RMM:  33    -0.174427238121E+03    0.27401E-02   -0.57525E-03   692   0.129E-01    0.103E+00
RMM:  34    -0.174426344763E+03    0.89336E-03   -0.48644E-03   691   0.111E-01    0.871E-01
RMM:  35    -0.174424399674E+03    0.19451E-02   -0.26029E-03   690   0.870E-02    0.601E-01
RMM:  36    -0.174424961105E+03   -0.56143E-03   -0.24103E-03   689   0.811E-02    0.601E-01
RMM:  37    -0.174425987548E+03   -0.10264E-02   -0.19546E-03   690   0.716E-02    0.541E-01
RMM:  38    -0.174427523654E+03   -0.15361E-02   -0.13386E-03   686   0.616E-02    0.425E-01
RMM:  39    -0.174427909554E+03   -0.38590E-03   -0.71204E-04   677   0.446E-02    0.220E-01
RMM:  40    -0.174429554061E+03   -0.16445E-02   -0.47622E-04   554   0.347E-02    0.235E-01
RMM:  41    -0.174433833103E+03   -0.42790E-02   -0.70931E-04   652   0.396E-02    0.193E-01
RMM:  42    -0.174435940309E+03   -0.21072E-02   -0.42083E-04   504   0.299E-02    0.234E-01
RMM:  43    -0.174439151923E+03   -0.32116E-02   -0.54071E-04   562   0.319E-02    0.204E-01
RMM:  44    -0.174441338089E+03   -0.21862E-02   -0.41269E-04   485   0.280E-02    0.117E-01
RMM:  45    -0.174442543760E+03   -0.12057E-02   -0.20408E-04   418   0.198E-02    0.114E-01
RMM:  46    -0.174445494658E+03   -0.29509E-02   -0.42344E-04   502   0.234E-02    0.114E-01
RMM:  47    -0.174446555757E+03   -0.10611E-02   -0.18385E-04   419   0.169E-02    0.612E-02
RMM:  48    -0.174447528268E+03   -0.97251E-03   -0.11679E-04   411   0.131E-02    0.652E-02
RMM:  49    -0.174448532968E+03   -0.10047E-02   -0.95526E-05   408   0.117E-02    0.429E-02
RMM:  50    -0.174449074256E+03   -0.54129E-03   -0.52443E-05   404   0.852E-03    0.427E-02
RMM:  51    -0.174449846422E+03   -0.77217E-03   -0.40336E-05   402   0.736E-03    0.370E-02
RMM:  52    -0.174450176693E+03   -0.33027E-03   -0.20558E-05   342   0.560E-03    0.251E-02
RMM:  53    -0.174450787408E+03   -0.61072E-03   -0.18470E-05   333   0.532E-03    0.246E-02
RMM:  54    -0.174451160141E+03   -0.37273E-03   -0.97433E-06   246   0.455E-03    0.127E-02
RMM:  55    -0.174451484172E+03   -0.32403E-03   -0.80700E-06   228   0.440E-03    0.164E-02
RMM:  56    -0.174451843032E+03   -0.35886E-03   -0.11781E-05   245   0.432E-03    0.143E-02
RMM:  57    -0.174452022537E+03   -0.17951E-03   -0.34299E-06   137   0.367E-03    0.973E-03
RMM:  58    -0.174452309914E+03   -0.28738E-03   -0.15603E-05   241   0.454E-03    0.920E-03
RMM:  59    -0.174452434831E+03   -0.12492E-03   -0.68777E-06   165   0.376E-03    0.599E-03
RMM:  60    -0.174452561569E+03   -0.12674E-03   -0.86626E-06   180   0.388E-03    0.762E-03
RMM:  61    -0.174452577081E+03   -0.15511E-04   -0.41823E-07    76   0.331E-03
   1 F= -.17445258E+03 E0= -.17443759E+03  d E =-.599368E-01
================================= SLURM INFO ===================================
Command: run-cluster -n 1 -m 10000 -j 000009_vasp --same-node /opt/VASP/vasp
Exit code: 0
Job name: 000009_vasp
Job time: 0 days 7h:32m:41s
MPI task count: 1
Working dir: /home/pashkov/pyFitIt/pyfitit/data/adaptive_pd_co_new_2/sample/000009
Job was running on nodes: b4
Task per node: 1
       JobID     MaxRSS  MaxDiskRead MaxDiskWrite    Elapsed    JobName 
------------ ---------- ------------ ------------ ---------- ---------- 
106492                                              07:32:41 000009_va+ 
106492.batch                                        07:32:41      batch 
