  57  57   0   0
  0.4736842E+03  0.3000000E-08  0.3000000E-08  0.3000000E-08  0.5000000E-15
  1.000000000000000E-004
  CAR 
 6_Pd100_top_free_z(O)                   
      1.43454900    -31.14125206  301     -4.12558056      1.00000000
    -31.141  0.0000E+00  0.0000E+00
    -31.033  0.0000E+00  0.0000E+00
    -30.924  0.0000E+00  0.0000E+00
    -30.815  0.5329E-27  0.5786E-28
    -30.707  0.2855E-23  0.3101E-24
    -30.598  0.8345E-20  0.9065E-21
    -30.490  0.1327E-16  0.1442E-17
    -30.381  0.1143E-13  0.1243E-14
    -30.273  0.5321E-11  0.5790E-12
    -30.164  0.1323E-08  0.1443E-09
    -30.055  0.1742E-06  0.1906E-07
    -29.947  0.1193E-04  0.1314E-05
    -29.838  0.4118E-03  0.4603E-04
    -29.730  0.6735E-02  0.7773E-03
    -29.621  0.4372E-01  0.5525E-02
    -29.512  0.2048E-01  0.7749E-02
    -29.404 -0.5684E+00 -0.5397E-01
    -29.295 -0.1744E+00 -0.7291E-01
    -29.187  0.5626E+01  0.5380E+00
    -29.078  0.9954E+01  0.1619E+01
    -28.970  0.4390E+01  0.2096E+01
    -28.861 -0.5325E+00  0.2038E+01
    -28.752 -0.4343E+00  0.1991E+01
    -28.644  0.4756E-01  0.1996E+01
    -28.535  0.3494E-01  0.1999E+01
    -28.427  0.4517E-02  0.2000E+01
    -28.318  0.2429E-03  0.2000E+01
    -28.209  0.6272E-05  0.2000E+01
    -28.101  0.8222E-07  0.2000E+01
    -27.992  0.5626E-09  0.2000E+01
    -27.884  0.2043E-11  0.2000E+01
    -27.775  0.4090E-14  0.2000E+01
    -27.666  0.0000E+00  0.2000E+01
    -27.558  0.0000E+00  0.2000E+01
    -27.449  0.0000E+00  0.2000E+01
    -27.341  0.0000E+00  0.2000E+01
    -27.232  0.0000E+00  0.2000E+01
    -27.124  0.0000E+00  0.2000E+01
    -27.015  0.0000E+00  0.2000E+01
    -26.906  0.0000E+00  0.2000E+01
    -26.798  0.0000E+00  0.2000E+01
    -26.689  0.0000E+00  0.2000E+01
    -26.581  0.0000E+00  0.2000E+01
    -26.472  0.0000E+00  0.2000E+01
    -26.363  0.0000E+00  0.2000E+01
    -26.255  0.0000E+00  0.2000E+01
    -26.146  0.0000E+00  0.2000E+01
    -26.038  0.0000E+00  0.2000E+01
    -25.929  0.0000E+00  0.2000E+01
    -25.821  0.0000E+00  0.2000E+01
    -25.712  0.0000E+00  0.2000E+01
    -25.603  0.0000E+00  0.2000E+01
    -25.495  0.0000E+00  0.2000E+01
    -25.386  0.0000E+00  0.2000E+01
    -25.278  0.0000E+00  0.2000E+01
    -25.169  0.0000E+00  0.2000E+01
    -25.060  0.0000E+00  0.2000E+01
    -24.952  0.0000E+00  0.2000E+01
    -24.843  0.0000E+00  0.2000E+01
    -24.735  0.0000E+00  0.2000E+01
    -24.626  0.0000E+00  0.2000E+01
    -24.518  0.0000E+00  0.2000E+01
    -24.409  0.0000E+00  0.2000E+01
    -24.300  0.0000E+00  0.2000E+01
    -24.192  0.0000E+00  0.2000E+01
    -24.083  0.0000E+00  0.2000E+01
    -23.975  0.0000E+00  0.2000E+01
    -23.866  0.0000E+00  0.2000E+01
    -23.757  0.0000E+00  0.2000E+01
    -23.649  0.0000E+00  0.2000E+01
    -23.540  0.0000E+00  0.2000E+01
    -23.432  0.0000E+00  0.2000E+01
    -23.323  0.0000E+00  0.2000E+01
    -23.214  0.0000E+00  0.2000E+01
    -23.106  0.0000E+00  0.2000E+01
    -22.997  0.0000E+00  0.2000E+01
    -22.889  0.0000E+00  0.2000E+01
    -22.780  0.0000E+00  0.2000E+01
    -22.672  0.0000E+00  0.2000E+01
    -22.563  0.0000E+00  0.2000E+01
    -22.454  0.0000E+00  0.2000E+01
    -22.346  0.0000E+00  0.2000E+01
    -22.237  0.0000E+00  0.2000E+01
    -22.129  0.0000E+00  0.2000E+01
    -22.020  0.0000E+00  0.2000E+01
    -21.911  0.0000E+00  0.2000E+01
    -21.803  0.0000E+00  0.2000E+01
    -21.694  0.0000E+00  0.2000E+01
    -21.586  0.0000E+00  0.2000E+01
    -21.477  0.0000E+00  0.2000E+01
    -21.369  0.0000E+00  0.2000E+01
    -21.260  0.0000E+00  0.2000E+01
    -21.151  0.0000E+00  0.2000E+01
    -21.043  0.0000E+00  0.2000E+01
    -20.934  0.0000E+00  0.2000E+01
    -20.826  0.0000E+00  0.2000E+01
    -20.717  0.0000E+00  0.2000E+01
    -20.608  0.0000E+00  0.2000E+01
    -20.500  0.0000E+00  0.2000E+01
    -20.391  0.0000E+00  0.2000E+01
    -20.283  0.0000E+00  0.2000E+01
    -20.174  0.0000E+00  0.2000E+01
    -20.065  0.0000E+00  0.2000E+01
    -19.957  0.0000E+00  0.2000E+01
    -19.848  0.0000E+00  0.2000E+01
    -19.740  0.0000E+00  0.2000E+01
    -19.631  0.0000E+00  0.2000E+01
    -19.523  0.0000E+00  0.2000E+01
    -19.414  0.0000E+00  0.2000E+01
    -19.305  0.0000E+00  0.2000E+01
    -19.197  0.0000E+00  0.2000E+01
    -19.088  0.0000E+00  0.2000E+01
    -18.980  0.0000E+00  0.2000E+01
    -18.871  0.0000E+00  0.2000E+01
    -18.762  0.0000E+00  0.2000E+01
    -18.654  0.0000E+00  0.2000E+01
    -18.545  0.0000E+00  0.2000E+01
    -18.437  0.0000E+00  0.2000E+01
    -18.328  0.0000E+00  0.2000E+01
    -18.220  0.0000E+00  0.2000E+01
    -18.111  0.0000E+00  0.2000E+01
    -18.002  0.0000E+00  0.2000E+01
    -17.894  0.0000E+00  0.2000E+01
    -17.785  0.0000E+00  0.2000E+01
    -17.677  0.0000E+00  0.2000E+01
    -17.568  0.0000E+00  0.2000E+01
    -17.459  0.0000E+00  0.2000E+01
    -17.351  0.0000E+00  0.2000E+01
    -17.242  0.0000E+00  0.2000E+01
    -17.134  0.0000E+00  0.2000E+01
    -17.025  0.0000E+00  0.2000E+01
    -16.916  0.0000E+00  0.2000E+01
    -16.808  0.0000E+00  0.2000E+01
    -16.699  0.0000E+00  0.2000E+01
    -16.591  0.0000E+00  0.2000E+01
    -16.482  0.0000E+00  0.2000E+01
    -16.374  0.0000E+00  0.2000E+01
    -16.265  0.0000E+00  0.2000E+01
    -16.156  0.0000E+00  0.2000E+01
    -16.048  0.0000E+00  0.2000E+01
    -15.939  0.0000E+00  0.2000E+01
    -15.831  0.0000E+00  0.2000E+01
    -15.722  0.0000E+00  0.2000E+01
    -15.613  0.0000E+00  0.2000E+01
    -15.505  0.0000E+00  0.2000E+01
    -15.396  0.0000E+00  0.2000E+01
    -15.288  0.1133E-24  0.2000E+01
    -15.179  0.4181E-21  0.2000E+01
    -15.071  0.8404E-18  0.2000E+01
    -14.962  0.9168E-15  0.2000E+01
    -14.853  0.5413E-12  0.2000E+01
    -14.745  0.1713E-09  0.2000E+01
    -14.636  0.2884E-07  0.2000E+01
    -14.528  0.2545E-05  0.2000E+01
    -14.419  0.1149E-03  0.2000E+01
    -14.310  0.2532E-02  0.2000E+01
    -14.202  0.2435E-01  0.2003E+01
    -14.093  0.6288E-01  0.2010E+01
    -13.985 -0.2630E+00  0.1981E+01
    -13.876 -0.7753E+00  0.1897E+01
    -13.767  0.2801E+01  0.2201E+01
    -13.659  0.9426E+01  0.3225E+01
    -13.550  0.7250E+01  0.4012E+01
    -13.442  0.5978E+00  0.4077E+01
    -13.333 -0.7294E+00  0.3998E+01
    -13.225 -0.4541E-01  0.3993E+01
    -13.116  0.5537E-01  0.3999E+01
    -13.007  0.1116E-01  0.4000E+01
    -12.899  0.8179E-03  0.4000E+01
    -12.790  0.2774E-04  0.4000E+01
    -12.682  0.4699E-06  0.4000E+01
    -12.573  0.4129E-08  0.4000E+01
    -12.464  0.2960E-08  0.4000E+01
    -12.356  0.3821E-06  0.4000E+01
    -12.247  0.2581E-04  0.4000E+01
    -12.139  0.8785E-03  0.4000E+01
    -12.030  0.1413E-01  0.4002E+01
    -11.922  0.8967E-01  0.4011E+01
    -11.813  0.3188E-01  0.4015E+01
    -11.704 -0.1170E+01  0.3888E+01
    -11.596 -0.2354E+00  0.3862E+01
    -11.487  0.1156E+02  0.5117E+01
    -11.379  0.1986E+02  0.7274E+01
    -11.270  0.8477E+01  0.8194E+01
    -11.161 -0.1131E+01  0.8072E+01
    -11.053 -0.8355E+00  0.7981E+01
    -10.944  0.9974E-01  0.7992E+01
    -10.836  0.6778E-01  0.7999E+01
    -10.727  0.8583E-02  0.8000E+01
    -10.618  0.4543E-03  0.8000E+01
    -10.510  0.1408E-04  0.8000E+01
    -10.401  0.1139E-03  0.8000E+01
    -10.293  0.2512E-02  0.8000E+01
    -10.184  0.2422E-01  0.8003E+01
    -10.076  0.6295E-01  0.8010E+01
     -9.967 -0.2608E+00  0.7981E+01
     -9.858 -0.7769E+00  0.7897E+01
     -9.750  0.2781E+01  0.8199E+01
     -9.641  0.9415E+01  0.9221E+01
     -9.533  0.7271E+01  0.1001E+02
     -9.424  0.6105E+00  0.1008E+02
     -9.315 -0.7312E+00  0.9998E+01
     -9.207 -0.4656E-01  0.9993E+01
     -9.098  0.5551E-01  0.9999E+01
     -8.990  0.1123E-01  0.1000E+02
     -8.881  0.8253E-03  0.1000E+02
     -8.773  0.2805E-04  0.1000E+02
     -8.664  0.4761E-06  0.1000E+02
     -8.555  0.4180E-08  0.1000E+02
     -8.447  0.1936E-10  0.1000E+02
     -8.338  0.4703E-13  0.1000E+02
     -8.230  0.1350E-24  0.1000E+02
     -8.121  0.4920E-21  0.1000E+02
     -8.012  0.9766E-18  0.1000E+02
     -7.904  0.1052E-14  0.1000E+02
     -7.795  0.6130E-12  0.1000E+02
     -7.687  0.1916E-09  0.1000E+02
     -7.578  0.3183E-07  0.1000E+02
     -7.470  0.2771E-05  0.1000E+02
     -7.361  0.1234E-03  0.1000E+02
     -7.252  0.2677E-02  0.1000E+02
     -7.144  0.2524E-01  0.1000E+02
     -7.035  0.6227E-01  0.1001E+02
     -6.927 -0.2777E+00  0.9980E+01
     -6.818 -0.7622E+00  0.9897E+01
     -6.709  0.2955E+01  0.1022E+02
     -6.601  0.9607E+01  0.1126E+02
     -6.492  0.7243E+01  0.1205E+02
     -6.384 -0.8117E+00  0.1196E+02
     -6.275 -0.2057E+01  0.1174E+02
     -6.166  0.1385E+02  0.1324E+02
     -6.058  0.2893E+02  0.1638E+02
     -5.949  0.1455E+02  0.1796E+02
     -5.841  0.1068E+02  0.1912E+02
     -5.732  0.4041E+02  0.2351E+02
     -5.624  0.1015E+03  0.3453E+02
     -5.515  0.2214E+03  0.5858E+02
     -5.406  0.3100E+03  0.9224E+02
     -5.298  0.2617E+03  0.1207E+03
     -5.189  0.2029E+03  0.1427E+03
     -5.081  0.2620E+03  0.1711E+03
     -4.972  0.3593E+03  0.2102E+03
     -4.863  0.3521E+03  0.2484E+03
     -4.755  0.2933E+03  0.2802E+03
     -4.646  0.3458E+03  0.3178E+03
     -4.538  0.4192E+03  0.3633E+03
     -4.429  0.4162E+03  0.4085E+03
     -4.321  0.4800E+03  0.4606E+03
     -4.212  0.5637E+03  0.5218E+03
     -4.103  0.4116E+03  0.5665E+03
     -3.995  0.1289E+03  0.5805E+03
     -3.886  0.1345E+02  0.5820E+03
     -3.778  0.2984E+02  0.5852E+03
     -3.669  0.2298E+02  0.5877E+03
     -3.560  0.7252E+01  0.5885E+03
     -3.452  0.2261E+02  0.5910E+03
     -3.343  0.2435E+02  0.5936E+03
     -3.235  0.1411E+01  0.5938E+03
     -3.126  0.3734E+01  0.5942E+03
     -3.017  0.4714E+02  0.5993E+03
     -2.909  0.6605E+02  0.6065E+03
     -2.800  0.3083E+02  0.6098E+03
     -2.692  0.1859E+01  0.6100E+03
     -2.583  0.1178E+02  0.6113E+03
     -2.475  0.2832E+02  0.6144E+03
     -2.366  0.1593E+02  0.6161E+03
     -2.257  0.6899E+01  0.6168E+03
     -2.149  0.2183E+02  0.6192E+03
     -2.040  0.3209E+02  0.6227E+03
     -1.932  0.3575E+02  0.6266E+03
     -1.823  0.5170E+02  0.6322E+03
     -1.714  0.5171E+02  0.6378E+03
     -1.606  0.3533E+02  0.6416E+03
     -1.497  0.3795E+02  0.6458E+03
     -1.389  0.3337E+02  0.6494E+03
     -1.280  0.7150E+01  0.6502E+03
     -1.172  0.1096E+01  0.6503E+03
     -1.063  0.2592E+02  0.6531E+03
     -0.954  0.6210E+02  0.6598E+03
     -0.846  0.6457E+02  0.6668E+03
     -0.737  0.2774E+02  0.6699E+03
     -0.629  0.6638E+01  0.6706E+03
     -0.520  0.8145E+01  0.6715E+03
     -0.411  0.5335E+01  0.6720E+03
     -0.303  0.1019E-01  0.6720E+03
     -0.194 -0.4985E+00  0.6720E+03
     -0.086  0.2947E-01  0.6720E+03
      0.023  0.4425E-01  0.6720E+03
      0.132  0.6750E-02  0.6720E+03
      0.240  0.4121E-03  0.6720E+03
      0.349  0.1193E-04  0.6720E+03
      0.457  0.1742E-06  0.6720E+03
      0.566  0.1323E-08  0.6720E+03
      0.674  0.5321E-11  0.6720E+03
      0.783  0.1227E-13  0.6720E+03
      0.892  0.0000E+00  0.6720E+03
      1.000  0.0000E+00  0.6720E+03
      1.109  0.0000E+00  0.6720E+03
      1.217  0.0000E+00  0.6720E+03
      1.326  0.0000E+00  0.6720E+03
      1.435  0.0000E+00  0.6720E+03
