 vasp.5.4.4.18Apr17-6-g9f103f2a35 (build Sep 03 2018 23:53:05) complex          
  
 executed on             LinuxIFC date 2021.12.02  18:06:07
 running on    1 total cores
 distrk:  each k-point on    1 cores,    1 groups
 distr:  one band on NCORES_PER_BAND=   1 cores,    1 groups


--------------------------------------------------------------------------------------------------------


 INCAR:
 POTCAR:    PAW_PBE Pd 04Jan2005                  
 POTCAR:    PAW_PBE C 08Apr2002                   
 POTCAR:    PAW_PBE O 08Apr2002                   
 POTCAR:    PAW_PBE Pd 04Jan2005                  
   VRHFIN =Pd : s1 d9                                                           
   LEXCH  = PE                                                                  
   EATOM  =   809.7530 eV,   59.5152 Ry                                         
                                                                                
   TITEL  = PAW_PBE Pd 04Jan2005                                                
   LULTRA =        F    use ultrasoft PP ?                                      
   IUNSCR =        1    unscreen: 0-lin 1-nonlin 2-no                           
   RPACOR =    2.000    partial core radius                                     
   POMASS =  106.420; ZVAL   =   10.000    mass and valenz                      
   RCORE  =    2.600    outmost cutoff radius                                   
   RWIGS  =    2.710; RWIGS  =    1.434    wigner-seitz radius (au A)           
   ENMAX  =  250.925; ENMIN  =  188.194 eV                                      
   ICORE  =        3    local potential                                         
   LCOR   =        T    correct aug charges                                     
   LPAW   =        T    paw PP                                                  
   EAUG   =  416.230                                                            
   DEXC   =    0.000                                                            
   RMAX   =    2.653    core radius for proj-oper                               
   RAUG   =    1.300    factor for augmentation sphere                          
   RDEP   =    2.734    radius for radial grids                                 
   RDEPT  =    2.103    core radius for aug-charge                              
                                                                                
   Atomic configuration                                                         
   12 entries                                                                   
     n  l   j            E        occ.                                          
     1  0  0.50    -24164.6631   2.0000                                         
     2  0  0.50     -3530.9218   2.0000                                         
     2  1  1.50     -3165.6822   6.0000                                         
     3  0  0.50      -639.4577   2.0000                                         
     3  1  1.50      -519.4532   6.0000                                         
     3  2  2.50      -328.9757  10.0000                                         
     4  0  0.50       -88.7014   2.0000                                         
     4  1  1.50       -54.4540   6.0000                                         
     4  2  2.50        -6.6878   9.0000                                         
     5  0  0.50        -4.3543   1.0000                                         
     5  1  0.50        -1.3606   0.0000                                         
     4  3  2.50        -1.3606   0.0000                                         
   Description                                                                  
     l       E           TYP  RCUT    TYP  RCUT                                 
     2     -6.6878251     23  2.400                                             
     2     -8.0484077     23  2.400                                             
     0     -4.3542939     23  2.400                                             
     0      4.3406793     23  2.400                                             
     1     -4.0817478     23  2.600                                             
     1     15.8380318     23  2.600                                             
     3     -4.0817478     23  2.400                                             
  local pseudopotential read in
  partial core-charges read in
  partial kinetic energy density read in
  atomic valenz-charges read in
  non local Contribution for L=           2  read in
    real space projection operators read in
  non local Contribution for L=           2  read in
    real space projection operators read in
  non local Contribution for L=           0  read in
    real space projection operators read in
  non local Contribution for L=           0  read in
    real space projection operators read in
  non local Contribution for L=           1  read in
    real space projection operators read in
  non local Contribution for L=           1  read in
    real space projection operators read in
    PAW grid and wavefunctions read in
 
   number of l-projection  operators is LMAX  =           6
   number of lm-projection operators is LMMAX =          18
 
 POTCAR:    PAW_PBE C 08Apr2002                   
   VRHFIN =C: s2p2                                                              
   LEXCH  = PE                                                                  
   EATOM  =   147.1560 eV,   10.8157 Ry                                         
                                                                                
   TITEL  = PAW_PBE C 08Apr2002                                                 
   LULTRA =        F    use ultrasoft PP ?                                      
   IUNSCR =        1    unscreen: 0-lin 1-nonlin 2-no                           
   RPACOR =    1.200    partial core radius                                     
   POMASS =   12.011; ZVAL   =    4.000    mass and valenz                      
   RCORE  =    1.500    outmost cutoff radius                                   
   RWIGS  =    1.630; RWIGS  =    0.863    wigner-seitz radius (au A)           
   ENMAX  =  400.000; ENMIN  =  300.000 eV                                      
   ICORE  =        2    local potential                                         
   LCOR   =        T    correct aug charges                                     
   LPAW   =        T    paw PP                                                  
   EAUG   =  644.873                                                            
   DEXC   =    0.000                                                            
   RMAX   =    1.529    core radius for proj-oper                               
   RAUG   =    1.300    factor for augmentation sphere                          
   RDEP   =    1.501    radius for radial grids                                 
   RDEPT  =    1.300    core radius for aug-charge                              
                                                                                
   Atomic configuration                                                         
    4 entries                                                                   
     n  l   j            E        occ.                                          
     1  0  0.50      -273.3789   2.0000                                         
     2  0  0.50       -13.7508   2.0000                                         
     2  1  0.50        -5.2854   2.0000                                         
     3  2  1.50        -5.4423   0.0000                                         
   Description                                                                  
     l       E           TYP  RCUT    TYP  RCUT                                 
     0    -13.7508458     23  1.200                                             
     0     -8.2022199     23  1.200                                             
     1     -5.2854383     23  1.500                                             
     1     34.0145650     23  1.500                                             
     2     -5.4423304      7  1.500                                             
  local pseudopotential read in
  partial core-charges read in
  partial kinetic energy density read in
  atomic valenz-charges read in
  non local Contribution for L=           0  read in
    real space projection operators read in
  non local Contribution for L=           0  read in
    real space projection operators read in
  non local Contribution for L=           1  read in
    real space projection operators read in
  non local Contribution for L=           1  read in
    real space projection operators read in
    PAW grid and wavefunctions read in
 
   number of l-projection  operators is LMAX  =           4
   number of lm-projection operators is LMMAX =           8
 
 POTCAR:    PAW_PBE O 08Apr2002                   
   VRHFIN =O: s2p4                                                              
   LEXCH  = PE                                                                  
   EATOM  =   432.3788 eV,   31.7789 Ry                                         
                                                                                
   TITEL  = PAW_PBE O 08Apr2002                                                 
   LULTRA =        F    use ultrasoft PP ?                                      
   IUNSCR =        1    unscreen: 0-lin 1-nonlin 2-no                           
   RPACOR =    1.200    partial core radius                                     
   POMASS =   16.000; ZVAL   =    6.000    mass and valenz                      
   RCORE  =    1.520    outmost cutoff radius                                   
   RWIGS  =    1.550; RWIGS  =    0.820    wigner-seitz radius (au A)           
   ENMAX  =  400.000; ENMIN  =  300.000 eV                                      
   ICORE  =        2    local potential                                         
   LCOR   =        T    correct aug charges                                     
   LPAW   =        T    paw PP                                                  
   EAUG   =  605.392                                                            
   DEXC   =    0.000                                                            
   RMAX   =    1.553    core radius for proj-oper                               
   RAUG   =    1.300    factor for augmentation sphere                          
   RDEP   =    1.550    radius for radial grids                                 
   RDEPT  =    1.329    core radius for aug-charge                              
                                                                                
   Atomic configuration                                                         
    4 entries                                                                   
     n  l   j            E        occ.                                          
     1  0  0.50      -514.6923   2.0000                                         
     2  0  0.50       -23.9615   2.0000                                         
     2  1  0.50        -9.0305   4.0000                                         
     3  2  1.50        -9.5241   0.0000                                         
   Description                                                                  
     l       E           TYP  RCUT    TYP  RCUT                                 
     0    -23.9615318     23  1.200                                             
     0     -9.5240782     23  1.200                                             
     1     -9.0304911     23  1.520                                             
     1      8.1634956     23  1.520                                             
     2     -9.5240782      7  1.500                                             
  local pseudopotential read in
  partial core-charges read in
  partial kinetic energy density read in
  kinetic energy density of atom read in
  atomic valenz-charges read in
  non local Contribution for L=           0  read in
    real space projection operators read in
  non local Contribution for L=           0  read in
    real space projection operators read in
  non local Contribution for L=           1  read in
    real space projection operators read in
  non local Contribution for L=           1  read in
    real space projection operators read in
    PAW grid and wavefunctions read in
 
   number of l-projection  operators is LMAX  =           4
   number of lm-projection operators is LMMAX =           8
 
 Optimization of the real space projectors (new method)

 maximal supplied QI-value         = 14.36
 optimisation between [QCUT,QGAM] = [ 10.20, 20.39] = [ 29.12,116.47] Ry 
 Optimized for a Real-space Cutoff    1.51 Angstroem

   l    n(q)    QCUT    max X(q) W(low)/X(q) W(high)/X(q)  e(spline) 
   2      8    10.197    59.108    0.26E-03    0.14E-03    0.96E-07
   2      8    10.197    58.101    0.27E-03    0.14E-03    0.98E-07
   0      9    10.197   102.235    0.54E-04    0.60E-05    0.72E-07
   0      9    10.197    58.388    0.52E-04    0.60E-05    0.68E-07
   1      9    10.197    22.191    0.18E-03    0.25E-03    0.79E-07
   1      9    10.197    15.590    0.15E-03    0.21E-03    0.69E-07
 Optimization of the real space projectors (new method)

 maximal supplied QI-value         = 25.13
 optimisation between [QCUT,QGAM] = [ 10.05, 20.36] = [ 28.30,116.06] Ry 
 Optimized for a Real-space Cutoff    1.30 Angstroem

   l    n(q)    QCUT    max X(q) W(low)/X(q) W(high)/X(q)  e(spline) 
   0      8    10.053   115.676    0.49E-03    0.72E-03    0.18E-06
   0      8    10.053    87.132    0.49E-03    0.71E-03    0.18E-06
   1      7    10.053     4.429    0.32E-03    0.31E-03    0.18E-06
   1      7    10.053     2.733    0.23E-03    0.19E-03    0.20E-06
 Optimization of the real space projectors (new method)

 maximal supplied QI-value         = 24.76
 optimisation between [QCUT,QGAM] = [ 10.15, 20.30] = [ 28.85,115.39] Ry 
 Optimized for a Real-space Cutoff    1.38 Angstroem

   l    n(q)    QCUT    max X(q) W(low)/X(q) W(high)/X(q)  e(spline) 
   0      8    10.150    20.381    0.22E-03    0.32E-03    0.29E-06
   0      8    10.150    15.268    0.23E-03    0.35E-03    0.30E-06
   1      8    10.150     5.964    0.46E-03    0.53E-03    0.21E-06
   1      8    10.150     5.382    0.38E-03    0.45E-03    0.19E-06

 ----------------------------------------------------------------------------- 
|                                                                             |
|  ADVICE TO THIS USER RUNNING 'VASP/VAMP'   (HEAR YOUR MASTER'S VOICE ...):  |
|                                                                             |
|      You enforced a specific xc-type in the INCAR file,                     |
|      a different type was found on the POTCAR file                          |
|          I HOPE YOU KNOW, WHAT YOU ARE  DOING                               |
|                                                                             |
 ----------------------------------------------------------------------------- 

  PAW_PBE Pd 04Jan2005                  :
 energy of atom  1       EATOM= -809.7530
 kinetic energy error for atom=    0.0091 (will be added to EATOM!!)
  PAW_PBE C 08Apr2002                   :
 energy of atom  2       EATOM= -147.1560
 kinetic energy error for atom=    0.0288 (will be added to EATOM!!)
  PAW_PBE O 08Apr2002                   :
 energy of atom  3       EATOM= -432.3788
 kinetic energy error for atom=    0.1156 (will be added to EATOM!!)
 
 
 POSCAR: Pd55PES                                 
  positions in cartesian coordinates
  No initial velocities read in
 exchange correlation table for  LEXCH =        9
   RHO(1)=    0.500       N(1)  =     2000
   RHO(2)=  100.500       N(2)  =     4000
 


--------------------------------------------------------------------------------------------------------


 ion  position               nearest neighbor table
   1  0.446  0.328  0.417-   3 3.25   5 3.25   7 3.36  15 3.36  29 3.42  28 3.42
   2  0.672  0.554  0.417-  26 3.25  30 3.25  17 3.36   9 3.36  47 3.42  49 3.42
   3  0.554  0.328  0.417-   1 3.25   5 3.25   7 3.36  11 3.36  29 3.42  21 3.42
   4  0.328  0.554  0.417-  32 3.25  22 3.25  13 3.36   8 3.36  43 3.42  48 3.42
   5  0.500  0.383  0.340-   1 3.25   3 3.25  11 3.36  15 3.36  21 3.42  28 3.42
   6  0.500  0.383  0.660-  24 3.25  19 3.25  16 3.36  12 3.36  42 3.42  44 3.42
   7  0.500  0.276  0.500-  29 3.24   3 3.36   1 3.36  19 3.36  24 3.36
   8  0.276  0.500  0.500-  48 3.24  22 3.36  40 3.36   4 3.36  25 3.36
   9  0.724  0.500  0.500-  49 3.24  26 3.36  45 3.36   2 3.36  20 3.36
  10  0.500  0.724  0.500-  55 3.24  27 3.36  23 3.36  46 3.36  41 3.36
  11  0.612  0.388  0.342-  21 3.24   5 3.36   3 3.36  30 3.36  26 3.36
  12  0.612  0.388  0.658-  42 3.24  24 3.36  45 3.36   6 3.36  31 3.36
  13  0.388  0.612  0.342-  43 3.24  32 3.36  50 3.36   4 3.36  27 3.36
  14  0.388  0.612  0.658-  53 3.24  25 3.36  33 3.36  51 3.36  46 3.36
  15  0.388  0.388  0.342-  28 3.24   5 3.36   1 3.36  32 3.36  22 3.36
  16  0.388  0.388  0.658-  44 3.24  19 3.36  40 3.36   6 3.36  33 3.36
  17  0.612  0.612  0.342-  47 3.24  30 3.36  50 3.36   2 3.36  23 3.36
  18  0.612  0.612  0.658-  54 3.24  31 3.36  20 3.36  51 3.36  41 3.36
  19  0.446  0.328  0.583-   6 3.25  24 3.25  16 3.36   7 3.36  44 3.42  29 3.42
  20  0.672  0.554  0.583-  31 3.25  45 3.25  18 3.36   9 3.36  54 3.42  49 3.42
  21  0.558  0.442  0.418-  11 3.24   5 3.42   3 3.42  30 3.42  26 3.42
  22  0.328  0.446  0.417-   4 3.25  32 3.25   8 3.36  15 3.36  48 3.42  28 3.42
  23  0.554  0.672  0.417-  27 3.25  50 3.25  10 3.36  17 3.36  55 3.42  47 3.42
  24  0.554  0.328  0.583-   6 3.25  19 3.25  12 3.36   7 3.36  42 3.42  29 3.42
  25  0.328  0.554  0.583-  33 3.25  40 3.25  14 3.36   8 3.36  53 3.42  48 3.42
  26  0.672  0.446  0.417-   2 3.25  30 3.25   9 3.36  11 3.36  49 3.42  21 3.42
  27  0.446  0.672  0.417-  23 3.25  50 3.25  10 3.36  13 3.36  55 3.42  43 3.42
  28  0.442  0.442  0.418-  15 3.24   5 3.42   1 3.42  32 3.42  22 3.42
  29  0.500  0.384  0.500-   7 3.24   3 3.42   1 3.42  24 3.42  19 3.42
  30  0.617  0.500  0.340-   2 3.25  26 3.25  17 3.36  11 3.36  47 3.42  21 3.42
  31  0.617  0.500  0.660-  20 3.25  45 3.25  18 3.36  12 3.36  54 3.42  42 3.42
  32  0.383  0.500  0.340-   4 3.25  22 3.25  13 3.36  15 3.36  43 3.42  28 3.42
  33  0.383  0.500  0.660-  25 3.25  40 3.25  14 3.36  16 3.36  53 3.42  44 3.42
  34  0.383  0.383  0.500-
  35  0.617  0.617  0.500-
  36  0.617  0.383  0.500-
  37  0.383  0.617  0.500-
  38  0.500  0.500  0.335-
  39  0.500  0.500  0.665-  56 2.43
  40  0.328  0.446  0.583-  33 3.25  25 3.25  16 3.36   8 3.36  44 3.42  48 3.42
  41  0.554  0.672  0.583-  46 3.25  51 3.25  10 3.36  18 3.36  54 3.42  55 3.42
  42  0.558  0.442  0.582-  12 3.24   6 3.42  24 3.42  31 3.42  45 3.42
  43  0.442  0.558  0.418-  13 3.24   4 3.42  32 3.42  27 3.42  50 3.42
  44  0.442  0.442  0.582-  16 3.24   6 3.42  19 3.42  33 3.42  40 3.42
  45  0.672  0.446  0.583-  20 3.25  31 3.25   9 3.36  12 3.36  49 3.42  42 3.42
  46  0.446  0.672  0.583-  41 3.25  51 3.25  10 3.36  14 3.36  53 3.42  55 3.42
  47  0.558  0.558  0.418-  17 3.24   2 3.42  30 3.42  23 3.42  50 3.42
  48  0.384  0.500  0.500-   8 3.24   4 3.42  22 3.42  25 3.42  40 3.42
  49  0.616  0.500  0.500-   9 3.24   2 3.42  26 3.42  20 3.42  45 3.42
  50  0.500  0.617  0.340-  27 3.25  23 3.25  13 3.36  17 3.36  43 3.42  47 3.42
  51  0.500  0.617  0.660-  41 3.25  46 3.25  14 3.36  18 3.36  53 3.42  54 3.42
  52  0.500  0.500  0.500-
  53  0.442  0.558  0.582-  14 3.24  25 3.42  33 3.42  51 3.42  46 3.42
  54  0.558  0.558  0.582-  18 3.24  31 3.42  20 3.42  51 3.42  41 3.42
  55  0.500  0.616  0.500-  10 3.24  23 3.42  27 3.42  41 3.42  46 3.42
  56  0.494  0.496  0.746-  57 1.13  39 2.43
  57  0.493  0.496  0.783-  56 1.13
 
  LATTYP: Found a simple cubic cell.
 ALAT       =    30.0000000000
  
  Lattice vectors:
  
 A1 = (  30.0000000000,   0.0000000000,   0.0000000000)
 A2 = (   0.0000000000,  30.0000000000,   0.0000000000)
 A3 = (   0.0000000000,   0.0000000000,  30.0000000000)


Analysis of symmetry for initial positions (statically):
=====================================================================
 Subroutine PRICEL returns:
 Original cell was already a primitive cell.
 

 Routine SETGRP: Setting up the symmetry group for a 
 simple cubic supercell.


 Subroutine GETGRP returns: Found  1 space group operations
 (whereof  1 operations were pure point group operations)
 out of a pool of 48 trial point group operations.


The static configuration has the point symmetry C_1 .


Analysis of symmetry for dynamics (positions and initial velocities):
=====================================================================
 Subroutine PRICEL returns:
 Original cell was already a primitive cell.
 

 Routine SETGRP: Setting up the symmetry group for a 
 simple cubic supercell.


 Subroutine GETGRP returns: Found  1 space group operations
 (whereof  1 operations were pure point group operations)
 out of a pool of 48 trial point group operations.


The dynamic configuration has the point symmetry C_1 .


Analysis of constrained symmetry for selective dynamics:
=====================================================================
 Subroutine PRICEL returns:
 Original cell was already a primitive cell.
 

 Routine SETGRP: Setting up the symmetry group for a 
 simple cubic supercell.


 Subroutine GETGRP returns: Found  1 space group operations
 (whereof  1 operations were pure point group operations)
 out of a pool of 48 trial point group operations.


The constrained configuration has the point symmetry C_1 .


 Subroutine INISYM returns: Found  1 space group operations
 (whereof  1 operations are pure point group operations),
 and found     1 'primitive' translations

 
 
 KPOINTS: K-points                                

Automatic generation of k-mesh.
Space group operators:
 irot       det(A)        alpha          n_x          n_y          n_z        tau_x        tau_y        tau_z
    1     1.000000     0.000000     1.000000     0.000000     0.000000     0.000000     0.000000     0.000000
 
 Subroutine IBZKPT returns following result:
 ===========================================
 
 Found      1 irreducible k-points:
 
 Following reciprocal coordinates:
            Coordinates               Weight
  0.000000  0.000000  0.000000      1.000000
 
 Following cartesian coordinates:
            Coordinates               Weight
  0.000000  0.000000  0.000000      1.000000
 


--------------------------------------------------------------------------------------------------------




 Dimension of arrays:
   k-points           NKPTS =      1   k-points in BZ     NKDIM =      1   number of bands    NBANDS=    336
   number of dos      NEDOS =    301   number of ions     NIONS =     57
   non local maximal  LDIM  =      6   non local SUM 2l+1 LMDIM =     18
   total plane-waves  NPLWV = ******
   max r-space proj   IRMAX =   1847   max aug-charges    IRDMAX=   6262
   dimension x,y,z NGX =   150 NGY =  150 NGZ =  150
   dimension x,y,z NGXF=   300 NGYF=  300 NGZF=  300
   support grid    NGXF=   300 NGYF=  300 NGZF=  300
   ions per type =              55   1   1
   NGX,Y,Z   is equivalent  to a cutoff of   8.31,  8.31,  8.31 a.u.
   NGXF,Y,Z  is equivalent  to a cutoff of  16.62, 16.62, 16.62 a.u.

 SYSTEM =  6_Pd100_top_free_z(O)                   
 POSCAR =  Pd55PES                                 

 Startparameter for this run:
   NWRITE =      2    write-flag & timer
   PREC   = normal    normal or accurate (medium, high low for compatibility)
   ISTART =      0    job   : 0-new  1-cont  2-samecut
   ICHARG =      2    charge: 1-file 2-atom 10-const
   ISPIN  =      1    spin polarized calculation?
   LNONCOLLINEAR =      F non collinear calculations
   LSORBIT =      F    spin-orbit coupling
   INIWAV =      1    electr: 0-lowe 1-rand  2-diag
   LASPH  =      F    aspherical Exc in radial PAW
   METAGGA=      F    non-selfconsistent MetaGGA calc.

 Electronic Relaxation 1
   ENCUT  =  400.0 eV  29.40 Ry    5.42 a.u.  48.92 48.92 48.92*2*pi/ulx,y,z
   ENINI  =  400.0     initial cutoff
   ENAUG  =  644.9 eV  augmentation charge cutoff
   NELM   =    100;   NELMIN=  6; NELMDL= -5     # of ELM steps 
   EDIFF  = 0.1E-03   stopping-criterion for ELM
   LREAL  =      T    real-space projection
   NLSPLINE    = F    spline interpolate recip. space projectors
   LCOMPAT=      F    compatible to vasp.4.4
   GGA_COMPAT  = T    GGA compatible to vasp.4.4-vasp.4.6
   LMAXPAW     = -100 max onsite density
   LMAXMIX     =    2 max onsite mixed and CHGCAR
   VOSKOWN=      0    Vosko Wilk Nusair interpolation
   ROPT   =   -0.00050  -0.00050  -0.00050
 Ionic relaxation
   EDIFFG = -.5E-01   stopping-criterion for IOM
   NSW    =      0    number of steps for IOM
   NBLOCK =      1;   KBLOCK =      1    inner block; outer block 
   IBRION =     -1    ionic relax: 0-MD 1-quasi-New 2-CG
   NFREE  =      1    steps in history (QN), initial steepest desc. (CG)
   ISIF   =      2    stress and relaxation
   IWAVPR =     10    prediction:  0-non 1-charg 2-wave 3-comb
   ISYM   =      2    0-nonsym 1-usesym 2-fastsym
   LCORR  =      T    Harris-Foulkes like correction to forces

   POTIM  = 0.5000    time-step for ionic-motion
   TEIN   =    0.0    initial temperature
   TEBEG  =    0.0;   TEEND  =   0.0 temperature during run
   SMASS  =  -3.00    Nose mass-parameter (am)
   estimated Nose-frequenzy (Omega)   =  0.10E-29 period in steps =****** mass=  -0.206E-25a.u.
   SCALEE = 1.0000    scale energy and forces
   NPACO  =    256;   APACO  = 16.0  distance and # of slots for P.C.
   PSTRESS=    0.0 pullay stress

  Mass of Ions in am
   POMASS = 106.42 12.01 16.00
  Ionic Valenz
   ZVAL   =  10.00  4.00  6.00
  Atomic Wigner-Seitz radii
   RWIGS  =  -1.00 -1.00 -1.00
  virtual crystal weights 
   VCA    =   1.00  1.00  1.00
   NELECT =     560.0000    total number of electrons
   NUPDOWN=      -1.0000    fix difference up-down

 DOS related values:
   EMIN   =  10.00;   EMAX   =-10.00  energy-range for DOS
   EFERMI =   0.00
   ISMEAR =     2;   SIGMA  =   0.20  broadening in eV -4-tet -1-fermi 0-gaus

 Electronic relaxation 2 (details)
   IALGO  =     68    algorithm
   LDIAG  =      T    sub-space diagonalisation (order eigenvalues)
   LSUBROT=      F    optimize rotation matrix (better conditioning)
   TURBO    =      0    0=normal 1=particle mesh
   IRESTART =      0    0=no restart 2=restart with 2 vectors
   NREBOOT  =      0    no. of reboots
   NMIN     =      0    reboot dimension
   EREF     =   0.00    reference energy to select bands
   IMIX   =      4    mixing-type and parameters
     AMIX     =   0.40;   BMIX     =  1.00
     AMIX_MAG =   1.60;   BMIX_MAG =  1.00
     AMIN     =   0.10
     WC   =   100.;   INIMIX=   1;  MIXPRE=   1;  MAXMIX= -45

 Intra band minimization:
   WEIMIN = 0.0000     energy-eigenvalue tresh-hold
   EBREAK =  0.74E-07  absolut break condition
   DEPER  =   0.30     relativ break condition  

   TIME   =   0.40     timestep for ELM

  volume/ion in A,a.u.               =     473.68      3196.58
  Fermi-wavevector in a.u.,A,eV,Ry     =   0.449797  0.849992  2.752691  0.202317
  Thomas-Fermi vector in A             =   1.430086
 
 Write flags
   LWAVE        =      F    write WAVECAR
   LDOWNSAMPLE  =      F    k-point downsampling of WAVECAR
   LCHARG       =      F    write CHGCAR
   LVTOT        =      F    write LOCPOT, total local potential
   LVHAR        =      F    write LOCPOT, Hartree potential only
   LELF         =      F    write electronic localiz. function (ELF)
   LORBIT       =      0    0 simple, 1 ext, 2 COOP (PROOUT), +10 PAW based schemes


 Dipole corrections
   LMONO  =      F    monopole corrections only (constant potential shift)
   LDIPOL =      F    correct potential (dipole corrections)
   IDIPOL =      0    1-x, 2-y, 3-z, 4-all directions 
   EPSILON=  1.0000000 bulk dielectric constant

 Exchange correlation treatment:
   GGA     =    RP    GGA type
   LEXCH   =     9    internal setting for exchange type
   VOSKOWN=      0    Vosko Wilk Nusair interpolation
   LHFCALC =     F    Hartree Fock is set to
   LHFONE  =     F    Hartree Fock one center treatment
   AEXX    =    0.0000 exact exchange contribution

 Linear response parameters
   LEPSILON=     F    determine dielectric tensor
   LRPA    =     F    only Hartree local field effects (RPA)
   LNABLA  =     F    use nabla operator in PAW spheres
   LVEL    =     F    velocity operator in full k-point grid
   LINTERFAST=   F  fast interpolation
   KINTER  =     0    interpolate to denser k-point grid
   CSHIFT  =0.1000    complex shift for real part using Kramers Kronig
   OMEGAMAX=  -1.0    maximum frequency
   DEG_THRESHOLD= 0.2000000E-02 threshold for treating states as degnerate
   RTIME   =   -0.100 relaxation time in fs
  (WPLASMAI=    0.000 imaginary part of plasma frequency in eV, 0.658/RTIME)
   DFIELD  = 0.0000000 0.0000000 0.0000000 field for delta impulse in time
 
 Orbital magnetization related:
   ORBITALMAG=     F  switch on orbital magnetization
   LCHIMAG   =     F  perturbation theory with respect to B field
   DQ        =  0.001000  dq finite difference perturbation B field
   LLRAUG    =     F  two centre corrections for induced B field



--------------------------------------------------------------------------------------------------------


 Static calculation
 charge density and potential will be updated during run
 non-spin polarized calculation
 RMM-DIIS sequential band-by-band and
  variant of blocked Davidson during initial phase
 perform sub-space diagonalisation
    before iterative eigenvector-optimisation
 modified Broyden-mixing scheme, WC =      100.0
 initial mixing is a Kerker type mixing with AMIX =  0.4000 and BMIX =      1.0000
 Hartree-type preconditioning will be used
 using additional bands           56
 real space projection scheme for non local part
 use partial core corrections
 calculate Harris-corrections to forces 
   (improved forces if not selfconsistent)
 use gradient corrections 
 use of overlap-Matrix (Vanderbilt PP)
 Methfessel and Paxton  Order N= 2 SIGMA  =   0.20


--------------------------------------------------------------------------------------------------------


  energy-cutoff  :      400.00
  volume of cell :    27000.00
      direct lattice vectors                 reciprocal lattice vectors
    30.000000000  0.000000000  0.000000000     0.033333333  0.000000000  0.000000000
     0.000000000 30.000000000  0.000000000     0.000000000  0.033333333  0.000000000
     0.000000000  0.000000000 30.000000000     0.000000000  0.000000000  0.033333333

  length of vectors
    30.000000000 30.000000000 30.000000000     0.033333333  0.033333333  0.033333333


 
 k-points in units of 2pi/SCALE and weight: K-points                                
   0.00000000  0.00000000  0.00000000       1.000
 
 k-points in reciprocal lattice and weights: K-points                                
   0.00000000  0.00000000  0.00000000       1.000
 
 position of ions in fractional coordinates (direct lattice) 
   0.44576020  0.32826710  0.41691983
   0.67173288  0.55423978  0.41691983
   0.55423980  0.32826710  0.41691983
   0.32826712  0.55423978  0.41691983
   0.50000000  0.38250690  0.34021317
   0.50000000  0.38250690  0.65978680
   0.50000000  0.27609440  0.50000000
   0.27609443  0.49999998  0.50000000
   0.72390557  0.49999998  0.50000000
   0.50000000  0.72390555  0.50000000
   0.61195280  0.38804720  0.34167483
   0.61195280  0.38804720  0.65832513
   0.38804722  0.61195278  0.34167483
   0.38804722  0.61195278  0.65832513
   0.38804720  0.38804720  0.34167483
   0.38804720  0.38804720  0.65832513
   0.61195278  0.61195278  0.34167483
   0.61195278  0.61195278  0.65832513
   0.44576020  0.32826710  0.58308023
   0.67173288  0.55423978  0.58308023
   0.55791699  0.44208301  0.41809300
   0.32826705  0.44576024  0.41691983
   0.55423973  0.67173293  0.41691983
   0.55423980  0.32826710  0.58308023
   0.32826712  0.55423978  0.58308023
   0.67173295  0.44576024  0.41691983
   0.44576027  0.67173293  0.41691983
   0.44208301  0.44208301  0.41809300
   0.50000000  0.38416601  0.50000000
   0.61749315  0.50000005  0.34021317
   0.61749315  0.50000005  0.65978680
   0.38250685  0.50000005  0.34021317
   0.38250685  0.50000005  0.65978680
   0.38317830  0.38317830  0.50000000
   0.61682172  0.61682172  0.50000000
   0.61682170  0.38317830  0.50000000
   0.38317828  0.61682172  0.50000000
   0.50000000  0.50000000  0.33478917
   0.50000000  0.50000000  0.66521087
   0.32826705  0.44576024  0.58308023
   0.55423973  0.67173293  0.58308023
   0.55791699  0.44208301  0.58190703
   0.44208298  0.55791702  0.41809300
   0.44208301  0.44208301  0.58190703
   0.67173295  0.44576024  0.58308023
   0.44576027  0.67173293  0.58308023
   0.55791702  0.55791702  0.41809300
   0.38416599  0.50000002  0.50000000
   0.61583401  0.50000002  0.50000000
   0.50000000  0.61749319  0.34021317
   0.50000000  0.61749319  0.65978680
   0.50000000  0.50000000  0.50000000
   0.44208298  0.55791702  0.58190703
   0.55791702  0.55791702  0.58190703
   0.50000000  0.61583404  0.50000000
   0.49431210  0.49643567  0.74584447
   0.49344250  0.49589077  0.78343047
 
 position of ions in cartesian coordinates  (Angst):
  13.37280588  9.84801292 12.50759500
  20.15198637 16.62719342 12.50759500
  16.62719412  9.84801292 12.50759500
   9.84801363 16.62719342 12.50759500
  15.00000000 11.47520705 10.20639500
  15.00000000 11.47520705 19.79360400
  15.00000000  8.28283206 15.00000000
   8.28283277 14.99999929 15.00000000
  21.71716723 14.99999929 15.00000000
  15.00000000 21.71716652 14.99999999
  18.35858397 11.64141603 10.25024500
  18.35858397 11.64141603 19.74975399
  11.64141674 18.35858326 10.25024500
  11.64141674 18.35858326 19.74975400
  11.64141603 11.64141603 10.25024500
  11.64141603 11.64141603 19.74975400
  18.35858326 18.35858326 10.25024500
  18.35858326 18.35858326 19.74975400
  13.37280588  9.84801291 17.49240700
  20.15198638 16.62719341 17.49240700
  16.73750985 13.26249015 12.54279000
   9.84801151 13.37280729 12.50759500
  16.62719200 20.15198779 12.50759500
  16.62719412  9.84801292 17.49240700
   9.84801363 16.62719342 17.49240700
  20.15198849 13.37280729 12.50759500
  13.37280800 20.15198779 12.50759500
  13.26249015 13.26249015 12.54279000
  15.00000000 11.52498029 15.00000000
  18.52479437 15.00000140 10.20639500
  18.52479437 15.00000141 19.79360400
  11.47520562 15.00000141 10.20639501
  11.47520563 15.00000141 19.79360400
  11.49534898 11.49534898 15.00000000
  18.50465172 18.50465172 15.00000000
  18.50465102 11.49534898 15.00000000
  11.49534828 18.50465172 15.00000000
  15.00000000 15.00000000 10.04367500
  15.00000000 15.00000000 19.95632599
   9.84801151 13.37280729 17.49240700
  16.62719200 20.15198779 17.49240700
  16.73750985 13.26249015 17.45721100
  13.26248944 16.73751056 12.54279001
  13.26249015 13.26249015 17.45721100
  20.15198849 13.37280729 17.49240699
  13.37280800 20.15198779 17.49240700
  16.73751056 16.73751056 12.54279000
  11.52497959 15.00000071 15.00000000
  18.47502041 15.00000071 15.00000000
  14.99999999 18.52479579 10.20639500
  15.00000000 18.52479578 19.79360400
  15.00000000 15.00000000 15.00000000
  13.26248944 16.73751057 17.45721101
  16.73751056 16.73751057 17.45721100
  15.00000000 18.47502112 15.00000000
  14.82936300 14.89307000 22.37533400
  14.80327500 14.87672300 23.50291400
 


--------------------------------------------------------------------------------------------------------


 k-point  1 :   0.0000 0.0000 0.0000  plane waves:  490521

 maximum and minimum number of plane-waves per node :    490521   490521

 maximum number of plane-waves:    490521
 maximum index in each direction: 
   IXMAX=   48   IYMAX=   48   IZMAX=   48
   IXMIN=  -48   IYMIN=  -48   IZMIN=  -48


 serial   3D FFT for wavefunctions
 parallel 3D FFT for charge:
    minimum data exchange during FFTs selected (reduces bandwidth)


 total amount of memory used by VASP MPI-rank0  5486941. kBytes
=======================================================================

   base      :      30000. kBytes
   nonlr-proj:      17126. kBytes
   fftplans  :     924480. kBytes
   grid      :    1872000. kBytes
   one-center:        886. kBytes
   wavefun   :    2642449. kBytes
 
     INWAV:  cpu time    0.0001: real time    0.0004
 Broyden mixing: mesh for mixing (old mesh)
   NGX = 97   NGY = 97   NGZ = 97
  (NGX  =300   NGY  =300   NGZ  =300)
  gives a total of 912673 points

 initial charge density was supplied:
 charge density of overlapping atoms calculated
 number of electron     560.0000000 magnetization 
 keeping initial charge density in first step


--------------------------------------------------------------------------------------------------------


 Maximum index for non-local projection operator         1763
 Maximum index for augmentation-charges         5898 (set IRDMAX)


--------------------------------------------------------------------------------------------------------


 First call to EWALD:  gamma=   0.059
 Maximum number of real-space cells 3x 3x 3
 Maximum number of reciprocal cells 3x 3x 3

    FEWALD:  cpu time    0.0146: real time    0.0146


--------------------------------------- Iteration      1(   1)  ---------------------------------------


    POTLOK:  cpu time   14.3702: real time   14.3741
    SETDIJ:  cpu time    0.1156: real time    0.1156
     EDDAV:  cpu time  369.7029: real time  369.7899
       DOS:  cpu time    0.0014: real time    0.0014
    --------------------------------------------
      LOOP:  cpu time  384.1902: real time  384.2811

 eigenvalue-minimisations  :   688
 total energy-change (2. order) : 0.4384200E+04  (-0.1004751E+05)
 number of electron     560.0000000 magnetization 
 augmentation part      560.0000000 magnetization 

 Free energy of the ion-electron system (eV)
  ---------------------------------------------------
  alpha Z        PSCENC =        75.25431677
  Ewald energy   TEWEN  =    138085.21194935
  -Hartree energ DENC   =   -181452.17734606
  -exchange      EXHF   =         0.00000000
  -V(xc)+E(xc)   XCENC  =     -1703.83032653
  PAW double counting   =     44873.02882129   -41398.84523641
  entropy T*S    EENTRO =         0.01599110
  eigenvalues    EBANDS =       819.03646688
  atomic energy  EATOM  =     45086.50549395
  Solvation  Ediel_sol  =         0.00000000
  ---------------------------------------------------
  free energy    TOTEN  =      4384.20013034 eV

  energy without entropy =     4384.18413924  energy(sigma->0) =     4384.19613257


--------------------------------------------------------------------------------------------------------




--------------------------------------- Iteration      1(   2)  ---------------------------------------


     EDDAV:  cpu time  589.9343: real time  589.9615
       DOS:  cpu time    0.0012: real time    0.0012
    --------------------------------------------
      LOOP:  cpu time  589.9355: real time  589.9627

 eigenvalue-minimisations  :  1224
 total energy-change (2. order) :-0.2371435E+04  (-0.2130906E+04)
 number of electron     560.0000000 magnetization 
 augmentation part      560.0000000 magnetization 

 Free energy of the ion-electron system (eV)
  ---------------------------------------------------
  alpha Z        PSCENC =        75.25431677
  Ewald energy   TEWEN  =    138085.21194935
  -Hartree energ DENC   =   -181452.17734606
  -exchange      EXHF   =         0.00000000
  -V(xc)+E(xc)   XCENC  =     -1703.83032653
  PAW double counting   =     44873.02882129   -41398.84523641
  entropy T*S    EENTRO =        -0.04085899
  eigenvalues    EBANDS =     -1552.34119138
  atomic energy  EATOM  =     45086.50549395
  Solvation  Ediel_sol  =         0.00000000
  ---------------------------------------------------
  free energy    TOTEN  =      2012.76562198 eV

  energy without entropy =     2012.80648097  energy(sigma->0) =     2012.77583673


--------------------------------------------------------------------------------------------------------




--------------------------------------- Iteration      1(   3)  ---------------------------------------


     EDDAV:  cpu time  503.8377: real time  503.8526
       DOS:  cpu time    0.0011: real time    0.0011
    --------------------------------------------
      LOOP:  cpu time  503.8388: real time  503.8537

 eigenvalue-minimisations  :   992
 total energy-change (2. order) :-0.1779194E+04  (-0.1676068E+04)
 number of electron     560.0000000 magnetization 
 augmentation part      560.0000000 magnetization 

 Free energy of the ion-electron system (eV)
  ---------------------------------------------------
  alpha Z        PSCENC =        75.25431677
  Ewald energy   TEWEN  =    138085.21194935
  -Hartree energ DENC   =   -181452.17734606
  -exchange      EXHF   =         0.00000000
  -V(xc)+E(xc)   XCENC  =     -1703.83032653
  PAW double counting   =     44873.02882129   -41398.84523641
  entropy T*S    EENTRO =        -0.02526226
  eigenvalues    EBANDS =     -3331.55055573
  atomic energy  EATOM  =     45086.50549395
  Solvation  Ediel_sol  =         0.00000000
  ---------------------------------------------------
  free energy    TOTEN  =       233.57185437 eV

  energy without entropy =      233.59711663  energy(sigma->0) =      233.57816994


--------------------------------------------------------------------------------------------------------




--------------------------------------- Iteration      1(   4)  ---------------------------------------


     EDDAV:  cpu time  437.2488: real time  437.2541
       DOS:  cpu time    0.0010: real time    0.0010
    --------------------------------------------
      LOOP:  cpu time  437.2498: real time  437.2551

 eigenvalue-minimisations  :   824
 total energy-change (2. order) :-0.3684216E+03  (-0.3112219E+03)
 number of electron     560.0000000 magnetization 
 augmentation part      560.0000000 magnetization 

 Free energy of the ion-electron system (eV)
  ---------------------------------------------------
  alpha Z        PSCENC =        75.25431677
  Ewald energy   TEWEN  =    138085.21194935
  -Hartree energ DENC   =   -181452.17734606
  -exchange      EXHF   =         0.00000000
  -V(xc)+E(xc)   XCENC  =     -1703.83032653
  PAW double counting   =     44873.02882129   -41398.84523641
  entropy T*S    EENTRO =         0.03701920
  eigenvalues    EBANDS =     -3700.03447359
  atomic energy  EATOM  =     45086.50549395
  Solvation  Ediel_sol  =         0.00000000
  ---------------------------------------------------
  free energy    TOTEN  =      -134.84978203 eV

  energy without entropy =     -134.88680123  energy(sigma->0) =     -134.85903683


--------------------------------------------------------------------------------------------------------




--------------------------------------- Iteration      1(   5)  ---------------------------------------


     EDDAV:  cpu time  543.3130: real time  543.3402
       DOS:  cpu time    0.0015: real time    0.0015
    CHARGE:  cpu time   27.0781: real time   27.0777
    MIXING:  cpu time    0.4727: real time    0.4727
    --------------------------------------------
      LOOP:  cpu time  570.8652: real time  570.8919

 eigenvalue-minimisations  :  1048
 total energy-change (2. order) :-0.4411716E+02  (-0.3659205E+02)
 number of electron     559.9999944 magnetization 
 augmentation part      245.2327519 magnetization 

 Broyden mixing:
  rms(total) = 0.13924E+01    rms(broyden)= 0.13913E+01
  rms(prec ) = 0.14975E+01
  weight for this iteration     100.00

 Free energy of the ion-electron system (eV)
  ---------------------------------------------------
  alpha Z        PSCENC =        75.25431677
  Ewald energy   TEWEN  =    138085.21194935
  -Hartree energ DENC   =   -181452.17734606
  -exchange      EXHF   =         0.00000000
  -V(xc)+E(xc)   XCENC  =     -1703.83032653
  PAW double counting   =     44873.02882129   -41398.84523641
  entropy T*S    EENTRO =         0.54638725
  eigenvalues    EBANDS =     -3744.66100086
  atomic energy  EATOM  =     45086.50549395
  Solvation  Ediel_sol  =         0.00000000
  ---------------------------------------------------
  free energy    TOTEN  =      -178.96694125 eV

  energy without entropy =     -179.51332850  energy(sigma->0) =     -179.10353806


--------------------------------------------------------------------------------------------------------




--------------------------------------- Iteration      1(   6)  ---------------------------------------


    POTLOK:  cpu time   13.7193: real time   13.7197
    SETDIJ:  cpu time    0.1250: real time    0.1250
    EDDIAG:  cpu time   69.7414: real time   69.7410
  RMM-DIIS:  cpu time  198.7158: real time  198.7135
    ORTHCH:  cpu time   14.1408: real time   14.1406
       DOS:  cpu time    0.0014: real time    0.0014
    CHARGE:  cpu time   27.2405: real time   27.2399
    MIXING:  cpu time    0.5130: real time    0.5130
    --------------------------------------------
      LOOP:  cpu time  324.1972: real time  324.1940

 eigenvalue-minimisations  :   721
 total energy-change (2. order) :-0.2894126E-01  (-0.5216765E+01)
 number of electron     559.9999956 magnetization 
 augmentation part      240.6487582 magnetization 

 Broyden mixing:
  rms(total) = 0.24742E+01    rms(broyden)= 0.24740E+01
  rms(prec ) = 0.28909E+01
  weight for this iteration     100.00

 eigenvalues of (default mixing * dielectric matrix)
  average eigenvalue GAMMA=   0.2841
  0.2841

 Free energy of the ion-electron system (eV)
  ---------------------------------------------------
  alpha Z        PSCENC =        75.25431677
  Ewald energy   TEWEN  =    138085.21194935
  -Hartree energ DENC   =   -181864.45250010
  -exchange      EXHF   =         0.00000000
  -V(xc)+E(xc)   XCENC  =     -1697.55015025
  PAW double counting   =     45623.05347606   -42121.68620444
  entropy T*S    EENTRO =        -0.16752044
  eigenvalues    EBANDS =     -3365.16474340
  atomic energy  EATOM  =     45086.50549395
  Solvation  Ediel_sol  =         0.00000000
  ---------------------------------------------------
  free energy    TOTEN  =      -178.99588251 eV

  energy without entropy =     -178.82836206  energy(sigma->0) =     -178.95400239


--------------------------------------------------------------------------------------------------------




--------------------------------------- Iteration      1(   7)  ---------------------------------------


    POTLOK:  cpu time   14.0912: real time   14.0917
    SETDIJ:  cpu time    0.1228: real time    0.1229
    EDDIAG:  cpu time   69.6599: real time   69.6589
  RMM-DIIS:  cpu time  237.5797: real time  237.5781
    ORTHCH:  cpu time   14.0323: real time   14.0319
       DOS:  cpu time    0.0015: real time    0.0015
    CHARGE:  cpu time   26.5465: real time   26.5459
    MIXING:  cpu time    0.4999: real time    0.4999
    --------------------------------------------
      LOOP:  cpu time  362.5338: real time  362.5307

 eigenvalue-minimisations  :   866
 total energy-change (2. order) :-0.2113933E+01  (-0.1867624E+01)
 number of electron     559.9999929 magnetization 
 augmentation part      240.4479335 magnetization 

 Broyden mixing:
  rms(total) = 0.22673E+01    rms(broyden)= 0.22670E+01
  rms(prec ) = 0.27821E+01
  weight for this iteration     100.00

 eigenvalues of (default mixing * dielectric matrix)
  average eigenvalue GAMMA=   0.2813
  0.4287  0.1338

 Free energy of the ion-electron system (eV)
  ---------------------------------------------------
  alpha Z        PSCENC =        75.25431677
  Ewald energy   TEWEN  =    138085.21194935
  -Hartree energ DENC   =   -181933.51435904
  -exchange      EXHF   =         0.00000000
  -V(xc)+E(xc)   XCENC  =     -1697.67801900
  PAW double counting   =     45673.12305406   -42169.57269162
  entropy T*S    EENTRO =         0.04731712
  eigenvalues    EBANDS =     -3300.48687745
  atomic energy  EATOM  =     45086.50549395
  Solvation  Ediel_sol  =         0.00000000
  ---------------------------------------------------
  free energy    TOTEN  =      -181.10981587 eV

  energy without entropy =     -181.15713300  energy(sigma->0) =     -181.12164515


--------------------------------------------------------------------------------------------------------




--------------------------------------- Iteration      1(   8)  ---------------------------------------


    POTLOK:  cpu time   13.7039: real time   13.7045
    SETDIJ:  cpu time    0.1215: real time    0.1215
    EDDIAG:  cpu time   69.7580: real time   69.7570
  RMM-DIIS:  cpu time  217.3715: real time  217.3706
    ORTHCH:  cpu time   13.8773: real time   13.8770
       DOS:  cpu time    0.0014: real time    0.0014
    CHARGE:  cpu time   26.3505: real time   26.3499
    MIXING:  cpu time    0.5355: real time    0.5355
    --------------------------------------------
      LOOP:  cpu time  341.7196: real time  341.7174

 eigenvalue-minimisations  :   789
 total energy-change (2. order) :-0.1547641E+01  (-0.6391515E+00)
 number of electron     559.9999931 magnetization 
 augmentation part      240.1461941 magnetization 

 Broyden mixing:
  rms(total) = 0.23101E+01    rms(broyden)= 0.23097E+01
  rms(prec ) = 0.26931E+01
  weight for this iteration     100.00

 eigenvalues of (default mixing * dielectric matrix)
  average eigenvalue GAMMA=   0.3003
  0.6362  0.1324  0.1324

 Free energy of the ion-electron system (eV)
  ---------------------------------------------------
  alpha Z        PSCENC =        75.25431677
  Ewald energy   TEWEN  =    138085.21194935
  -Hartree energ DENC   =   -181979.88921548
  -exchange      EXHF   =         0.00000000
  -V(xc)+E(xc)   XCENC  =     -1697.71390364
  PAW double counting   =     45721.67951713   -42215.85871809
  entropy T*S    EENTRO =        -0.20407377
  eigenvalues    EBANDS =     -3257.64282344
  atomic energy  EATOM  =     45086.50549395
  Solvation  Ediel_sol  =         0.00000000
  ---------------------------------------------------
  free energy    TOTEN  =      -182.65745721 eV

  energy without entropy =     -182.45338344  energy(sigma->0) =     -182.60643877


--------------------------------------------------------------------------------------------------------




--------------------------------------- Iteration      1(   9)  ---------------------------------------


    POTLOK:  cpu time   13.6993: real time   13.7014
    SETDIJ:  cpu time    0.1210: real time    0.1210
    EDDIAG:  cpu time   71.0333: real time   71.0325
  RMM-DIIS:  cpu time  204.4222: real time  204.4485
    ORTHCH:  cpu time   14.0909: real time   14.0910
       DOS:  cpu time    0.0014: real time    0.0014
    CHARGE:  cpu time   26.7119: real time   26.7158
    MIXING:  cpu time    0.5594: real time    0.5594
    --------------------------------------------
      LOOP:  cpu time  330.6395: real time  330.6710

 eigenvalue-minimisations  :   726
 total energy-change (2. order) : 0.6405030E+00  (-0.5280590E+00)
 number of electron     559.9999909 magnetization 
 augmentation part      240.8798258 magnetization 

 Broyden mixing:
  rms(total) = 0.28010E+01    rms(broyden)= 0.28007E+01
  rms(prec ) = 0.32870E+01
  weight for this iteration     100.00

 eigenvalues of (default mixing * dielectric matrix)
  average eigenvalue GAMMA=   0.2792
  0.7339  0.1429  0.1429  0.0973

 Free energy of the ion-electron system (eV)
  ---------------------------------------------------
  alpha Z        PSCENC =        75.25431677
  Ewald energy   TEWEN  =    138085.21194935
  -Hartree energ DENC   =   -182006.08710860
  -exchange      EXHF   =         0.00000000
  -V(xc)+E(xc)   XCENC  =     -1697.70451566
  PAW double counting   =     45785.23303195   -42276.42979663
  entropy T*S    EENTRO =        -0.05242050
  eigenvalues    EBANDS =     -3233.94790483
  atomic energy  EATOM  =     45086.50549395
  Solvation  Ediel_sol  =         0.00000000
  ---------------------------------------------------
  free energy    TOTEN  =      -182.01695420 eV

  energy without entropy =     -181.96453370  energy(sigma->0) =     -182.00384907


--------------------------------------------------------------------------------------------------------




--------------------------------------- Iteration      1(  10)  ---------------------------------------


    POTLOK:  cpu time   13.9401: real time   13.9438
    SETDIJ:  cpu time    0.1245: real time    0.1245
    EDDIAG:  cpu time   71.6902: real time   71.6908
  RMM-DIIS:  cpu time  208.9377: real time  208.9462
    ORTHCH:  cpu time   13.8675: real time   13.8676
       DOS:  cpu time    0.0015: real time    0.0015
    CHARGE:  cpu time   25.9536: real time   25.9548
    MIXING:  cpu time    0.6048: real time    0.6049
    --------------------------------------------
      LOOP:  cpu time  335.1199: real time  335.1339

 eigenvalue-minimisations  :   744
 total energy-change (2. order) : 0.1268876E+01  (-0.2699192E+00)
 number of electron     559.9999920 magnetization 
 augmentation part      241.0255316 magnetization 

 Broyden mixing:
  rms(total) = 0.23782E+01    rms(broyden)= 0.23779E+01
  rms(prec ) = 0.28115E+01
  weight for this iteration     100.00

 eigenvalues of (default mixing * dielectric matrix)
  average eigenvalue GAMMA=   0.2622
  0.8097  0.1630  0.1630  0.0875  0.0875

 Free energy of the ion-electron system (eV)
  ---------------------------------------------------
  alpha Z        PSCENC =        75.25431677
  Ewald energy   TEWEN  =    138085.21194935
  -Hartree energ DENC   =   -182030.44993509
  -exchange      EXHF   =         0.00000000
  -V(xc)+E(xc)   XCENC  =     -1697.61985791
  PAW double counting   =     45821.27451485   -42310.86755257
  entropy T*S    EENTRO =        -0.10611000
  eigenvalues    EBANDS =     -3209.95089747
  atomic energy  EATOM  =     45086.50549395
  Solvation  Ediel_sol  =         0.00000000
  ---------------------------------------------------
  free energy    TOTEN  =      -180.74807812 eV

  energy without entropy =     -180.64196813  energy(sigma->0) =     -180.72155062


--------------------------------------------------------------------------------------------------------




--------------------------------------- Iteration      1(  11)  ---------------------------------------


    POTLOK:  cpu time   14.0312: real time   14.0349
    SETDIJ:  cpu time    0.1275: real time    0.1275
    EDDIAG:  cpu time   71.4866: real time   71.4887
  RMM-DIIS:  cpu time  204.2113: real time  204.2182
    ORTHCH:  cpu time   13.9298: real time   13.9299
       DOS:  cpu time    0.0015: real time    0.0015
    CHARGE:  cpu time   25.8942: real time   25.8941
    MIXING:  cpu time    0.6244: real time    0.6243
    --------------------------------------------
      LOOP:  cpu time  330.3064: real time  330.3192

 eigenvalue-minimisations  :   726
 total energy-change (2. order) : 0.2584339E+01  (-0.1895938E+00)
 number of electron     559.9999947 magnetization 
 augmentation part      241.4464892 magnetization 

 Broyden mixing:
  rms(total) = 0.17965E+01    rms(broyden)= 0.17962E+01
  rms(prec ) = 0.20995E+01
  weight for this iteration     100.00

 eigenvalues of (default mixing * dielectric matrix)
  average eigenvalue GAMMA=   0.2549
  0.8824  0.1900  0.1900  0.0963  0.0963  0.0744

 Free energy of the ion-electron system (eV)
  ---------------------------------------------------
  alpha Z        PSCENC =        75.25431677
  Ewald energy   TEWEN  =    138085.21194935
  -Hartree energ DENC   =   -182050.31676550
  -exchange      EXHF   =         0.00000000
  -V(xc)+E(xc)   XCENC  =     -1697.49132175
  PAW double counting   =     45852.77899930   -42340.96900269
  entropy T*S    EENTRO =        -0.05185845
  eigenvalues    EBANDS =     -3189.08555022
  atomic energy  EATOM  =     45086.50549395
  Solvation  Ediel_sol  =         0.00000000
  ---------------------------------------------------
  free energy    TOTEN  =      -178.16373924 eV

  energy without entropy =     -178.11188079  energy(sigma->0) =     -178.15077463


--------------------------------------------------------------------------------------------------------




--------------------------------------- Iteration      1(  12)  ---------------------------------------


    POTLOK:  cpu time   14.0712: real time   14.0734
    SETDIJ:  cpu time    0.1260: real time    0.1260
    EDDIAG:  cpu time   71.4107: real time   71.4135
  RMM-DIIS:  cpu time  203.8308: real time  203.8312
    ORTHCH:  cpu time   13.8887: real time   13.8890
       DOS:  cpu time    0.0014: real time    0.0014
    CHARGE:  cpu time   26.0062: real time   26.0069
    MIXING:  cpu time    0.6587: real time    0.6588
    --------------------------------------------
      LOOP:  cpu time  329.9938: real time  330.0002

 eigenvalue-minimisations  :   723
 total energy-change (2. order) : 0.1024942E+01  (-0.1360575E+00)
 number of electron     559.9999933 magnetization 
 augmentation part      241.6680694 magnetization 

 Broyden mixing:
  rms(total) = 0.16623E+01    rms(broyden)= 0.16620E+01
  rms(prec ) = 0.20029E+01
  weight for this iteration     100.00

 eigenvalues of (default mixing * dielectric matrix)
  average eigenvalue GAMMA=   0.2447
  0.9099  0.2208  0.2208  0.1121  0.0945  0.0945  0.0601

 Free energy of the ion-electron system (eV)
  ---------------------------------------------------
  alpha Z        PSCENC =        75.25431677
  Ewald energy   TEWEN  =    138085.21194935
  -Hartree energ DENC   =   -182066.99464746
  -exchange      EXHF   =         0.00000000
  -V(xc)+E(xc)   XCENC  =     -1697.29349802
  PAW double counting   =     45883.68759086   -42370.35293664
  entropy T*S    EENTRO =        -0.06600625
  eigenvalues    EBANDS =     -3173.09105966
  atomic energy  EATOM  =     45086.50549395
  Solvation  Ediel_sol  =         0.00000000
  ---------------------------------------------------
  free energy    TOTEN  =      -177.13879710 eV

  energy without entropy =     -177.07279085  energy(sigma->0) =     -177.12229554


--------------------------------------------------------------------------------------------------------




--------------------------------------- Iteration      1(  13)  ---------------------------------------


    POTLOK:  cpu time   13.8989: real time   13.9025
    SETDIJ:  cpu time    0.1236: real time    0.1236
    EDDIAG:  cpu time   71.7214: real time   71.7229
  RMM-DIIS:  cpu time  204.1155: real time  204.1243
    ORTHCH:  cpu time   13.6329: real time   13.6327
       DOS:  cpu time    0.0014: real time    0.0014
    CHARGE:  cpu time   26.0848: real time   26.0846
    MIXING:  cpu time    0.7005: real time    0.7005
    --------------------------------------------
      LOOP:  cpu time  330.2788: real time  330.2924

 eigenvalue-minimisations  :   729
 total energy-change (2. order) : 0.7203161E+00  (-0.8150111E-01)
 number of electron     559.9999936 magnetization 
 augmentation part      241.6076097 magnetization 

 Broyden mixing:
  rms(total) = 0.13961E+01    rms(broyden)= 0.13958E+01
  rms(prec ) = 0.16510E+01
  weight for this iteration     100.00

 eigenvalues of (default mixing * dielectric matrix)
  average eigenvalue GAMMA=   0.2469
  0.9675  0.2708  0.2708  0.1229  0.1091  0.1091  0.0627  0.0627

 Free energy of the ion-electron system (eV)
  ---------------------------------------------------
  alpha Z        PSCENC =        75.25431677
  Ewald energy   TEWEN  =    138085.21194935
  -Hartree energ DENC   =   -182085.95052052
  -exchange      EXHF   =         0.00000000
  -V(xc)+E(xc)   XCENC  =     -1697.10347634
  PAW double counting   =     45906.47723037   -42391.95161248
  entropy T*S    EENTRO =        -0.09849040
  eigenvalues    EBANDS =     -3154.76337170
  atomic energy  EATOM  =     45086.50549395
  Solvation  Ediel_sol  =         0.00000000
  ---------------------------------------------------
  free energy    TOTEN  =      -176.41848099 eV

  energy without entropy =     -176.31999059  energy(sigma->0) =     -176.39385839


--------------------------------------------------------------------------------------------------------




--------------------------------------- Iteration      1(  14)  ---------------------------------------


    POTLOK:  cpu time   13.7815: real time   13.7844
    SETDIJ:  cpu time    0.1200: real time    0.1200
    EDDIAG:  cpu time   70.6246: real time   70.6242
  RMM-DIIS:  cpu time  201.4981: real time  201.4975
    ORTHCH:  cpu time   13.6465: real time   13.6463
       DOS:  cpu time    0.0015: real time    0.0015
    CHARGE:  cpu time   26.0426: real time   26.0421
    MIXING:  cpu time    0.7527: real time    0.7527
    --------------------------------------------
      LOOP:  cpu time  326.4675: real time  326.4687

 eigenvalue-minimisations  :   719
 total energy-change (2. order) :-0.1863501E+00  (-0.8668310E-01)
 number of electron     559.9999901 magnetization 
 augmentation part      241.5647756 magnetization 

 Broyden mixing:
  rms(total) = 0.25505E+01    rms(broyden)= 0.25504E+01
  rms(prec ) = 0.29345E+01
  weight for this iteration     100.00

 eigenvalues of (default mixing * dielectric matrix)
  average eigenvalue GAMMA=   0.2499
  1.0437  0.3999  0.2677  0.1292  0.1135  0.1135  0.0655  0.0655  0.0504

 Free energy of the ion-electron system (eV)
  ---------------------------------------------------
  alpha Z        PSCENC =        75.25431677
  Ewald energy   TEWEN  =    138085.21194935
  -Hartree energ DENC   =   -182109.61849947
  -exchange      EXHF   =         0.00000000
  -V(xc)+E(xc)   XCENC  =     -1696.76745295
  PAW double counting   =     45941.27670717   -42424.89857946
  entropy T*S    EENTRO =         0.10688539
  eigenvalues    EBANDS =     -3133.67565184
  atomic energy  EATOM  =     45086.50549395
  Solvation  Ediel_sol  =         0.00000000
  ---------------------------------------------------
  free energy    TOTEN  =      -176.60483109 eV

  energy without entropy =     -176.71171648  energy(sigma->0) =     -176.63155244


--------------------------------------------------------------------------------------------------------




--------------------------------------- Iteration      1(  15)  ---------------------------------------


    POTLOK:  cpu time   13.7432: real time   13.7463
    SETDIJ:  cpu time    0.1261: real time    0.1261
    EDDIAG:  cpu time   70.3738: real time   70.3735
  RMM-DIIS:  cpu time  199.6016: real time  199.6045
    ORTHCH:  cpu time   13.6708: real time   13.6706
       DOS:  cpu time    0.0015: real time    0.0015
    CHARGE:  cpu time   26.2631: real time   26.2647
    MIXING:  cpu time    0.7971: real time    0.7971
    --------------------------------------------
      LOOP:  cpu time  324.5773: real time  324.5844

 eigenvalue-minimisations  :   711
 total energy-change (2. order) : 0.5494238E+00  (-0.1057603E+00)
 number of electron     559.9999936 magnetization 
 augmentation part      241.3422555 magnetization 

 Broyden mixing:
  rms(total) = 0.15910E+01    rms(broyden)= 0.15909E+01
  rms(prec ) = 0.18203E+01
  weight for this iteration     100.00

 eigenvalues of (default mixing * dielectric matrix)
  average eigenvalue GAMMA=   0.2677
  1.1851  0.6265  0.2227  0.1343  0.1343  0.0936  0.0936  0.0693  0.0693  0.0487

 Free energy of the ion-electron system (eV)
  ---------------------------------------------------
  alpha Z        PSCENC =        75.25431677
  Ewald energy   TEWEN  =    138085.21194935
  -Hartree energ DENC   =   -182138.77833724
  -exchange      EXHF   =         0.00000000
  -V(xc)+E(xc)   XCENC  =     -1696.32293039
  PAW double counting   =     45984.07050134   -42465.42634083
  entropy T*S    EENTRO =        -0.09001348
  eigenvalues    EBANDS =     -3106.48004674
  atomic energy  EATOM  =     45086.50549395
  Solvation  Ediel_sol  =         0.00000000
  ---------------------------------------------------
  free energy    TOTEN  =      -176.05540727 eV

  energy without entropy =     -175.96539379  energy(sigma->0) =     -176.03290390


--------------------------------------------------------------------------------------------------------




--------------------------------------- Iteration      1(  16)  ---------------------------------------


    POTLOK:  cpu time   13.8343: real time   13.8375
    SETDIJ:  cpu time    0.1218: real time    0.1218
    EDDIAG:  cpu time   70.3598: real time   70.3593
  RMM-DIIS:  cpu time  198.9766: real time  198.9832
    ORTHCH:  cpu time   13.6586: real time   13.6589
       DOS:  cpu time    0.0015: real time    0.0015
    CHARGE:  cpu time   26.1413: real time   26.1420
    MIXING:  cpu time    0.8536: real time    0.8537
    --------------------------------------------
      LOOP:  cpu time  323.9475: real time  323.9578

 eigenvalue-minimisations  :   709
 total energy-change (2. order) : 0.5084142E+00  (-0.1033220E+00)
 number of electron     559.9999952 magnetization 
 augmentation part      241.1867092 magnetization 

 Broyden mixing:
  rms(total) = 0.12446E+01    rms(broyden)= 0.12444E+01
  rms(prec ) = 0.14686E+01
  weight for this iteration     100.00

 eigenvalues of (default mixing * dielectric matrix)
  average eigenvalue GAMMA=   0.2934
  1.4264  0.7368  0.1943  0.1943  0.2068  0.1034  0.1034  0.0751  0.0751  0.0621
  0.0499

 Free energy of the ion-electron system (eV)
  ---------------------------------------------------
  alpha Z        PSCENC =        75.25431677
  Ewald energy   TEWEN  =    138085.21194935
  -Hartree energ DENC   =   -182175.35416498
  -exchange      EXHF   =         0.00000000
  -V(xc)+E(xc)   XCENC  =     -1695.79281032
  PAW double counting   =     46032.82642520   -42511.56899413
  entropy T*S    EENTRO =        -0.01567598
  eigenvalues    EBANDS =     -3072.61353295
  atomic energy  EATOM  =     45086.50549395
  Solvation  Ediel_sol  =         0.00000000
  ---------------------------------------------------
  free energy    TOTEN  =      -175.54699309 eV

  energy without entropy =     -175.53131711  energy(sigma->0) =     -175.54307410


--------------------------------------------------------------------------------------------------------




--------------------------------------- Iteration      1(  17)  ---------------------------------------


    POTLOK:  cpu time   13.8131: real time   13.8165
    SETDIJ:  cpu time    0.1270: real time    0.1270
    EDDIAG:  cpu time   70.0395: real time   70.0394
  RMM-DIIS:  cpu time  198.1609: real time  198.1613
    ORTHCH:  cpu time   14.0356: real time   14.0354
       DOS:  cpu time    0.0015: real time    0.0015
    CHARGE:  cpu time   26.0819: real time   26.0814
    MIXING:  cpu time    0.9245: real time    0.9245
    --------------------------------------------
      LOOP:  cpu time  323.1839: real time  323.1870

 eigenvalue-minimisations  :   707
 total energy-change (2. order) : 0.2864807E-01  (-0.8334443E-01)
 number of electron     559.9999921 magnetization 
 augmentation part      241.1515648 magnetization 

 Broyden mixing:
  rms(total) = 0.17392E+01    rms(broyden)= 0.17391E+01
  rms(prec ) = 0.20317E+01
  weight for this iteration     100.00

 eigenvalues of (default mixing * dielectric matrix)
  average eigenvalue GAMMA=   0.2913
  1.5065  0.8000  0.2223  0.2223  0.1989  0.1066  0.1066  0.0771  0.0771  0.0647
  0.0647  0.0493

 Free energy of the ion-electron system (eV)
  ---------------------------------------------------
  alpha Z        PSCENC =        75.25431677
  Ewald energy   TEWEN  =    138085.21194935
  -Hartree energ DENC   =   -182212.56036618
  -exchange      EXHF   =         0.00000000
  -V(xc)+E(xc)   XCENC  =     -1695.30447620
  PAW double counting   =     46077.64463547   -42553.78802282
  entropy T*S    EENTRO =        -0.03161819
  eigenvalues    EBANDS =     -3038.45025717
  atomic energy  EATOM  =     45086.50549395
  Solvation  Ediel_sol  =         0.00000000
  ---------------------------------------------------
  free energy    TOTEN  =      -175.51834502 eV

  energy without entropy =     -175.48672683  energy(sigma->0) =     -175.51044047


--------------------------------------------------------------------------------------------------------




--------------------------------------- Iteration      1(  18)  ---------------------------------------


    POTLOK:  cpu time   13.6736: real time   13.6761
    SETDIJ:  cpu time    0.1182: real time    0.1182
    EDDIAG:  cpu time   69.9329: real time   69.9330
  RMM-DIIS:  cpu time  199.8774: real time  199.8789
    ORTHCH:  cpu time   14.0359: real time   14.0358
       DOS:  cpu time    0.0015: real time    0.0015
    CHARGE:  cpu time   26.1869: real time   26.1867
    MIXING:  cpu time    0.9603: real time    0.9603
    --------------------------------------------
      LOOP:  cpu time  324.7867: real time  324.7905

 eigenvalue-minimisations  :   712
 total energy-change (2. order) : 0.4551197E+00  (-0.4970137E-01)
 number of electron     559.9999951 magnetization 
 augmentation part      241.1197847 magnetization 

 Broyden mixing:
  rms(total) = 0.98221E+00    rms(broyden)= 0.98199E+00
  rms(prec ) = 0.11291E+01
  weight for this iteration     100.00

 eigenvalues of (default mixing * dielectric matrix)
  average eigenvalue GAMMA=   0.2979
  1.5391  0.9048  0.2976  0.2976  0.1433  0.1433  0.1085  0.1085  0.0789  0.0789
  0.0617  0.0617  0.0494

 Free energy of the ion-electron system (eV)
  ---------------------------------------------------
  alpha Z        PSCENC =        75.25431677
  Ewald energy   TEWEN  =    138085.21194935
  -Hartree energ DENC   =   -182226.07467443
  -exchange      EXHF   =         0.00000000
  -V(xc)+E(xc)   XCENC  =     -1695.10830587
  PAW double counting   =     46092.46573644   -42567.59425156
  entropy T*S    EENTRO =        -0.09243335
  eigenvalues    EBANDS =     -3025.63105658
  atomic energy  EATOM  =     45086.50549395
  Solvation  Ediel_sol  =         0.00000000
  ---------------------------------------------------
  free energy    TOTEN  =      -175.06322528 eV

  energy without entropy =     -174.97079192  energy(sigma->0) =     -175.04011694


--------------------------------------------------------------------------------------------------------




--------------------------------------- Iteration      1(  19)  ---------------------------------------


    POTLOK:  cpu time   14.0784: real time   14.0817
    SETDIJ:  cpu time    0.1200: real time    0.1200
    EDDIAG:  cpu time   69.3624: real time   69.3644
  RMM-DIIS:  cpu time  199.9518: real time  199.9520
    ORTHCH:  cpu time   13.7100: real time   13.7099
       DOS:  cpu time    0.0016: real time    0.0016
    CHARGE:  cpu time   26.1712: real time   26.1710
    MIXING:  cpu time    1.0172: real time    1.0172
    --------------------------------------------
      LOOP:  cpu time  324.4126: real time  324.4179

 eigenvalue-minimisations  :   712
 total energy-change (2. order) : 0.3731313E-01  (-0.3804495E-01)
 number of electron     559.9999942 magnetization 
 augmentation part      241.1056785 magnetization 

 Broyden mixing:
  rms(total) = 0.94026E+00    rms(broyden)= 0.94006E+00
  rms(prec ) = 0.10720E+01
  weight for this iteration     100.00

 eigenvalues of (default mixing * dielectric matrix)
  average eigenvalue GAMMA=   0.3048
  1.5496  1.0968  0.3316  0.3316  0.1650  0.1650  0.1066  0.1066  0.0789  0.0789
  0.0769  0.0654  0.0654  0.0492

 Free energy of the ion-electron system (eV)
  ---------------------------------------------------
  alpha Z        PSCENC =        75.25431677
  Ewald energy   TEWEN  =    138085.21194935
  -Hartree energ DENC   =   -182241.42868848
  -exchange      EXHF   =         0.00000000
  -V(xc)+E(xc)   XCENC  =     -1694.94308557
  PAW double counting   =     46099.06790172   -42573.33391156
  entropy T*S    EENTRO =        -0.03719910
  eigenvalues    EBANDS =     -3011.32268923
  atomic energy  EATOM  =     45086.50549395
  Solvation  Ediel_sol  =         0.00000000
  ---------------------------------------------------
  free energy    TOTEN  =      -175.02591215 eV

  energy without entropy =     -174.98871305  energy(sigma->0) =     -175.01661237


--------------------------------------------------------------------------------------------------------




--------------------------------------- Iteration      1(  20)  ---------------------------------------


    POTLOK:  cpu time   13.5484: real time   13.5500
    SETDIJ:  cpu time    0.1228: real time    0.1228
    EDDIAG:  cpu time   69.0726: real time   69.0746
  RMM-DIIS:  cpu time  202.3635: real time  202.3739
    ORTHCH:  cpu time   13.4102: real time   13.4105
       DOS:  cpu time    0.0015: real time    0.0015
    CHARGE:  cpu time   26.0038: real time   26.0078
    MIXING:  cpu time    1.0927: real time    1.0927
    --------------------------------------------
      LOOP:  cpu time  325.6156: real time  325.6339

 eigenvalue-minimisations  :   720
 total energy-change (2. order) :-0.6692965E-01  (-0.2622179E-01)
 number of electron     559.9999948 magnetization 
 augmentation part      241.0510936 magnetization 

 Broyden mixing:
  rms(total) = 0.13244E+01    rms(broyden)= 0.13243E+01
  rms(prec ) = 0.15713E+01
  weight for this iteration     100.00

 eigenvalues of (default mixing * dielectric matrix)
  average eigenvalue GAMMA=   0.3045
  1.7112  1.0315  0.3751  0.3751  0.1816  0.1816  0.1075  0.1075  0.0850  0.0850
  0.0772  0.0708  0.0708  0.0491  0.0583

 Free energy of the ion-electron system (eV)
  ---------------------------------------------------
  alpha Z        PSCENC =        75.25431677
  Ewald energy   TEWEN  =    138085.21194935
  -Hartree energ DENC   =   -182262.70507804
  -exchange      EXHF   =         0.00000000
  -V(xc)+E(xc)   XCENC  =     -1694.72239547
  PAW double counting   =     46107.64962139   -42580.84506274
  entropy T*S    EENTRO =         0.05623545
  eigenvalues    EBANDS =     -2991.49792246
  atomic energy  EATOM  =     45086.50549395
  Solvation  Ediel_sol  =         0.00000000
  ---------------------------------------------------
  free energy    TOTEN  =      -175.09284180 eV

  energy without entropy =     -175.14907725  energy(sigma->0) =     -175.10690067


--------------------------------------------------------------------------------------------------------




--------------------------------------- Iteration      1(  21)  ---------------------------------------


    POTLOK:  cpu time   13.2529: real time   13.2553
    SETDIJ:  cpu time    0.1252: real time    0.1252
    EDDIAG:  cpu time   69.9327: real time   69.9375
  RMM-DIIS:  cpu time  198.0071: real time  198.0114
    ORTHCH:  cpu time   13.6596: real time   13.6595
       DOS:  cpu time    0.0013: real time    0.0013
    CHARGE:  cpu time   26.3429: real time   26.3427
    MIXING:  cpu time    1.1222: real time    1.1222
    --------------------------------------------
      LOOP:  cpu time  322.4440: real time  322.4551

 eigenvalue-minimisations  :   707
 total energy-change (2. order) : 0.3257763E+00  (-0.1882517E-01)
 number of electron     559.9999941 magnetization 
 augmentation part      241.1200091 magnetization 

 Broyden mixing:
  rms(total) = 0.86526E+00    rms(broyden)= 0.86511E+00
  rms(prec ) = 0.97541E+00
  weight for this iteration     100.00

 eigenvalues of (default mixing * dielectric matrix)
  average eigenvalue GAMMA=   0.3067
  1.7656  1.0675  0.4353  0.4353  0.1945  0.1945  0.1104  0.1104  0.1011  0.1011
  0.0818  0.0818  0.0624  0.0624  0.0490  0.0538

 Free energy of the ion-electron system (eV)
  ---------------------------------------------------
  alpha Z        PSCENC =        75.25431677
  Ewald energy   TEWEN  =    138085.21194935
  -Hartree energ DENC   =   -182269.03950426
  -exchange      EXHF   =         0.00000000
  -V(xc)+E(xc)   XCENC  =     -1694.62336586
  PAW double counting   =     46111.57569836   -42584.24198583
  entropy T*S    EENTRO =        -0.04426926
  eigenvalues    EBANDS =     -2985.36539878
  atomic energy  EATOM  =     45086.50549395
  Solvation  Ediel_sol  =         0.00000000
  ---------------------------------------------------
  free energy    TOTEN  =      -174.76706555 eV

  energy without entropy =     -174.72279629  energy(sigma->0) =     -174.75599824


--------------------------------------------------------------------------------------------------------




--------------------------------------- Iteration      1(  22)  ---------------------------------------


    POTLOK:  cpu time   13.5518: real time   13.5525
    SETDIJ:  cpu time    0.1250: real time    0.1250
    EDDIAG:  cpu time   69.9847: real time   69.9873
  RMM-DIIS:  cpu time  196.9308: real time  196.9387
    ORTHCH:  cpu time   13.6023: real time   13.6022
       DOS:  cpu time    0.0016: real time    0.0016
    CHARGE:  cpu time   26.3611: real time   26.3615
    MIXING:  cpu time    1.1827: real time    1.1827
    --------------------------------------------
      LOOP:  cpu time  321.7399: real time  321.7515

 eigenvalue-minimisations  :   705
 total energy-change (2. order) : 0.1403004E+00  (-0.1945484E-01)
 number of electron     559.9999954 magnetization 
 augmentation part      241.1662278 magnetization 

 Broyden mixing:
  rms(total) = 0.68875E+00    rms(broyden)= 0.68864E+00
  rms(prec ) = 0.79889E+00
  weight for this iteration     100.00

 eigenvalues of (default mixing * dielectric matrix)
  average eigenvalue GAMMA=   0.3120
  1.7780  1.1922  0.4910  0.4910  0.1938  0.1938  0.1567  0.1100  0.1100  0.1190
  0.0830  0.0830  0.0668  0.0668  0.0491  0.0635  0.0566

 Free energy of the ion-electron system (eV)
  ---------------------------------------------------
  alpha Z        PSCENC =        75.25431677
  Ewald energy   TEWEN  =    138085.21194935
  -Hartree energ DENC   =   -182279.83830444
  -exchange      EXHF   =         0.00000000
  -V(xc)+E(xc)   XCENC  =     -1694.52379066
  PAW double counting   =     46111.64673328   -42583.79233213
  entropy T*S    EENTRO =        -0.06511535
  eigenvalues    EBANDS =     -2975.02571590
  atomic energy  EATOM  =     45086.50549395
  Solvation  Ediel_sol  =         0.00000000
  ---------------------------------------------------
  free energy    TOTEN  =      -174.62676512 eV

  energy without entropy =     -174.56164977  energy(sigma->0) =     -174.61048628


--------------------------------------------------------------------------------------------------------




--------------------------------------- Iteration      1(  23)  ---------------------------------------


    POTLOK:  cpu time   13.7736: real time   13.7747
    SETDIJ:  cpu time    0.1204: real time    0.1204
    EDDIAG:  cpu time   69.2696: real time   69.2705
  RMM-DIIS:  cpu time  200.5288: real time  200.5347
    ORTHCH:  cpu time   13.3496: real time   13.3493
       DOS:  cpu time    0.0015: real time    0.0015
    CHARGE:  cpu time   26.4131: real time   26.4125
    MIXING:  cpu time    1.2304: real time    1.2303
    --------------------------------------------
      LOOP:  cpu time  324.6870: real time  324.6940

 eigenvalue-minimisations  :   712
 total energy-change (2. order) :-0.5130339E-01  (-0.1788598E-01)
 number of electron     559.9999948 magnetization 
 augmentation part      241.1222352 magnetization 

 Broyden mixing:
  rms(total) = 0.78446E+00    rms(broyden)= 0.78430E+00
  rms(prec ) = 0.92073E+00
  weight for this iteration     100.00

 eigenvalues of (default mixing * dielectric matrix)
  average eigenvalue GAMMA=   0.3216
  1.9361  1.2212  0.5766  0.4014  0.4014  0.1811  0.1811  0.1088  0.1088  0.1080
[...]
 -0.007  -0.012   0.004   0.004   0.006  -0.006  -0.012   0.004
 -0.011  -0.021   0.006   0.007   0.009  -0.011  -0.020   0.006
 -0.015  -0.005   0.013   0.000   0.022  -0.014  -0.005   0.012
  0.000  -0.023  -0.006  -0.015  -0.000   0.000  -0.022  -0.006
 -0.022   0.000   0.009  -0.005  -0.016  -0.021   0.000   0.008
 -0.017  -0.006   0.015   0.000   0.027  -0.017  -0.006   0.015
  0.000  -0.027  -0.007  -0.018  -0.000   0.000  -0.027  -0.007
 -0.027   0.000   0.010  -0.006  -0.019  -0.026   0.000   0.010
 total augmentation occupancy for first ion, spin component:           1
  1.536  -0.029   0.005   0.017   0.024   0.076  -0.008  -0.002   0.036  -0.010   0.092  -0.031   0.012   0.002   0.002  -0.019
 -0.029   1.400   0.029   0.070  -0.002  -0.007   0.072   0.011  -0.014  -0.007   0.224  -0.067   0.019   0.002   0.003  -0.006
  0.005   0.029   1.542   0.002   0.002  -0.002   0.013   0.074  -0.012   0.017  -0.053   0.018  -0.003  -0.007  -0.005   0.016
  0.017   0.070   0.002   1.337   0.043   0.033  -0.013  -0.012   0.092  -0.023  -0.079   0.020  -0.001  -0.008  -0.003   0.001
  0.024  -0.002   0.002   0.043   1.439  -0.010  -0.008   0.016  -0.022   0.067  -0.096   0.031  -0.003  -0.009  -0.010   0.026
  0.076  -0.007  -0.002   0.033  -0.010   0.217   0.019  -0.002  -0.045   0.004  -0.048   0.002   0.017  -0.010   0.034  -0.004
 -0.008   0.072   0.013  -0.013  -0.008   0.019   0.263  -0.023  -0.003   0.006  -0.110   0.007  -0.001   0.051  -0.010  -0.000
 -0.002   0.011   0.074  -0.012   0.016  -0.002  -0.023   0.215   0.014  -0.020   0.028  -0.001  -0.012   0.009  -0.018   0.003
  0.036  -0.014  -0.012   0.092  -0.022  -0.045  -0.003   0.014   0.260   0.007   0.043  -0.004  -0.009   0.036   0.004   0.000
 -0.010  -0.007   0.017  -0.023   0.067   0.004   0.006  -0.020   0.007   0.258   0.046  -0.002  -0.038   0.002   0.049   0.007
  0.092   0.224  -0.053  -0.079  -0.096  -0.048  -0.110   0.028   0.043   0.046   0.952  -0.141   0.084   0.014   0.064  -0.013
 -0.031  -0.067   0.018   0.020   0.031   0.002   0.007  -0.001  -0.004  -0.002  -0.141   0.023  -0.014  -0.003  -0.010   0.003
  0.012   0.019  -0.003  -0.001  -0.003   0.017  -0.001  -0.012  -0.009  -0.038   0.084  -0.014   0.029  -0.008  -0.004  -0.003
  0.002   0.002  -0.007  -0.008  -0.009  -0.010   0.051   0.009   0.036   0.002   0.014  -0.003  -0.008   0.036   0.004   0.000
  0.002   0.003  -0.005  -0.003  -0.010   0.034  -0.010  -0.018   0.004   0.049   0.064  -0.010  -0.004   0.004   0.035  -0.000
 -0.019  -0.006   0.016   0.001   0.026  -0.004  -0.000   0.003   0.000   0.007  -0.013   0.003  -0.003   0.000  -0.000   0.001
  0.001  -0.028  -0.007  -0.018   0.001   0.001  -0.008  -0.001  -0.006  -0.000  -0.003   0.001   0.000  -0.003  -0.000   0.000
 -0.028   0.001   0.012  -0.005  -0.019  -0.006   0.001   0.003  -0.001  -0.007  -0.008   0.001  -0.000  -0.000  -0.003   0.000


------------------------ aborting loop because EDIFF is reached ----------------------------------------


    CHARGE:  cpu time   26.2766: real time   26.2773
    FORLOC:  cpu time    6.8789: real time    6.8790
    FORNL :  cpu time   67.5469: real time   67.5486
    STRESS:  cpu time  203.8779: real time  203.8779
    FORCOR:  cpu time   22.6551: real time   22.6548
    FORHAR:  cpu time    9.9149: real time    9.9148
    MIXING:  cpu time    3.8064: real time    3.8064
    OFIELD:  cpu time    0.0000: real time    0.0000

  FORCE on cell =-STRESS in cart. coord.  units (eV):
  Direction    XX          YY          ZZ          XY          YZ          ZX
  --------------------------------------------------------------------------------------
  Alpha Z    75.25432    75.25432    75.25432
  Ewald   43993.73263 43991.44372 50099.92984     1.42047   -59.60621   -95.08346
  Hartree 58920.70058 58918.88147 64619.23953     1.22677   -52.71977   -84.23633
  E(xc)   -2905.15410 -2905.15843 -2902.37510     0.00494    -0.07546    -0.11966
  Local  ************************************    -2.59466   111.43669   177.91335
  n-local  -881.14913  -881.12747  -895.33205    -0.02146     0.34452     0.55004
  augment  4104.76293  4104.76570  4101.83620    -0.01044     0.09294     0.14500
  Kinetic  7812.86523  7812.88570  7784.56965    -0.04072     0.67691     1.07400
  Fock        0.00000     0.00000     0.00000     0.00000     0.00000     0.00000
  -------------------------------------------------------------------------------------
  Total    -113.43401  -113.42978  -114.51042    -0.01510     0.14963     0.24293
  in kB      -6.73116    -6.73091    -6.79504    -0.00090     0.00888     0.01442
  external pressure =       -6.75 kB  Pullay stress =        0.00 kB


 VOLUME and BASIS-vectors are now :
 -----------------------------------------------------------------------------
  energy-cutoff  :      400.00
  volume of cell :    27000.00
      direct lattice vectors                 reciprocal lattice vectors
    30.000000000  0.000000000  0.000000000     0.033333333  0.000000000  0.000000000
     0.000000000 30.000000000  0.000000000     0.000000000  0.033333333  0.000000000
     0.000000000  0.000000000 30.000000000     0.000000000  0.000000000  0.033333333

  length of vectors
    30.000000000 30.000000000 30.000000000     0.033333333  0.033333333  0.033333333


 FORCES acting on ions
    electron-ion (+dipol)            ewald-force                    non-local-force                 convergence-correction
 -----------------------------------------------------------------------------------------------
   0.395E+03 0.974E+03 0.422E+03   -.393E+03 -.971E+03 -.422E+03   -.150E+01 -.183E+01 -.213E+00   0.437E-02 -.268E-02 0.652E-03
   -.974E+03 -.395E+03 0.422E+03   0.971E+03 0.393E+03 -.421E+03   0.183E+01 0.150E+01 -.217E+00   -.138E-02 -.384E-02 0.201E-02
   -.395E+03 0.974E+03 0.422E+03   0.393E+03 -.971E+03 -.421E+03   0.150E+01 -.183E+01 -.215E+00   0.505E-02 0.149E-02 0.228E-02
   0.974E+03 -.395E+03 0.422E+03   -.971E+03 0.393E+03 -.422E+03   -.183E+01 0.150E+01 -.214E+00   0.282E-02 0.351E-02 -.291E-02
   -.121E+00 0.588E+03 0.967E+03   0.116E+00 -.587E+03 -.963E+03   0.138E-03 -.303E+00 -.236E+01   0.528E-02 0.102E-02 0.197E-03
   -.254E+01 0.633E+03 -.920E+03   0.254E+01 -.632E+03 0.917E+03   -.290E-02 -.175E+00 0.236E+01   0.236E-02 -.221E-03 -.117E-02
   -.219E+00 0.114E+04 0.850E+01   0.216E+00 -.113E+04 -.849E+01   -.366E-03 -.310E+01 -.102E-01   0.354E-02 0.924E-03 -.253E-03
   0.114E+04 -.139E+00 0.863E+01   -.113E+04 0.137E+00 -.861E+01   -.310E+01 -.229E-03 -.108E-01   -.661E-03 0.241E-02 -.949E-03
   -.114E+04 -.127E+00 0.799E+01   0.113E+04 0.128E+00 -.798E+01   0.311E+01 -.276E-03 -.728E-02   -.585E-02 -.431E-03 -.162E-02
   -.206E+00 -.114E+04 0.810E+01   0.206E+00 0.113E+04 -.809E+01   -.387E-03 0.310E+01 -.796E-02   0.276E-03 -.103E-02 0.164E-02
   -.579E+03 0.579E+03 0.815E+03   0.577E+03 -.577E+03 -.811E+03   0.156E+01 -.156E+01 -.220E+01   0.297E-02 0.256E-02 0.299E-02
   -.603E+03 0.600E+03 -.789E+03   0.600E+03 -.598E+03 0.785E+03   0.155E+01 -.155E+01 0.220E+01   0.780E-03 0.137E-02 -.349E-02
   0.579E+03 -.579E+03 0.815E+03   -.577E+03 0.577E+03 -.811E+03   -.156E+01 0.156E+01 -.220E+01   -.445E-03 -.223E-02 0.138E-02
   0.601E+03 -.603E+03 -.788E+03   -.599E+03 0.601E+03 0.784E+03   -.155E+01 0.155E+01 0.220E+01   -.857E-03 0.371E-02 0.248E-03
   0.579E+03 0.579E+03 0.815E+03   -.577E+03 -.577E+03 -.811E+03   -.156E+01 -.156E+01 -.220E+01   0.820E-05 0.145E-02 -.313E-02
   0.603E+03 0.603E+03 -.786E+03   -.601E+03 -.601E+03 0.783E+03   -.155E+01 -.155E+01 0.220E+01   0.796E-03 -.339E-02 0.151E-02
   -.579E+03 -.579E+03 0.815E+03   0.577E+03 0.577E+03 -.811E+03   0.156E+01 0.156E+01 -.220E+01   0.319E-02 -.499E-02 0.145E-02
   -.601E+03 -.600E+03 -.790E+03   0.599E+03 0.598E+03 0.787E+03   0.155E+01 0.155E+01 0.221E+01   0.240E-02 -.439E-03 -.306E-02
   0.398E+03 0.986E+03 -.399E+03   -.396E+03 -.983E+03 0.398E+03   -.152E+01 -.183E+01 0.210E+00   0.274E-02 -.106E-04 0.224E-02
   -.985E+03 -.398E+03 -.401E+03   0.982E+03 0.396E+03 0.400E+03   0.183E+01 0.151E+01 0.207E+00   -.788E-03 -.268E-02 -.427E-02
   -.322E+03 0.322E+03 0.461E+03   0.323E+03 -.323E+03 -.462E+03   -.364E+00 0.364E+00 0.521E+00   0.850E-02 0.901E-03 0.146E-02
   0.974E+03 0.395E+03 0.422E+03   -.971E+03 -.393E+03 -.422E+03   -.183E+01 -.150E+01 -.212E+00   -.181E-03 0.430E-02 -.325E-02
   -.395E+03 -.974E+03 0.422E+03   0.393E+03 0.971E+03 -.421E+03   0.150E+01 0.183E+01 -.217E+00   0.181E-02 -.253E-02 0.109E-02
   -.399E+03 0.985E+03 -.399E+03   0.397E+03 -.982E+03 0.399E+03   0.151E+01 -.183E+01 0.207E+00   0.309E-02 0.352E-02 -.151E-02
   0.985E+03 -.399E+03 -.399E+03   -.982E+03 0.397E+03 0.399E+03   -.183E+01 0.152E+01 0.207E+00   -.269E-02 0.166E-02 -.323E-02
   -.974E+03 0.395E+03 0.422E+03   0.971E+03 -.393E+03 -.421E+03   0.183E+01 -.150E+01 -.216E+00   -.272E-02 0.236E-02 0.178E-02
   0.395E+03 -.974E+03 0.422E+03   -.392E+03 0.971E+03 -.421E+03   -.150E+01 0.183E+01 -.215E+00   -.327E-02 -.205E-02 -.553E-03
   0.322E+03 0.322E+03 0.461E+03   -.323E+03 -.323E+03 -.462E+03   0.363E+00 0.363E+00 0.523E+00   0.393E-02 0.409E-02 -.220E-02
   -.390E+00 0.644E+03 0.155E+02   0.381E+00 -.645E+03 -.155E+02   0.258E-03 0.733E+00 -.233E-01   0.870E-02 -.618E-03 0.134E-02
   -.588E+03 -.700E-01 0.967E+03   0.587E+03 0.710E-01 -.963E+03   0.303E+00 0.143E-03 -.236E+01   0.228E-02 -.118E-02 0.360E-02
   -.630E+03 -.138E+01 -.926E+03   0.629E+03 0.138E+01 0.922E+03   0.203E+00 -.139E-02 0.237E+01   0.196E-02 -.307E-02 -.422E-02
   0.588E+03 -.777E-01 0.967E+03   -.587E+03 0.727E-01 -.963E+03   -.304E+00 0.409E-05 -.236E+01   0.116E-02 0.502E-02 -.175E-02
   0.633E+03 -.164E+01 -.919E+03   -.633E+03 0.165E+01 0.915E+03   -.167E+00 -.197E-02 0.236E+01   -.336E-03 -.469E-02 0.123E-02
   0.765E+03 0.765E+03 0.123E+02   -.763E+03 -.763E+03 -.123E+02   -.113E+01 -.113E+01 0.791E-02   0.169E-02 -.148E-02 0.209E-02
   -.765E+03 -.765E+03 0.113E+02   0.763E+03 0.763E+03 -.113E+02   0.113E+01 0.113E+01 0.179E-01   0.364E-02 -.430E-02 0.175E-03
   -.765E+03 0.765E+03 0.117E+02   0.763E+03 -.763E+03 -.117E+02   0.113E+01 -.113E+01 0.142E-01   0.135E-02 0.380E-02 -.243E-03
   0.765E+03 -.765E+03 0.119E+02   -.763E+03 0.763E+03 -.119E+02   -.113E+01 0.113E+01 0.120E-01   -.691E-03 0.169E-02 -.463E-02
   -.131E+00 -.822E-01 0.107E+04   0.126E+00 0.790E-01 -.107E+04   0.162E-02 0.962E-03 -.162E+01   0.217E-02 0.166E-02 0.578E-04
   -.108E+02 -.674E+01 -.899E+03   0.106E+02 0.665E+01 0.900E+03   0.509E-01 0.319E-01 -.143E+00   0.572E-02 -.427E-02 0.119E-03
   0.986E+03 0.398E+03 -.399E+03   -.983E+03 -.396E+03 0.398E+03   -.183E+01 -.152E+01 0.209E+00   -.859E-03 -.242E-02 0.172E-02
   -.399E+03 -.985E+03 -.400E+03   0.396E+03 0.982E+03 0.400E+03   0.151E+01 0.183E+01 0.206E+00   0.329E-02 0.363E-03 -.153E-02
   -.333E+03 0.331E+03 -.418E+03   0.333E+03 -.331E+03 0.419E+03   -.301E+00 0.297E+00 -.527E+00   0.653E-02 -.164E-02 -.266E-02
   0.322E+03 -.322E+03 0.461E+03   -.323E+03 0.323E+03 -.462E+03   0.363E+00 -.363E+00 0.522E+00   -.142E-02 0.164E-02 -.308E-02
   0.331E+03 0.331E+03 -.416E+03   -.331E+03 -.332E+03 0.417E+03   0.314E+00 0.315E+00 -.496E+00   0.463E-02 -.422E-02 0.144E-02
   -.985E+03 0.398E+03 -.400E+03   0.982E+03 -.396E+03 0.400E+03   0.183E+01 -.151E+01 0.208E+00   -.313E-02 0.227E-03 -.374E-02
   0.398E+03 -.985E+03 -.400E+03   -.396E+03 0.982E+03 0.399E+03   -.151E+01 0.183E+01 0.209E+00   0.151E-02 0.319E-02 -.242E-02
   -.322E+03 -.322E+03 0.461E+03   0.323E+03 0.323E+03 -.462E+03   -.364E+00 -.364E+00 0.520E+00   0.569E-02 -.420E-02 0.529E-03
   0.644E+03 -.245E+00 0.157E+02   -.645E+03 0.241E+00 -.157E+02   0.732E+00 0.939E-04 -.249E-01   0.396E-03 0.406E-02 -.297E-02
   -.645E+03 -.226E+00 0.148E+02   0.646E+03 0.228E+00 -.148E+02   -.734E+00 0.153E-03 -.163E-01   0.392E-02 -.206E-02 -.123E-02
   -.113E+00 -.588E+03 0.967E+03   0.114E+00 0.587E+03 -.963E+03   0.243E-03 0.303E+00 -.236E+01   -.160E-02 -.306E-02 0.126E-03
   -.228E+01 -.630E+03 -.925E+03   0.228E+01 0.630E+03 0.921E+03   -.230E-02 0.197E+00 0.237E+01   0.428E-02 0.254E-02 -.933E-03
   -.500E+00 -.308E+00 0.203E+02   0.494E+00 0.309E+00 -.203E+02   -.673E-03 -.405E-03 -.147E-01   0.761E-02 -.129E-02 -.168E-02
   0.330E+03 -.332E+03 -.418E+03   -.331E+03 0.333E+03 0.418E+03   0.303E+00 -.307E+00 -.515E+00   0.235E-02 0.105E-02 -.379E-02
   -.332E+03 -.332E+03 -.419E+03   0.333E+03 0.332E+03 0.420E+03   -.289E+00 -.288E+00 -.548E+00   0.768E-02 -.221E-02 -.361E-02
   -.371E+00 -.645E+03 0.150E+02   0.368E+00 0.646E+03 -.150E+02   0.314E-03 -.733E+00 -.178E-01   0.227E-02 0.401E-04 -.153E-02
   0.469E+01 0.295E+01 -.213E+03   -.402E+01 -.253E+01 0.186E+03   -.472E+00 -.295E+00 0.226E+02   0.942E-03 -.808E-03 0.226E-03
   0.153E+02 0.957E+01 -.716E+03   -.168E+02 -.105E+02 0.780E+03   0.139E+01 0.874E+00 -.612E+02   0.912E-03 -.807E-03 -.508E-04
 -----------------------------------------------------------------------------------------------
   -.114E+01 -.648E+00 0.404E+02   0.122E-11 -.112E-11 -.568E-12   0.103E+01 0.649E+00 -.404E+02   0.108E+00 -.829E-02 -.380E-01
 
 
 POSITION                                       TOTAL-FORCE (eV/Angst)
 -----------------------------------------------------------------------------------
     13.37281      9.84801     12.50759         0.701331      1.107967      0.291087
     20.15199     16.62719     12.50759        -1.107899     -0.701292      0.292041
     16.62719      9.84801     12.50759        -0.701101      1.108361      0.291521
      9.84801     16.62719     12.50759         1.108367     -0.701009      0.291250
     15.00000     11.47521     10.20639        -0.000122      0.407477      1.281379
     15.00000     11.47521     19.79360         0.000909      0.376567     -1.324061
     15.00000      8.28283     15.00000        -0.000129      1.512519      0.003297
      8.28283     15.00000     15.00000         1.512224      0.000016      0.003505
     21.71717     15.00000     15.00000        -1.512944      0.000037      0.002579
     15.00000     21.71717     15.00000        -0.000137     -1.512546      0.002797
     18.35858     11.64142     10.25025        -0.754711      0.754289      1.073674
     18.35858     11.64142     19.74975        -0.752889      0.753781     -1.073753
     11.64142     18.35858     10.25025         0.754220     -0.754672      1.073660
     11.64142     18.35858     19.74975         0.753229     -0.752289     -1.073892
     11.64142     11.64142     10.25025         0.754352      0.754589      1.073376
     11.64142     11.64142     19.74975         0.752455      0.752303     -1.074675
     18.35858     18.35858     10.25025        -0.754389     -0.754287      1.073621
     18.35858     18.35858     19.74975        -0.753637     -0.753691     -1.073164
     13.37281      9.84801     17.49241         0.701323      1.106138     -0.291197
     20.15199     16.62719     17.49241        -1.106758     -0.701326     -0.290002
     16.73751     13.26249     12.54279         0.113124     -0.112928     -0.154839
      9.84801     13.37281     12.50759         1.107937      0.701304      0.290979
     16.62719     20.15199     12.50759        -0.701119     -1.107694      0.291978
     16.62719      9.84801     17.49241        -0.702036      1.107126     -0.290064
      9.84801     16.62719     17.49241         1.106831     -0.701986     -0.290355
     20.15199     13.37281     12.50759        -1.107651      0.701536      0.291676
     13.37281     20.15199     12.50759         0.701293     -1.107624      0.291468
     13.26249     13.26249     12.54279        -0.113015     -0.112918     -0.154872
     15.00000     11.52498     15.00000         0.000325     -0.217925     -0.001190
     18.52479     15.00000     10.20639        -0.406977     -0.000003      1.281678
     18.52479     15.00000     19.79360        -0.382456      0.000497     -1.322109
     11.47521     15.00000     10.20640         0.407534      0.000074      1.281634
     11.47521     15.00000     19.79360         0.375111      0.000631     -1.324074
     11.49535     11.49535     15.00000         0.820603      0.820535     -0.012167
     18.50465     18.50465     15.00000        -0.818706     -0.818850     -0.015459
     18.50465     11.49535     15.00000        -0.819048      0.819904     -0.014446
     11.49535     18.50465     15.00000         0.820253     -0.819413     -0.013709
     15.00000     15.00000     10.04368        -0.000928     -0.000449      1.184022
     15.00000     15.00000     19.95633        -0.099785     -0.062487      0.679457
      9.84801     13.37281     17.49241         1.106237      0.701746     -0.291072
     16.62719     20.15199     17.49241        -0.701744     -1.106938     -0.289899
     16.73751     13.26249     17.45721         0.111822     -0.106752      0.152397
     13.26249     16.73751     12.54279        -0.113044      0.113257     -0.154898
     13.26249     13.26249     17.45721        -0.118920     -0.119900      0.145325
     20.15199     13.37281     17.49241        -1.106367      0.701093     -0.290611
     13.37281     20.15199     17.49241         0.701017     -1.106092     -0.290934
     16.73751     16.73751     12.54279         0.113039      0.113077     -0.154737
     11.52498     15.00000     15.00000        -0.217995      0.000317     -0.001350
     18.47502     15.00000     15.00000         0.218213      0.000342     -0.000393
     15.00000     18.52480     10.20639        -0.000262     -0.407033      1.281467
     15.00000     18.52480     19.79360         0.000790     -0.380931     -1.322541
     15.00000     15.00000     15.00000         0.000158      0.000181      0.010557
     13.26249     16.73751     17.45721        -0.110975      0.115901      0.149382
     16.73751     16.73751     17.45721         0.102173      0.101081      0.158106
     15.00000     18.47502     15.00000         0.000321      0.218186     -0.000562
     14.82936     14.89307     22.37533         0.200298      0.125811     -4.622724
     14.80328     14.87672     23.50291        -0.079748     -0.055606      2.969837
 -----------------------------------------------------------------------------------
    total drift:                               -0.001742     -0.006696     -0.002602


--------------------------------------------------------------------------------------------------------



  FREE ENERGIE OF THE ION-ELECTRON SYSTEM (eV)
  ---------------------------------------------------
  free  energy   TOTEN  =      -174.21466990 eV

  energy  without entropy=     -174.14125184  energy(sigma->0) =     -174.19631539
 


--------------------------------------------------------------------------------------------------------


    POTLOK:  cpu time   14.5421: real time   14.5419


--------------------------------------------------------------------------------------------------------


     LOOP+:  cpu time19503.4803: real time19504.0454
    4ORBIT:  cpu time    0.0000: real time    0.0000

 total amount of memory used by VASP MPI-rank0  5486941. kBytes
=======================================================================

   base      :      30000. kBytes
   nonlr-proj:      17126. kBytes
   fftplans  :     924480. kBytes
   grid      :    1872000. kBytes
   one-center:        886. kBytes
   wavefun   :    2642449. kBytes
 
  
  
 General timing and accounting informations for this job:
 ========================================================
  
                  Total CPU time used (sec):    19578.588
                            User time (sec):    18486.594
                          System time (sec):     1091.993
                         Elapsed time (sec):    19579.183
  
                   Maximum memory used (kb):     7178688.
                   Average memory used (kb):           0.
  
                          Minor page faults:    843860722
                          Major page faults:            0
                 Voluntary context switches:          509
