<?xml version="1.0" encoding="ISO-8859-1"?>
<modeling>
 <generator>
  <i name="program" type="string">vasp </i>
  <i name="version" type="string">5.4.4.18Apr17-6-g9f103f2a35  </i>
  <i name="subversion" type="string">(build Sep 03 2018 23:53:05) complex            parallel </i>
  <i name="platform" type="string">LinuxIFC </i>
  <i name="date" type="string">2021 12 02 </i>
  <i name="time" type="string">18:06:07 </i>
 </generator>
 <incar>
  <i type="string" name="SYSTEM"> 6_Pd100_top_free_z(O)</i>
  <i type="int" name="ISTART">     0</i>
  <i type="string" name="PREC">normal   			! encut=max(enmax), ngx,y,z</i>
  <i type="string" name="ALGO"> Fast     			! Mix RMM-DIIS and Dav</i>
  <i type="logical" name="ADDGRID"> F  </i>
  <i type="int" name="ISPIN">     1</i>
  <i type="int" name="ICHARG">     2</i>
  <i type="int" name="NELM">   100</i>
  <i type="int" name="NELMIN">     6</i>
  <i type="int" name="IBRION">     2</i>
  <i name="EDIFF">      0.00010000</i>
  <i name="EDIFFG">     -0.05000000</i>
  <i type="int" name="NSW">     0</i>
  <i type="int" name="ISIF">     2</i>
  <i type="int" name="ISYM">     2</i>
  <i name="ENCUT">    400.00000000</i>
  <i type="string" name="LREAL"> Auto     			! Auto or A projection done</i>
  <i type="int" name="ISMEAR">     2</i>
  <i name="SIGMA">      0.20000000</i>
  <i type="logical" name="LWAVE"> F  </i>
  <i type="logical" name="LCHARG"> F  </i>
  <v type="int" name="KPOINT_BSE">    -1     0     0     0</v>
  <i type="int" name="MAXMEM"> 10000</i>
  <i type="int" name="NELM">   100</i>
  <i type="string" name="GGA"> RP         			! Revised PBE</i>
 </incar>
 <structure name="primitive_cell" >
  <crystal>
   <varray name="basis" >
    <v>      30.00000000       0.00000000       0.00000000 </v>
    <v>       0.00000000      30.00000000       0.00000000 </v>
    <v>       0.00000000       0.00000000      30.00000000 </v>
   </varray>
   <i name="volume">  27000.00000000 </i>
   <varray name="rec_basis" >
    <v>       0.03333333       0.00000000       0.00000000 </v>
    <v>       0.00000000       0.03333333       0.00000000 </v>
    <v>       0.00000000       0.00000000       0.03333333 </v>
   </varray>
  </crystal>
  <varray name="positions" >
   <v>       0.44576020       0.32826710       0.41691983 </v>
   <v>      -0.44576020       0.32826710       0.41691983 </v>
   <v>      -0.50000000       0.38250690       0.34021317 </v>
   <v>      -0.50000000       0.27609440      -0.50000000 </v>
   <v>       0.38804720       0.38804720       0.34167483 </v>
   <v>      -0.50000000       0.38416601      -0.50000000 </v>
   <v>       0.44208300       0.44208300       0.41809300 </v>
   <v>       0.38317830       0.38317830      -0.50000000 </v>
   <v>      -0.44208300       0.44208300       0.41809300 </v>
   <v>       0.44576020       0.32826710      -0.41691977 </v>
   <v>       0.32826705       0.44576024       0.41691983 </v>
   <v>      -0.38804720       0.38804720       0.34167483 </v>
   <v>      -0.38317830       0.38317830      -0.50000000 </v>
   <v>      -0.50000000      -0.50000000       0.33478917 </v>
   <v>      -0.50000000      -0.50000000      -0.50000000 </v>
   <v>      -0.44576020       0.32826710      -0.41691977 </v>
   <v>       0.38250685      -0.49999995       0.34021317 </v>
   <v>       0.44208300       0.44208300      -0.41809297 </v>
   <v>       0.38416599      -0.49999998      -0.50000000 </v>
   <v>      -0.44208300       0.44208300      -0.41809297 </v>
   <v>       0.44208298      -0.44208298       0.41809300 </v>
   <v>       0.32826705       0.44576024      -0.41691977 </v>
   <v>      -0.50000000       0.38250690      -0.34021320 </v>
   <v>       0.32826712      -0.44576022       0.41691983 </v>
   <v>      -0.38250685      -0.49999995       0.34021317 </v>
   <v>      -0.32826705       0.44576024       0.41691983 </v>
   <v>       0.27609443       0.49999998      -0.50000000 </v>
   <v>       0.38804720       0.38804720      -0.34167487 </v>
   <v>      -0.38416599      -0.49999998      -0.50000000 </v>
   <v>      -0.44208298      -0.44208298       0.41809300 </v>
   <v>       0.44208298      -0.44208298      -0.41809297 </v>
   <v>      -0.38804720       0.38804720      -0.34167487 </v>
   <v>       0.38804722      -0.38804722       0.34167483 </v>
   <v>       0.38250685      -0.49999995      -0.34021320 </v>
   <v>       0.32826712      -0.44576022      -0.41691977 </v>
   <v>      -0.32826705       0.44576024      -0.41691977 </v>
   <v>       0.50000000      -0.38250681       0.34021317 </v>
   <v>      -0.50000000      -0.38416596      -0.50000000 </v>
   <v>      -0.44208298      -0.44208298      -0.41809297 </v>
   <v>      -0.50000000      -0.50000000      -0.33478913 </v>
   <v>       0.38317828      -0.38317828      -0.50000000 </v>
   <v>      -0.32826712      -0.44576022       0.41691983 </v>
   <v>      -0.27609443       0.49999998      -0.50000000 </v>
   <v>      -0.38804722      -0.38804722       0.34167483 </v>
   <v>      -0.38250685      -0.49999995      -0.34021320 </v>
   <v>       0.44576027      -0.32826707       0.41691983 </v>
   <v>      -0.38317828      -0.38317828      -0.50000000 </v>
   <v>      -0.32826712      -0.44576022      -0.41691977 </v>
   <v>      -0.44576027      -0.32826707       0.41691983 </v>
   <v>       0.49431210       0.49643567      -0.25415553 </v>
   <v>       0.38804722      -0.38804722      -0.34167487 </v>
   <v>      -0.50000000      -0.38250681      -0.34021320 </v>
   <v>       0.44576027      -0.32826707      -0.41691977 </v>
   <v>      -0.44576027      -0.32826707      -0.41691977 </v>
   <v>       0.49344250       0.49589077      -0.21656953 </v>
   <v>      -0.50000000      -0.27609445       0.50000000 </v>
   <v>      -0.38804722      -0.38804722      -0.34167487 </v>
  </varray>
 </structure>
 <varray name="primitive_index" >
  <v type="int" >        1 </v>
  <v type="int" >        3 </v>
  <v type="int" >        5 </v>
  <v type="int" >        7 </v>
  <v type="int" >       15 </v>
  <v type="int" >       29 </v>
  <v type="int" >       28 </v>
  <v type="int" >       34 </v>
  <v type="int" >       21 </v>
  <v type="int" >       19 </v>
  <v type="int" >       22 </v>
  <v type="int" >       11 </v>
  <v type="int" >       36 </v>
  <v type="int" >       38 </v>
  <v type="int" >       52 </v>
  <v type="int" >       24 </v>
  <v type="int" >       32 </v>
  <v type="int" >       44 </v>
  <v type="int" >       48 </v>
  <v type="int" >       42 </v>
  <v type="int" >       43 </v>
  <v type="int" >       40 </v>
  <v type="int" >        6 </v>
  <v type="int" >        4 </v>
  <v type="int" >       30 </v>
  <v type="int" >       26 </v>
  <v type="int" >        8 </v>
  <v type="int" >       16 </v>
  <v type="int" >       49 </v>
  <v type="int" >       47 </v>
  <v type="int" >       53 </v>
  <v type="int" >       12 </v>
  <v type="int" >       13 </v>
  <v type="int" >       33 </v>
  <v type="int" >       25 </v>
  <v type="int" >       45 </v>
  <v type="int" >       50 </v>
  <v type="int" >       55 </v>
  <v type="int" >       54 </v>
  <v type="int" >       39 </v>
  <v type="int" >       37 </v>
  <v type="int" >        2 </v>
  <v type="int" >        9 </v>
  <v type="int" >       17 </v>
  <v type="int" >       31 </v>
  <v type="int" >       27 </v>
  <v type="int" >       35 </v>
  <v type="int" >       20 </v>
  <v type="int" >       23 </v>
  <v type="int" >       56 </v>
  <v type="int" >       14 </v>
  <v type="int" >       51 </v>
  <v type="int" >       46 </v>
  <v type="int" >       41 </v>
  <v type="int" >       57 </v>
  <v type="int" >       10 </v>
  <v type="int" >       18 </v>
 </varray>
 <kpoints>
  <generation param="Monkhorst-Pack">
   <v type="int" name="divisions">       1        1        1 </v>
   <v name="usershift">      0.00000000       0.00000000       0.00000000 </v>
   <v name="genvec1">      1.00000000       0.00000000       0.00000000 </v>
   <v name="genvec2">      0.00000000       1.00000000       0.00000000 </v>
   <v name="genvec3">      0.00000000       0.00000000       1.00000000 </v>
   <v name="shift">      0.00000000       0.00000000       0.00000000 </v>
  </generation>
  <varray name="kpointlist" >
   <v>       0.00000000       0.00000000       0.00000000 </v>
  </varray>
  <varray name="weights" >
   <v>       1.00000000 </v>
  </varray>
 </kpoints>
 <parameters>
  <separator name="general" >
   <i type="string" name="SYSTEM">6_Pd100_top_free_z(O)</i>
   <i type="logical" name="LCOMPAT"> F  </i>
  </separator>
  <separator name="electronic" >
   <i type="string" name="PREC">normal</i>
   <i name="ENMAX">    400.00000000</i>
   <i name="ENAUG">    644.87300000</i>
   <i name="EDIFF">      0.00010000</i>
   <i type="int" name="IALGO">    68</i>
   <i type="int" name="IWAVPR">    10</i>
   <i type="int" name="NBANDS">   336</i>
   <i name="NELECT">    560.00000000</i>
   <i type="int" name="TURBO">     0</i>
   <i type="int" name="IRESTART">     0</i>
   <i type="int" name="NREBOOT">     0</i>
   <i type="int" name="NMIN">     0</i>
   <i name="EREF">      0.00000000</i>
   <separator name="electronic smearing" >
    <i type="int" name="ISMEAR">     2</i>
    <i name="SIGMA">      0.20000000</i>
    <i name="KSPACING">      0.50000000</i>
    <i type="logical" name="KGAMMA"> T  </i>
   </separator>
   <separator name="electronic projectors" >
    <i type="logical" name="LREAL"> T  </i>
    <v name="ROPT">     -0.00050000     -0.00050000     -0.00050000</v>
    <i type="int" name="LMAXPAW">  -100</i>
    <i type="int" name="LMAXMIX">     2</i>
    <i type="logical" name="NLSPLINE"> F  </i>
   </separator>
   <separator name="electronic startup" >
    <i type="int" name="ISTART">     0</i>
    <i type="int" name="ICHARG">     2</i>
    <i type="int" name="INIWAV">     1</i>
   </separator>
   <separator name="electronic spin" >
    <i type="int" name="ISPIN">     1</i>
    <i type="logical" name="LNONCOLLINEAR"> F  </i>
    <v name="MAGMOM">      1.00000000      1.00000000      1.00000000      1.00000000      1.00000000      1.00000000      1.00000000      1.00000000      1.00000000      1.00000000      1.00000000      1.00000000      1.00000000      1.00000000      1.00000000      1.00000000      1.00000000      1.00000000      1.00000000      1.00000000
      1.00000000      1.00000000      1.00000000      1.00000000      1.00000000      1.00000000      1.00000000      1.00000000      1.00000000      1.00000000      1.00000000      1.00000000      1.00000000      1.00000000      1.00000000      1.00000000      1.00000000      1.00000000      1.00000000      1.00000000
      1.00000000      1.00000000      1.00000000      1.00000000      1.00000000      1.00000000      1.00000000      1.00000000      1.00000000      1.00000000      1.00000000      1.00000000      1.00000000      1.00000000      1.00000000      1.00000000      1.00000000</v>
    <i name="NUPDOWN">     -1.00000000</i>
    <i type="logical" name="LSORBIT"> F  </i>
    <v name="SAXIS">      0.00000000      0.00000000      1.00000000</v>
    <i type="logical" name="LSPIRAL"> F  </i>
    <v name="QSPIRAL">      0.00000000      0.00000000      0.00000000</v>
    <i type="logical" name="LZEROZ"> F  </i>
   </separator>
   <separator name="electronic exchange-correlation" >
    <i type="logical" name="LASPH"> F  </i>
    <i type="logical" name="LMETAGGA"> F  </i>
   </separator>
   <separator name="electronic convergence" >
    <i type="int" name="NELM">   100</i>
    <i type="int" name="NELMDL">    -5</i>
    <i type="int" name="NELMIN">     6</i>
    <i name="ENINI">    400.00000000</i>
    <separator name="electronic convergence detail" >
     <i type="logical" name="LDIAG"> T  </i>
     <i type="logical" name="LSUBROT"> F  </i>
     <i name="WEIMIN">      0.00000000</i>
     <i name="EBREAK">      0.00000007</i>
     <i name="DEPER">      0.30000000</i>
     <i type="int" name="NRMM">     4</i>
     <i name="TIME">      0.40000000</i>
    </separator>
   </separator>
   <separator name="electronic mixer" >
    <i name="AMIX">      0.40000000</i>
    <i name="BMIX">      1.00000000</i>
    <i name="AMIN">      0.10000000</i>
    <i name="AMIX_MAG">      1.60000000</i>
    <i name="BMIX_MAG">      1.00000000</i>
    <separator name="electronic mixer details" >
     <i type="int" name="IMIX">     4</i>
     <i type="logical" name="MIXFIRST"> F  </i>
     <i type="int" name="MAXMIX">   -45</i>
     <i name="WC">    100.00000000</i>
     <i type="int" name="INIMIX">     1</i>
     <i type="int" name="MIXPRE">     1</i>
     <i type="int" name="MREMOVE">     5</i>
    </separator>
   </separator>
   <separator name="electronic dipolcorrection" >
    <i type="logical" name="LDIPOL"> F  </i>
    <i type="logical" name="LMONO"> F  </i>
    <i type="int" name="IDIPOL">     0</i>
    <i name="EPSILON">      1.00000000</i>
    <v name="DIPOL">   -100.00000000   -100.00000000   -100.00000000</v>
    <i name="EFIELD">      0.00000000</i>
   </separator>
  </separator>
  <separator name="grids" >
   <i type="int" name="NGX">   150</i>
   <i type="int" name="NGY">   150</i>
   <i type="int" name="NGZ">   150</i>
   <i type="int" name="NGXF">   300</i>
   <i type="int" name="NGYF">   300</i>
   <i type="int" name="NGZF">   300</i>
   <i type="logical" name="ADDGRID"> F  </i>
  </separator>
  <separator name="ionic" >
   <i type="int" name="NSW">     0</i>
   <i type="int" name="IBRION">    -1</i>
   <i type="int" name="MDALGO">     0</i>
   <i type="int" name="ISIF">     2</i>
   <i name="PSTRESS">      0.00000000</i>
   <i name="EDIFFG">     -0.05000000</i>
   <i type="int" name="NFREE">     1</i>
   <i name="POTIM">      0.50000000</i>
   <i name="SMASS">     -3.00000000</i>
   <i name="SCALEE">      1.00000000</i>
  </separator>
  <separator name="ionic md" >
   <i name="TEBEG">      0.00010000</i>
   <i name="TEEND">      0.00010000</i>
   <i type="int" name="NBLOCK">     1</i>
   <i type="int" name="KBLOCK">     1</i>
   <i type="int" name="NPACO">   256</i>
   <i name="APACO">     16.00000000</i>
  </separator>
  <separator name="symmetry" >
   <i type="int" name="ISYM">     2</i>
   <i name="SYMPREC">      0.00001000</i>
  </separator>
  <separator name="dos" >
   <i type="int" name="LORBIT">     0</i>
   <v name="RWIGS">     -1.00000000     -1.00000000     -1.00000000</v>
   <i type="int" name="NEDOS">   301</i>
   <i name="EMIN">     10.00000000</i>
   <i name="EMAX">    -10.00000000</i>
   <i name="EFERMI">      0.00000000</i>
  </separator>
  <separator name="writing" >
   <i type="int" name="NWRITE">     2</i>
   <i type="logical" name="LWAVE"> F  </i>
   <i type="logical" name="LDOWNSAMPLE"> F  </i>
   <i type="logical" name="LCHARG"> F  </i>
   <i type="logical" name="LPARD"> F  </i>
   <i type="logical" name="LVTOT"> F  </i>
   <i type="logical" name="LVHAR"> F  </i>
   <i type="logical" name="LELF"> F  </i>
   <i type="logical" name="LOPTICS"> F  </i>
   <v name="STM">      0.00000000      0.00000000      0.00000000      0.00000000      0.00000000      0.00000000      0.00000000</v>
  </separator>
  <separator name="performance" >
   <i type="int" name="NPAR">     1</i>
   <i type="int" name="NSIM">     4</i>
   <i type="int" name="NBLK">    -1</i>
   <i type="logical" name="LPLANE"> T  </i>
   <i type="logical" name="LSCALAPACK"> T  </i>
   <i type="logical" name="LSCAAWARE"> F  </i>
   <i type="logical" name="LSCALU"> F  </i>
   <i type="logical" name="LASYNC"> F  </i>
   <i type="logical" name="LORBITALREAL"> F  </i>
  </separator>
  <separator name="miscellaneous" >
   <i type="int" name="IDIOT">     3</i>
   <i type="int" name="ISPECIAL">     0</i>
   <i type="logical" name="LMUSIC"> F  </i>
   <v name="POMASS">    106.42000000     12.01100000     16.00000000</v>
   <v name="DARWINR">      0.00000000      0.00000000      0.00000000</v>
   <v name="DARWINV">      1.00000000      1.00000000      1.00000000</v>
   <i type="logical" name="LCORR"> T  </i>
  </separator>
  <i type="logical" name="GGA_COMPAT"> T  </i>
  <i type="logical" name="LBERRY"> F  </i>
  <i type="int" name="ICORELEVEL">     0</i>
  <i type="logical" name="LDAU"> F  </i>
  <i type="int" name="I_CONSTRAINED_M">     0</i>
  <separator name="electronic exchange-correlation" >
   <i type="string" name="GGA">RP</i>
   <i type="int" name="VOSKOWN">     0</i>
   <i type="logical" name="LHFCALC"> F  </i>
   <i type="string" name="PRECFOCK"></i>
   <i type="logical" name="LSYMGRAD"> F  </i>
   <i type="logical" name="LHFONE"> F  </i>
   <i type="logical" name="LRHFCALC"> F  </i>
   <i type="logical" name="LTHOMAS"> F  </i>
   <i type="logical" name="LMODELHF"> F  </i>
   <i name="ENCUT4O">     -1.00000000</i>
   <i type="int" name="EXXOEP">     0</i>
   <i type="int" name="FOURORBIT">     0</i>
   <i name="AEXX">      0.00000000</i>
   <i name="HFALPHA">      0.00000000</i>
   <i name="MCALPHA">      0.00000000</i>
   <i name="ALDAX">      1.00000000</i>
   <i name="AGGAX">      1.00000000</i>
   <i name="ALDAC">      1.00000000</i>
   <i name="AGGAC">      1.00000000</i>
   <i type="int" name="NKREDX">     1</i>
   <i type="int" name="NKREDY">     1</i>
   <i type="int" name="NKREDZ">     1</i>
   <i type="logical" name="SHIFTRED"> F  </i>
   <i type="logical" name="ODDONLY"> F  </i>
   <i type="logical" name="EVENONLY"> F  </i>
   <i type="int" name="LMAXFOCK">     0</i>
   <i type="int" name="NMAXFOCKAE">     0</i>
   <i type="logical" name="LFOCKAEDFT"> F  </i>
   <i name="HFSCREEN">      0.00000000</i>
   <i name="HFSCREENC">      0.00000000</i>
   <i type="int" name="NBANDSGWLOW">     0</i>
  </separator>
  <separator name="vdW DFT" >
   <i type="logical" name="LUSE_VDW"> F  </i>
   <i name="Zab_VDW">     -0.84910000</i>
   <i name="PARAM1">      0.12340000</i>
   <i name="PARAM2">      1.00000000</i>
   <i name="PARAM3">      0.00000000</i>
  </separator>
  <separator name="model GW" >
   <i type="int" name="MODEL_GW">     0</i>
   <i name="MODEL_EPS0">    284.21052632</i>
   <i name="MODEL_ALPHA">      1.00000000</i>
  </separator>
  <separator name="linear response parameters" >
   <i type="logical" name="LEPSILON"> F  </i>
   <i type="logical" name="LRPA"> F  </i>
   <i type="logical" name="LNABLA"> F  </i>
   <i type="logical" name="LVEL"> F  </i>
   <i type="int" name="KINTER">     0</i>
   <i name="CSHIFT">      0.10000000</i>
   <i name="OMEGAMAX">     -1.00000000</i>
   <i name="DEG_THRESHOLD">      0.00200000</i>
   <i name="RTIME">     -0.10000000</i>
   <i name="WPLASMAI">      0.00000000</i>
   <v name="DFIELD">      0.00000000      0.00000000      0.00000000</v>
   <v name="WPLASMA">      0.00000000      0.00000000      0.00000000      0.00000000      0.00000000      0.00000000      0.00000000      0.00000000      0.00000000</v>
  </separator>
  <separator name="orbital magnetization" >
   <i type="logical" name="NUCIND"> F  </i>
   <v name="MAGPOS">      0.00000000      0.00000000      0.00000000</v>
   <i type="logical" name="LNICSALL"> T  </i>
   <i type="logical" name="ORBITALMAG"> F  </i>
   <i type="logical" name="LMAGBLOCH"> F  </i>
   <i type="logical" name="LCHIMAG"> F  </i>
   <i type="logical" name="LGAUGE"> T  </i>
   <i type="int" name="MAGATOM">     0</i>
   <v name="MAGDIPOL">      0.00000000      0.00000000      0.00000000</v>
   <v name="AVECCONST">      0.00000000      0.00000000      0.00000000</v>
  </separator>
  <separator name="response functions" >
   <i type="logical" name="LADDER"> F  </i>
   <i type="logical" name="LRPAFORCE"> F  </i>
   <i type="logical" name="LFXC"> F  </i>
   <i type="logical" name="LHARTREE"> T  </i>
   <i type="int" name="IBSE">     0</i>
   <v type="int" name="KPOINT">    -1     0     0     0</v>
   <i type="logical" name="LTCTE"> F  </i>
   <i type="logical" name="LTETE"> F  </i>
   <i type="logical" name="LTRIPLET"> F  </i>
   <i type="logical" name="LFXCEPS"> F  </i>
   <i type="logical" name="LFXHEG"> F  </i>
   <i type="int" name="NATURALO">     2</i>
   <i type="logical" name="L2ORDER"> F  </i>
   <i type="logical" name="LMP2LT"> F  </i>
   <i type="logical" name="LUSEW"> F  </i>
   <i name="ENCUTGW">     -2.00000000</i>
   <i name="ENCUTGWSOFT">     -2.00000000</i>
   <i name="ENCUTLF">     -1.00000000</i>
   <i type="int" name="LMAXMP2">    -1</i>
   <i name="SCISSOR">      0.00000000</i>
   <i type="int" name="NOMEGA">     0</i>
   <i type="int" name="NOMEGAR">     0</i>
   <i type="int" name="NBANDSGW">    -1</i>
   <i type="int" name="NBANDSO">    -1</i>
   <i type="int" name="NBANDSV">    -1</i>
   <i type="int" name="NELM">   100</i>
   <i type="int" name="NELMHF">     1</i>
   <i type="int" name="DIM">     3</i>
   <i type="int" name="ANTIRES">     0</i>
   <i name="OMEGAMAX">    -30.00000000</i>
   <i name="OMEGAMIN">    -30.00000000</i>
   <i name="OMEGATL">   -200.00000000</i>
   <i type="int" name="OMEGAGRID">   140</i>
   <i name="CSHIFT">     -0.10000000</i>
   <i type="logical" name="SELFENERGY"> F  </i>
   <i type="logical" name="LSPECTRAL"> F  </i>
   <i type="logical" name="LSPECTRALGW"> F  </i>
   <i type="logical" name="LSINGLES"> F  </i>
   <i type="logical" name="LFERMIGW"> F  </i>
   <i type="logical" name="ODDONLYGW"> F  </i>
   <i type="logical" name="EVENONLYGW"> F  </i>
   <i type="int" name="NKREDLFX">     1</i>
   <i type="int" name="NKREDLFY">     1</i>
   <i type="int" name="NKREDLFZ">     1</i>
   <i type="int" name="MAXMEM"> 10000</i>
   <i type="int" name="TELESCOPE">     0</i>
   <i type="int" name="TAUPAR">     1</i>
   <i type="int" name="OMEGAPAR">    -1</i>
   <i name="LAMBDA">      1.00000000</i>
  </separator>
  <separator name="External order field" >
   <i name="OFIELD_KAPPA">      0.00000000</i>
   <v name="OFIELD_K">      0.00000000      0.00000000      0.00000000</v>
   <i name="OFIELD_Q6_NEAR">      0.00000000</i>
   <i name="OFIELD_Q6_FAR">      0.00000000</i>
   <i name="OFIELD_A">      0.00000000</i>
  </separator>
 </parameters>
 <atominfo>
  <atoms>      57 </atoms>
  <types>       3 </types>
  <array name="atoms" >
   <dimension dim="1">ion</dimension>
   <field type="string">element</field>
   <field type="int">atomtype</field>
   <set>
    <rc><c>Pd</c><c>   1</c></rc>
    <rc><c>Pd</c><c>   1</c></rc>
    <rc><c>Pd</c><c>   1</c></rc>
    <rc><c>Pd</c><c>   1</c></rc>
    <rc><c>Pd</c><c>   1</c></rc>
    <rc><c>Pd</c><c>   1</c></rc>
    <rc><c>Pd</c><c>   1</c></rc>
    <rc><c>Pd</c><c>   1</c></rc>
    <rc><c>Pd</c><c>   1</c></rc>
    <rc><c>Pd</c><c>   1</c></rc>
    <rc><c>Pd</c><c>   1</c></rc>
    <rc><c>Pd</c><c>   1</c></rc>
    <rc><c>Pd</c><c>   1</c></rc>
    <rc><c>Pd</c><c>   1</c></rc>
    <rc><c>Pd</c><c>   1</c></rc>
    <rc><c>Pd</c><c>   1</c></rc>
    <rc><c>Pd</c><c>   1</c></rc>
    <rc><c>Pd</c><c>   1</c></rc>
    <rc><c>Pd</c><c>   1</c></rc>
    <rc><c>Pd</c><c>   1</c></rc>
    <rc><c>Pd</c><c>   1</c></rc>
    <rc><c>Pd</c><c>   1</c></rc>
    <rc><c>Pd</c><c>   1</c></rc>
    <rc><c>Pd</c><c>   1</c></rc>
    <rc><c>Pd</c><c>   1</c></rc>
    <rc><c>Pd</c><c>   1</c></rc>
    <rc><c>Pd</c><c>   1</c></rc>
    <rc><c>Pd</c><c>   1</c></rc>
    <rc><c>Pd</c><c>   1</c></rc>
    <rc><c>Pd</c><c>   1</c></rc>
    <rc><c>Pd</c><c>   1</c></rc>
    <rc><c>Pd</c><c>   1</c></rc>
    <rc><c>Pd</c><c>   1</c></rc>
    <rc><c>Pd</c><c>   1</c></rc>
    <rc><c>Pd</c><c>   1</c></rc>
    <rc><c>Pd</c><c>   1</c></rc>
    <rc><c>Pd</c><c>   1</c></rc>
    <rc><c>Pd</c><c>   1</c></rc>
    <rc><c>Pd</c><c>   1</c></rc>
    <rc><c>Pd</c><c>   1</c></rc>
    <rc><c>Pd</c><c>   1</c></rc>
    <rc><c>Pd</c><c>   1</c></rc>
    <rc><c>Pd</c><c>   1</c></rc>
    <rc><c>Pd</c><c>   1</c></rc>
    <rc><c>Pd</c><c>   1</c></rc>
    <rc><c>Pd</c><c>   1</c></rc>
    <rc><c>Pd</c><c>   1</c></rc>
    <rc><c>Pd</c><c>   1</c></rc>
    <rc><c>Pd</c><c>   1</c></rc>
    <rc><c>Pd</c><c>   1</c></rc>
    <rc><c>Pd</c><c>   1</c></rc>
    <rc><c>Pd</c><c>   1</c></rc>
    <rc><c>Pd</c><c>   1</c></rc>
    <rc><c>Pd</c><c>   1</c></rc>
    <rc><c>Pd</c><c>   1</c></rc>
    <rc><c>C </c><c>   2</c></rc>
    <rc><c>O </c><c>   3</c></rc>
   </set>
  </array>
  <array name="atomtypes" >
   <dimension dim="1">type</dimension>
   <field type="int">atomspertype</field>
   <field type="string">element</field>
   <field>mass</field>
   <field>valence</field>
   <field type="string">pseudopotential</field>
   <set>
    <rc><c>  55</c><c>Pd</c><c>    106.42000000</c><c>     10.00000000</c><c>  PAW_PBE Pd 04Jan2005                  </c></rc>
    <rc><c>   1</c><c>C </c><c>     12.01100000</c><c>      4.00000000</c><c>  PAW_PBE C 08Apr2002                   </c></rc>
    <rc><c>   1</c><c>O </c><c>     16.00000000</c><c>      6.00000000</c><c>  PAW_PBE O 08Apr2002                   </c></rc>
   </set>
  </array>
 </atominfo>
 <structure name="initialpos" >
  <crystal>
   <varray name="basis" >
    <v>      30.00000000       0.00000000       0.00000000 </v>
    <v>       0.00000000      30.00000000       0.00000000 </v>
    <v>       0.00000000       0.00000000      30.00000000 </v>
   </varray>
   <i name="volume">  27000.00000000 </i>
   <varray name="rec_basis" >
    <v>       0.03333333       0.00000000       0.00000000 </v>
    <v>       0.00000000       0.03333333       0.00000000 </v>
    <v>       0.00000000       0.00000000       0.03333333 </v>
   </varray>
  </crystal>
  <varray name="positions" >
   <v>       0.44576020       0.32826710       0.41691983 </v>
   <v>       0.67173288       0.55423978       0.41691983 </v>
   <v>       0.55423980       0.32826710       0.41691983 </v>
   <v>       0.32826712       0.55423978       0.41691983 </v>
   <v>       0.50000000       0.38250690       0.34021317 </v>
   <v>       0.50000000       0.38250690       0.65978680 </v>
   <v>       0.50000000       0.27609440       0.50000000 </v>
   <v>       0.27609443       0.49999998       0.50000000 </v>
   <v>       0.72390557       0.49999998       0.50000000 </v>
   <v>       0.50000000       0.72390555       0.50000000 </v>
   <v>       0.61195280       0.38804720       0.34167483 </v>
   <v>       0.61195280       0.38804720       0.65832513 </v>
   <v>       0.38804722       0.61195278       0.34167483 </v>
   <v>       0.38804722       0.61195278       0.65832513 </v>
   <v>       0.38804720       0.38804720       0.34167483 </v>
   <v>       0.38804720       0.38804720       0.65832513 </v>
   <v>       0.61195278       0.61195278       0.34167483 </v>
   <v>       0.61195278       0.61195278       0.65832513 </v>
   <v>       0.44576020       0.32826710       0.58308023 </v>
   <v>       0.67173288       0.55423978       0.58308023 </v>
   <v>       0.55791699       0.44208301       0.41809300 </v>
   <v>       0.32826705       0.44576024       0.41691983 </v>
   <v>       0.55423973       0.67173293       0.41691983 </v>
   <v>       0.55423980       0.32826710       0.58308023 </v>
   <v>       0.32826712       0.55423978       0.58308023 </v>
   <v>       0.67173295       0.44576024       0.41691983 </v>
   <v>       0.44576027       0.67173293       0.41691983 </v>
   <v>       0.44208301       0.44208301       0.41809300 </v>
   <v>       0.50000000       0.38416601       0.50000000 </v>
   <v>       0.61749315       0.50000005       0.34021317 </v>
   <v>       0.61749315       0.50000005       0.65978680 </v>
   <v>       0.38250685       0.50000005       0.34021317 </v>
   <v>       0.38250685       0.50000005       0.65978680 </v>
   <v>       0.38317830       0.38317830       0.50000000 </v>
   <v>       0.61682172       0.61682172       0.50000000 </v>
   <v>       0.61682170       0.38317830       0.50000000 </v>
   <v>       0.38317828       0.61682172       0.50000000 </v>
   <v>       0.50000000       0.50000000       0.33478917 </v>
   <v>       0.50000000       0.50000000       0.66521087 </v>
   <v>       0.32826705       0.44576024       0.58308023 </v>
   <v>       0.55423973       0.67173293       0.58308023 </v>
   <v>       0.55791699       0.44208301       0.58190703 </v>
   <v>       0.44208298       0.55791702       0.41809300 </v>
   <v>       0.44208301       0.44208301       0.58190703 </v>
   <v>       0.67173295       0.44576024       0.58308023 </v>
   <v>       0.44576027       0.67173293       0.58308023 </v>
   <v>       0.55791702       0.55791702       0.41809300 </v>
   <v>       0.38416599       0.50000002       0.50000000 </v>
   <v>       0.61583401       0.50000002       0.50000000 </v>
   <v>       0.50000000       0.61749319       0.34021317 </v>
   <v>       0.50000000       0.61749319       0.65978680 </v>
   <v>       0.50000000       0.50000000       0.50000000 </v>
   <v>       0.44208298       0.55791702       0.58190703 </v>
   <v>       0.55791702       0.55791702       0.58190703 </v>
   <v>       0.50000000       0.61583404       0.50000000 </v>
   <v>       0.49431210       0.49643567       0.74584447 </v>
   <v>       0.49344250       0.49589077       0.78343047 </v>
  </varray>
  <varray name="selective"  type="logical" >
   <v type="logical" >  F  F  F </v>
   <v type="logical" >  F  F  F </v>
   <v type="logical" >  F  F  F </v>
   <v type="logical" >  F  F  F </v>
   <v type="logical" >  F  F  F </v>
   <v type="logical" >  F  F  F </v>
   <v type="logical" >  F  F  F </v>
   <v type="logical" >  F  F  F </v>
   <v type="logical" >  F  F  F </v>
   <v type="logical" >  F  F  F </v>
   <v type="logical" >  F  F  F </v>
   <v type="logical" >  F  F  F </v>
   <v type="logical" >  F  F  F </v>
   <v type="logical" >  F  F  F </v>
   <v type="logical" >  F  F  F </v>
   <v type="logical" >  F  F  F </v>
   <v type="logical" >  F  F  F </v>
   <v type="logical" >  F  F  F </v>
   <v type="logical" >  F  F  F </v>
   <v type="logical" >  F  F  F </v>
   <v type="logical" >  F  F  F </v>
   <v type="logical" >  F  F  F </v>
   <v type="logical" >  F  F  F </v>
   <v type="logical" >  F  F  F </v>
   <v type="logical" >  F  F  F </v>
   <v type="logical" >  F  F  F </v>
   <v type="logical" >  F  F  F </v>
   <v type="logical" >  F  F  F </v>
   <v type="logical" >  F  F  F </v>
   <v type="logical" >  F  F  F </v>
   <v type="logical" >  F  F  F </v>
   <v type="logical" >  F  F  F </v>
   <v type="logical" >  F  F  F </v>
   <v type="logical" >  F  F  F </v>
   <v type="logical" >  F  F  F </v>
   <v type="logical" >  F  F  F </v>
   <v type="logical" >  F  F  F </v>
   <v type="logical" >  F  F  F </v>
   <v type="logical" >  F  F  F </v>
   <v type="logical" >  F  F  F </v>
   <v type="logical" >  F  F  F </v>
   <v type="logical" >  F  F  F </v>
   <v type="logical" >  F  F  F </v>
   <v type="logical" >  F  F  F </v>
   <v type="logical" >  F  F  F </v>
   <v type="logical" >  F  F  F </v>
   <v type="logical" >  F  F  F </v>
   <v type="logical" >  F  F  F </v>
   <v type="logical" >  F  F  F </v>
   <v type="logical" >  F  F  F </v>
   <v type="logical" >  F  F  F </v>
   <v type="logical" >  F  F  F </v>
   <v type="logical" >  F  F  F </v>
   <v type="logical" >  F  F  F </v>
   <v type="logical" >  F  F  F </v>
   <v type="logical" >  F  F  F </v>
   <v type="logical" >  F  F  F </v>
  </varray>
  <nose>
   <v>      -3.00000000       0.00000000       0.00010000       0.00010000 </v>
  </nose>
 </structure>
 <calculation>
  <scstep>
   <time name="dav">  369.70  369.79</time>
   <time name="total">  384.19  384.28</time>
   <energy>
    <i name="alphaZ">     75.25431677 </i>
    <i name="ewald"> 138085.21194935 </i>
    <i name="hartreedc">-181452.17734606 </i>
    <i name="XCdc">  -1703.83032653 </i>
    <i name="pawpsdc">  44873.02882129 </i>
    <i name="pawaedc"> -41398.84523641 </i>
    <i name="eentropy">      0.01599110 </i>
    <i name="bandstr">    819.03646688 </i>
    <i name="atom">  45086.50549395 </i>
    <i name="e_fr_energy">   4384.20013034 </i>
    <i name="e_wo_entrp">   4384.18413924 </i>
    <i name="e_0_energy">   4384.19613257 </i>
   </energy>
  </scstep>
  <scstep>
   <time name="dav">  589.93  589.96</time>
   <time name="total">  589.94  589.96</time>
   <energy>
    <i name="e_fr_energy">   2012.76562198 </i>
    <i name="e_wo_entrp">   2012.80648097 </i>
    <i name="e_0_energy">   2012.77583673 </i>
   </energy>
  </scstep>
  <scstep>
   <time name="dav">  503.84  503.85</time>
   <time name="total">  503.84  503.85</time>
   <energy>
    <i name="e_fr_energy">    233.57185437 </i>
    <i name="e_wo_entrp">    233.59711663 </i>
    <i name="e_0_energy">    233.57816994 </i>
   </energy>
  </scstep>
  <scstep>
   <time name="dav">  437.25  437.25</time>
   <time name="total">  437.25  437.26</time>
   <energy>
    <i name="e_fr_energy">   -134.84978203 </i>
    <i name="e_wo_entrp">   -134.88680123 </i>
    <i name="e_0_energy">   -134.85903683 </i>
   </energy>
  </scstep>
  <scstep>
   <time name="dav">  543.31  543.34</time>
   <time name="total">  570.87  570.89</time>
   <energy>
    <i name="e_fr_energy">   -178.96694125 </i>
    <i name="e_wo_entrp">   -179.51332850 </i>
    <i name="e_0_energy">   -179.10353806 </i>
   </energy>
  </scstep>
  <scstep>
   <time name="diag">   69.74   69.74</time>
   <time name="diis">  198.72  198.71</time>
   <time name="orth">   14.14   14.14</time>
   <time name="total">  324.20  324.19</time>
   <energy>
    <i name="e_fr_energy">   -178.99588251 </i>
    <i name="e_wo_entrp">   -178.82836206 </i>
    <i name="e_0_energy">   -178.95400239 </i>
   </energy>
  </scstep>
  <scstep>
   <time name="diag">   69.66   69.66</time>
   <time name="diis">  237.58  237.58</time>
   <time name="orth">   14.03   14.03</time>
   <time name="total">  362.53  362.53</time>
   <energy>
    <i name="e_fr_energy">   -181.10981587 </i>
    <i name="e_wo_entrp">   -181.15713300 </i>
    <i name="e_0_energy">   -181.12164515 </i>
   </energy>
  </scstep>
  <scstep>
   <time name="diag">   69.76   69.76</time>
   <time name="diis">  217.37  217.37</time>
   <time name="orth">   13.88   13.88</time>
   <time name="total">  341.72  341.72</time>
   <energy>
    <i name="e_fr_energy">   -182.65745721 </i>
    <i name="e_wo_entrp">   -182.45338344 </i>
    <i name="e_0_energy">   -182.60643877 </i>
   </energy>
  </scstep>
  <scstep>
   <time name="diag">   71.03   71.03</time>
   <time name="diis">  204.42  204.45</time>
   <time name="orth">   14.09   14.09</time>
   <time name="total">  330.64  330.67</time>
   <energy>
    <i name="e_fr_energy">   -182.01695420 </i>
    <i name="e_wo_entrp">   -181.96453370 </i>
    <i name="e_0_energy">   -182.00384907 </i>
   </energy>
  </scstep>
  <scstep>
   <time name="diag">   71.69   71.69</time>
   <time name="diis">  208.94  208.95</time>
   <time name="orth">   13.87   13.87</time>
   <time name="total">  335.12  335.13</time>
   <energy>
    <i name="e_fr_energy">   -180.74807812 </i>
    <i name="e_wo_entrp">   -180.64196813 </i>
    <i name="e_0_energy">   -180.72155062 </i>
   </energy>
  </scstep>
  <scstep>
   <time name="diag">   71.49   71.49</time>
   <time name="diis">  204.21  204.22</time>
   <time name="orth">   13.93   13.93</time>
   <time name="total">  330.31  330.32</time>
   <energy>
    <i name="e_fr_energy">   -178.16373924 </i>
    <i name="e_wo_entrp">   -178.11188079 </i>
    <i name="e_0_energy">   -178.15077463 </i>
   </energy>
  </scstep>
  <scstep>
   <time name="diag">   71.41   71.41</time>
   <time name="diis">  203.83  203.83</time>
   <time name="orth">   13.89   13.89</time>
   <time name="total">  329.99  330.00</time>
   <energy>
    <i name="e_fr_energy">   -177.13879710 </i>
    <i name="e_wo_entrp">   -177.07279085 </i>
    <i name="e_0_energy">   -177.12229554 </i>
   </energy>
  </scstep>
  <scstep>
   <time name="diag">   71.72   71.72</time>
   <time name="diis">  204.12  204.12</time>
   <time name="orth">   13.63   13.63</time>
   <time name="total">  330.28  330.29</time>
   <energy>
    <i name="e_fr_energy">   -176.41848099 </i>
    <i name="e_wo_entrp">   -176.31999059 </i>
    <i name="e_0_energy">   -176.39385839 </i>
   </energy>
  </scstep>
  <scstep>
   <time name="diag">   70.62   70.62</time>
   <time name="diis">  201.50  201.50</time>
   <time name="orth">   13.65   13.65</time>
   <time name="total">  326.47  326.47</time>
   <energy>
    <i name="e_fr_energy">   -176.60483109 </i>
    <i name="e_wo_entrp">   -176.71171648 </i>
    <i name="e_0_energy">   -176.63155244 </i>
   </energy>
  </scstep>
  <scstep>
   <time name="diag">   70.37   70.37</time>
   <time name="diis">  199.60  199.60</time>
   <time name="orth">   13.67   13.67</time>
   <time name="total">  324.58  324.58</time>
   <energy>
    <i name="e_fr_energy">   -176.05540727 </i>
    <i name="e_wo_entrp">   -175.96539379 </i>
    <i name="e_0_energy">   -176.03290390 </i>
   </energy>
  </scstep>
  <scstep>
   <time name="diag">   70.36   70.36</time>
   <time name="diis">  198.98  198.98</time>
   <time name="orth">   13.66   13.66</time>
   <time name="total">  323.95  323.96</time>
   <energy>
    <i name="e_fr_energy">   -175.54699309 </i>
    <i name="e_wo_entrp">   -175.53131711 </i>
    <i name="e_0_energy">   -175.54307410 </i>
   </energy>
  </scstep>
  <scstep>
   <time name="diag">   70.04   70.04</time>
   <time name="diis">  198.16  198.16</time>
   <time name="orth">   14.04   14.04</time>
   <time name="total">  323.18  323.19</time>
   <energy>
    <i name="e_fr_energy">   -175.51834502 </i>
    <i name="e_wo_entrp">   -175.48672683 </i>
    <i name="e_0_energy">   -175.51044047 </i>
   </energy>
  </scstep>
  <scstep>
   <time name="diag">   69.93   69.93</time>
   <time name="diis">  199.88  199.88</time>
   <time name="orth">   14.04   14.04</time>
   <time name="total">  324.79  324.79</time>
   <energy>
    <i name="e_fr_energy">   -175.06322528 </i>
    <i name="e_wo_entrp">   -174.97079192 </i>
    <i name="e_0_energy">   -175.04011694 </i>
   </energy>
  </scstep>
  <scstep>
   <time name="diag">   69.36   69.36</time>
   <time name="diis">  199.95  199.95</time>
   <time name="orth">   13.71   13.71</time>
   <time name="total">  324.41  324.42</time>
   <energy>
    <i name="e_fr_energy">   -175.02591215 </i>
    <i name="e_wo_entrp">   -174.98871305 </i>
    <i name="e_0_energy">   -175.01661237 </i>
   </energy>
  </scstep>
  <scstep>
   <time name="diag">   69.07   69.07</time>
   <time name="diis">  202.36  202.37</time>
   <time name="orth">   13.41   13.41</time>
   <time name="total">  325.62  325.63</time>
   <energy>
    <i name="e_fr_energy">   -175.09284180 </i>
    <i name="e_wo_entrp">   -175.14907725 </i>
    <i name="e_0_energy">   -175.10690067 </i>
   </energy>
  </scstep>
  <scstep>
   <time name="diag">   69.93   69.94</time>
   <time name="diis">  198.01  198.01</time>
   <time name="orth">   13.66   13.66</time>
   <time name="total">  322.44  322.46</time>
   <energy>
    <i name="e_fr_energy">   -174.76706555 </i>
    <i name="e_wo_entrp">   -174.72279629 </i>
    <i name="e_0_energy">   -174.75599824 </i>
   </energy>
  </scstep>
  <scstep>
   <time name="diag">   69.98   69.99</time>
   <time name="diis">  196.93  196.94</time>
   <time name="orth">   13.60   13.60</time>
   <time name="total">  321.74  321.75</time>
   <energy>
    <i name="e_fr_energy">   -174.62676512 </i>
    <i name="e_wo_entrp">   -174.56164977 </i>
    <i name="e_0_energy">   -174.61048628 </i>
   </energy>
  </scstep>
  <scstep>
   <time name="diag">   69.27   69.27</time>
   <time name="diis">  200.53  200.53</time>
   <time name="orth">   13.35   13.35</time>
   <time name="total">  324.69  324.69</time>
   <energy>
    <i name="e_fr_energy">   -174.67806851 </i>
    <i name="e_wo_entrp">   -174.59289008 </i>
    <i name="e_0_energy">   -174.65677390 </i>
   </energy>
  </scstep>
  <scstep>
   <time name="diag">   68.73   68.73</time>
   <time name="diis">  199.71  199.71</time>
   <time name="orth">   13.48   13.48</time>
   <time name="total">  323.02  323.01</time>
   <energy>
    <i name="e_fr_energy">   -174.45506557 </i>
    <i name="e_wo_entrp">   -174.36592929 </i>
    <i name="e_0_energy">   -174.43278150 </i>
   </energy>
  </scstep>
  <scstep>
   <time name="diag">   69.30   69.30</time>
   <time name="diis">  196.68  196.68</time>
   <time name="orth">   13.55   13.55</time>
   <time name="total">  320.80  320.80</time>
   <energy>
    <i name="e_fr_energy">   -174.41152541 </i>
    <i name="e_wo_entrp">   -174.34276418 </i>
    <i name="e_0_energy">   -174.39433510 </i>
   </energy>
  </scstep>
  <scstep>
   <time name="diag">   69.68   69.68</time>
   <time name="diis">  198.06  198.05</time>
   <time name="orth">   13.76   13.76</time>
   <time name="total">  323.07  323.07</time>
   <energy>
    <i name="e_fr_energy">   -174.35299484 </i>
    <i name="e_wo_entrp">   -174.27034064 </i>
    <i name="e_0_energy">   -174.33233129 </i>
   </energy>
  </scstep>
  <scstep>
   <time name="diag">   69.29   69.29</time>
   <time name="diis">  198.22  198.22</time>
   <time name="orth">   13.54   13.54</time>
   <time name="total">  322.16  322.17</time>
   <energy>
    <i name="e_fr_energy">   -174.28818395 </i>
    <i name="e_wo_entrp">   -174.21729673 </i>
    <i name="e_0_energy">   -174.27046215 </i>
   </energy>
  </scstep>
  <scstep>
   <time name="diag">   69.21   69.21</time>
   <time name="diis">  196.86  196.86</time>
   <time name="orth">   13.54   13.54</time>
   <time name="total">  321.03  321.03</time>
   <energy>
    <i name="e_fr_energy">   -174.27730870 </i>
    <i name="e_wo_entrp">   -174.20350942 </i>
    <i name="e_0_energy">   -174.25885888 </i>
   </energy>
  </scstep>
  <scstep>
   <time name="diag">   69.65   69.64</time>
   <time name="diis">  198.66  198.66</time>
   <time name="orth">   13.33   13.33</time>
   <time name="total">  323.29  323.28</time>
   <energy>
    <i name="e_fr_energy">   -174.23940337 </i>
    <i name="e_wo_entrp">   -174.16932063 </i>
    <i name="e_0_energy">   -174.22188269 </i>
   </energy>
  </scstep>
  <scstep>
   <time name="diag">   68.99   68.99</time>
   <time name="diis">  196.72  196.73</time>
   <time name="orth">   13.60   13.60</time>
   <time name="total">  320.73  320.75</time>
   <energy>
    <i name="e_fr_energy">   -174.21663503 </i>
    <i name="e_wo_entrp">   -174.14770768 </i>
    <i name="e_0_energy">   -174.19940319 </i>
   </energy>
  </scstep>
  <scstep>
   <time name="diag">   69.46   69.46</time>
   <time name="diis">  195.93  195.95</time>
   <time name="orth">   13.70   13.70</time>
   <time name="total">  320.65  320.67</time>
   <energy>
    <i name="e_fr_energy">   -174.20966639 </i>
    <i name="e_wo_entrp">   -174.13862450 </i>
    <i name="e_0_energy">   -174.19190592 </i>
   </energy>
  </scstep>
  <scstep>
   <time name="diag">   69.22   69.22</time>
   <time name="diis">  190.26  190.27</time>
   <time name="orth">   13.42   13.42</time>
   <time name="total">  314.52  314.55</time>
   <energy>
    <i name="e_fr_energy">   -174.19604936 </i>
    <i name="e_wo_entrp">   -174.12507257 </i>
    <i name="e_0_energy">   -174.17830516 </i>
   </energy>
  </scstep>
  <scstep>
   <time name="diag">   68.86   68.86</time>
   <time name="diis">  196.21  196.21</time>
   <time name="orth">   13.74   13.74</time>
   <time name="total">  320.59  320.59</time>
   <energy>
    <i name="e_fr_energy">   -174.19295885 </i>
    <i name="e_wo_entrp">   -174.11827635 </i>
    <i name="e_0_energy">   -174.17428822 </i>
   </energy>
  </scstep>
  <scstep>
   <time name="diag">   69.23   69.23</time>
   <time name="diis">  194.88  194.88</time>
   <time name="orth">   13.66   13.66</time>
   <time name="total">  319.87  319.86</time>
   <energy>
    <i name="e_fr_energy">   -174.18952528 </i>
    <i name="e_wo_entrp">   -174.11479362 </i>
    <i name="e_0_energy">   -174.17084236 </i>
   </energy>
  </scstep>
  <scstep>
   <time name="diag">   68.98   68.98</time>
   <time name="diis">  196.00  196.00</time>
   <time name="orth">   13.63   13.63</time>
   <time name="total">  320.99  321.00</time>
   <energy>
    <i name="e_fr_energy">   -174.18896906 </i>
    <i name="e_wo_entrp">   -174.11304160 </i>
    <i name="e_0_energy">   -174.16998720 </i>
   </energy>
  </scstep>
  <scstep>
   <time name="diag">   68.96   68.96</time>
   <time name="diis">  195.37  195.37</time>
   <time name="orth">   13.59   13.59</time>
   <time name="total">  320.01  320.00</time>
   <energy>
    <i name="e_fr_energy">   -174.18956826 </i>
    <i name="e_wo_entrp">   -174.11700618 </i>
    <i name="e_0_energy">   -174.17142774 </i>
   </energy>
  </scstep>
  <scstep>
   <time name="diag">   69.47   69.47</time>
   <time name="diis">  194.53  194.54</time>
   <time name="orth">   13.64   13.64</time>
   <time name="total">  319.72  319.72</time>
   <energy>
    <i name="e_fr_energy">   -174.18832338 </i>
    <i name="e_wo_entrp">   -174.11385288 </i>
    <i name="e_0_energy">   -174.16970576 </i>
   </energy>
  </scstep>
  <scstep>
   <time name="diag">   69.51   69.51</time>
   <time name="diis">  192.79  192.79</time>
   <time name="orth">   13.61   13.61</time>
   <time name="total">  318.54  318.54</time>
   <energy>
    <i name="e_fr_energy">   -174.18918322 </i>
    <i name="e_wo_entrp">   -174.11279531 </i>
    <i name="e_0_energy">   -174.17008624 </i>
   </energy>
  </scstep>
  <scstep>
   <time name="diag">   69.99   69.99</time>
   <time name="diis">  191.30  191.30</time>
   <time name="orth">   13.85   13.85</time>
   <time name="total">  317.55  317.55</time>
   <energy>
    <i name="e_fr_energy">   -174.19103872 </i>
    <i name="e_wo_entrp">   -174.11803097 </i>
    <i name="e_0_energy">   -174.17278678 </i>
   </energy>
  </scstep>
  <scstep>
   <time name="diag">   69.65   69.64</time>
   <time name="diis">  183.28  183.28</time>
   <time name="orth">   13.79   13.79</time>
   <time name="total">  309.39  309.39</time>
   <energy>
    <i name="e_fr_energy">   -174.19137111 </i>
    <i name="e_wo_entrp">   -174.11781164 </i>
    <i name="e_0_energy">   -174.17298124 </i>
   </energy>
  </scstep>
  <scstep>
   <time name="diag">   69.67   69.67</time>
   <time name="diis">  161.63  161.64</time>
   <time name="orth">   13.73   13.73</time>
   <time name="total">  288.27  288.29</time>
   <energy>
    <i name="e_fr_energy">   -174.19301748 </i>
    <i name="e_wo_entrp">   -174.11975649 </i>
    <i name="e_0_energy">   -174.17470224 </i>
   </energy>
  </scstep>
  <scstep>
   <time name="diag">   69.79   69.81</time>
   <time name="diis">  166.23  166.25</time>
   <time name="orth">   13.62   13.62</time>
   <time name="total">  293.64  293.67</time>
   <energy>
    <i name="e_fr_energy">   -174.19556102 </i>
    <i name="e_wo_entrp">   -174.12197692 </i>
    <i name="e_0_energy">   -174.17716500 </i>
   </energy>
  </scstep>
  <scstep>
   <time name="diag">   70.54   70.55</time>
   <time name="diis">  126.98  127.00</time>
   <time name="orth">   13.90   13.90</time>
   <time name="total">  255.47  255.49</time>
   <energy>
    <i name="e_fr_energy">   -174.19707186 </i>
    <i name="e_wo_entrp">   -174.12285540 </i>
    <i name="e_0_energy">   -174.17851775 </i>
   </energy>
  </scstep>
  <scstep>
   <time name="diag">   70.35   70.35</time>
   <time name="diis">  141.65  141.66</time>
   <time name="orth">   13.84   13.84</time>
   <time name="total">  269.66  269.68</time>
   <energy>
    <i name="e_fr_energy">   -174.19996096 </i>
    <i name="e_wo_entrp">   -174.12510202 </i>
    <i name="e_0_energy">   -174.18124623 </i>
   </energy>
  </scstep>
  <scstep>
   <time name="diag">   70.41   70.42</time>
   <time name="diis">  131.89  131.89</time>
   <time name="orth">   13.92   13.92</time>
   <time name="total">  260.81  260.83</time>
   <energy>
    <i name="e_fr_energy">   -174.20220894 </i>
    <i name="e_wo_entrp">   -174.12789585 </i>
    <i name="e_0_energy">   -174.18363067 </i>
   </energy>
  </scstep>
  <scstep>
   <time name="diag">   69.81   69.81</time>
   <time name="diis">  128.42  128.43</time>
   <time name="orth">   14.05   14.05</time>
   <time name="total">  257.53  257.54</time>
   <energy>
    <i name="e_fr_energy">   -174.20435693 </i>
    <i name="e_wo_entrp">   -174.12994943 </i>
    <i name="e_0_energy">   -174.18575506 </i>
   </energy>
  </scstep>
  <scstep>
   <time name="diag">   70.60   70.61</time>
   <time name="diis">  132.57  132.57</time>
   <time name="orth">   14.02   14.02</time>
   <time name="total">  262.72  262.73</time>
   <energy>
    <i name="e_fr_energy">   -174.20667730 </i>
    <i name="e_wo_entrp">   -174.13340329 </i>
    <i name="e_0_energy">   -174.18835880 </i>
   </energy>
  </scstep>
  <scstep>
   <time name="diag">   70.83   70.83</time>
   <time name="diis">  123.36  123.36</time>
   <time name="orth">   13.95   13.95</time>
   <time name="total">  254.00  254.00</time>
   <energy>
    <i name="e_fr_energy">   -174.20798617 </i>
    <i name="e_wo_entrp">   -174.13432837 </i>
    <i name="e_0_energy">   -174.18957172 </i>
   </energy>
  </scstep>
  <scstep>
   <time name="diag">   71.05   71.05</time>
   <time name="diis">  125.71  125.72</time>
   <time name="orth">   14.06   14.06</time>
   <time name="total">  255.80  255.81</time>
   <energy>
    <i name="e_fr_energy">   -174.20965347 </i>
    <i name="e_wo_entrp">   -174.13602298 </i>
    <i name="e_0_energy">   -174.19124585 </i>
   </energy>
  </scstep>
  <scstep>
   <time name="diag">   70.00   70.00</time>
   <time name="diis">  122.49  122.49</time>
   <time name="orth">   13.76   13.76</time>
   <time name="total">  251.48  251.48</time>
   <energy>
    <i name="e_fr_energy">   -174.21027656 </i>
    <i name="e_wo_entrp">   -174.13684106 </i>
    <i name="e_0_energy">   -174.19191769 </i>
   </energy>
  </scstep>
  <scstep>
   <time name="diag">   68.14   68.14</time>
   <time name="diis">  121.93  121.93</time>
   <time name="orth">   14.35   14.35</time>
   <time name="total">  249.23  249.23</time>
   <energy>
    <i name="e_fr_energy">   -174.21128476 </i>
    <i name="e_wo_entrp">   -174.13771351 </i>
    <i name="e_0_energy">   -174.19289195 </i>
   </energy>
  </scstep>
  <scstep>
   <time name="diag">   68.72   68.72</time>
   <time name="diis">  120.84  120.85</time>
   <time name="orth">   13.63   13.63</time>
   <time name="total">  248.13  248.13</time>
   <energy>
    <i name="e_fr_energy">   -174.21182107 </i>
    <i name="e_wo_entrp">   -174.13837566 </i>
    <i name="e_0_energy">   -174.19345972 </i>
   </energy>
  </scstep>
  <scstep>
   <time name="diag">   69.02   69.02</time>
   <time name="diis">  116.75  116.75</time>
   <time name="orth">   13.98   13.98</time>
   <time name="total">  243.47  243.47</time>
   <energy>
    <i name="e_fr_energy">   -174.21225082 </i>
    <i name="e_wo_entrp">   -174.13881741 </i>
    <i name="e_0_energy">   -174.19389247 </i>
   </energy>
  </scstep>
  <scstep>
   <time name="diag">   69.13   69.13</time>
   <time name="diis">  118.56  118.56</time>
   <time name="orth">   13.70   13.70</time>
   <time name="total">  245.03  245.03</time>
   <energy>
    <i name="e_fr_energy">   -174.21289597 </i>
    <i name="e_wo_entrp">   -174.13950033 </i>
    <i name="e_0_energy">   -174.19454706 </i>
   </energy>
  </scstep>
  <scstep>
   <time name="diag">   68.96   68.96</time>
   <time name="diis">   92.68   92.68</time>
   <time name="orth">   13.75   13.75</time>
   <time name="total">  219.34  219.33</time>
   <energy>
    <i name="e_fr_energy">   -174.21311215 </i>
    <i name="e_wo_entrp">   -174.13979404 </i>
    <i name="e_0_energy">   -174.19478263 </i>
   </energy>
  </scstep>
  <scstep>
   <time name="diag">   68.81   68.81</time>
   <time name="diis">   98.17   98.17</time>
   <time name="orth">   13.74   13.74</time>
   <time name="total">  224.26  224.26</time>
   <energy>
    <i name="e_fr_energy">   -174.21364964 </i>
    <i name="e_wo_entrp">   -174.14021811 </i>
    <i name="e_0_energy">   -174.19529176 </i>
   </energy>
  </scstep>
  <scstep>
   <time name="diag">   67.07   67.07</time>
   <time name="diis">   78.69   78.69</time>
   <time name="orth">   12.88   12.88</time>
   <time name="total">  200.55  200.55</time>
   <energy>
    <i name="e_fr_energy">   -174.21384898 </i>
    <i name="e_wo_entrp">   -174.14046652 </i>
    <i name="e_0_energy">   -174.19550336 </i>
   </energy>
  </scstep>
  <scstep>
   <time name="diag">   66.23   66.23</time>
   <time name="diis">   86.80   86.80</time>
   <time name="orth">   13.64   13.64</time>
   <time name="total">  209.74  209.75</time>
   <energy>
    <i name="e_fr_energy">   -174.21406963 </i>
    <i name="e_wo_entrp">   -174.14065317 </i>
    <i name="e_0_energy">   -174.19571551 </i>
   </energy>
  </scstep>
  <scstep>
   <time name="diag">   68.66   68.66</time>
   <time name="diis">   95.50   95.50</time>
   <time name="orth">   13.71   13.71</time>
   <time name="total">  222.07  222.07</time>
   <energy>
    <i name="e_fr_energy">   -174.21432170 </i>
    <i name="e_wo_entrp">   -174.14091976 </i>
    <i name="e_0_energy">   -174.19597122 </i>
   </energy>
  </scstep>
  <scstep>
   <time name="diag">   67.21   67.21</time>
   <time name="diis">   76.51   76.51</time>
   <time name="orth">   13.54   13.54</time>
   <time name="total">  201.13  201.14</time>
   <energy>
    <i name="e_fr_energy">   -174.21442520 </i>
    <i name="e_wo_entrp">   -174.14099541 </i>
    <i name="e_0_energy">   -174.19606775 </i>
   </energy>
  </scstep>
  <scstep>
   <time name="diag">   69.13   69.13</time>
   <time name="diis">   86.00   86.00</time>
   <time name="orth">   13.52   13.52</time>
   <time name="total">  212.71  212.71</time>
   <energy>
    <i name="e_fr_energy">   -174.21458582 </i>
    <i name="e_wo_entrp">   -174.14119081 </i>
    <i name="e_0_energy">   -174.19623707 </i>
   </energy>
  </scstep>
  <scstep>
   <time name="diag">   68.37   68.37</time>
   <time name="diis">   77.71   77.72</time>
   <time name="orth">   13.75   13.75</time>
   <time name="total">  174.10  174.11</time>
   <energy>
    <i name="alphaZ">     75.25431677 </i>
    <i name="ewald"> 138085.21194935 </i>
    <i name="hartreedc">-182458.49915566 </i>
    <i name="XCdc">  -1693.16587288 </i>
    <i name="pawpsdc">  46053.87942711 </i>
    <i name="pawaedc"> -42523.47496294 </i>
    <i name="eentropy">     -0.07341807 </i>
    <i name="bandstr">  -2799.85244754 </i>
    <i name="atom">  45086.50549395 </i>
    <i name="e_fr_energy">   -174.21466990 </i>
    <i name="e_wo_entrp">   -174.14125184 </i>
    <i name="e_0_energy">   -174.19631539 </i>
   </energy>
  </scstep>
  <structure>
   <crystal>
    <varray name="basis" >
     <v>      30.00000000       0.00000000       0.00000000 </v>
     <v>       0.00000000      30.00000000       0.00000000 </v>
     <v>       0.00000000       0.00000000      30.00000000 </v>
    </varray>
    <i name="volume">  27000.00000000 </i>
    <varray name="rec_basis" >
     <v>       0.03333333       0.00000000       0.00000000 </v>
     <v>       0.00000000       0.03333333       0.00000000 </v>
     <v>       0.00000000       0.00000000       0.03333333 </v>
    </varray>
   </crystal>
   <varray name="positions" >
    <v>       0.44576020       0.32826710       0.41691983 </v>
    <v>       0.67173288       0.55423978       0.41691983 </v>
    <v>       0.55423980       0.32826710       0.41691983 </v>
    <v>       0.32826712       0.55423978       0.41691983 </v>
    <v>       0.50000000       0.38250690       0.34021317 </v>
    <v>       0.50000000       0.38250690       0.65978680 </v>
    <v>       0.50000000       0.27609440       0.50000000 </v>
    <v>       0.27609443       0.49999998       0.50000000 </v>
    <v>       0.72390557       0.49999998       0.50000000 </v>
    <v>       0.50000000       0.72390555       0.50000000 </v>
    <v>       0.61195280       0.38804720       0.34167483 </v>
    <v>       0.61195280       0.38804720       0.65832513 </v>
    <v>       0.38804722       0.61195278       0.34167483 </v>
    <v>       0.38804722       0.61195278       0.65832513 </v>
    <v>       0.38804720       0.38804720       0.34167483 </v>
    <v>       0.38804720       0.38804720       0.65832513 </v>
    <v>       0.61195278       0.61195278       0.34167483 </v>
    <v>       0.61195278       0.61195278       0.65832513 </v>
    <v>       0.44576020       0.32826710       0.58308023 </v>
    <v>       0.67173288       0.55423978       0.58308023 </v>
    <v>       0.55791699       0.44208301       0.41809300 </v>
    <v>       0.32826705       0.44576024       0.41691983 </v>
    <v>       0.55423973       0.67173293       0.41691983 </v>
    <v>       0.55423980       0.32826710       0.58308023 </v>
    <v>       0.32826712       0.55423978       0.58308023 </v>
    <v>       0.67173295       0.44576024       0.41691983 </v>
    <v>       0.44576027       0.67173293       0.41691983 </v>
    <v>       0.44208301       0.44208301       0.41809300 </v>
    <v>       0.50000000       0.38416601       0.50000000 </v>
    <v>       0.61749315       0.50000005       0.34021317 </v>
    <v>       0.61749315       0.50000005       0.65978680 </v>
    <v>       0.38250685       0.50000005       0.34021317 </v>
    <v>       0.38250685       0.50000005       0.65978680 </v>
    <v>       0.38317830       0.38317830       0.50000000 </v>
    <v>       0.61682172       0.61682172       0.50000000 </v>
    <v>       0.61682170       0.38317830       0.50000000 </v>
    <v>       0.38317828       0.61682172       0.50000000 </v>
    <v>       0.50000000       0.50000000       0.33478917 </v>
    <v>       0.50000000       0.50000000       0.66521087 </v>
    <v>       0.32826705       0.44576024       0.58308023 </v>
    <v>       0.55423973       0.67173293       0.58308023 </v>
    <v>       0.55791699       0.44208301       0.58190703 </v>
    <v>       0.44208298       0.55791702       0.41809300 </v>
    <v>       0.44208301       0.44208301       0.58190703 </v>
    <v>       0.67173295       0.44576024       0.58308023 </v>
    <v>       0.44576027       0.67173293       0.58308023 </v>
    <v>       0.55791702       0.55791702       0.41809300 </v>
    <v>       0.38416599       0.50000002       0.50000000 </v>
    <v>       0.61583401       0.50000002       0.50000000 </v>
    <v>       0.50000000       0.61749319       0.34021317 </v>
    <v>       0.50000000       0.61749319       0.65978680 </v>
    <v>       0.50000000       0.50000000       0.50000000 </v>
    <v>       0.44208298       0.55791702       0.58190703 </v>
    <v>       0.55791702       0.55791702       0.58190703 </v>
    <v>       0.50000000       0.61583404       0.50000000 </v>
    <v>       0.49431210       0.49643567       0.74584447 </v>
    <v>       0.49344250       0.49589077       0.78343047 </v>
   </varray>
  </structure>
  <varray name="forces" >
   <v>       0.70133078       1.10796692       0.29108660 </v>
   <v>      -1.10789876      -0.70129170       0.29204052 </v>
   <v>      -0.70110078       1.10836071       0.29152140 </v>
   <v>       1.10836748      -0.70100920       0.29125000 </v>
   <v>      -0.00012170       0.40747702       1.28137890 </v>
   <v>       0.00090888       0.37656694      -1.32406068 </v>
   <v>      -0.00012927       1.51251920       0.00329680 </v>
   <v>       1.51222391       0.00001573       0.00350477 </v>
   <v>      -1.51294361       0.00003745       0.00257889 </v>
   <v>      -0.00013711      -1.51254628       0.00279711 </v>
   <v>      -0.75471075       0.75428921       1.07367423 </v>
   <v>      -0.75288944       0.75378066      -1.07375340 </v>
   <v>       0.75421993      -0.75467202       1.07366018 </v>
   <v>       0.75322929      -0.75228926      -1.07389173 </v>
   <v>       0.75435181       0.75458862       1.07337567 </v>
   <v>       0.75245519       0.75230304      -1.07467500 </v>
   <v>      -0.75438864      -0.75428738       1.07362054 </v>
   <v>      -0.75363689      -0.75369113      -1.07316382 </v>
   <v>       0.70132286       1.10613750      -0.29119668 </v>
   <v>      -1.10675799      -0.70132625      -0.29000212 </v>
   <v>       0.11312446      -0.11292824      -0.15483898 </v>
   <v>       1.10793696       0.70130431       0.29097934 </v>
   <v>      -0.70111887      -1.10769411       0.29197802 </v>
   <v>      -0.70203575       1.10712600      -0.29006408 </v>
   <v>       1.10683091      -0.70198620      -0.29035537 </v>
   <v>      -1.10765129       0.70153597       0.29167609 </v>
   <v>       0.70129349      -1.10762439       0.29146781 </v>
   <v>      -0.11301487      -0.11291755      -0.15487187 </v>
   <v>       0.00032458      -0.21792470      -0.00119049 </v>
   <v>      -0.40697696      -0.00000256       1.28167810 </v>
   <v>      -0.38245558       0.00049685      -1.32210863 </v>
   <v>       0.40753381       0.00007410       1.28163447 </v>
   <v>       0.37511080       0.00063062      -1.32407402 </v>
   <v>       0.82060338       0.82053484      -0.01216733 </v>
   <v>      -0.81870575      -0.81884993      -0.01545922 </v>
   <v>      -0.81904754       0.81990426      -0.01444643 </v>
   <v>       0.82025311      -0.81941318      -0.01370859 </v>
   <v>      -0.00092772      -0.00044935       1.18402180 </v>
   <v>      -0.09978499      -0.06248718       0.67945748 </v>
   <v>       1.10623683       0.70174580      -0.29107249 </v>
   <v>      -0.70174445      -1.10693796      -0.28989870 </v>
   <v>       0.11182194      -0.10675201       0.15239730 </v>
   <v>      -0.11304352       0.11325669      -0.15489841 </v>
   <v>      -0.11892014      -0.11989987       0.14532519 </v>
   <v>      -1.10636702       0.70109256      -0.29061113 </v>
   <v>       0.70101655      -1.10609199      -0.29093368 </v>
   <v>       0.11303897       0.11307656      -0.15473724 </v>
   <v>      -0.21799509       0.00031733      -0.00135004 </v>
   <v>       0.21821253       0.00034232      -0.00039250 </v>
   <v>      -0.00026194      -0.40703297       1.28146694 </v>
   <v>       0.00078975      -0.38093116      -1.32254091 </v>
   <v>       0.00015831       0.00018146       0.01055715 </v>
   <v>      -0.11097463       0.11590051       0.14938230 </v>
   <v>       0.10217317       0.10108146       0.15810579 </v>
   <v>       0.00032148       0.21818642      -0.00056233 </v>
   <v>       0.20029798       0.12581139      -4.62272405 </v>
   <v>      -0.07974807      -0.05560585       2.96983651 </v>
  </varray>
  <varray name="stress" >
   <v>      -6.73116287      -0.00089625       0.01441571 </v>
   <v>      -0.00089624      -6.73091207       0.00887876 </v>
   <v>       0.01441571       0.00887877      -6.79503696 </v>
  </varray>
  <energy>
   <i name="e_fr_energy">   -174.21466990 </i>
   <i name="e_wo_entrp">   -174.19631539 </i>
   <i name="e_0_energy">     -0.07341807 </i>
  </energy>
  <time name="totalsc">19503.4819504.05</time>
  <eigenvalues>
   <array>
    <dimension dim="1">band</dimension>
    <dimension dim="2">kpoint</dimension>
    <dimension dim="3">spin</dimension>
    <field>eigene</field>
    <field>occ</field>
    <set>
     <set comment="spin 1">
      <set comment="kpoint 1">
       <r>  -29.1413    1.0000 </r>
       <r>  -13.6803    1.0000 </r>
       <r>  -11.4444    1.0000 </r>
       <r>  -11.4435    1.0000 </r>
       <r>   -9.6623    1.0000 </r>
       <r>   -6.6245    1.0000 </r>
       <r>   -6.1073    1.0000 </r>
       <r>   -6.1072    1.0000 </r>
       <r>   -6.1009    1.0000 </r>
       <r>   -5.7938    1.0000 </r>
       <r>   -5.7938    1.0000 </r>
       <r>   -5.7906    1.0000 </r>
       <r>   -5.7240    1.0000 </r>
       <r>   -5.6721    1.0000 </r>
       <r>   -5.6635    1.0000 </r>
       <r>   -5.6635    1.0000 </r>
       <r>   -5.6632    1.0000 </r>
       <r>   -5.6016    1.0000 </r>
       <r>   -5.5998    1.0000 </r>
       <r>   -5.5853    1.0000 </r>
       <r>   -5.5764    1.0000 </r>
       <r>   -5.5763    1.0000 </r>
       <r>   -5.5749    1.0000 </r>
       <r>   -5.5404    1.0000 </r>
       <r>   -5.5399    1.0000 </r>
       <r>   -5.5327    1.0000 </r>
       <r>   -5.5285    1.0000 </r>
       <r>   -5.5009    1.0000 </r>
       <r>   -5.5008    1.0000 </r>
       <r>   -5.4999    1.0000 </r>
       <r>   -5.4963    1.0000 </r>
       <r>   -5.4943    1.0000 </r>
       <r>   -5.4942    1.0000 </r>
       <r>   -5.4932    1.0000 </r>
       <r>   -5.4903    1.0000 </r>
       <r>   -5.4575    1.0000 </r>
       <r>   -5.4565    1.0000 </r>
       <r>   -5.4534    1.0000 </r>
       <r>   -5.4533    1.0000 </r>
       <r>   -5.4464    1.0000 </r>
       <r>   -5.4458    1.0000 </r>
       <r>   -5.4456    1.0000 </r>
       <r>   -5.4456    1.0000 </r>
       <r>   -5.4185    1.0000 </r>
       <r>   -5.4149    1.0000 </r>
       <r>   -5.4109    1.0000 </r>
       <r>   -5.4102    1.0000 </r>
       <r>   -5.4072    1.0000 </r>
       <r>   -5.4072    1.0000 </r>
       <r>   -5.4054    1.0000 </r>
       <r>   -5.4026    1.0000 </r>
       <r>   -5.3875    1.0000 </r>
       <r>   -5.3856    1.0000 </r>
       <r>   -5.3855    1.0000 </r>
       <r>   -5.3703    1.0000 </r>
       <r>   -5.3147    1.0000 </r>
       <r>   -5.3146    1.0000 </r>
       <r>   -5.3102    1.0000 </r>
       <r>   -5.3073    1.0000 </r>
       <r>   -5.2949    1.0000 </r>
       <r>   -5.2944    1.0000 </r>
       <r>   -5.2944    1.0000 </r>
       <r>   -5.2840    1.0000 </r>
       <r>   -5.2839    1.0000 </r>
       <r>   -5.2807    1.0000 </r>
       <r>   -5.2730    1.0000 </r>
       <r>   -5.2675    1.0000 </r>
       <r>   -5.2002    1.0000 </r>
       <r>   -5.2000    1.0000 </r>
       <r>   -5.1967    1.0000 </r>
       <r>   -5.1922    1.0000 </r>
       <r>   -5.1593    1.0000 </r>
       <r>   -5.1578    1.0000 </r>
       <r>   -5.1577    1.0000 </r>
       <r>   -5.1549    1.0000 </r>
       <r>   -5.1515    1.0000 </r>
       <r>   -5.1461    1.0000 </r>
       <r>   -5.1458    1.0000 </r>
       <r>   -5.1435    1.0000 </r>
       <r>   -5.1255    1.0000 </r>
       <r>   -5.1043    1.0000 </r>
       <r>   -5.1026    1.0000 </r>
       <r>   -5.1022    1.0000 </r>
       <r>   -5.0951    1.0000 </r>
       <r>   -5.0860    1.0000 </r>
       <r>   -5.0858    1.0000 </r>
       <r>   -5.0805    1.0000 </r>
       <r>   -5.0532    1.0000 </r>
       <r>   -5.0528    1.0000 </r>
       <r>   -5.0407    1.0000 </r>
       <r>   -5.0365    1.0000 </r>
       <r>   -5.0350    1.0000 </r>
       <r>   -5.0340    1.0000 </r>
       <r>   -5.0289    1.0000 </r>
       <r>   -5.0288    1.0000 </r>
       <r>   -5.0260    1.0000 </r>
       <r>   -5.0260    1.0000 </r>
       <r>   -5.0049    1.0000 </r>
       <r>   -4.9963    1.0000 </r>
       <r>   -4.9961    1.0000 </r>
       <r>   -4.9839    1.0000 </r>
       <r>   -4.9834    1.0000 </r>
       <r>   -4.9834    1.0000 </r>
       <r>   -4.9772    1.0000 </r>
       <r>   -4.9771    1.0000 </r>
       <r>   -4.9689    1.0000 </r>
       <r>   -4.9589    1.0000 </r>
       <r>   -4.9577    1.0000 </r>
       <r>   -4.9577    1.0000 </r>
       <r>   -4.9526    1.0000 </r>
       <r>   -4.9466    1.0000 </r>
       <r>   -4.9459    1.0000 </r>
       <r>   -4.9442    1.0000 </r>
       <r>   -4.9353    1.0000 </r>
       <r>   -4.9327    1.0000 </r>
       <r>   -4.9326    1.0000 </r>
       <r>   -4.9173    1.0000 </r>
       <r>   -4.9050    1.0000 </r>
       <r>   -4.9036    1.0000 </r>
       <r>   -4.8952    1.0000 </r>
       <r>   -4.8952    1.0000 </r>
       <r>   -4.8951    1.0000 </r>
       <r>   -4.8865    1.0000 </r>
       <r>   -4.8848    1.0000 </r>
       <r>   -4.8798    1.0000 </r>
       <r>   -4.8798    1.0000 </r>
       <r>   -4.8406    1.0000 </r>
       <r>   -4.8403    1.0000 </r>
       <r>   -4.8324    1.0000 </r>
       <r>   -4.8263    1.0000 </r>
       <r>   -4.8208    1.0000 </r>
       <r>   -4.8188    1.0000 </r>
       <r>   -4.8097    1.0000 </r>
       <r>   -4.8096    1.0000 </r>
       <r>   -4.8081    1.0000 </r>
       <r>   -4.7857    0.9999 </r>
       <r>   -4.7842    0.9999 </r>
       <r>   -4.7730    0.9999 </r>
       <r>   -4.7696    0.9999 </r>
       <r>   -4.7670    0.9999 </r>
       <r>   -4.7661    0.9999 </r>
       <r>   -4.7375    0.9998 </r>
       <r>   -4.7154    0.9996 </r>
       <r>   -4.7154    0.9996 </r>
       <r>   -4.7142    0.9996 </r>
       <r>   -4.7091    0.9996 </r>
       <r>   -4.7083    0.9996 </r>
       <r>   -4.6949    0.9994 </r>
       <r>   -4.6941    0.9994 </r>
       <r>   -4.6849    0.9993 </r>
       <r>   -4.6722    0.9991 </r>
       <r>   -4.6603    0.9988 </r>
       <r>   -4.6586    0.9988 </r>
       <r>   -4.6538    0.9987 </r>
       <r>   -4.6538    0.9987 </r>
       <r>   -4.6515    0.9986 </r>
       <r>   -4.6502    0.9986 </r>
       <r>   -4.6502    0.9986 </r>
       <r>   -4.6383    0.9983 </r>
       <r>   -4.6332    0.9982 </r>
       <r>   -4.6318    0.9981 </r>
       <r>   -4.6297    0.9981 </r>
       <r>   -4.6282    0.9980 </r>
       <r>   -4.6280    0.9980 </r>
       <r>   -4.6231    0.9978 </r>
       <r>   -4.6231    0.9978 </r>
       <r>   -4.6204    0.9978 </r>
       <r>   -4.6188    0.9977 </r>
       <r>   -4.6075    0.9973 </r>
       <r>   -4.6056    0.9972 </r>
       <r>   -4.5994    0.9970 </r>
       <r>   -4.5988    0.9970 </r>
       <r>   -4.5845    0.9965 </r>
       <r>   -4.5748    0.9961 </r>
       <r>   -4.5748    0.9961 </r>
       <r>   -4.5720    0.9960 </r>
       <r>   -4.5710    0.9960 </r>
       <r>   -4.5646    0.9957 </r>
       <r>   -4.5634    0.9957 </r>
       <r>   -4.5634    0.9957 </r>
       <r>   -4.5505    0.9953 </r>
       <r>   -4.5348    0.9951 </r>
       <r>   -4.5309    0.9951 </r>
       <r>   -4.5309    0.9951 </r>
       <r>   -4.5296    0.9951 </r>
       <r>   -4.5286    0.9951 </r>
       <r>   -4.5286    0.9951 </r>
       <r>   -4.5284    0.9951 </r>
       <r>   -4.5262    0.9951 </r>
       <r>   -4.5261    0.9951 </r>
       <r>   -4.4883    0.9969 </r>
       <r>   -4.4852    0.9972 </r>
       <r>   -4.4851    0.9972 </r>
       <r>   -4.4811    0.9977 </r>
       <r>   -4.4810    0.9977 </r>
       <r>   -4.4684    0.9995 </r>
       <r>   -4.4586    1.0014 </r>
       <r>   -4.4585    1.0014 </r>
       <r>   -4.4548    1.0023 </r>
       <r>   -4.4460    1.0045 </r>
       <r>   -4.4454    1.0046 </r>
       <r>   -4.4388    1.0065 </r>
       <r>   -4.4343    1.0079 </r>
       <r>   -4.4343    1.0080 </r>
       <r>   -4.4267    1.0105 </r>
       <r>   -4.4259    1.0108 </r>
       <r>   -4.4259    1.0108 </r>
       <r>   -4.4240    1.0115 </r>
       <r>   -4.4240    1.0115 </r>
       <r>   -4.4166    1.0143 </r>
       <r>   -4.4020    1.0206 </r>
       <r>   -4.3899    1.0262 </r>
       <r>   -4.3859    1.0281 </r>
       <r>   -4.3858    1.0281 </r>
       <r>   -4.3852    1.0284 </r>
       <r>   -4.3800    1.0309 </r>
       <r>   -4.3783    1.0317 </r>
       <r>   -4.3782    1.0318 </r>
       <r>   -4.3760    1.0328 </r>
       <r>   -4.3565    1.0418 </r>
       <r>   -4.3563    1.0419 </r>
       <r>   -4.3363    1.0489 </r>
       <r>   -4.3257    1.0511 </r>
       <r>   -4.3254    1.0511 </r>
       <r>   -4.3184    1.0516 </r>
       <r>   -4.3159    1.0516 </r>
       <r>   -4.3147    1.0516 </r>
       <r>   -4.3137    1.0515 </r>
       <r>   -4.3137    1.0515 </r>
       <r>   -4.3100    1.0511 </r>
       <r>   -4.3063    1.0505 </r>
       <r>   -4.3062    1.0505 </r>
       <r>   -4.3018    1.0493 </r>
       <r>   -4.3000    1.0488 </r>
       <r>   -4.2989    1.0484 </r>
       <r>   -4.2980    1.0480 </r>
       <r>   -4.2980    1.0480 </r>
       <r>   -4.2970    1.0476 </r>
       <r>   -4.2940    1.0463 </r>
       <r>   -4.2940    1.0463 </r>
       <r>   -4.2811    1.0378 </r>
       <r>   -4.2772    1.0342 </r>
       <r>   -4.2706    1.0272 </r>
       <r>   -4.2705    1.0271 </r>
       <r>   -4.2631    1.0175 </r>
       <r>   -4.2607    1.0141 </r>
       <r>   -4.2607    1.0141 </r>
       <r>   -4.2602    1.0133 </r>
       <r>   -4.2549    1.0049 </r>
       <r>   -4.2479    0.9920 </r>
       <r>   -4.2399    0.9751 </r>
       <r>   -4.2338    0.9605 </r>
       <r>   -4.2337    0.9603 </r>
       <r>   -4.2332    0.9590 </r>
       <r>   -4.2265    0.9414 </r>
       <r>   -4.2265    0.9414 </r>
       <r>   -4.2263    0.9406 </r>
       <r>   -4.2233    0.9322 </r>
       <r>   -4.2202    0.9231 </r>
       <r>   -4.2202    0.9231 </r>
       <r>   -4.2145    0.9051 </r>
       <r>   -4.2131    0.9007 </r>
       <r>   -4.2131    0.9007 </r>
       <r>   -4.2129    0.9001 </r>
       <r>   -4.2101    0.8906 </r>
       <r>   -4.1983    0.8476 </r>
       <r>   -4.1950    0.8350 </r>
       <r>   -4.1950    0.8348 </r>
       <r>   -4.1948    0.8342 </r>
       <r>   -4.1919    0.8223 </r>
       <r>   -4.1908    0.8181 </r>
       <r>   -4.1868    0.8014 </r>
       <r>   -4.1703    0.7277 </r>
       <r>   -4.1701    0.7265 </r>
       <r>   -4.1687    0.7199 </r>
       <r>   -4.1589    0.6726 </r>
       <r>   -4.1589    0.6725 </r>
       <r>   -4.1528    0.6421 </r>
       <r>   -4.1456    0.6050 </r>
       <r>   -4.1455    0.6047 </r>
       <r>   -4.1450    0.6021 </r>
       <r>   -4.1312    0.5299 </r>
       <r>   -4.1077    0.4061 </r>
       <r>   -4.1064    0.3994 </r>
       <r>   -4.1064    0.3992 </r>
       <r>   -4.1017    0.3750 </r>
       <r>   -4.0917    0.3247 </r>
       <r>   -4.0871    0.3020 </r>
       <r>   -4.0650    0.2012 </r>
       <r>   -3.9425   -0.0510 </r>
       <r>   -3.8760   -0.0333 </r>
       <r>   -3.7965   -0.0023 </r>
       <r>   -3.7963   -0.0022 </r>
       <r>   -3.7960   -0.0022 </r>
       <r>   -3.4694    0.0001 </r>
       <r>   -3.4694    0.0001 </r>
       <r>   -3.4091    0.0000 </r>
       <r>   -3.0350    0.0000 </r>
       <r>   -3.0350    0.0000 </r>
       <r>   -2.9973    0.0000 </r>
       <r>   -2.9914    0.0000 </r>
       <r>   -2.9907    0.0000 </r>
       <r>   -2.9906    0.0000 </r>
       <r>   -2.9071    0.0000 </r>
       <r>   -2.8434    0.0000 </r>
       <r>   -2.5370    0.0000 </r>
       <r>   -2.5363    0.0000 </r>
       <r>   -2.4963    0.0000 </r>
       <r>   -2.2463    0.0000 </r>
       <r>   -2.1056    0.0000 </r>
       <r>   -2.1052    0.0000 </r>
       <r>   -2.0948    0.0000 </r>
       <r>   -1.9317    0.0000 </r>
       <r>   -1.9311    0.0000 </r>
       <r>   -1.8599    0.0000 </r>
       <r>   -1.8340    0.0000 </r>
       <r>   -1.8269    0.0000 </r>
       <r>   -1.7624    0.0000 </r>
       <r>   -1.7615    0.0000 </r>
       <r>   -1.7025    0.0000 </r>
       <r>   -1.6207    0.0000 </r>
       <r>   -1.5289    0.0000 </r>
       <r>   -1.4914    0.0000 </r>
       <r>   -1.4641    0.0000 </r>
       <r>   -1.4620    0.0000 </r>
       <r>   -1.1333    0.0000 </r>
       <r>   -1.0741    0.0000 </r>
       <r>   -0.9899    0.0000 </r>
       <r>   -0.9644    0.0000 </r>
       <r>   -0.9634    0.0000 </r>
       <r>   -0.9441    0.0000 </r>
       <r>   -0.9214    0.0000 </r>
       <r>   -0.9064    0.0000 </r>
       <r>   -0.8712    0.0000 </r>
       <r>   -0.7768    0.0000 </r>
       <r>   -0.5655    0.0000 </r>
      </set>
     </set>
    </set>
   </array>
  </eigenvalues>
  <separator name="orbital magnetization" >
   <v name="MAGDIPOLOUT">      0.00000000      0.00000000      0.00000000</v>
  </separator>
  <dos>
   <i name="efermi">     -4.12558056 </i>
   <total>
    <array>
     <dimension dim="1">gridpoints</dimension>
     <dimension dim="2">spin</dimension>
     <field>energy</field>
     <field>total</field>
     <field>integrated</field>
     <set>
      <set comment="spin 1">
       <r>   -31.1413     0.0000     0.0000 </r>
       <r>   -31.0327     0.0000     0.0000 </r>
       <r>   -30.9241     0.0000     0.0000 </r>
       <r>   -30.8155     0.0000     0.0000 </r>
       <r>   -30.7069     0.0000     0.0000 </r>
       <r>   -30.5983     0.0000     0.0000 </r>
       <r>   -30.4897     0.0000     0.0000 </r>
       <r>   -30.3812     0.0000     0.0000 </r>
       <r>   -30.2726     0.0000     0.0000 </r>
       <r>   -30.1640     0.0000     0.0000 </r>
       <r>   -30.0554     0.0000     0.0000 </r>
       <r>   -29.9468     0.0000     0.0000 </r>
       <r>   -29.8382     0.0004     0.0000 </r>
       <r>   -29.7296     0.0067     0.0008 </r>
       <r>   -29.6210     0.0437     0.0055 </r>
       <r>   -29.5125     0.0205     0.0077 </r>
       <r>   -29.4039    -0.5684    -0.0540 </r>
       <r>   -29.2953    -0.1744    -0.0729 </r>
       <r>   -29.1867     5.6258     0.5380 </r>
       <r>   -29.0781     9.9536     1.6188 </r>
       <r>   -28.9695     4.3903     2.0955 </r>
       <r>   -28.8609    -0.5325     2.0377 </r>
       <r>   -28.7524    -0.4343     1.9905 </r>
       <r>   -28.6438     0.0476     1.9957 </r>
       <r>   -28.5352     0.0349     1.9995 </r>
       <r>   -28.4266     0.0045     2.0000 </r>
       <r>   -28.3180     0.0002     2.0000 </r>
       <r>   -28.2094     0.0000     2.0000 </r>
       <r>   -28.1008     0.0000     2.0000 </r>
       <r>   -27.9923     0.0000     2.0000 </r>
       <r>   -27.8837     0.0000     2.0000 </r>
       <r>   -27.7751     0.0000     2.0000 </r>
       <r>   -27.6665     0.0000     2.0000 </r>
       <r>   -27.5579     0.0000     2.0000 </r>
       <r>   -27.4493     0.0000     2.0000 </r>
       <r>   -27.3407     0.0000     2.0000 </r>
       <r>   -27.2322     0.0000     2.0000 </r>
       <r>   -27.1236     0.0000     2.0000 </r>
       <r>   -27.0150     0.0000     2.0000 </r>
       <r>   -26.9064     0.0000     2.0000 </r>
       <r>   -26.7978     0.0000     2.0000 </r>
       <r>   -26.6892     0.0000     2.0000 </r>
       <r>   -26.5806     0.0000     2.0000 </r>
       <r>   -26.4721     0.0000     2.0000 </r>
       <r>   -26.3635     0.0000     2.0000 </r>
       <r>   -26.2549     0.0000     2.0000 </r>
       <r>   -26.1463     0.0000     2.0000 </r>
       <r>   -26.0377     0.0000     2.0000 </r>
       <r>   -25.9291     0.0000     2.0000 </r>
       <r>   -25.8205     0.0000     2.0000 </r>
       <r>   -25.7120     0.0000     2.0000 </r>
       <r>   -25.6034     0.0000     2.0000 </r>
       <r>   -25.4948     0.0000     2.0000 </r>
       <r>   -25.3862     0.0000     2.0000 </r>
       <r>   -25.2776     0.0000     2.0000 </r>
       <r>   -25.1690     0.0000     2.0000 </r>
       <r>   -25.0604     0.0000     2.0000 </r>
       <r>   -24.9518     0.0000     2.0000 </r>
       <r>   -24.8433     0.0000     2.0000 </r>
       <r>   -24.7347     0.0000     2.0000 </r>
       <r>   -24.6261     0.0000     2.0000 </r>
       <r>   -24.5175     0.0000     2.0000 </r>
       <r>   -24.4089     0.0000     2.0000 </r>
       <r>   -24.3003     0.0000     2.0000 </r>
       <r>   -24.1917     0.0000     2.0000 </r>
       <r>   -24.0832     0.0000     2.0000 </r>
       <r>   -23.9746     0.0000     2.0000 </r>
       <r>   -23.8660     0.0000     2.0000 </r>
       <r>   -23.7574     0.0000     2.0000 </r>
       <r>   -23.6488     0.0000     2.0000 </r>
       <r>   -23.5402     0.0000     2.0000 </r>
       <r>   -23.4316     0.0000     2.0000 </r>
       <r>   -23.3231     0.0000     2.0000 </r>
       <r>   -23.2145     0.0000     2.0000 </r>
       <r>   -23.1059     0.0000     2.0000 </r>
       <r>   -22.9973     0.0000     2.0000 </r>
       <r>   -22.8887     0.0000     2.0000 </r>
       <r>   -22.7801     0.0000     2.0000 </r>
       <r>   -22.6715     0.0000     2.0000 </r>
       <r>   -22.5630     0.0000     2.0000 </r>
       <r>   -22.4544     0.0000     2.0000 </r>
       <r>   -22.3458     0.0000     2.0000 </r>
       <r>   -22.2372     0.0000     2.0000 </r>
       <r>   -22.1286     0.0000     2.0000 </r>
       <r>   -22.0200     0.0000     2.0000 </r>
       <r>   -21.9114     0.0000     2.0000 </r>
       <r>   -21.8029     0.0000     2.0000 </r>
       <r>   -21.6943     0.0000     2.0000 </r>
       <r>   -21.5857     0.0000     2.0000 </r>
       <r>   -21.4771     0.0000     2.0000 </r>
       <r>   -21.3685     0.0000     2.0000 </r>
       <r>   -21.2599     0.0000     2.0000 </r>
       <r>   -21.1513     0.0000     2.0000 </r>
       <r>   -21.0428     0.0000     2.0000 </r>
       <r>   -20.9342     0.0000     2.0000 </r>
       <r>   -20.8256     0.0000     2.0000 </r>
       <r>   -20.7170     0.0000     2.0000 </r>
       <r>   -20.6084     0.0000     2.0000 </r>
       <r>   -20.4998     0.0000     2.0000 </r>
       <r>   -20.3912     0.0000     2.0000 </r>
       <r>   -20.2827     0.0000     2.0000 </r>
       <r>   -20.1741     0.0000     2.0000 </r>
       <r>   -20.0655     0.0000     2.0000 </r>
       <r>   -19.9569     0.0000     2.0000 </r>
       <r>   -19.8483     0.0000     2.0000 </r>
       <r>   -19.7397     0.0000     2.0000 </r>
       <r>   -19.6311     0.0000     2.0000 </r>
       <r>   -19.5225     0.0000     2.0000 </r>
       <r>   -19.4140     0.0000     2.0000 </r>
       <r>   -19.3054     0.0000     2.0000 </r>
       <r>   -19.1968     0.0000     2.0000 </r>
       <r>   -19.0882     0.0000     2.0000 </r>
       <r>   -18.9796     0.0000     2.0000 </r>
       <r>   -18.8710     0.0000     2.0000 </r>
       <r>   -18.7624     0.0000     2.0000 </r>
       <r>   -18.6539     0.0000     2.0000 </r>
       <r>   -18.5453     0.0000     2.0000 </r>
       <r>   -18.4367     0.0000     2.0000 </r>
       <r>   -18.3281     0.0000     2.0000 </r>
       <r>   -18.2195     0.0000     2.0000 </r>
       <r>   -18.1109     0.0000     2.0000 </r>
       <r>   -18.0023     0.0000     2.0000 </r>
       <r>   -17.8938     0.0000     2.0000 </r>
       <r>   -17.7852     0.0000     2.0000 </r>
       <r>   -17.6766     0.0000     2.0000 </r>
       <r>   -17.5680     0.0000     2.0000 </r>
       <r>   -17.4594     0.0000     2.0000 </r>
       <r>   -17.3508     0.0000     2.0000 </r>
       <r>   -17.2422     0.0000     2.0000 </r>
       <r>   -17.1337     0.0000     2.0000 </r>
       <r>   -17.0251     0.0000     2.0000 </r>
       <r>   -16.9165     0.0000     2.0000 </r>
       <r>   -16.8079     0.0000     2.0000 </r>
       <r>   -16.6993     0.0000     2.0000 </r>
       <r>   -16.5907     0.0000     2.0000 </r>
       <r>   -16.4821     0.0000     2.0000 </r>
       <r>   -16.3736     0.0000     2.0000 </r>
       <r>   -16.2650     0.0000     2.0000 </r>
       <r>   -16.1564     0.0000     2.0000 </r>
       <r>   -16.0478     0.0000     2.0000 </r>
       <r>   -15.9392     0.0000     2.0000 </r>
       <r>   -15.8306     0.0000     2.0000 </r>
       <r>   -15.7220     0.0000     2.0000 </r>
       <r>   -15.6135     0.0000     2.0000 </r>
       <r>   -15.5049     0.0000     2.0000 </r>
       <r>   -15.3963     0.0000     2.0000 </r>
       <r>   -15.2877     0.0000     2.0000 </r>
       <r>   -15.1791     0.0000     2.0000 </r>
       <r>   -15.0705     0.0000     2.0000 </r>
       <r>   -14.9619     0.0000     2.0000 </r>
       <r>   -14.8534     0.0000     2.0000 </r>
       <r>   -14.7448     0.0000     2.0000 </r>
       <r>   -14.6362     0.0000     2.0000 </r>
       <r>   -14.5276     0.0000     2.0000 </r>
       <r>   -14.4190     0.0001     2.0000 </r>
       <r>   -14.3104     0.0025     2.0003 </r>
       <r>   -14.2018     0.0243     2.0029 </r>
       <r>   -14.0932     0.0629     2.0098 </r>
       <r>   -13.9847    -0.2630     1.9812 </r>
       <r>   -13.8761    -0.7753     1.8970 </r>
       <r>   -13.7675     2.8006     2.2011 </r>
       <r>   -13.6589     9.4256     3.2246 </r>
       <r>   -13.5503     7.2503     4.0119 </r>
       <r>   -13.4417     0.5978     4.0768 </r>
       <r>   -13.3331    -0.7294     3.9976 </r>
       <r>   -13.2246    -0.0454     3.9927 </r>
       <r>   -13.1160     0.0554     3.9987 </r>
       <r>   -13.0074     0.0112     3.9999 </r>
       <r>   -12.8988     0.0008     4.0000 </r>
       <r>   -12.7902     0.0000     4.0000 </r>
       <r>   -12.6816     0.0000     4.0000 </r>
       <r>   -12.5730     0.0000     4.0000 </r>
       <r>   -12.4645     0.0000     4.0000 </r>
       <r>   -12.3559     0.0000     4.0000 </r>
       <r>   -12.2473     0.0000     4.0000 </r>
       <r>   -12.1387     0.0009     4.0001 </r>
       <r>   -12.0301     0.0141     4.0016 </r>
       <r>   -11.9215     0.0897     4.0114 </r>
       <r>   -11.8129     0.0319     4.0148 </r>
       <r>   -11.7044    -1.1695     3.8878 </r>
       <r>   -11.5958    -0.2354     3.8623 </r>
       <r>   -11.4872    11.5588     5.1174 </r>
       <r>   -11.3786    19.8599     7.2739 </r>
       <r>   -11.2700     8.4770     8.1944 </r>
       <r>   -11.1614    -1.1313     8.0716 </r>
       <r>   -11.0528    -0.8355     7.9808 </r>
       <r>   -10.9443     0.0997     7.9917 </r>
       <r>   -10.8357     0.0678     7.9990 </r>
       <r>   -10.7271     0.0086     7.9999 </r>
       <r>   -10.6185     0.0005     8.0000 </r>
       <r>   -10.5099     0.0000     8.0000 </r>
       <r>   -10.4013     0.0001     8.0000 </r>
       <r>   -10.2927     0.0025     8.0003 </r>
       <r>   -10.1842     0.0242     8.0029 </r>
       <r>   -10.0756     0.0630     8.0098 </r>
       <r>    -9.9670    -0.2608     7.9814 </r>
       <r>    -9.8584    -0.7769     7.8971 </r>
       <r>    -9.7498     2.7806     8.1990 </r>
       <r>    -9.6412     9.4146     9.2213 </r>
       <r>    -9.5326     7.2709    10.0108 </r>
       <r>    -9.4241     0.6105    10.0771 </r>
       <r>    -9.3155    -0.7312     9.9977 </r>
       <r>    -9.2069    -0.0466     9.9927 </r>
       <r>    -9.0983     0.0555     9.9987 </r>
       <r>    -8.9897     0.0112     9.9999 </r>
       <r>    -8.8811     0.0008    10.0000 </r>
       <r>    -8.7725     0.0000    10.0000 </r>
       <r>    -8.6639     0.0000    10.0000 </r>
       <r>    -8.5554     0.0000    10.0000 </r>
       <r>    -8.4468     0.0000    10.0000 </r>
       <r>    -8.3382     0.0000    10.0000 </r>
       <r>    -8.2296     0.0000    10.0000 </r>
       <r>    -8.1210     0.0000    10.0000 </r>
       <r>    -8.0124     0.0000    10.0000 </r>
       <r>    -7.9038     0.0000    10.0000 </r>
       <r>    -7.7953     0.0000    10.0000 </r>
       <r>    -7.6867     0.0000    10.0000 </r>
       <r>    -7.5781     0.0000    10.0000 </r>
       <r>    -7.4695     0.0000    10.0000 </r>
       <r>    -7.3609     0.0001    10.0000 </r>
       <r>    -7.2523     0.0027    10.0003 </r>
       <r>    -7.1437     0.0252    10.0030 </r>
       <r>    -7.0352     0.0623    10.0098 </r>
       <r>    -6.9266    -0.2777     9.9797 </r>
       <r>    -6.8180    -0.7622     9.8969 </r>
       <r>    -6.7094     2.9547    10.2177 </r>
       <r>    -6.6008     9.6065    11.2609 </r>
       <r>    -6.4922     7.2435    12.0474 </r>
       <r>    -6.3836    -0.8117    11.9593 </r>
       <r>    -6.2751    -2.0573    11.7359 </r>
       <r>    -6.1665    13.8514    13.2399 </r>
       <r>    -6.0579    28.9296    16.3813 </r>
       <r>    -5.9493    14.5539    17.9616 </r>
       <r>    -5.8407    10.6770    19.1210 </r>
       <r>    -5.7321    40.4133    23.5093 </r>
       <r>    -5.6235   101.5368    34.5348 </r>
       <r>    -5.5150   221.4211    58.5780 </r>
       <r>    -5.4064   309.9963    92.2393 </r>
       <r>    -5.2978   261.7336   120.6599 </r>
       <r>    -5.1892   202.8766   142.6895 </r>
       <r>    -5.0806   262.0450   171.1439 </r>
       <r>    -4.9720   359.2688   210.1554 </r>
       <r>    -4.8634   352.1069   248.3893 </r>
       <r>    -4.7549   293.3043   280.2381 </r>
       <r>    -4.6463   345.7755   317.7844 </r>
       <r>    -4.5377   419.2359   363.3076 </r>
       <r>    -4.4291   416.2330   408.5047 </r>
       <r>    -4.3205   480.0315   460.6294 </r>
       <r>    -4.2119   563.6531   521.8342 </r>
       <r>    -4.1033   411.6032   566.5286 </r>
       <r>    -3.9948   128.9028   580.5256 </r>
       <r>    -3.8862    13.4456   581.9856 </r>
       <r>    -3.7776    29.8359   585.2254 </r>
       <r>    -3.6690    22.9763   587.7203 </r>
       <r>    -3.5604     7.2516   588.5077 </r>
       <r>    -3.4518    22.6062   590.9624 </r>
       <r>    -3.3432    24.3496   593.6064 </r>
       <r>    -3.2346     1.4106   593.7596 </r>
       <r>    -3.1261     3.7337   594.1650 </r>
       <r>    -3.0175    47.1381   599.2836 </r>
       <r>    -2.9089    66.0495   606.4556 </r>
       <r>    -2.8003    30.8258   609.8029 </r>
       <r>    -2.6917     1.8593   610.0048 </r>
       <r>    -2.5831    11.7845   611.2844 </r>
       <r>    -2.4745    28.3213   614.3597 </r>
       <r>    -2.3660    15.9254   616.0890 </r>
       <r>    -2.2574     6.8986   616.8381 </r>
       <r>    -2.1488    21.8281   619.2083 </r>
       <r>    -2.0402    32.0861   622.6924 </r>
       <r>    -1.9316    35.7493   626.5743 </r>
       <r>    -1.8230    51.6956   632.1877 </r>
       <r>    -1.7144    51.7059   637.8022 </r>
       <r>    -1.6059    35.3342   641.6390 </r>
       <r>    -1.4973    37.9450   645.7593 </r>
       <r>    -1.3887    33.3658   649.3824 </r>
       <r>    -1.2801     7.1502   650.1588 </r>
       <r>    -1.1715     1.0965   650.2778 </r>
       <r>    -1.0629    25.9166   653.0920 </r>
       <r>    -0.9543    62.1008   659.8353 </r>
       <r>    -0.8458    64.5731   666.8470 </r>
       <r>    -0.7372    27.7446   669.8597 </r>
       <r>    -0.6286     6.6380   670.5805 </r>
       <r>    -0.5200     8.1448   671.4649 </r>
       <r>    -0.4114     5.3354   672.0442 </r>
       <r>    -0.3028     0.0102   672.0454 </r>
       <r>    -0.1942    -0.4985   671.9912 </r>
       <r>    -0.0857     0.0295   671.9944 </r>
       <r>     0.0229     0.0442   671.9992 </r>
       <r>     0.1315     0.0068   672.0000 </r>
       <r>     0.2401     0.0004   672.0000 </r>
       <r>     0.3487     0.0000   672.0000 </r>
       <r>     0.4573     0.0000   672.0000 </r>
       <r>     0.5659     0.0000   672.0000 </r>
       <r>     0.6744     0.0000   672.0000 </r>
       <r>     0.7830     0.0000   672.0000 </r>
       <r>     0.8916     0.0000   672.0000 </r>
       <r>     1.0002     0.0000   672.0000 </r>
       <r>     1.1088     0.0000   672.0000 </r>
       <r>     1.2174     0.0000   672.0000 </r>
       <r>     1.3260     0.0000   672.0000 </r>
       <r>     1.4345     0.0000   672.0000 </r>
      </set>
     </set>
    </array>
   </total>
  </dos>
 </calculation>
 <structure name="finalpos" >
  <crystal>
   <varray name="basis" >
    <v>      30.00000000       0.00000000       0.00000000 </v>
    <v>       0.00000000      30.00000000       0.00000000 </v>
    <v>       0.00000000       0.00000000      30.00000000 </v>
   </varray>
   <i name="volume">  27000.00000000 </i>
   <varray name="rec_basis" >
    <v>       0.03333333       0.00000000       0.00000000 </v>
    <v>       0.00000000       0.03333333       0.00000000 </v>
    <v>       0.00000000       0.00000000       0.03333333 </v>
   </varray>
  </crystal>
  <varray name="positions" >
   <v>       0.44576020       0.32826710       0.41691983 </v>
   <v>       0.67173288       0.55423978       0.41691983 </v>
   <v>       0.55423980       0.32826710       0.41691983 </v>
   <v>       0.32826712       0.55423978       0.41691983 </v>
   <v>       0.50000000       0.38250690       0.34021317 </v>
   <v>       0.50000000       0.38250690       0.65978680 </v>
   <v>       0.50000000       0.27609440       0.50000000 </v>
   <v>       0.27609443       0.49999998       0.50000000 </v>
   <v>       0.72390557       0.49999998       0.50000000 </v>
   <v>       0.50000000       0.72390555       0.50000000 </v>
   <v>       0.61195280       0.38804720       0.34167483 </v>
   <v>       0.61195280       0.38804720       0.65832513 </v>
   <v>       0.38804722       0.61195278       0.34167483 </v>
   <v>       0.38804722       0.61195278       0.65832513 </v>
   <v>       0.38804720       0.38804720       0.34167483 </v>
   <v>       0.38804720       0.38804720       0.65832513 </v>
   <v>       0.61195278       0.61195278       0.34167483 </v>
   <v>       0.61195278       0.61195278       0.65832513 </v>
   <v>       0.44576020       0.32826710       0.58308023 </v>
   <v>       0.67173288       0.55423978       0.58308023 </v>
   <v>       0.55791699       0.44208301       0.41809300 </v>
   <v>       0.32826705       0.44576024       0.41691983 </v>
   <v>       0.55423973       0.67173293       0.41691983 </v>
   <v>       0.55423980       0.32826710       0.58308023 </v>
   <v>       0.32826712       0.55423978       0.58308023 </v>
   <v>       0.67173295       0.44576024       0.41691983 </v>
   <v>       0.44576027       0.67173293       0.41691983 </v>
   <v>       0.44208301       0.44208301       0.41809300 </v>
   <v>       0.50000000       0.38416601       0.50000000 </v>
   <v>       0.61749315       0.50000005       0.34021317 </v>
   <v>       0.61749315       0.50000005       0.65978680 </v>
   <v>       0.38250685       0.50000005       0.34021317 </v>
   <v>       0.38250685       0.50000005       0.65978680 </v>
   <v>       0.38317830       0.38317830       0.50000000 </v>
   <v>       0.61682172       0.61682172       0.50000000 </v>
   <v>       0.61682170       0.38317830       0.50000000 </v>
   <v>       0.38317828       0.61682172       0.50000000 </v>
   <v>       0.50000000       0.50000000       0.33478917 </v>
   <v>       0.50000000       0.50000000       0.66521087 </v>
   <v>       0.32826705       0.44576024       0.58308023 </v>
   <v>       0.55423973       0.67173293       0.58308023 </v>
   <v>       0.55791699       0.44208301       0.58190703 </v>
   <v>       0.44208298       0.55791702       0.41809300 </v>
   <v>       0.44208301       0.44208301       0.58190703 </v>
   <v>       0.67173295       0.44576024       0.58308023 </v>
   <v>       0.44576027       0.67173293       0.58308023 </v>
   <v>       0.55791702       0.55791702       0.41809300 </v>
   <v>       0.38416599       0.50000002       0.50000000 </v>
   <v>       0.61583401       0.50000002       0.50000000 </v>
   <v>       0.50000000       0.61749319       0.34021317 </v>
   <v>       0.50000000       0.61749319       0.65978680 </v>
   <v>       0.50000000       0.50000000       0.50000000 </v>
   <v>       0.44208298       0.55791702       0.58190703 </v>
   <v>       0.55791702       0.55791702       0.58190703 </v>
   <v>       0.50000000       0.61583404       0.50000000 </v>
   <v>       0.49431210       0.49643567       0.74584447 </v>
   <v>       0.49344250       0.49589077       0.78343047 </v>
  </varray>
  <varray name="selective"  type="logical" >
   <v type="logical" >  F  F  F </v>
   <v type="logical" >  F  F  F </v>
   <v type="logical" >  F  F  F </v>
   <v type="logical" >  F  F  F </v>
   <v type="logical" >  F  F  F </v>
   <v type="logical" >  F  F  F </v>
   <v type="logical" >  F  F  F </v>
   <v type="logical" >  F  F  F </v>
   <v type="logical" >  F  F  F </v>
   <v type="logical" >  F  F  F </v>
   <v type="logical" >  F  F  F </v>
   <v type="logical" >  F  F  F </v>
   <v type="logical" >  F  F  F </v>
   <v type="logical" >  F  F  F </v>
   <v type="logical" >  F  F  F </v>
   <v type="logical" >  F  F  F </v>
   <v type="logical" >  F  F  F </v>
   <v type="logical" >  F  F  F </v>
   <v type="logical" >  F  F  F </v>
   <v type="logical" >  F  F  F </v>
   <v type="logical" >  F  F  F </v>
   <v type="logical" >  F  F  F </v>
   <v type="logical" >  F  F  F </v>
   <v type="logical" >  F  F  F </v>
   <v type="logical" >  F  F  F </v>
   <v type="logical" >  F  F  F </v>
   <v type="logical" >  F  F  F </v>
   <v type="logical" >  F  F  F </v>
   <v type="logical" >  F  F  F </v>
   <v type="logical" >  F  F  F </v>
   <v type="logical" >  F  F  F </v>
   <v type="logical" >  F  F  F </v>
   <v type="logical" >  F  F  F </v>
   <v type="logical" >  F  F  F </v>
   <v type="logical" >  F  F  F </v>
   <v type="logical" >  F  F  F </v>
   <v type="logical" >  F  F  F </v>
   <v type="logical" >  F  F  F </v>
   <v type="logical" >  F  F  F </v>
   <v type="logical" >  F  F  F </v>
   <v type="logical" >  F  F  F </v>
   <v type="logical" >  F  F  F </v>
   <v type="logical" >  F  F  F </v>
   <v type="logical" >  F  F  F </v>
   <v type="logical" >  F  F  F </v>
   <v type="logical" >  F  F  F </v>
   <v type="logical" >  F  F  F </v>
   <v type="logical" >  F  F  F </v>
   <v type="logical" >  F  F  F </v>
   <v type="logical" >  F  F  F </v>
   <v type="logical" >  F  F  F </v>
   <v type="logical" >  F  F  F </v>
   <v type="logical" >  F  F  F </v>
   <v type="logical" >  F  F  F </v>
   <v type="logical" >  F  F  F </v>
   <v type="logical" >  F  F  F </v>
   <v type="logical" >  F  F  F </v>
  </varray>
  <nose>
   <v>      -3.00000000       0.00000000       0.00010000       0.00010000 </v>
  </nose>
 </structure>
</modeling>
