<?xml version="1.0" encoding="ISO-8859-1"?>
<modeling>
 <generator>
  <i name="program" type="string">vasp </i>
  <i name="version" type="string">5.4.4.18Apr17-6-g9f103f2a35  </i>
  <i name="subversion" type="string">(build Sep 03 2018 23:53:05) complex            parallel </i>
  <i name="platform" type="string">LinuxIFC </i>
  <i name="date" type="string">2021 12 01 </i>
  <i name="time" type="string">22:04:28 </i>
 </generator>
 <incar>
  <i type="string" name="SYSTEM"> 6_Pd100_top_free_z(O)</i>
  <i type="int" name="ISTART">     0</i>
  <i type="string" name="PREC">normal   			! encut=max(enmax), ngx,y,z</i>
  <i type="string" name="ALGO"> Fast     			! Mix RMM-DIIS and Dav</i>
  <i type="logical" name="ADDGRID"> F  </i>
  <i type="int" name="ISPIN">     1</i>
  <i type="int" name="ICHARG">     2</i>
  <i type="int" name="NELM">   100</i>
  <i type="int" name="NELMIN">     6</i>
  <i type="int" name="IBRION">     2</i>
  <i name="EDIFF">      0.00010000</i>
  <i name="EDIFFG">     -0.05000000</i>
  <i type="int" name="NSW">     0</i>
  <i type="int" name="ISIF">     2</i>
  <i type="int" name="ISYM">     2</i>
  <i name="ENCUT">    400.00000000</i>
  <i type="string" name="LREAL"> Auto     			! Auto or A projection done</i>
  <i type="int" name="ISMEAR">     2</i>
  <i name="SIGMA">      0.20000000</i>
  <i type="logical" name="LWAVE"> F  </i>
  <i type="logical" name="LCHARG"> F  </i>
  <v type="int" name="KPOINT_BSE">    -1     0     0     0</v>
  <i type="int" name="MAXMEM"> 10000</i>
  <i type="int" name="NELM">   100</i>
  <i type="string" name="GGA"> RP         			! Revised PBE</i>
 </incar>
 <structure name="primitive_cell" >
  <crystal>
   <varray name="basis" >
    <v>      30.00000000       0.00000000       0.00000000 </v>
    <v>       0.00000000      30.00000000       0.00000000 </v>
    <v>       0.00000000       0.00000000      30.00000000 </v>
   </varray>
   <i name="volume">  27000.00000000 </i>
   <varray name="rec_basis" >
    <v>       0.03333333       0.00000000       0.00000000 </v>
    <v>       0.00000000       0.03333333       0.00000000 </v>
    <v>       0.00000000       0.00000000       0.03333333 </v>
   </varray>
  </crystal>
  <varray name="positions" >
   <v>       0.44576020       0.32826710       0.41691983 </v>
   <v>      -0.44576020       0.32826710       0.41691983 </v>
   <v>      -0.50000000       0.38250690       0.34021317 </v>
   <v>      -0.50000000       0.27609440      -0.50000000 </v>
   <v>       0.38804720       0.38804720       0.34167483 </v>
   <v>      -0.50000000       0.38416601      -0.50000000 </v>
   <v>       0.44208300       0.44208300       0.41809300 </v>
   <v>       0.38317830       0.38317830      -0.50000000 </v>
   <v>      -0.44208300       0.44208300       0.41809300 </v>
   <v>       0.44576020       0.32826710      -0.41691977 </v>
   <v>       0.32826705       0.44576024       0.41691983 </v>
   <v>      -0.38804720       0.38804720       0.34167483 </v>
   <v>      -0.38317830       0.38317830      -0.50000000 </v>
   <v>      -0.50000000      -0.50000000       0.33478917 </v>
   <v>      -0.50000000      -0.50000000      -0.50000000 </v>
   <v>      -0.44576020       0.32826710      -0.41691977 </v>
   <v>       0.38250685      -0.49999995       0.34021317 </v>
   <v>       0.44208300       0.44208300      -0.41809297 </v>
   <v>       0.38416599      -0.49999998      -0.50000000 </v>
   <v>      -0.44208300       0.44208300      -0.41809297 </v>
   <v>       0.44208298      -0.44208298       0.41809300 </v>
   <v>       0.32826705       0.44576024      -0.41691977 </v>
   <v>      -0.50000000       0.38250690      -0.34021320 </v>
   <v>       0.32826712      -0.44576022       0.41691983 </v>
   <v>      -0.38250685      -0.49999995       0.34021317 </v>
   <v>      -0.32826705       0.44576024       0.41691983 </v>
   <v>       0.27609443       0.49999998      -0.50000000 </v>
   <v>       0.38804720       0.38804720      -0.34167487 </v>
   <v>      -0.38416599      -0.49999998      -0.50000000 </v>
   <v>      -0.44208298      -0.44208298       0.41809300 </v>
   <v>       0.44208298      -0.44208298      -0.41809297 </v>
   <v>      -0.38804720       0.38804720      -0.34167487 </v>
   <v>       0.38804722      -0.38804722       0.34167483 </v>
   <v>       0.38250685      -0.49999995      -0.34021320 </v>
   <v>       0.32826712      -0.44576022      -0.41691977 </v>
   <v>      -0.32826705       0.44576024      -0.41691977 </v>
   <v>       0.50000000      -0.38250681       0.34021317 </v>
   <v>      -0.50000000      -0.38416596      -0.50000000 </v>
   <v>      -0.44208298      -0.44208298      -0.41809297 </v>
   <v>      -0.50000000      -0.50000000      -0.33478913 </v>
   <v>       0.38317828      -0.38317828      -0.50000000 </v>
   <v>      -0.32826712      -0.44576022       0.41691983 </v>
   <v>      -0.27609443       0.49999998      -0.50000000 </v>
   <v>      -0.38804722      -0.38804722       0.34167483 </v>
   <v>      -0.38250685      -0.49999995      -0.34021320 </v>
   <v>       0.44576027      -0.32826707       0.41691983 </v>
   <v>      -0.38317828      -0.38317828      -0.50000000 </v>
   <v>      -0.32826712      -0.44576022      -0.41691977 </v>
   <v>      -0.44576027      -0.32826707       0.41691983 </v>
   <v>       0.38804722      -0.38804722      -0.34167487 </v>
   <v>      -0.50000000      -0.38250681      -0.34021320 </v>
   <v>       0.44576027      -0.32826707      -0.41691977 </v>
   <v>      -0.30518177      -0.38869953      -0.48021427 </v>
   <v>      -0.44576027      -0.32826707      -0.41691977 </v>
   <v>      -0.50000000      -0.27609445       0.50000000 </v>
   <v>      -0.38804722      -0.38804722      -0.34167487 </v>
   <v>      -0.27266027      -0.37011987      -0.47691137 </v>
  </varray>
 </structure>
 <varray name="primitive_index" >
  <v type="int" >        1 </v>
  <v type="int" >        3 </v>
  <v type="int" >        5 </v>
  <v type="int" >        7 </v>
  <v type="int" >       15 </v>
  <v type="int" >       29 </v>
  <v type="int" >       28 </v>
  <v type="int" >       34 </v>
  <v type="int" >       21 </v>
  <v type="int" >       19 </v>
  <v type="int" >       22 </v>
  <v type="int" >       11 </v>
  <v type="int" >       36 </v>
  <v type="int" >       38 </v>
  <v type="int" >       52 </v>
  <v type="int" >       24 </v>
  <v type="int" >       32 </v>
  <v type="int" >       44 </v>
  <v type="int" >       48 </v>
  <v type="int" >       42 </v>
  <v type="int" >       43 </v>
  <v type="int" >       40 </v>
  <v type="int" >        6 </v>
  <v type="int" >        4 </v>
  <v type="int" >       30 </v>
  <v type="int" >       26 </v>
  <v type="int" >        8 </v>
  <v type="int" >       16 </v>
  <v type="int" >       49 </v>
  <v type="int" >       47 </v>
  <v type="int" >       53 </v>
  <v type="int" >       12 </v>
  <v type="int" >       13 </v>
  <v type="int" >       33 </v>
  <v type="int" >       25 </v>
  <v type="int" >       45 </v>
  <v type="int" >       50 </v>
  <v type="int" >       55 </v>
  <v type="int" >       54 </v>
  <v type="int" >       39 </v>
  <v type="int" >       37 </v>
  <v type="int" >        2 </v>
  <v type="int" >        9 </v>
  <v type="int" >       17 </v>
  <v type="int" >       31 </v>
  <v type="int" >       27 </v>
  <v type="int" >       35 </v>
  <v type="int" >       20 </v>
  <v type="int" >       23 </v>
  <v type="int" >       14 </v>
  <v type="int" >       51 </v>
  <v type="int" >       46 </v>
  <v type="int" >       56 </v>
  <v type="int" >       41 </v>
  <v type="int" >       10 </v>
  <v type="int" >       18 </v>
  <v type="int" >       57 </v>
 </varray>
 <kpoints>
  <generation param="Monkhorst-Pack">
   <v type="int" name="divisions">       1        1        1 </v>
   <v name="usershift">      0.00000000       0.00000000       0.00000000 </v>
   <v name="genvec1">      1.00000000       0.00000000       0.00000000 </v>
   <v name="genvec2">      0.00000000       1.00000000       0.00000000 </v>
   <v name="genvec3">      0.00000000       0.00000000       1.00000000 </v>
   <v name="shift">      0.00000000       0.00000000       0.00000000 </v>
  </generation>
  <varray name="kpointlist" >
   <v>       0.00000000       0.00000000       0.00000000 </v>
  </varray>
  <varray name="weights" >
   <v>       1.00000000 </v>
  </varray>
 </kpoints>
 <parameters>
  <separator name="general" >
   <i type="string" name="SYSTEM">6_Pd100_top_free_z(O)</i>
   <i type="logical" name="LCOMPAT"> F  </i>
  </separator>
  <separator name="electronic" >
   <i type="string" name="PREC">normal</i>
   <i name="ENMAX">    400.00000000</i>
   <i name="ENAUG">    644.87300000</i>
   <i name="EDIFF">      0.00010000</i>
   <i type="int" name="IALGO">    68</i>
   <i type="int" name="IWAVPR">    10</i>
   <i type="int" name="NBANDS">   336</i>
   <i name="NELECT">    560.00000000</i>
   <i type="int" name="TURBO">     0</i>
   <i type="int" name="IRESTART">     0</i>
   <i type="int" name="NREBOOT">     0</i>
   <i type="int" name="NMIN">     0</i>
   <i name="EREF">      0.00000000</i>
   <separator name="electronic smearing" >
    <i type="int" name="ISMEAR">     2</i>
    <i name="SIGMA">      0.20000000</i>
    <i name="KSPACING">      0.50000000</i>
    <i type="logical" name="KGAMMA"> T  </i>
   </separator>
   <separator name="electronic projectors" >
    <i type="logical" name="LREAL"> T  </i>
    <v name="ROPT">     -0.00050000     -0.00050000     -0.00050000</v>
    <i type="int" name="LMAXPAW">  -100</i>
    <i type="int" name="LMAXMIX">     2</i>
    <i type="logical" name="NLSPLINE"> F  </i>
   </separator>
   <separator name="electronic startup" >
    <i type="int" name="ISTART">     0</i>
    <i type="int" name="ICHARG">     2</i>
    <i type="int" name="INIWAV">     1</i>
   </separator>
   <separator name="electronic spin" >
    <i type="int" name="ISPIN">     1</i>
    <i type="logical" name="LNONCOLLINEAR"> F  </i>
    <v name="MAGMOM">      1.00000000      1.00000000      1.00000000      1.00000000      1.00000000      1.00000000      1.00000000      1.00000000      1.00000000      1.00000000      1.00000000      1.00000000      1.00000000      1.00000000      1.00000000      1.00000000      1.00000000      1.00000000      1.00000000      1.00000000
      1.00000000      1.00000000      1.00000000      1.00000000      1.00000000      1.00000000      1.00000000      1.00000000      1.00000000      1.00000000      1.00000000      1.00000000      1.00000000      1.00000000      1.00000000      1.00000000      1.00000000      1.00000000      1.00000000      1.00000000
      1.00000000      1.00000000      1.00000000      1.00000000      1.00000000      1.00000000      1.00000000      1.00000000      1.00000000      1.00000000      1.00000000      1.00000000      1.00000000      1.00000000      1.00000000      1.00000000      1.00000000</v>
    <i name="NUPDOWN">     -1.00000000</i>
    <i type="logical" name="LSORBIT"> F  </i>
    <v name="SAXIS">      0.00000000      0.00000000      1.00000000</v>
    <i type="logical" name="LSPIRAL"> F  </i>
    <v name="QSPIRAL">      0.00000000      0.00000000      0.00000000</v>
    <i type="logical" name="LZEROZ"> F  </i>
   </separator>
   <separator name="electronic exchange-correlation" >
    <i type="logical" name="LASPH"> F  </i>
    <i type="logical" name="LMETAGGA"> F  </i>
   </separator>
   <separator name="electronic convergence" >
    <i type="int" name="NELM">   100</i>
    <i type="int" name="NELMDL">    -5</i>
    <i type="int" name="NELMIN">     6</i>
    <i name="ENINI">    400.00000000</i>
    <separator name="electronic convergence detail" >
     <i type="logical" name="LDIAG"> T  </i>
     <i type="logical" name="LSUBROT"> F  </i>
     <i name="WEIMIN">      0.00000000</i>
     <i name="EBREAK">      0.00000007</i>
     <i name="DEPER">      0.30000000</i>
     <i type="int" name="NRMM">     4</i>
     <i name="TIME">      0.40000000</i>
    </separator>
   </separator>
   <separator name="electronic mixer" >
    <i name="AMIX">      0.40000000</i>
    <i name="BMIX">      1.00000000</i>
    <i name="AMIN">      0.10000000</i>
    <i name="AMIX_MAG">      1.60000000</i>
    <i name="BMIX_MAG">      1.00000000</i>
    <separator name="electronic mixer details" >
     <i type="int" name="IMIX">     4</i>
     <i type="logical" name="MIXFIRST"> F  </i>
     <i type="int" name="MAXMIX">   -45</i>
     <i name="WC">    100.00000000</i>
     <i type="int" name="INIMIX">     1</i>
     <i type="int" name="MIXPRE">     1</i>
     <i type="int" name="MREMOVE">     5</i>
    </separator>
   </separator>
   <separator name="electronic dipolcorrection" >
    <i type="logical" name="LDIPOL"> F  </i>
    <i type="logical" name="LMONO"> F  </i>
    <i type="int" name="IDIPOL">     0</i>
    <i name="EPSILON">      1.00000000</i>
    <v name="DIPOL">   -100.00000000   -100.00000000   -100.00000000</v>
    <i name="EFIELD">      0.00000000</i>
   </separator>
  </separator>
  <separator name="grids" >
   <i type="int" name="NGX">   150</i>
   <i type="int" name="NGY">   150</i>
   <i type="int" name="NGZ">   150</i>
   <i type="int" name="NGXF">   300</i>
   <i type="int" name="NGYF">   300</i>
   <i type="int" name="NGZF">   300</i>
   <i type="logical" name="ADDGRID"> F  </i>
  </separator>
  <separator name="ionic" >
   <i type="int" name="NSW">     0</i>
   <i type="int" name="IBRION">    -1</i>
   <i type="int" name="MDALGO">     0</i>
   <i type="int" name="ISIF">     2</i>
   <i name="PSTRESS">      0.00000000</i>
   <i name="EDIFFG">     -0.05000000</i>
   <i type="int" name="NFREE">     1</i>
   <i name="POTIM">      0.50000000</i>
   <i name="SMASS">     -3.00000000</i>
   <i name="SCALEE">      1.00000000</i>
  </separator>
  <separator name="ionic md" >
   <i name="TEBEG">      0.00010000</i>
   <i name="TEEND">      0.00010000</i>
   <i type="int" name="NBLOCK">     1</i>
   <i type="int" name="KBLOCK">     1</i>
   <i type="int" name="NPACO">   256</i>
   <i name="APACO">     16.00000000</i>
  </separator>
  <separator name="symmetry" >
   <i type="int" name="ISYM">     2</i>
   <i name="SYMPREC">      0.00001000</i>
  </separator>
  <separator name="dos" >
   <i type="int" name="LORBIT">     0</i>
   <v name="RWIGS">     -1.00000000     -1.00000000     -1.00000000</v>
   <i type="int" name="NEDOS">   301</i>
   <i name="EMIN">     10.00000000</i>
   <i name="EMAX">    -10.00000000</i>
   <i name="EFERMI">      0.00000000</i>
  </separator>
  <separator name="writing" >
   <i type="int" name="NWRITE">     2</i>
   <i type="logical" name="LWAVE"> F  </i>
   <i type="logical" name="LDOWNSAMPLE"> F  </i>
   <i type="logical" name="LCHARG"> F  </i>
   <i type="logical" name="LPARD"> F  </i>
   <i type="logical" name="LVTOT"> F  </i>
   <i type="logical" name="LVHAR"> F  </i>
   <i type="logical" name="LELF"> F  </i>
   <i type="logical" name="LOPTICS"> F  </i>
   <v name="STM">      0.00000000      0.00000000      0.00000000      0.00000000      0.00000000      0.00000000      0.00000000</v>
  </separator>
  <separator name="performance" >
   <i type="int" name="NPAR">     1</i>
   <i type="int" name="NSIM">     4</i>
   <i type="int" name="NBLK">    -1</i>
   <i type="logical" name="LPLANE"> T  </i>
   <i type="logical" name="LSCALAPACK"> T  </i>
   <i type="logical" name="LSCAAWARE"> F  </i>
   <i type="logical" name="LSCALU"> F  </i>
   <i type="logical" name="LASYNC"> F  </i>
   <i type="logical" name="LORBITALREAL"> F  </i>
  </separator>
  <separator name="miscellaneous" >
   <i type="int" name="IDIOT">     3</i>
   <i type="int" name="ISPECIAL">     0</i>
   <i type="logical" name="LMUSIC"> F  </i>
   <v name="POMASS">    106.42000000     12.01100000     16.00000000</v>
   <v name="DARWINR">      0.00000000      0.00000000      0.00000000</v>
   <v name="DARWINV">      1.00000000      1.00000000      1.00000000</v>
   <i type="logical" name="LCORR"> T  </i>
  </separator>
  <i type="logical" name="GGA_COMPAT"> T  </i>
  <i type="logical" name="LBERRY"> F  </i>
  <i type="int" name="ICORELEVEL">     0</i>
  <i type="logical" name="LDAU"> F  </i>
  <i type="int" name="I_CONSTRAINED_M">     0</i>
  <separator name="electronic exchange-correlation" >
   <i type="string" name="GGA">RP</i>
   <i type="int" name="VOSKOWN">     0</i>
   <i type="logical" name="LHFCALC"> F  </i>
   <i type="string" name="PRECFOCK"></i>
   <i type="logical" name="LSYMGRAD"> F  </i>
   <i type="logical" name="LHFONE"> F  </i>
   <i type="logical" name="LRHFCALC"> F  </i>
   <i type="logical" name="LTHOMAS"> F  </i>
   <i type="logical" name="LMODELHF"> F  </i>
   <i name="ENCUT4O">     -1.00000000</i>
   <i type="int" name="EXXOEP">     0</i>
   <i type="int" name="FOURORBIT">     0</i>
   <i name="AEXX">      0.00000000</i>
   <i name="HFALPHA">      0.00000000</i>
   <i name="MCALPHA">      0.00000000</i>
   <i name="ALDAX">      1.00000000</i>
   <i name="AGGAX">      1.00000000</i>
   <i name="ALDAC">      1.00000000</i>
   <i name="AGGAC">      1.00000000</i>
   <i type="int" name="NKREDX">     1</i>
   <i type="int" name="NKREDY">     1</i>
   <i type="int" name="NKREDZ">     1</i>
   <i type="logical" name="SHIFTRED"> F  </i>
   <i type="logical" name="ODDONLY"> F  </i>
   <i type="logical" name="EVENONLY"> F  </i>
   <i type="int" name="LMAXFOCK">     0</i>
   <i type="int" name="NMAXFOCKAE">     0</i>
   <i type="logical" name="LFOCKAEDFT"> F  </i>
   <i name="HFSCREEN">      0.00000000</i>
   <i name="HFSCREENC">      0.00000000</i>
   <i type="int" name="NBANDSGWLOW">     0</i>
  </separator>
  <separator name="vdW DFT" >
   <i type="logical" name="LUSE_VDW"> F  </i>
   <i name="Zab_VDW">     -0.84910000</i>
   <i name="PARAM1">      0.12340000</i>
   <i name="PARAM2">      1.00000000</i>
   <i name="PARAM3">      0.00000000</i>
  </separator>
  <separator name="model GW" >
   <i type="int" name="MODEL_GW">     0</i>
   <i name="MODEL_EPS0">    284.21052632</i>
   <i name="MODEL_ALPHA">      1.00000000</i>
  </separator>
  <separator name="linear response parameters" >
   <i type="logical" name="LEPSILON"> F  </i>
   <i type="logical" name="LRPA"> F  </i>
   <i type="logical" name="LNABLA"> F  </i>
   <i type="logical" name="LVEL"> F  </i>
   <i type="int" name="KINTER">     0</i>
   <i name="CSHIFT">      0.10000000</i>
   <i name="OMEGAMAX">     -1.00000000</i>
   <i name="DEG_THRESHOLD">      0.00200000</i>
   <i name="RTIME">     -0.10000000</i>
   <i name="WPLASMAI">      0.00000000</i>
   <v name="DFIELD">      0.00000000      0.00000000      0.00000000</v>
   <v name="WPLASMA">      0.00000000      0.00000000      0.00000000      0.00000000      0.00000000      0.00000000      0.00000000      0.00000000      0.00000000</v>
  </separator>
  <separator name="orbital magnetization" >
   <i type="logical" name="NUCIND"> F  </i>
   <v name="MAGPOS">      0.00000000      0.00000000      0.00000000</v>
   <i type="logical" name="LNICSALL"> T  </i>
   <i type="logical" name="ORBITALMAG"> F  </i>
   <i type="logical" name="LMAGBLOCH"> F  </i>
   <i type="logical" name="LCHIMAG"> F  </i>
   <i type="logical" name="LGAUGE"> T  </i>
   <i type="int" name="MAGATOM">     0</i>
   <v name="MAGDIPOL">      0.00000000      0.00000000      0.00000000</v>
   <v name="AVECCONST">      0.00000000      0.00000000      0.00000000</v>
  </separator>
  <separator name="response functions" >
   <i type="logical" name="LADDER"> F  </i>
   <i type="logical" name="LRPAFORCE"> F  </i>
   <i type="logical" name="LFXC"> F  </i>
   <i type="logical" name="LHARTREE"> T  </i>
   <i type="int" name="IBSE">     0</i>
   <v type="int" name="KPOINT">    -1     0     0     0</v>
   <i type="logical" name="LTCTE"> F  </i>
   <i type="logical" name="LTETE"> F  </i>
   <i type="logical" name="LTRIPLET"> F  </i>
   <i type="logical" name="LFXCEPS"> F  </i>
   <i type="logical" name="LFXHEG"> F  </i>
   <i type="int" name="NATURALO">     2</i>
   <i type="logical" name="L2ORDER"> F  </i>
   <i type="logical" name="LMP2LT"> F  </i>
   <i type="logical" name="LUSEW"> F  </i>
   <i name="ENCUTGW">     -2.00000000</i>
   <i name="ENCUTGWSOFT">     -2.00000000</i>
   <i name="ENCUTLF">     -1.00000000</i>
   <i type="int" name="LMAXMP2">    -1</i>
   <i name="SCISSOR">      0.00000000</i>
   <i type="int" name="NOMEGA">     0</i>
   <i type="int" name="NOMEGAR">     0</i>
   <i type="int" name="NBANDSGW">    -1</i>
   <i type="int" name="NBANDSO">    -1</i>
   <i type="int" name="NBANDSV">    -1</i>
   <i type="int" name="NELM">   100</i>
   <i type="int" name="NELMHF">     1</i>
   <i type="int" name="DIM">     3</i>
   <i type="int" name="ANTIRES">     0</i>
   <i name="OMEGAMAX">    -30.00000000</i>
   <i name="OMEGAMIN">    -30.00000000</i>
   <i name="OMEGATL">   -200.00000000</i>
   <i type="int" name="OMEGAGRID">   140</i>
   <i name="CSHIFT">     -0.10000000</i>
   <i type="logical" name="SELFENERGY"> F  </i>
   <i type="logical" name="LSPECTRAL"> F  </i>
   <i type="logical" name="LSPECTRALGW"> F  </i>
   <i type="logical" name="LSINGLES"> F  </i>
   <i type="logical" name="LFERMIGW"> F  </i>
   <i type="logical" name="ODDONLYGW"> F  </i>
   <i type="logical" name="EVENONLYGW"> F  </i>
   <i type="int" name="NKREDLFX">     1</i>
   <i type="int" name="NKREDLFY">     1</i>
   <i type="int" name="NKREDLFZ">     1</i>
   <i type="int" name="MAXMEM"> 10000</i>
   <i type="int" name="TELESCOPE">     0</i>
   <i type="int" name="TAUPAR">     1</i>
   <i type="int" name="OMEGAPAR">    -1</i>
   <i name="LAMBDA">      1.00000000</i>
  </separator>
  <separator name="External order field" >
   <i name="OFIELD_KAPPA">      0.00000000</i>
   <v name="OFIELD_K">      0.00000000      0.00000000      0.00000000</v>
   <i name="OFIELD_Q6_NEAR">      0.00000000</i>
   <i name="OFIELD_Q6_FAR">      0.00000000</i>
   <i name="OFIELD_A">      0.00000000</i>
  </separator>
 </parameters>
 <atominfo>
  <atoms>      57 </atoms>
  <types>       3 </types>
  <array name="atoms" >
   <dimension dim="1">ion</dimension>
   <field type="string">element</field>
   <field type="int">atomtype</field>
   <set>
    <rc><c>Pd</c><c>   1</c></rc>
    <rc><c>Pd</c><c>   1</c></rc>
    <rc><c>Pd</c><c>   1</c></rc>
    <rc><c>Pd</c><c>   1</c></rc>
    <rc><c>Pd</c><c>   1</c></rc>
    <rc><c>Pd</c><c>   1</c></rc>
    <rc><c>Pd</c><c>   1</c></rc>
    <rc><c>Pd</c><c>   1</c></rc>
    <rc><c>Pd</c><c>   1</c></rc>
    <rc><c>Pd</c><c>   1</c></rc>
    <rc><c>Pd</c><c>   1</c></rc>
    <rc><c>Pd</c><c>   1</c></rc>
    <rc><c>Pd</c><c>   1</c></rc>
    <rc><c>Pd</c><c>   1</c></rc>
    <rc><c>Pd</c><c>   1</c></rc>
    <rc><c>Pd</c><c>   1</c></rc>
    <rc><c>Pd</c><c>   1</c></rc>
    <rc><c>Pd</c><c>   1</c></rc>
    <rc><c>Pd</c><c>   1</c></rc>
    <rc><c>Pd</c><c>   1</c></rc>
    <rc><c>Pd</c><c>   1</c></rc>
    <rc><c>Pd</c><c>   1</c></rc>
    <rc><c>Pd</c><c>   1</c></rc>
    <rc><c>Pd</c><c>   1</c></rc>
    <rc><c>Pd</c><c>   1</c></rc>
    <rc><c>Pd</c><c>   1</c></rc>
    <rc><c>Pd</c><c>   1</c></rc>
    <rc><c>Pd</c><c>   1</c></rc>
    <rc><c>Pd</c><c>   1</c></rc>
    <rc><c>Pd</c><c>   1</c></rc>
    <rc><c>Pd</c><c>   1</c></rc>
    <rc><c>Pd</c><c>   1</c></rc>
    <rc><c>Pd</c><c>   1</c></rc>
    <rc><c>Pd</c><c>   1</c></rc>
    <rc><c>Pd</c><c>   1</c></rc>
    <rc><c>Pd</c><c>   1</c></rc>
    <rc><c>Pd</c><c>   1</c></rc>
    <rc><c>Pd</c><c>   1</c></rc>
    <rc><c>Pd</c><c>   1</c></rc>
    <rc><c>Pd</c><c>   1</c></rc>
    <rc><c>Pd</c><c>   1</c></rc>
    <rc><c>Pd</c><c>   1</c></rc>
    <rc><c>Pd</c><c>   1</c></rc>
    <rc><c>Pd</c><c>   1</c></rc>
    <rc><c>Pd</c><c>   1</c></rc>
    <rc><c>Pd</c><c>   1</c></rc>
    <rc><c>Pd</c><c>   1</c></rc>
    <rc><c>Pd</c><c>   1</c></rc>
    <rc><c>Pd</c><c>   1</c></rc>
    <rc><c>Pd</c><c>   1</c></rc>
    <rc><c>Pd</c><c>   1</c></rc>
    <rc><c>Pd</c><c>   1</c></rc>
    <rc><c>Pd</c><c>   1</c></rc>
    <rc><c>Pd</c><c>   1</c></rc>
    <rc><c>Pd</c><c>   1</c></rc>
    <rc><c>C </c><c>   2</c></rc>
    <rc><c>O </c><c>   3</c></rc>
   </set>
  </array>
  <array name="atomtypes" >
   <dimension dim="1">type</dimension>
   <field type="int">atomspertype</field>
   <field type="string">element</field>
   <field>mass</field>
   <field>valence</field>
   <field type="string">pseudopotential</field>
   <set>
    <rc><c>  55</c><c>Pd</c><c>    106.42000000</c><c>     10.00000000</c><c>  PAW_PBE Pd 04Jan2005                  </c></rc>
    <rc><c>   1</c><c>C </c><c>     12.01100000</c><c>      4.00000000</c><c>  PAW_PBE C 08Apr2002                   </c></rc>
    <rc><c>   1</c><c>O </c><c>     16.00000000</c><c>      6.00000000</c><c>  PAW_PBE O 08Apr2002                   </c></rc>
   </set>
  </array>
 </atominfo>
 <structure name="initialpos" >
  <crystal>
   <varray name="basis" >
    <v>      30.00000000       0.00000000       0.00000000 </v>
    <v>       0.00000000      30.00000000       0.00000000 </v>
    <v>       0.00000000       0.00000000      30.00000000 </v>
   </varray>
   <i name="volume">  27000.00000000 </i>
   <varray name="rec_basis" >
    <v>       0.03333333       0.00000000       0.00000000 </v>
    <v>       0.00000000       0.03333333       0.00000000 </v>
    <v>       0.00000000       0.00000000       0.03333333 </v>
   </varray>
  </crystal>
  <varray name="positions" >
   <v>       0.44576020       0.32826710       0.41691983 </v>
   <v>       0.67173288       0.55423978       0.41691983 </v>
   <v>       0.55423980       0.32826710       0.41691983 </v>
   <v>       0.32826712       0.55423978       0.41691983 </v>
   <v>       0.50000000       0.38250690       0.34021317 </v>
   <v>       0.50000000       0.38250690       0.65978680 </v>
   <v>       0.50000000       0.27609440       0.50000000 </v>
   <v>       0.27609443       0.49999998       0.50000000 </v>
   <v>       0.72390557       0.49999998       0.50000000 </v>
   <v>       0.50000000       0.72390555       0.50000000 </v>
   <v>       0.61195280       0.38804720       0.34167483 </v>
   <v>       0.61195280       0.38804720       0.65832513 </v>
   <v>       0.38804722       0.61195278       0.34167483 </v>
   <v>       0.38804722       0.61195278       0.65832513 </v>
   <v>       0.38804720       0.38804720       0.34167483 </v>
   <v>       0.38804720       0.38804720       0.65832513 </v>
   <v>       0.61195278       0.61195278       0.34167483 </v>
   <v>       0.61195278       0.61195278       0.65832513 </v>
   <v>       0.44576020       0.32826710       0.58308023 </v>
   <v>       0.67173288       0.55423978       0.58308023 </v>
   <v>       0.55791699       0.44208301       0.41809300 </v>
   <v>       0.32826705       0.44576024       0.41691983 </v>
   <v>       0.55423973       0.67173293       0.41691983 </v>
   <v>       0.55423980       0.32826710       0.58308023 </v>
   <v>       0.32826712       0.55423978       0.58308023 </v>
   <v>       0.67173295       0.44576024       0.41691983 </v>
   <v>       0.44576027       0.67173293       0.41691983 </v>
   <v>       0.44208301       0.44208301       0.41809300 </v>
   <v>       0.50000000       0.38416601       0.50000000 </v>
   <v>       0.61749315       0.50000005       0.34021317 </v>
   <v>       0.61749315       0.50000005       0.65978680 </v>
   <v>       0.38250685       0.50000005       0.34021317 </v>
   <v>       0.38250685       0.50000005       0.65978680 </v>
   <v>       0.38317830       0.38317830       0.50000000 </v>
   <v>       0.61682172       0.61682172       0.50000000 </v>
   <v>       0.61682170       0.38317830       0.50000000 </v>
   <v>       0.38317828       0.61682172       0.50000000 </v>
   <v>       0.50000000       0.50000000       0.33478917 </v>
   <v>       0.50000000       0.50000000       0.66521087 </v>
   <v>       0.32826705       0.44576024       0.58308023 </v>
   <v>       0.55423973       0.67173293       0.58308023 </v>
   <v>       0.55791699       0.44208301       0.58190703 </v>
   <v>       0.44208298       0.55791702       0.41809300 </v>
   <v>       0.44208301       0.44208301       0.58190703 </v>
   <v>       0.67173295       0.44576024       0.58308023 </v>
   <v>       0.44576027       0.67173293       0.58308023 </v>
   <v>       0.55791702       0.55791702       0.41809300 </v>
   <v>       0.38416599       0.50000002       0.50000000 </v>
   <v>       0.61583401       0.50000002       0.50000000 </v>
   <v>       0.50000000       0.61749319       0.34021317 </v>
   <v>       0.50000000       0.61749319       0.65978680 </v>
   <v>       0.50000000       0.50000000       0.50000000 </v>
   <v>       0.44208298       0.55791702       0.58190703 </v>
   <v>       0.55791702       0.55791702       0.58190703 </v>
   <v>       0.50000000       0.61583404       0.50000000 </v>
   <v>       0.69481823       0.61130047       0.51978573 </v>
   <v>       0.72733973       0.62988013       0.52308863 </v>
  </varray>
  <varray name="selective"  type="logical" >
   <v type="logical" >  F  F  F </v>
   <v type="logical" >  F  F  F </v>
   <v type="logical" >  F  F  F </v>
   <v type="logical" >  F  F  F </v>
   <v type="logical" >  F  F  F </v>
   <v type="logical" >  F  F  F </v>
   <v type="logical" >  F  F  F </v>
   <v type="logical" >  F  F  F </v>
   <v type="logical" >  F  F  F </v>
   <v type="logical" >  F  F  F </v>
   <v type="logical" >  F  F  F </v>
   <v type="logical" >  F  F  F </v>
   <v type="logical" >  F  F  F </v>
   <v type="logical" >  F  F  F </v>
   <v type="logical" >  F  F  F </v>
   <v type="logical" >  F  F  F </v>
   <v type="logical" >  F  F  F </v>
   <v type="logical" >  F  F  F </v>
   <v type="logical" >  F  F  F </v>
   <v type="logical" >  F  F  F </v>
   <v type="logical" >  F  F  F </v>
   <v type="logical" >  F  F  F </v>
   <v type="logical" >  F  F  F </v>
   <v type="logical" >  F  F  F </v>
   <v type="logical" >  F  F  F </v>
   <v type="logical" >  F  F  F </v>
   <v type="logical" >  F  F  F </v>
   <v type="logical" >  F  F  F </v>
   <v type="logical" >  F  F  F </v>
   <v type="logical" >  F  F  F </v>
   <v type="logical" >  F  F  F </v>
   <v type="logical" >  F  F  F </v>
   <v type="logical" >  F  F  F </v>
   <v type="logical" >  F  F  F </v>
   <v type="logical" >  F  F  F </v>
   <v type="logical" >  F  F  F </v>
   <v type="logical" >  F  F  F </v>
   <v type="logical" >  F  F  F </v>
   <v type="logical" >  F  F  F </v>
   <v type="logical" >  F  F  F </v>
   <v type="logical" >  F  F  F </v>
   <v type="logical" >  F  F  F </v>
   <v type="logical" >  F  F  F </v>
   <v type="logical" >  F  F  F </v>
   <v type="logical" >  F  F  F </v>
   <v type="logical" >  F  F  F </v>
   <v type="logical" >  F  F  F </v>
   <v type="logical" >  F  F  F </v>
   <v type="logical" >  F  F  F </v>
   <v type="logical" >  F  F  F </v>
   <v type="logical" >  F  F  F </v>
   <v type="logical" >  F  F  F </v>
   <v type="logical" >  F  F  F </v>
   <v type="logical" >  F  F  F </v>
   <v type="logical" >  F  F  F </v>
   <v type="logical" >  F  F  F </v>
   <v type="logical" >  F  F  F </v>
  </varray>
  <nose>
   <v>      -3.00000000       0.00000000       0.00010000       0.00010000 </v>
  </nose>
 </structure>
 <calculation>
  <scstep>
   <time name="dav">  316.08  316.12</time>
   <time name="total">  327.92  327.96</time>
   <energy>
    <i name="alphaZ">     75.25431677 </i>
    <i name="ewald"> 138752.73303655 </i>
    <i name="hartreedc">-182118.02354796 </i>
    <i name="XCdc">  -1703.41955896 </i>
    <i name="pawpsdc">  44873.02882129 </i>
    <i name="pawaedc"> -41398.84523641 </i>
    <i name="eentropy">      0.00191475 </i>
    <i name="bandstr">    819.04202721 </i>
    <i name="atom">  45086.50549395 </i>
    <i name="e_fr_energy">   4386.27726719 </i>
    <i name="e_wo_entrp">   4386.27535244 </i>
    <i name="e_0_energy">   4386.27678851 </i>
   </energy>
  </scstep>
  <scstep>
   <time name="dav">  507.61  507.60</time>
   <time name="total">  507.61  507.60</time>
   <energy>
    <i name="e_fr_energy">   2012.13301077 </i>
    <i name="e_wo_entrp">   2012.12357566 </i>
    <i name="e_0_energy">   2012.13065199 </i>
   </energy>
  </scstep>
  <scstep>
   <time name="dav">  429.21  429.21</time>
   <time name="total">  429.21  429.21</time>
   <energy>
    <i name="e_fr_energy">    235.30190944 </i>
    <i name="e_wo_entrp">    235.31986354 </i>
    <i name="e_0_energy">    235.30639797 </i>
   </energy>
  </scstep>
  <scstep>
   <time name="dav">  368.83  368.83</time>
   <time name="total">  368.83  368.83</time>
   <energy>
    <i name="e_fr_energy">   -134.10580948 </i>
    <i name="e_wo_entrp">   -134.07368663 </i>
    <i name="e_0_energy">   -134.09777877 </i>
   </energy>
  </scstep>
  <scstep>
   <time name="dav">  450.25  450.26</time>
   <time name="total">  472.83  472.84</time>
   <energy>
    <i name="e_fr_energy">   -179.03242834 </i>
    <i name="e_wo_entrp">   -179.54174833 </i>
    <i name="e_0_energy">   -179.15975834 </i>
   </energy>
  </scstep>
  <scstep>
   <time name="diag">   58.20   58.20</time>
   <time name="diis">  162.50  162.50</time>
   <time name="orth">   11.35   11.35</time>
   <time name="total">  265.50  265.50</time>
   <energy>
    <i name="e_fr_energy">   -178.88671312 </i>
    <i name="e_wo_entrp">   -178.57006305 </i>
    <i name="e_0_energy">   -178.80755060 </i>
   </energy>
  </scstep>
  <scstep>
   <time name="diag">   58.28   58.28</time>
   <time name="diis">  187.58  187.58</time>
   <time name="orth">   11.32   11.32</time>
   <time name="total">  290.79  290.79</time>
   <energy>
    <i name="e_fr_energy">   -180.30612035 </i>
    <i name="e_wo_entrp">   -180.15885278 </i>
    <i name="e_0_energy">   -180.26930346 </i>
   </energy>
  </scstep>
  <scstep>
   <time name="diag">   58.35   58.36</time>
   <time name="diis">  176.05  176.05</time>
   <time name="orth">   11.34   11.34</time>
   <time name="total">  279.56  279.57</time>
   <energy>
    <i name="e_fr_energy">   -183.26434652 </i>
    <i name="e_wo_entrp">   -183.16460594 </i>
    <i name="e_0_energy">   -183.23941137 </i>
   </energy>
  </scstep>
  <scstep>
   <time name="diag">   58.70   58.70</time>
   <time name="diis">  167.36  167.37</time>
   <time name="orth">   11.30   11.30</time>
   <time name="total">  270.81  270.82</time>
   <energy>
    <i name="e_fr_energy">   -181.23743027 </i>
    <i name="e_wo_entrp">   -181.11994731 </i>
    <i name="e_0_energy">   -181.20805953 </i>
   </energy>
  </scstep>
  <scstep>
   <time name="diag">   59.28   59.28</time>
   <time name="diis">  167.83  167.83</time>
   <time name="orth">   11.34   11.34</time>
   <time name="total">  271.93  271.94</time>
   <energy>
    <i name="e_fr_energy">   -178.78058888 </i>
    <i name="e_wo_entrp">   -178.68823226 </i>
    <i name="e_0_energy">   -178.75749973 </i>
   </energy>
  </scstep>
  <scstep>
   <time name="diag">   59.30   59.30</time>
   <time name="diis">  164.44  164.44</time>
   <time name="orth">   11.32   11.32</time>
   <time name="total">  268.92  268.93</time>
   <energy>
    <i name="e_fr_energy">   -177.40683461 </i>
    <i name="e_wo_entrp">   -177.43254740 </i>
    <i name="e_0_energy">   -177.41326281 </i>
   </energy>
  </scstep>
  <scstep>
   <time name="diag">   58.98   58.98</time>
   <time name="diis">  166.84  166.84</time>
   <time name="orth">   11.23   11.23</time>
   <time name="total">  270.99  271.00</time>
   <energy>
    <i name="e_fr_energy">   -176.19200332 </i>
    <i name="e_wo_entrp">   -176.13010058 </i>
    <i name="e_0_energy">   -176.17652763 </i>
   </energy>
  </scstep>
  <scstep>
   <time name="diag">   58.88   58.88</time>
   <time name="diis">  164.03  164.02</time>
   <time name="orth">   11.18   11.18</time>
   <time name="total">  268.08  268.08</time>
   <energy>
    <i name="e_fr_energy">   -176.25884804 </i>
    <i name="e_wo_entrp">   -176.22224780 </i>
    <i name="e_0_energy">   -176.24969798 </i>
   </energy>
  </scstep>
  <scstep>
   <time name="diag">   58.83   58.83</time>
   <time name="diis">  165.52  165.52</time>
   <time name="orth">   11.41   11.41</time>
   <time name="total">  269.75  269.75</time>
   <energy>
    <i name="e_fr_energy">   -176.12957807 </i>
    <i name="e_wo_entrp">   -176.10878963 </i>
    <i name="e_0_energy">   -176.12438096 </i>
   </energy>
  </scstep>
  <scstep>
   <time name="diag">   58.90   58.90</time>
   <time name="diis">  161.38  161.38</time>
   <time name="orth">   11.42   11.42</time>
   <time name="total">  265.79  265.79</time>
   <energy>
    <i name="e_fr_energy">   -175.95201248 </i>
    <i name="e_wo_entrp">   -175.93996301 </i>
    <i name="e_0_energy">   -175.94900012 </i>
   </energy>
  </scstep>
  <scstep>
   <time name="diag">   58.72   58.72</time>
   <time name="diis">  162.35  162.35</time>
   <time name="orth">   11.77   11.77</time>
   <time name="total">  267.61  267.61</time>
   <energy>
    <i name="e_fr_energy">   -175.51384692 </i>
    <i name="e_wo_entrp">   -175.49573226 </i>
    <i name="e_0_energy">   -175.50931825 </i>
   </energy>
  </scstep>
  <scstep>
   <time name="diag">   60.48   60.48</time>
   <time name="diis">  166.78  166.79</time>
   <time name="orth">   11.74   11.75</time>
   <time name="total">  274.26  274.28</time>
   <energy>
    <i name="e_fr_energy">   -175.35673746 </i>
    <i name="e_wo_entrp">   -175.44245831 </i>
    <i name="e_0_energy">   -175.37816767 </i>
   </energy>
  </scstep>
  <scstep>
   <time name="diag">   60.60   60.61</time>
   <time name="diis">  168.70  168.71</time>
   <time name="orth">   12.21   12.21</time>
   <time name="total">  277.64  277.67</time>
   <energy>
    <i name="e_fr_energy">   -175.13111178 </i>
    <i name="e_wo_entrp">   -175.20255201 </i>
    <i name="e_0_energy">   -175.14897183 </i>
   </energy>
  </scstep>
  <scstep>
   <time name="diag">   62.37   62.37</time>
   <time name="diis">  172.04  172.04</time>
   <time name="orth">   12.07   12.07</time>
   <time name="total">  283.59  283.59</time>
   <energy>
    <i name="e_fr_energy">   -175.18876079 </i>
    <i name="e_wo_entrp">   -175.17848269 </i>
    <i name="e_0_energy">   -175.18619126 </i>
   </energy>
  </scstep>
  <scstep>
   <time name="diag">   62.04   62.04</time>
   <time name="diis">  180.30  180.31</time>
   <time name="orth">   12.46   12.46</time>
   <time name="total">  293.05  293.06</time>
   <energy>
    <i name="e_fr_energy">   -175.17702696 </i>
    <i name="e_wo_entrp">   -175.15151260 </i>
    <i name="e_0_energy">   -175.17064837 </i>
   </energy>
  </scstep>
  <scstep>
   <time name="diag">   64.74   64.75</time>
   <time name="diis">  184.94  184.94</time>
   <time name="orth">   12.47   12.47</time>
   <time name="total">  300.79  300.80</time>
   <energy>
    <i name="e_fr_energy">   -174.97886010 </i>
    <i name="e_wo_entrp">   -174.93125986 </i>
    <i name="e_0_energy">   -174.96696004 </i>
   </energy>
  </scstep>
  <scstep>
   <time name="diag">   64.74   64.74</time>
   <time name="diis">  180.43  180.44</time>
   <time name="orth">   12.34   12.34</time>
   <time name="total">  296.41  296.42</time>
   <energy>
    <i name="e_fr_energy">   -174.77419916 </i>
    <i name="e_wo_entrp">   -174.72319247 </i>
    <i name="e_0_energy">   -174.76144749 </i>
   </energy>
  </scstep>
  <scstep>
   <time name="diag">   64.23   64.23</time>
   <time name="diis">  182.05  182.05</time>
   <time name="orth">   12.31   12.31</time>
   <time name="total">  297.34  297.35</time>
   <energy>
    <i name="e_fr_energy">   -174.58761761 </i>
    <i name="e_wo_entrp">   -174.53079871 </i>
    <i name="e_0_energy">   -174.57341289 </i>
   </energy>
  </scstep>
  <scstep>
   <time name="diag">   63.78   63.79</time>
   <time name="diis">  181.96  181.97</time>
   <time name="orth">   12.34   12.34</time>
   <time name="total">  296.23  296.24</time>
   <energy>
    <i name="e_fr_energy">   -174.53193848 </i>
    <i name="e_wo_entrp">   -174.49122235 </i>
    <i name="e_0_energy">   -174.52175945 </i>
   </energy>
  </scstep>
  <scstep>
   <time name="diag">   63.63   63.63</time>
   <time name="diis">  185.54  185.55</time>
   <time name="orth">   12.67   12.67</time>
   <time name="total">  300.62  300.64</time>
   <energy>
    <i name="e_fr_energy">   -174.50377001 </i>
    <i name="e_wo_entrp">   -174.46183339 </i>
    <i name="e_0_energy">   -174.49328586 </i>
   </energy>
  </scstep>
  <scstep>
   <time name="diag">   64.61   64.61</time>
   <time name="diis">  183.60  183.61</time>
   <time name="orth">   12.93   12.93</time>
   <time name="total">  300.56  300.57</time>
   <energy>
    <i name="e_fr_energy">   -174.47560014 </i>
    <i name="e_wo_entrp">   -174.41592061 </i>
    <i name="e_0_energy">   -174.46068026 </i>
   </energy>
  </scstep>
  <scstep>
   <time name="diag">   64.70   64.70</time>
   <time name="diis">  187.62  187.63</time>
   <time name="orth">   13.19   13.19</time>
   <time name="total">  305.47  305.48</time>
   <energy>
    <i name="e_fr_energy">   -174.46398175 </i>
    <i name="e_wo_entrp">   -174.40966180 </i>
    <i name="e_0_energy">   -174.45040176 </i>
   </energy>
  </scstep>
  <scstep>
   <time name="diag">   64.50   64.50</time>
   <time name="diis">  186.02  186.02</time>
   <time name="orth">   13.22   13.22</time>
   <time name="total">  304.20  304.22</time>
   <energy>
    <i name="e_fr_energy">   -174.47017122 </i>
    <i name="e_wo_entrp">   -174.41582194 </i>
    <i name="e_0_energy">   -174.45658390 </i>
   </energy>
  </scstep>
  <scstep>
   <time name="diag">   65.82   65.83</time>
   <time name="diis">  186.94  186.95</time>
   <time name="orth">   12.88   12.88</time>
   <time name="total">  306.14  306.16</time>
   <energy>
    <i name="e_fr_energy">   -174.44390287 </i>
    <i name="e_wo_entrp">   -174.38336399 </i>
    <i name="e_0_energy">   -174.42876815 </i>
   </energy>
  </scstep>
  <scstep>
   <time name="diag">   66.74   66.75</time>
   <time name="diis">  187.63  187.64</time>
   <time name="orth">   13.16   13.17</time>
   <time name="total">  308.76  308.77</time>
   <energy>
    <i name="e_fr_energy">   -174.43905231 </i>
    <i name="e_wo_entrp">   -174.38632034 </i>
    <i name="e_0_energy">   -174.42586932 </i>
   </energy>
  </scstep>
  <scstep>
   <time name="diag">   66.40   66.40</time>
   <time name="diis">  187.35  187.35</time>
   <time name="orth">   12.73   12.73</time>
   <time name="total">  308.01  308.02</time>
   <energy>
    <i name="e_fr_energy">   -174.43788162 </i>
    <i name="e_wo_entrp">   -174.38738581 </i>
    <i name="e_0_energy">   -174.42525766 </i>
   </energy>
  </scstep>
  <scstep>
   <time name="diag">   65.27   65.27</time>
   <time name="diis">  187.74  187.74</time>
   <time name="orth">   12.84   12.84</time>
   <time name="total">  306.89  306.90</time>
   <energy>
    <i name="e_fr_energy">   -174.43386502 </i>
    <i name="e_wo_entrp">   -174.38669482 </i>
    <i name="e_0_energy">   -174.42207247 </i>
   </energy>
  </scstep>
  <scstep>
   <time name="diag">   66.58   66.58</time>
   <time name="diis">  184.27  184.28</time>
   <time name="orth">   13.46   13.46</time>
   <time name="total">  305.90  305.92</time>
   <energy>
    <i name="e_fr_energy">   -174.43229753 </i>
    <i name="e_wo_entrp">   -174.38370946 </i>
    <i name="e_0_energy">   -174.42015051 </i>
   </energy>
  </scstep>
  <scstep>
   <time name="diag">   65.94   65.94</time>
   <time name="diis">  184.10  184.11</time>
   <time name="orth">   13.19   13.19</time>
   <time name="total">  305.00  305.02</time>
   <energy>
    <i name="e_fr_energy">   -174.43256825 </i>
    <i name="e_wo_entrp">   -174.37968686 </i>
    <i name="e_0_energy">   -174.41934790 </i>
   </energy>
  </scstep>
  <scstep>
   <time name="diag">   66.12   66.13</time>
   <time name="diis">  183.25  183.26</time>
   <time name="orth">   13.28   13.28</time>
   <time name="total">  305.15  305.16</time>
   <energy>
    <i name="e_fr_energy">   -174.43323190 </i>
    <i name="e_wo_entrp">   -174.37814302 </i>
    <i name="e_0_energy">   -174.41945968 </i>
   </energy>
  </scstep>
  <scstep>
   <time name="diag">   66.70   66.71</time>
   <time name="diis">  183.84  183.84</time>
   <time name="orth">   13.12   13.12</time>
   <time name="total">  306.66  306.68</time>
   <energy>
    <i name="e_fr_energy">   -174.43408375 </i>
    <i name="e_wo_entrp">   -174.37899626 </i>
    <i name="e_0_energy">   -174.42031188 </i>
   </energy>
  </scstep>
  <scstep>
   <time name="diag">   66.53   66.54</time>
   <time name="diis">  181.20  181.21</time>
   <time name="orth">   13.11   13.11</time>
   <time name="total">  304.00  304.03</time>
   <energy>
    <i name="e_fr_energy">   -174.43510991 </i>
    <i name="e_wo_entrp">   -174.38384668 </i>
    <i name="e_0_energy">   -174.42229410 </i>
   </energy>
  </scstep>
  <scstep>
   <time name="diag">   66.70   66.71</time>
   <time name="diis">  180.94  180.95</time>
   <time name="orth">   13.15   13.15</time>
   <time name="total">  303.83  303.85</time>
   <energy>
    <i name="e_fr_energy">   -174.43813601 </i>
    <i name="e_wo_entrp">   -174.38899452 </i>
    <i name="e_0_energy">   -174.42585064 </i>
   </energy>
  </scstep>
  <scstep>
   <time name="diag">   66.35   66.35</time>
   <time name="diis">  171.94  171.94</time>
   <time name="orth">   13.06   13.06</time>
   <time name="total">  294.78  294.79</time>
   <energy>
    <i name="e_fr_energy">   -174.44082443 </i>
    <i name="e_wo_entrp">   -174.39290189 </i>
    <i name="e_0_energy">   -174.42884380 </i>
   </energy>
  </scstep>
  <scstep>
   <time name="diag">   67.17   67.18</time>
   <time name="diis">  125.16  125.16</time>
   <time name="orth">   12.80   12.80</time>
   <time name="total">  247.80  247.81</time>
   <energy>
    <i name="e_fr_energy">   -174.44209843 </i>
    <i name="e_wo_entrp">   -174.39290732 </i>
    <i name="e_0_energy">   -174.42980065 </i>
   </energy>
  </scstep>
  <scstep>
   <time name="diag">   69.13   69.13</time>
   <time name="diis">  122.98  122.98</time>
   <time name="orth">   12.69   12.69</time>
   <time name="total">  246.87  246.87</time>
   <energy>
    <i name="e_fr_energy">   -174.44394996 </i>
    <i name="e_wo_entrp">   -174.39453335 </i>
    <i name="e_0_energy">   -174.43159581 </i>
   </energy>
  </scstep>
  <scstep>
   <time name="diag">   67.22   67.22</time>
   <time name="diis">  144.89  144.89</time>
   <time name="orth">   12.51   12.51</time>
   <time name="total">  265.52  265.52</time>
   <energy>
    <i name="e_fr_energy">   -174.44678060 </i>
    <i name="e_wo_entrp">   -174.39590920 </i>
    <i name="e_0_energy">   -174.43406275 </i>
   </energy>
  </scstep>
  <scstep>
   <time name="diag">   66.04   66.04</time>
   <time name="diis">  122.55  122.55</time>
   <time name="orth">   12.76   12.76</time>
   <time name="total">  243.16  243.16</time>
   <energy>
    <i name="e_fr_energy">   -174.44810176 </i>
    <i name="e_wo_entrp">   -174.39773977 </i>
    <i name="e_0_energy">   -174.43551126 </i>
   </energy>
  </scstep>
  <scstep>
   <time name="diag">   65.50   65.50</time>
   <time name="diis">  136.52  136.52</time>
   <time name="orth">   13.20   13.20</time>
   <time name="total">  257.52  257.52</time>
   <energy>
    <i name="e_fr_energy">   -174.45073320 </i>
    <i name="e_wo_entrp">   -174.39952611 </i>
    <i name="e_0_energy">   -174.43793142 </i>
   </energy>
  </scstep>
  <scstep>
   <time name="diag">   66.07   66.07</time>
   <time name="diis">  128.33  128.33</time>
   <time name="orth">   12.56   12.56</time>
   <time name="total">  250.09  250.09</time>
   <energy>
    <i name="e_fr_energy">   -174.45262381 </i>
    <i name="e_wo_entrp">   -174.40246942 </i>
    <i name="e_0_energy">   -174.44008521 </i>
   </energy>
  </scstep>
  <scstep>
   <time name="diag">   67.08   67.08</time>
   <time name="diis">  117.54  117.54</time>
   <time name="orth">   12.45   12.45</time>
   <time name="total">  240.06  240.06</time>
   <energy>
    <i name="e_fr_energy">   -174.45349179 </i>
    <i name="e_wo_entrp">   -174.40329551 </i>
    <i name="e_0_energy">   -174.44094272 </i>
   </energy>
  </scstep>
  <scstep>
   <time name="diag">   66.78   66.78</time>
   <time name="diis">  120.92  120.92</time>
   <time name="orth">   12.45   12.45</time>
   <time name="total">  242.26  242.26</time>
   <energy>
    <i name="e_fr_energy">   -174.45519289 </i>
    <i name="e_wo_entrp">   -174.40497045 </i>
    <i name="e_0_energy">   -174.44263728 </i>
   </energy>
  </scstep>
  <scstep>
   <time name="diag">   65.30   65.30</time>
   <time name="diis">  120.59  120.59</time>
   <time name="orth">   13.07   13.07</time>
   <time name="total">  241.32  241.32</time>
   <energy>
    <i name="e_fr_energy">   -174.45594297 </i>
    <i name="e_wo_entrp">   -174.40517500 </i>
    <i name="e_0_energy">   -174.44325098 </i>
   </energy>
  </scstep>
  <scstep>
   <time name="diag">   64.63   64.63</time>
   <time name="diis">  118.13  118.13</time>
   <time name="orth">   13.20   13.20</time>
   <time name="total">  239.49  239.49</time>
   <energy>
    <i name="e_fr_energy">   -174.45674969 </i>
    <i name="e_wo_entrp">   -174.40608423 </i>
    <i name="e_0_energy">   -174.44408332 </i>
   </energy>
  </scstep>
  <scstep>
   <time name="diag">   66.20   66.20</time>
   <time name="diis">  117.48  117.48</time>
   <time name="orth">   13.23   13.23</time>
   <time name="total">  240.21  240.22</time>
   <energy>
    <i name="e_fr_energy">   -174.45730990 </i>
    <i name="e_wo_entrp">   -174.40653676 </i>
    <i name="e_0_energy">   -174.44461661 </i>
   </energy>
  </scstep>
  <scstep>
   <time name="diag">   67.02   67.03</time>
   <time name="diis">  111.89  111.89</time>
   <time name="orth">   12.91   12.91</time>
   <time name="total">  235.74  235.74</time>
   <energy>
    <i name="e_fr_energy">   -174.45766544 </i>
    <i name="e_wo_entrp">   -174.40710334 </i>
    <i name="e_0_energy">   -174.44502491 </i>
   </energy>
  </scstep>
  <scstep>
   <time name="diag">   67.63   67.63</time>
   <time name="diis">  110.36  110.36</time>
   <time name="orth">   12.83   12.83</time>
   <time name="total">  234.57  234.57</time>
   <energy>
    <i name="e_fr_energy">   -174.45836998 </i>
    <i name="e_wo_entrp">   -174.40770514 </i>
    <i name="e_0_energy">   -174.44570377 </i>
   </energy>
  </scstep>
  <scstep>
   <time name="diag">   66.73   66.73</time>
   <time name="diis">   94.89   94.90</time>
   <time name="orth">   13.00   13.00</time>
   <time name="total">  218.63  218.63</time>
   <energy>
    <i name="e_fr_energy">   -174.45869129 </i>
    <i name="e_wo_entrp">   -174.40814697 </i>
    <i name="e_0_energy">   -174.44605521 </i>
   </energy>
  </scstep>
  <scstep>
   <time name="diag">   65.70   65.70</time>
   <time name="diis">  102.18  102.17</time>
   <time name="orth">   13.07   13.07</time>
   <time name="total">  225.67  225.67</time>
   <energy>
    <i name="e_fr_energy">   -174.45923681 </i>
    <i name="e_wo_entrp">   -174.40878049 </i>
    <i name="e_0_energy">   -174.44662273 </i>
   </energy>
  </scstep>
  <scstep>
   <time name="diag">   68.92   68.92</time>
   <time name="diis">   80.85   80.85</time>
   <time name="orth">   12.82   12.82</time>
   <time name="total">  206.78  206.80</time>
   <energy>
    <i name="e_fr_energy">   -174.45945298 </i>
    <i name="e_wo_entrp">   -174.40880050 </i>
    <i name="e_0_energy">   -174.44678986 </i>
   </energy>
  </scstep>
  <scstep>
   <time name="diag">   68.07   68.07</time>
   <time name="diis">   87.10   87.11</time>
   <time name="orth">   12.49   12.49</time>
   <time name="total">  210.71  210.72</time>
   <energy>
    <i name="e_fr_energy">   -174.45967560 </i>
    <i name="e_wo_entrp">   -174.40921166 </i>
    <i name="e_0_energy">   -174.44705962 </i>
   </energy>
  </scstep>
  <scstep>
   <time name="diag">   66.13   66.14</time>
   <time name="diis">   91.46   91.47</time>
   <time name="orth">   12.81   12.81</time>
   <time name="total">  214.24  214.26</time>
   <energy>
    <i name="e_fr_energy">   -174.45992150 </i>
    <i name="e_wo_entrp">   -174.40928329 </i>
    <i name="e_0_energy">   -174.44726195 </i>
   </energy>
  </scstep>
  <scstep>
   <time name="diag">   67.94   67.95</time>
   <time name="diis">   83.95   83.96</time>
   <time name="orth">   12.90   12.90</time>
   <time name="total">  208.96  208.98</time>
   <energy>
    <i name="e_fr_energy">   -174.46011382 </i>
    <i name="e_wo_entrp">   -174.40952094 </i>
    <i name="e_0_energy">   -174.44746560 </i>
   </energy>
  </scstep>
  <scstep>
   <time name="diag">   68.37   68.38</time>
   <time name="diis">   82.46   82.47</time>
   <time name="orth">   12.30   12.30</time>
   <time name="total">  206.46  206.48</time>
   <energy>
    <i name="e_fr_energy">   -174.46029371 </i>
    <i name="e_wo_entrp">   -174.40967285 </i>
    <i name="e_0_energy">   -174.44763850 </i>
   </energy>
  </scstep>
  <scstep>
   <time name="diag">   65.74   65.75</time>
   <time name="diis">   81.73   81.73</time>
   <time name="orth">   12.85   12.86</time>
   <time name="total">  173.81  173.82</time>
   <energy>
    <i name="alphaZ">     75.25431677 </i>
    <i name="ewald"> 138752.73303655 </i>
    <i name="hartreedc">-183121.92966105 </i>
    <i name="XCdc">  -1692.73169672 </i>
    <i name="pawpsdc">  46064.60379794 </i>
    <i name="pawaedc"> -42534.02302481 </i>
    <i name="eentropy">     -0.05061834 </i>
    <i name="bandstr">  -2804.82200730 </i>
    <i name="atom">  45086.50549395 </i>
    <i name="e_fr_energy">   -174.46036301 </i>
    <i name="e_wo_entrp">   -174.40974467 </i>
    <i name="e_0_energy">   -174.44770843 </i>
   </energy>
  </scstep>
  <structure>
   <crystal>
    <varray name="basis" >
     <v>      30.00000000       0.00000000       0.00000000 </v>
     <v>       0.00000000      30.00000000       0.00000000 </v>
     <v>       0.00000000       0.00000000      30.00000000 </v>
    </varray>
    <i name="volume">  27000.00000000 </i>
    <varray name="rec_basis" >
     <v>       0.03333333       0.00000000       0.00000000 </v>
     <v>       0.00000000       0.03333333       0.00000000 </v>
     <v>       0.00000000       0.00000000       0.03333333 </v>
    </varray>
   </crystal>
   <varray name="positions" >
    <v>       0.44576020       0.32826710       0.41691983 </v>
    <v>       0.67173288       0.55423978       0.41691983 </v>
    <v>       0.55423980       0.32826710       0.41691983 </v>
    <v>       0.32826712       0.55423978       0.41691983 </v>
    <v>       0.50000000       0.38250690       0.34021317 </v>
    <v>       0.50000000       0.38250690       0.65978680 </v>
    <v>       0.50000000       0.27609440       0.50000000 </v>
    <v>       0.27609443       0.49999998       0.50000000 </v>
    <v>       0.72390557       0.49999998       0.50000000 </v>
    <v>       0.50000000       0.72390555       0.50000000 </v>
    <v>       0.61195280       0.38804720       0.34167483 </v>
    <v>       0.61195280       0.38804720       0.65832513 </v>
    <v>       0.38804722       0.61195278       0.34167483 </v>
    <v>       0.38804722       0.61195278       0.65832513 </v>
    <v>       0.38804720       0.38804720       0.34167483 </v>
    <v>       0.38804720       0.38804720       0.65832513 </v>
    <v>       0.61195278       0.61195278       0.34167483 </v>
    <v>       0.61195278       0.61195278       0.65832513 </v>
    <v>       0.44576020       0.32826710       0.58308023 </v>
    <v>       0.67173288       0.55423978       0.58308023 </v>
    <v>       0.55791699       0.44208301       0.41809300 </v>
    <v>       0.32826705       0.44576024       0.41691983 </v>
    <v>       0.55423973       0.67173293       0.41691983 </v>
    <v>       0.55423980       0.32826710       0.58308023 </v>
    <v>       0.32826712       0.55423978       0.58308023 </v>
    <v>       0.67173295       0.44576024       0.41691983 </v>
    <v>       0.44576027       0.67173293       0.41691983 </v>
    <v>       0.44208301       0.44208301       0.41809300 </v>
    <v>       0.50000000       0.38416601       0.50000000 </v>
    <v>       0.61749315       0.50000005       0.34021317 </v>
    <v>       0.61749315       0.50000005       0.65978680 </v>
    <v>       0.38250685       0.50000005       0.34021317 </v>
    <v>       0.38250685       0.50000005       0.65978680 </v>
    <v>       0.38317830       0.38317830       0.50000000 </v>
    <v>       0.61682172       0.61682172       0.50000000 </v>
    <v>       0.61682170       0.38317830       0.50000000 </v>
    <v>       0.38317828       0.61682172       0.50000000 </v>
    <v>       0.50000000       0.50000000       0.33478917 </v>
    <v>       0.50000000       0.50000000       0.66521087 </v>
    <v>       0.32826705       0.44576024       0.58308023 </v>
    <v>       0.55423973       0.67173293       0.58308023 </v>
    <v>       0.55791699       0.44208301       0.58190703 </v>
    <v>       0.44208298       0.55791702       0.41809300 </v>
    <v>       0.44208301       0.44208301       0.58190703 </v>
    <v>       0.67173295       0.44576024       0.58308023 </v>
    <v>       0.44576027       0.67173293       0.58308023 </v>
    <v>       0.55791702       0.55791702       0.41809300 </v>
    <v>       0.38416599       0.50000002       0.50000000 </v>
    <v>       0.61583401       0.50000002       0.50000000 </v>
    <v>       0.50000000       0.61749319       0.34021317 </v>
    <v>       0.50000000       0.61749319       0.65978680 </v>
    <v>       0.50000000       0.50000000       0.50000000 </v>
    <v>       0.44208298       0.55791702       0.58190703 </v>
    <v>       0.55791702       0.55791702       0.58190703 </v>
    <v>       0.50000000       0.61583404       0.50000000 </v>
    <v>       0.69481823       0.61130047       0.51978573 </v>
    <v>       0.72733973       0.62988013       0.52308863 </v>
   </varray>
  </structure>
  <varray name="forces" >
   <v>       0.70607576       1.10429322       0.29029914 </v>
   <v>      -1.11974820      -0.71950848       0.25660462 </v>
   <v>      -0.70364222       1.10765163       0.29738471 </v>
   <v>       1.10680248      -0.70055708       0.29470659 </v>
   <v>      -0.00901360       0.41307578       1.27910566 </v>
   <v>      -0.01226170       0.41369476      -1.28205512 </v>
   <v>       0.00142965       1.51523282       0.00135571 </v>
   <v>       1.51364615       0.00675814       0.00166269 </v>
   <v>      -1.48243381      -0.00394491      -0.01089590 </v>
   <v>       0.00005304      -1.51395547       0.00105586 </v>
   <v>      -0.74100038       0.75457459       1.07152807 </v>
   <v>      -0.72905428       0.76216943      -1.07590022 </v>
   <v>       0.75676802      -0.75395141       1.06723082 </v>
   <v>       0.75836562      -0.75413676      -1.06458315 </v>
   <v>       0.75937898       0.75583146       1.06720265 </v>
   <v>       0.75948413       0.75528640      -1.06826089 </v>
   <v>      -0.75685529      -0.75707372       1.06785354 </v>
   <v>      -0.76043208      -0.75310820      -1.04895415 </v>
   <v>       0.70466073       1.10557806      -0.29073103 </v>
   <v>      -0.92932244      -0.20093831      -0.86370447 </v>
   <v>       0.10694783      -0.11038274      -0.15144241 </v>
   <v>       1.10452574       0.70809712       0.28236138 </v>
   <v>      -0.72053902      -1.11417497       0.29679511 </v>
   <v>      -0.70548864       1.10815079      -0.29871051 </v>
   <v>       1.10759765      -0.70077801      -0.29590646 </v>
   <v>      -1.11349062       0.68134850       0.27845923 </v>
   <v>       0.70259842      -1.10521670       0.29987674 </v>
   <v>      -0.10834734      -0.10763141      -0.15974621 </v>
   <v>       0.00433257      -0.22948944      -0.00114642 </v>
   <v>      -0.40365991       0.00688768       1.28681305 </v>
   <v>      -0.40563028      -0.00638562      -1.27269947 </v>
   <v>       0.41295306      -0.00284737       1.27709000 </v>
   <v>       0.41381068      -0.00271959      -1.27823284 </v>
   <v>       0.84074169       0.82461222       0.00445295 </v>
   <v>       0.72590501      -0.80773282       0.30115155 </v>
   <v>      -0.82815430       0.83803451      -0.00124601 </v>
   <v>       0.80788011      -0.82974944      -0.00293824 </v>
   <v>      -0.00834669      -0.00226191       1.17186435 </v>
   <v>      -0.00098226       0.00541036      -1.17837735 </v>
   <v>       1.10583213       0.70626123      -0.28437780 </v>
   <v>      -0.74846179      -1.09784553      -0.28123601 </v>
   <v>       0.10937633      -0.11030776       0.15115252 </v>
   <v>      -0.10920692       0.10882257      -0.14664825 </v>
   <v>      -0.11213089      -0.10972969       0.15960667 </v>
   <v>      -1.11902294       0.64657277      -0.26338793 </v>
   <v>       0.70922139      -1.10463423      -0.29553736 </v>
   <v>       0.08550566       0.10790682      -0.19162966 </v>
   <v>      -0.22672389       0.00701682       0.00055487 </v>
   <v>       0.19973794      -0.09258899      -0.02036589 </v>
   <v>       0.00395399      -0.41561819       1.27680133 </v>
   <v>      -0.00242945      -0.41616203      -1.27566881 </v>
   <v>       0.00505517      -0.00217380       0.00007331 </v>
   <v>      -0.11657752       0.10852251       0.14738565 </v>
   <v>       0.06225837       0.09887635       0.20908502 </v>
   <v>       0.03346643       0.23051398      -0.00730921 </v>
   <v>      -5.19827444      -2.40664015       0.12177520 </v>
   <v>       3.56286617       2.05106417       0.15040281 </v>
  </varray>
  <varray name="stress" >
   <v>      -6.74254165       0.10533472      -0.01511522 </v>
   <v>       0.10533471      -6.70021475       0.07448124 </v>
   <v>      -0.01511520       0.07448126      -6.79894059 </v>
  </varray>
  <energy>
   <i name="e_fr_energy">   -174.46036301 </i>
   <i name="e_wo_entrp">   -174.44770843 </i>
   <i name="e_0_energy">     -0.05061834 </i>
  </energy>
  <time name="totalsc">17181.2917181.93</time>
  <eigenvalues>
   <array>
    <dimension dim="1">band</dimension>
    <dimension dim="2">kpoint</dimension>
    <dimension dim="3">spin</dimension>
    <field>eigene</field>
    <field>occ</field>
    <set>
     <set comment="spin 1">
      <set comment="kpoint 1">
       <r>  -28.7247    1.0000 </r>
       <r>  -13.3458    1.0000 </r>
       <r>  -11.1454    1.0000 </r>
       <r>  -11.1033    1.0000 </r>
       <r>   -9.6613    1.0000 </r>
       <r>   -6.6317    1.0000 </r>
       <r>   -6.1241    1.0000 </r>
       <r>   -6.1200    1.0000 </r>
       <r>   -6.1016    1.0000 </r>
       <r>   -5.8159    1.0000 </r>
       <r>   -5.8074    1.0000 </r>
       <r>   -5.8029    1.0000 </r>
       <r>   -5.7357    1.0000 </r>
       <r>   -5.6861    1.0000 </r>
       <r>   -5.6797    1.0000 </r>
       <r>   -5.6762    1.0000 </r>
       <r>   -5.6750    1.0000 </r>
       <r>   -5.6249    1.0000 </r>
       <r>   -5.6201    1.0000 </r>
       <r>   -5.6023    1.0000 </r>
       <r>   -5.5913    1.0000 </r>
       <r>   -5.5892    1.0000 </r>
       <r>   -5.5872    1.0000 </r>
       <r>   -5.5680    1.0000 </r>
       <r>   -5.5615    1.0000 </r>
       <r>   -5.5430    1.0000 </r>
       <r>   -5.5390    1.0000 </r>
       <r>   -5.5248    1.0000 </r>
       <r>   -5.5236    1.0000 </r>
       <r>   -5.5139    1.0000 </r>
       <r>   -5.5108    1.0000 </r>
       <r>   -5.5082    1.0000 </r>
       <r>   -5.5070    1.0000 </r>
       <r>   -5.5044    1.0000 </r>
       <r>   -5.5015    1.0000 </r>
       <r>   -5.4867    1.0000 </r>
       <r>   -5.4761    1.0000 </r>
       <r>   -5.4694    1.0000 </r>
       <r>   -5.4689    1.0000 </r>
       <r>   -5.4628    1.0000 </r>
       <r>   -5.4614    1.0000 </r>
       <r>   -5.4581    1.0000 </r>
       <r>   -5.4573    1.0000 </r>
       <r>   -5.4502    1.0000 </r>
       <r>   -5.4331    1.0000 </r>
       <r>   -5.4328    1.0000 </r>
       <r>   -5.4243    1.0000 </r>
       <r>   -5.4191    1.0000 </r>
       <r>   -5.4182    1.0000 </r>
       <r>   -5.4173    1.0000 </r>
       <r>   -5.4151    1.0000 </r>
       <r>   -5.3995    1.0000 </r>
       <r>   -5.3957    1.0000 </r>
       <r>   -5.3886    1.0000 </r>
       <r>   -5.3849    1.0000 </r>
       <r>   -5.3393    1.0000 </r>
       <r>   -5.3322    1.0000 </r>
       <r>   -5.3205    1.0000 </r>
       <r>   -5.3177    1.0000 </r>
       <r>   -5.3150    1.0000 </r>
       <r>   -5.3068    1.0000 </r>
       <r>   -5.3054    1.0000 </r>
       <r>   -5.3014    1.0000 </r>
       <r>   -5.2936    1.0000 </r>
       <r>   -5.2913    1.0000 </r>
       <r>   -5.2839    1.0000 </r>
       <r>   -5.2723    1.0000 </r>
       <r>   -5.2360    1.0000 </r>
       <r>   -5.2241    1.0000 </r>
       <r>   -5.2108    1.0000 </r>
       <r>   -5.2012    1.0000 </r>
       <r>   -5.1779    1.0000 </r>
       <r>   -5.1716    1.0000 </r>
       <r>   -5.1699    1.0000 </r>
       <r>   -5.1692    1.0000 </r>
       <r>   -5.1671    1.0000 </r>
       <r>   -5.1654    1.0000 </r>
       <r>   -5.1574    1.0000 </r>
       <r>   -5.1435    1.0000 </r>
       <r>   -5.1399    1.0000 </r>
       <r>   -5.1333    1.0000 </r>
       <r>   -5.1255    1.0000 </r>
       <r>   -5.1174    1.0000 </r>
       <r>   -5.1138    1.0000 </r>
       <r>   -5.1055    1.0000 </r>
       <r>   -5.0968    1.0000 </r>
       <r>   -5.0925    1.0000 </r>
       <r>   -5.0674    1.0000 </r>
       <r>   -5.0575    1.0000 </r>
       <r>   -5.0509    1.0000 </r>
       <r>   -5.0497    1.0000 </r>
       <r>   -5.0455    1.0000 </r>
       <r>   -5.0429    1.0000 </r>
       <r>   -5.0406    1.0000 </r>
       <r>   -5.0382    1.0000 </r>
       <r>   -5.0367    1.0000 </r>
       <r>   -5.0324    1.0000 </r>
       <r>   -5.0196    1.0000 </r>
       <r>   -5.0140    1.0000 </r>
       <r>   -5.0087    1.0000 </r>
       <r>   -5.0065    1.0000 </r>
       <r>   -4.9987    1.0000 </r>
       <r>   -4.9966    1.0000 </r>
       <r>   -4.9926    1.0000 </r>
       <r>   -4.9892    1.0000 </r>
       <r>   -4.9877    1.0000 </r>
       <r>   -4.9796    1.0000 </r>
       <r>   -4.9777    1.0000 </r>
       <r>   -4.9736    1.0000 </r>
       <r>   -4.9712    1.0000 </r>
       <r>   -4.9697    1.0000 </r>
       <r>   -4.9611    1.0000 </r>
       <r>   -4.9571    1.0000 </r>
       <r>   -4.9523    1.0000 </r>
       <r>   -4.9454    1.0000 </r>
       <r>   -4.9434    1.0000 </r>
       <r>   -4.9361    1.0000 </r>
       <r>   -4.9260    1.0000 </r>
       <r>   -4.9123    1.0000 </r>
       <r>   -4.9108    1.0000 </r>
       <r>   -4.9058    1.0000 </r>
       <r>   -4.9026    1.0000 </r>
       <r>   -4.8981    1.0000 </r>
       <r>   -4.8970    1.0000 </r>
       <r>   -4.8930    1.0000 </r>
       <r>   -4.8879    1.0000 </r>
       <r>   -4.8565    1.0000 </r>
       <r>   -4.8494    1.0000 </r>
       <r>   -4.8435    1.0000 </r>
       <r>   -4.8363    1.0000 </r>
       <r>   -4.8351    1.0000 </r>
       <r>   -4.8301    1.0000 </r>
       <r>   -4.8232    1.0000 </r>
       <r>   -4.8221    1.0000 </r>
       <r>   -4.8199    1.0000 </r>
       <r>   -4.8176    1.0000 </r>
       <r>   -4.7930    0.9999 </r>
       <r>   -4.7892    0.9999 </r>
       <r>   -4.7857    0.9999 </r>
       <r>   -4.7789    0.9999 </r>
       <r>   -4.7718    0.9999 </r>
       <r>   -4.7577    0.9998 </r>
       <r>   -4.7343    0.9997 </r>
       <r>   -4.7304    0.9997 </r>
       <r>   -4.7282    0.9996 </r>
       <r>   -4.7277    0.9996 </r>
       <r>   -4.7262    0.9996 </r>
       <r>   -4.7027    0.9994 </r>
       <r>   -4.6992    0.9993 </r>
       <r>   -4.6927    0.9992 </r>
       <r>   -4.6883    0.9992 </r>
       <r>   -4.6773    0.9990 </r>
       <r>   -4.6735    0.9989 </r>
       <r>   -4.6708    0.9988 </r>
       <r>   -4.6668    0.9987 </r>
       <r>   -4.6637    0.9987 </r>
       <r>   -4.6628    0.9986 </r>
       <r>   -4.6620    0.9986 </r>
       <r>   -4.6618    0.9986 </r>
       <r>   -4.6508    0.9983 </r>
       <r>   -4.6477    0.9983 </r>
       <r>   -4.6423    0.9981 </r>
       <r>   -4.6411    0.9981 </r>
       <r>   -4.6402    0.9980 </r>
       <r>   -4.6363    0.9979 </r>
       <r>   -4.6355    0.9979 </r>
       <r>   -4.6332    0.9978 </r>
       <r>   -4.6278    0.9976 </r>
       <r>   -4.6227    0.9975 </r>
       <r>   -4.6187    0.9973 </r>
       <r>   -4.6093    0.9970 </r>
       <r>   -4.6022    0.9967 </r>
       <r>   -4.5993    0.9966 </r>
       <r>   -4.5883    0.9962 </r>
       <r>   -4.5861    0.9961 </r>
       <r>   -4.5838    0.9960 </r>
       <r>   -4.5831    0.9960 </r>
       <r>   -4.5818    0.9960 </r>
       <r>   -4.5749    0.9957 </r>
       <r>   -4.5644    0.9954 </r>
       <r>   -4.5592    0.9953 </r>
       <r>   -4.5522    0.9952 </r>
       <r>   -4.5516    0.9951 </r>
       <r>   -4.5459    0.9951 </r>
       <r>   -4.5421    0.9951 </r>
       <r>   -4.5419    0.9951 </r>
       <r>   -4.5412    0.9951 </r>
       <r>   -4.5393    0.9951 </r>
       <r>   -4.5369    0.9951 </r>
       <r>   -4.5333    0.9951 </r>
       <r>   -4.5045    0.9964 </r>
       <r>   -4.5022    0.9966 </r>
       <r>   -4.4966    0.9971 </r>
       <r>   -4.4931    0.9975 </r>
       <r>   -4.4913    0.9978 </r>
       <r>   -4.4826    0.9990 </r>
       <r>   -4.4743    1.0005 </r>
       <r>   -4.4703    1.0013 </r>
       <r>   -4.4683    1.0017 </r>
       <r>   -4.4628    1.0030 </r>
       <r>   -4.4587    1.0040 </r>
       <r>   -4.4564    1.0047 </r>
       <r>   -4.4514    1.0061 </r>
       <r>   -4.4489    1.0068 </r>
       <r>   -4.4463    1.0076 </r>
       <r>   -4.4443    1.0083 </r>
       <r>   -4.4379    1.0105 </r>
       <r>   -4.4371    1.0108 </r>
       <r>   -4.4345    1.0117 </r>
       <r>   -4.4286    1.0140 </r>
       <r>   -4.4269    1.0147 </r>
       <r>   -4.4077    1.0230 </r>
       <r>   -4.4032    1.0252 </r>
       <r>   -4.4001    1.0266 </r>
       <r>   -4.3982    1.0275 </r>
       <r>   -4.3920    1.0305 </r>
       <r>   -4.3901    1.0314 </r>
       <r>   -4.3891    1.0319 </r>
       <r>   -4.3872    1.0328 </r>
       <r>   -4.3808    1.0358 </r>
       <r>   -4.3760    1.0381 </r>
       <r>   -4.3640    1.0433 </r>
       <r>   -4.3438    1.0498 </r>
       <r>   -4.3425    1.0501 </r>
       <r>   -4.3338    1.0514 </r>
       <r>   -4.3316    1.0515 </r>
       <r>   -4.3270    1.0516 </r>
       <r>   -4.3260    1.0516 </r>
       <r>   -4.3245    1.0515 </r>
       <r>   -4.3235    1.0514 </r>
       <r>   -4.3222    1.0513 </r>
       <r>   -4.3193    1.0509 </r>
       <r>   -4.3170    1.0504 </r>
       <r>   -4.3135    1.0495 </r>
       <r>   -4.3120    1.0491 </r>
       <r>   -4.3102    1.0484 </r>
       <r>   -4.3089    1.0480 </r>
       <r>   -4.3064    1.0469 </r>
       <r>   -4.3049    1.0462 </r>
       <r>   -4.2975    1.0418 </r>
       <r>   -4.2952    1.0401 </r>
       <r>   -4.2901    1.0359 </r>
       <r>   -4.2850    1.0309 </r>
       <r>   -4.2805    1.0258 </r>
       <r>   -4.2797    1.0249 </r>
       <r>   -4.2779    1.0225 </r>
       <r>   -4.2733    1.0162 </r>
       <r>   -4.2714    1.0134 </r>
       <r>   -4.2703    1.0118 </r>
       <r>   -4.2681    1.0082 </r>
       <r>   -4.2537    0.9811 </r>
       <r>   -4.2503    0.9735 </r>
       <r>   -4.2469    0.9654 </r>
       <r>   -4.2450    0.9609 </r>
       <r>   -4.2415    0.9519 </r>
       <r>   -4.2386    0.9441 </r>
       <r>   -4.2378    0.9418 </r>
       <r>   -4.2370    0.9397 </r>
       <r>   -4.2329    0.9279 </r>
       <r>   -4.2321    0.9254 </r>
       <r>   -4.2281    0.9133 </r>
       <r>   -4.2268    0.9090 </r>
       <r>   -4.2242    0.9006 </r>
       <r>   -4.2237    0.8991 </r>
       <r>   -4.2221    0.8936 </r>
       <r>   -4.2119    0.8574 </r>
       <r>   -4.2099    0.8496 </r>
       <r>   -4.2073    0.8396 </r>
       <r>   -4.2066    0.8368 </r>
       <r>   -4.2040    0.8263 </r>
       <r>   -4.2025    0.8206 </r>
       <r>   -4.1909    0.7711 </r>
       <r>   -4.1850    0.7442 </r>
       <r>   -4.1812    0.7267 </r>
       <r>   -4.1757    0.7005 </r>
       <r>   -4.1709    0.6771 </r>
       <r>   -4.1669    0.6572 </r>
       <r>   -4.1622    0.6335 </r>
       <r>   -4.1585    0.6142 </r>
       <r>   -4.1570    0.6067 </r>
       <r>   -4.1562    0.6026 </r>
       <r>   -4.1432    0.5342 </r>
       <r>   -4.1281    0.4548 </r>
       <r>   -4.1185    0.4045 </r>
       <r>   -4.1164    0.3936 </r>
       <r>   -4.1142    0.3821 </r>
       <r>   -4.1059    0.3403 </r>
       <r>   -4.0977    0.2997 </r>
       <r>   -4.0347    0.0557 </r>
       <r>   -3.9618   -0.0489 </r>
       <r>   -3.8918   -0.0355 </r>
       <r>   -3.8135   -0.0037 </r>
       <r>   -3.8099   -0.0028 </r>
       <r>   -3.7756    0.0030 </r>
       <r>   -3.4892    0.0001 </r>
       <r>   -3.4817    0.0001 </r>
       <r>   -3.3673    0.0000 </r>
       <r>   -3.0539    0.0000 </r>
       <r>   -3.0478    0.0000 </r>
       <r>   -3.0266    0.0000 </r>
       <r>   -3.0164    0.0000 </r>
       <r>   -3.0039    0.0000 </r>
       <r>   -2.9951    0.0000 </r>
       <r>   -2.9292    0.0000 </r>
       <r>   -2.8426    0.0000 </r>
       <r>   -2.5946    0.0000 </r>
       <r>   -2.5105    0.0000 </r>
       <r>   -2.5037    0.0000 </r>
       <r>   -2.2433    0.0000 </r>
       <r>   -2.1201    0.0000 </r>
       <r>   -2.1133    0.0000 </r>
       <r>   -2.1061    0.0000 </r>
       <r>   -2.0295    0.0000 </r>
       <r>   -1.9626    0.0000 </r>
       <r>   -1.9319    0.0000 </r>
       <r>   -1.8611    0.0000 </r>
       <r>   -1.8402    0.0000 </r>
       <r>   -1.7479    0.0000 </r>
       <r>   -1.7134    0.0000 </r>
       <r>   -1.6592    0.0000 </r>
       <r>   -1.6220    0.0000 </r>
       <r>   -1.5596    0.0000 </r>
       <r>   -1.5250    0.0000 </r>
       <r>   -1.4461    0.0000 </r>
       <r>   -1.3725    0.0000 </r>
       <r>   -1.1188    0.0000 </r>
       <r>   -1.0799    0.0000 </r>
       <r>   -1.0004    0.0000 </r>
       <r>   -0.9785    0.0000 </r>
       <r>   -0.9692    0.0000 </r>
       <r>   -0.9440    0.0000 </r>
       <r>   -0.9305    0.0000 </r>
       <r>   -0.9185    0.0000 </r>
       <r>   -0.8745    0.0000 </r>
       <r>   -0.8029    0.0000 </r>
       <r>   -0.6452    0.0000 </r>
      </set>
     </set>
    </set>
   </array>
  </eigenvalues>
  <separator name="orbital magnetization" >
   <v name="MAGDIPOLOUT">      0.00000000      0.00000000      0.00000000</v>
  </separator>
  <dos>
   <i name="efermi">     -4.13668534 </i>
   <total>
    <array>
     <dimension dim="1">gridpoints</dimension>
     <dimension dim="2">spin</dimension>
     <field>energy</field>
     <field>total</field>
     <field>integrated</field>
     <set>
      <set comment="spin 1">
       <r>   -30.7247     0.0000     0.0000 </r>
       <r>   -30.6178     0.0000     0.0000 </r>
       <r>   -30.5109     0.0000     0.0000 </r>
       <r>   -30.4039     0.0000     0.0000 </r>
       <r>   -30.2970     0.0000     0.0000 </r>
       <r>   -30.1901     0.0000     0.0000 </r>
       <r>   -30.0831     0.0000     0.0000 </r>
       <r>   -29.9762     0.0000     0.0000 </r>
       <r>   -29.8693     0.0000     0.0000 </r>
       <r>   -29.7623     0.0000     0.0000 </r>
       <r>   -29.6554     0.0000     0.0000 </r>
       <r>   -29.5485     0.0000     0.0000 </r>
       <r>   -29.4415     0.0002     0.0000 </r>
       <r>   -29.3346     0.0042     0.0005 </r>
       <r>   -29.2277     0.0327     0.0040 </r>
       <r>   -29.1208     0.0542     0.0098 </r>
       <r>   -29.0138    -0.3743    -0.0303 </r>
       <r>   -28.9069    -0.6671    -0.1016 </r>
       <r>   -28.8000     3.6192     0.2854 </r>
       <r>   -28.6930     9.7585     1.3289 </r>
       <r>   -28.5861     6.6334     2.0382 </r>
       <r>   -28.4792     0.3001     2.0703 </r>
       <r>   -28.3722    -0.6944     1.9961 </r>
       <r>   -28.2653    -0.0292     1.9930 </r>
       <r>   -28.1584     0.0542     1.9987 </r>
       <r>   -28.0514     0.0108     1.9999 </r>
       <r>   -27.9445     0.0008     2.0000 </r>
       <r>   -27.8376     0.0000     2.0000 </r>
       <r>   -27.7306     0.0000     2.0000 </r>
       <r>   -27.6237     0.0000     2.0000 </r>
       <r>   -27.5168     0.0000     2.0000 </r>
       <r>   -27.4098     0.0000     2.0000 </r>
       <r>   -27.3029     0.0000     2.0000 </r>
       <r>   -27.1960     0.0000     2.0000 </r>
       <r>   -27.0890     0.0000     2.0000 </r>
       <r>   -26.9821     0.0000     2.0000 </r>
       <r>   -26.8752     0.0000     2.0000 </r>
       <r>   -26.7683     0.0000     2.0000 </r>
       <r>   -26.6613     0.0000     2.0000 </r>
       <r>   -26.5544     0.0000     2.0000 </r>
       <r>   -26.4475     0.0000     2.0000 </r>
       <r>   -26.3405     0.0000     2.0000 </r>
       <r>   -26.2336     0.0000     2.0000 </r>
       <r>   -26.1267     0.0000     2.0000 </r>
       <r>   -26.0197     0.0000     2.0000 </r>
       <r>   -25.9128     0.0000     2.0000 </r>
       <r>   -25.8059     0.0000     2.0000 </r>
       <r>   -25.6989     0.0000     2.0000 </r>
       <r>   -25.5920     0.0000     2.0000 </r>
       <r>   -25.4851     0.0000     2.0000 </r>
       <r>   -25.3781     0.0000     2.0000 </r>
       <r>   -25.2712     0.0000     2.0000 </r>
       <r>   -25.1643     0.0000     2.0000 </r>
       <r>   -25.0573     0.0000     2.0000 </r>
       <r>   -24.9504     0.0000     2.0000 </r>
       <r>   -24.8435     0.0000     2.0000 </r>
       <r>   -24.7365     0.0000     2.0000 </r>
       <r>   -24.6296     0.0000     2.0000 </r>
       <r>   -24.5227     0.0000     2.0000 </r>
       <r>   -24.4158     0.0000     2.0000 </r>
       <r>   -24.3088     0.0000     2.0000 </r>
       <r>   -24.2019     0.0000     2.0000 </r>
       <r>   -24.0950     0.0000     2.0000 </r>
       <r>   -23.9880     0.0000     2.0000 </r>
       <r>   -23.8811     0.0000     2.0000 </r>
       <r>   -23.7742     0.0000     2.0000 </r>
       <r>   -23.6672     0.0000     2.0000 </r>
       <r>   -23.5603     0.0000     2.0000 </r>
       <r>   -23.4534     0.0000     2.0000 </r>
       <r>   -23.3464     0.0000     2.0000 </r>
       <r>   -23.2395     0.0000     2.0000 </r>
       <r>   -23.1326     0.0000     2.0000 </r>
       <r>   -23.0256     0.0000     2.0000 </r>
       <r>   -22.9187     0.0000     2.0000 </r>
       <r>   -22.8118     0.0000     2.0000 </r>
       <r>   -22.7048     0.0000     2.0000 </r>
       <r>   -22.5979     0.0000     2.0000 </r>
       <r>   -22.4910     0.0000     2.0000 </r>
       <r>   -22.3840     0.0000     2.0000 </r>
       <r>   -22.2771     0.0000     2.0000 </r>
       <r>   -22.1702     0.0000     2.0000 </r>
       <r>   -22.0633     0.0000     2.0000 </r>
       <r>   -21.9563     0.0000     2.0000 </r>
       <r>   -21.8494     0.0000     2.0000 </r>
       <r>   -21.7425     0.0000     2.0000 </r>
       <r>   -21.6355     0.0000     2.0000 </r>
       <r>   -21.5286     0.0000     2.0000 </r>
       <r>   -21.4217     0.0000     2.0000 </r>
       <r>   -21.3147     0.0000     2.0000 </r>
       <r>   -21.2078     0.0000     2.0000 </r>
       <r>   -21.1009     0.0000     2.0000 </r>
       <r>   -20.9939     0.0000     2.0000 </r>
       <r>   -20.8870     0.0000     2.0000 </r>
       <r>   -20.7801     0.0000     2.0000 </r>
       <r>   -20.6731     0.0000     2.0000 </r>
       <r>   -20.5662     0.0000     2.0000 </r>
       <r>   -20.4593     0.0000     2.0000 </r>
       <r>   -20.3523     0.0000     2.0000 </r>
       <r>   -20.2454     0.0000     2.0000 </r>
       <r>   -20.1385     0.0000     2.0000 </r>
       <r>   -20.0316     0.0000     2.0000 </r>
       <r>   -19.9246     0.0000     2.0000 </r>
       <r>   -19.8177     0.0000     2.0000 </r>
       <r>   -19.7108     0.0000     2.0000 </r>
       <r>   -19.6038     0.0000     2.0000 </r>
       <r>   -19.4969     0.0000     2.0000 </r>
       <r>   -19.3900     0.0000     2.0000 </r>
       <r>   -19.2830     0.0000     2.0000 </r>
       <r>   -19.1761     0.0000     2.0000 </r>
       <r>   -19.0692     0.0000     2.0000 </r>
       <r>   -18.9622     0.0000     2.0000 </r>
       <r>   -18.8553     0.0000     2.0000 </r>
       <r>   -18.7484     0.0000     2.0000 </r>
       <r>   -18.6414     0.0000     2.0000 </r>
       <r>   -18.5345     0.0000     2.0000 </r>
       <r>   -18.4276     0.0000     2.0000 </r>
       <r>   -18.3206     0.0000     2.0000 </r>
       <r>   -18.2137     0.0000     2.0000 </r>
       <r>   -18.1068     0.0000     2.0000 </r>
       <r>   -17.9998     0.0000     2.0000 </r>
       <r>   -17.8929     0.0000     2.0000 </r>
       <r>   -17.7860     0.0000     2.0000 </r>
       <r>   -17.6791     0.0000     2.0000 </r>
       <r>   -17.5721     0.0000     2.0000 </r>
       <r>   -17.4652     0.0000     2.0000 </r>
       <r>   -17.3583     0.0000     2.0000 </r>
       <r>   -17.2513     0.0000     2.0000 </r>
       <r>   -17.1444     0.0000     2.0000 </r>
       <r>   -17.0375     0.0000     2.0000 </r>
       <r>   -16.9305     0.0000     2.0000 </r>
       <r>   -16.8236     0.0000     2.0000 </r>
       <r>   -16.7167     0.0000     2.0000 </r>
       <r>   -16.6097     0.0000     2.0000 </r>
       <r>   -16.5028     0.0000     2.0000 </r>
       <r>   -16.3959     0.0000     2.0000 </r>
       <r>   -16.2889     0.0000     2.0000 </r>
       <r>   -16.1820     0.0000     2.0000 </r>
       <r>   -16.0751     0.0000     2.0000 </r>
       <r>   -15.9681     0.0000     2.0000 </r>
       <r>   -15.8612     0.0000     2.0000 </r>
       <r>   -15.7543     0.0000     2.0000 </r>
       <r>   -15.6473     0.0000     2.0000 </r>
       <r>   -15.5404     0.0000     2.0000 </r>
       <r>   -15.4335     0.0000     2.0000 </r>
       <r>   -15.3266     0.0000     2.0000 </r>
       <r>   -15.2196     0.0000     2.0000 </r>
       <r>   -15.1127     0.0000     2.0000 </r>
       <r>   -15.0058     0.0000     2.0000 </r>
       <r>   -14.8988     0.0000     2.0000 </r>
       <r>   -14.7919     0.0000     2.0000 </r>
       <r>   -14.6850     0.0000     2.0000 </r>
       <r>   -14.5780     0.0000     2.0000 </r>
       <r>   -14.4711     0.0000     2.0000 </r>
       <r>   -14.3642     0.0000     2.0000 </r>
       <r>   -14.2572     0.0000     2.0000 </r>
       <r>   -14.1503     0.0000     2.0000 </r>
       <r>   -14.0434     0.0004     2.0000 </r>
       <r>   -13.9364     0.0065     2.0007 </r>
       <r>   -13.8295     0.0421     2.0052 </r>
       <r>   -13.7226     0.0301     2.0085 </r>
       <r>   -13.6156    -0.5202     1.9528 </r>
       <r>   -13.5087    -0.3664     1.9137 </r>
       <r>   -13.4018     4.9456     2.4425 </r>
       <r>   -13.2948    10.0093     3.5128 </r>
       <r>   -13.1879     5.2977     4.0793 </r>
       <r>   -13.0810    -0.2564     4.0519 </r>
       <r>   -12.9741    -0.5584     3.9922 </r>
       <r>   -12.8671     0.0208     3.9944 </r>
       <r>   -12.7602     0.0447     3.9992 </r>
       <r>   -12.6533     0.0072     3.9999 </r>
       <r>   -12.5463     0.0005     4.0000 </r>
       <r>   -12.4394     0.0000     4.0000 </r>
       <r>   -12.3325     0.0000     4.0000 </r>
       <r>   -12.2255     0.0000     4.0000 </r>
       <r>   -12.1186     0.0000     4.0000 </r>
       <r>   -12.0117     0.0000     4.0000 </r>
       <r>   -11.9047     0.0001     4.0000 </r>
       <r>   -11.7978     0.0019     4.0002 </r>
       <r>   -11.6909     0.0232     4.0027 </r>
       <r>   -11.5839     0.1058     4.0140 </r>
       <r>   -11.4770    -0.0875     4.0046 </r>
       <r>   -11.3701    -1.3406     3.8613 </r>
       <r>   -11.2631     0.8550     3.9527 </r>
       <r>   -11.1562    13.1225     5.3559 </r>
       <r>   -11.0493    19.0750     7.3956 </r>
       <r>   -10.9423     7.3819     8.1850 </r>
       <r>   -10.8354    -1.1314     8.0640 </r>
       <r>   -10.7285    -0.7659     7.9821 </r>
       <r>   -10.6216     0.0905     7.9918 </r>
       <r>   -10.5146     0.0668     7.9989 </r>
       <r>   -10.4077     0.0094     7.9999 </r>
       <r>   -10.3008     0.0026     8.0002 </r>
       <r>   -10.1938     0.0205     8.0024 </r>
       <r>   -10.0869     0.0642     8.0093 </r>
       <r>    -9.9800    -0.1792     7.9901 </r>
       <r>    -9.8730    -0.8176     7.9027 </r>
       <r>    -9.7661     1.8113     8.0964 </r>
       <r>    -9.6592     8.6615     9.0226 </r>
       <r>    -9.5522     8.4427     9.9253 </r>
       <r>    -9.4453     1.5845    10.0948 </r>
       <r>    -9.3384    -0.8154    10.0076 </r>
       <r>    -9.2314    -0.1557     9.9909 </r>
       <r>    -9.1245     0.0638     9.9978 </r>
       <r>    -9.0176     0.0190     9.9998 </r>
       <r>    -8.9106     0.0018    10.0000 </r>
       <r>    -8.8037     0.0001    10.0000 </r>
       <r>    -8.6968     0.0000    10.0000 </r>
       <r>    -8.5898     0.0000    10.0000 </r>
       <r>    -8.4829     0.0000    10.0000 </r>
       <r>    -8.3760     0.0000    10.0000 </r>
       <r>    -8.2691     0.0000    10.0000 </r>
       <r>    -8.1621     0.0000    10.0000 </r>
       <r>    -8.0552     0.0000    10.0000 </r>
       <r>    -7.9483     0.0000    10.0000 </r>
       <r>    -7.8413     0.0000    10.0000 </r>
       <r>    -7.7344     0.0000    10.0000 </r>
       <r>    -7.6275     0.0000    10.0000 </r>
       <r>    -7.5205     0.0000    10.0000 </r>
       <r>    -7.4136     0.0000    10.0000 </r>
       <r>    -7.3067     0.0008    10.0001 </r>
       <r>    -7.1997     0.0105    10.0012 </r>
       <r>    -7.0928     0.0534    10.0069 </r>
       <r>    -6.9859    -0.0238    10.0044 </r>
       <r>    -6.8789    -0.6833     9.9313 </r>
       <r>    -6.7720     0.2460     9.9576 </r>
       <r>    -6.6651     6.5634    10.6594 </r>
       <r>    -6.5581     9.9775    11.7264 </r>
       <r>    -6.4512     3.4532    12.0956 </r>
       <r>    -6.3443    -2.8988    11.7856 </r>
       <r>    -6.2373     2.8539    12.0908 </r>
       <r>    -6.1304    23.0792    14.5587 </r>
       <r>    -6.0235    25.5348    17.2892 </r>
       <r>    -5.9166     9.2258    18.2757 </r>
       <r>    -5.8096    20.1514    20.4305 </r>
       <r>    -5.7027    60.6280    26.9136 </r>
       <r>    -5.5958   146.2363    42.5509 </r>
       <r>    -5.4888   268.8547    71.3000 </r>
       <r>    -5.3819   302.6689   103.6650 </r>
       <r>    -5.2750   231.1038   128.3773 </r>
       <r>    -5.1680   210.3453   150.8699 </r>
       <r>    -5.0611   295.8825   182.5092 </r>
       <r>    -4.9542   370.7455   222.1536 </r>
       <r>    -4.8472   331.0698   257.5555 </r>
       <r>    -4.7403   293.3054   288.9192 </r>
       <r>    -4.6334   368.2208   328.2937 </r>
       <r>    -4.5264   424.2682   373.6615 </r>
       <r>    -4.4195   424.8804   419.0947 </r>
       <r>    -4.3126   501.5032   472.7213 </r>
       <r>    -4.2056   550.1056   531.5451 </r>
       <r>    -4.0987   360.0636   570.0474 </r>
       <r>    -3.9918    99.3107   580.6668 </r>
       <r>    -3.8848    13.8718   582.1502 </r>
       <r>    -3.7779    30.4422   585.4054 </r>
       <r>    -3.6710    21.8504   587.7419 </r>
       <r>    -3.5641     8.3673   588.6367 </r>
       <r>    -3.4571    20.3703   590.8149 </r>
       <r>    -3.3502    22.0829   593.1763 </r>
       <r>    -3.2433     3.9498   593.5986 </r>
       <r>    -3.1363     7.5942   594.4107 </r>
       <r>    -3.0294    49.2772   599.6800 </r>
       <r>    -2.9225    64.0954   606.5338 </r>
       <r>    -2.8155    29.3066   609.6676 </r>
       <r>    -2.7086     3.6356   610.0564 </r>
       <r>    -2.6017    11.4659   611.2824 </r>
       <r>    -2.4947    26.1875   614.0827 </r>
       <r>    -2.3878    16.7737   615.8764 </r>
       <r>    -2.2809     5.6078   616.4760 </r>
       <r>    -2.1739    20.3544   618.6526 </r>
       <r>    -2.0670    40.6316   622.9974 </r>
       <r>    -1.9601    43.3534   627.6332 </r>
       <r>    -1.8531    38.2554   631.7239 </r>
       <r>    -1.7462    37.0280   635.6834 </r>
       <r>    -1.6393    40.4664   640.0106 </r>
       <r>    -1.5323    40.7063   644.3634 </r>
       <r>    -1.4254    32.2252   647.8093 </r>
       <r>    -1.3185    16.4227   649.5654 </r>
       <r>    -1.2116     3.5176   649.9415 </r>
       <r>    -1.1046    15.5843   651.6080 </r>
       <r>    -0.9977    52.6265   657.2354 </r>
       <r>    -0.8908    71.0951   664.8378 </r>
       <r>    -0.7838    43.3964   669.4782 </r>
       <r>    -0.6769    14.1902   670.9956 </r>
       <r>    -0.5700     7.1877   671.7642 </r>
       <r>    -0.4630     2.7934   672.0629 </r>
       <r>    -0.3561    -0.4480   672.0150 </r>
       <r>    -0.2492    -0.2522   671.9880 </r>
       <r>    -0.1422     0.0735   671.9959 </r>
       <r>    -0.0353     0.0341   671.9995 </r>
       <r>     0.0716     0.0042   672.0000 </r>
       <r>     0.1786     0.0002   672.0000 </r>
       <r>     0.2855     0.0000   672.0000 </r>
       <r>     0.3924     0.0000   672.0000 </r>
       <r>     0.4994     0.0000   672.0000 </r>
       <r>     0.6063     0.0000   672.0000 </r>
       <r>     0.7132     0.0000   672.0000 </r>
       <r>     0.8202     0.0000   672.0000 </r>
       <r>     0.9271     0.0000   672.0000 </r>
       <r>     1.0340     0.0000   672.0000 </r>
       <r>     1.1409     0.0000   672.0000 </r>
       <r>     1.2479     0.0000   672.0000 </r>
       <r>     1.3548     0.0000   672.0000 </r>
      </set>
     </set>
    </array>
   </total>
  </dos>
 </calculation>
 <structure name="finalpos" >
  <crystal>
   <varray name="basis" >
    <v>      30.00000000       0.00000000       0.00000000 </v>
    <v>       0.00000000      30.00000000       0.00000000 </v>
    <v>       0.00000000       0.00000000      30.00000000 </v>
   </varray>
   <i name="volume">  27000.00000000 </i>
   <varray name="rec_basis" >
    <v>       0.03333333       0.00000000       0.00000000 </v>
    <v>       0.00000000       0.03333333       0.00000000 </v>
    <v>       0.00000000       0.00000000       0.03333333 </v>
   </varray>
  </crystal>
  <varray name="positions" >
   <v>       0.44576020       0.32826710       0.41691983 </v>
   <v>       0.67173288       0.55423978       0.41691983 </v>
   <v>       0.55423980       0.32826710       0.41691983 </v>
   <v>       0.32826712       0.55423978       0.41691983 </v>
   <v>       0.50000000       0.38250690       0.34021317 </v>
   <v>       0.50000000       0.38250690       0.65978680 </v>
   <v>       0.50000000       0.27609440       0.50000000 </v>
   <v>       0.27609443       0.49999998       0.50000000 </v>
   <v>       0.72390557       0.49999998       0.50000000 </v>
   <v>       0.50000000       0.72390555       0.50000000 </v>
   <v>       0.61195280       0.38804720       0.34167483 </v>
   <v>       0.61195280       0.38804720       0.65832513 </v>
   <v>       0.38804722       0.61195278       0.34167483 </v>
   <v>       0.38804722       0.61195278       0.65832513 </v>
   <v>       0.38804720       0.38804720       0.34167483 </v>
   <v>       0.38804720       0.38804720       0.65832513 </v>
   <v>       0.61195278       0.61195278       0.34167483 </v>
   <v>       0.61195278       0.61195278       0.65832513 </v>
   <v>       0.44576020       0.32826710       0.58308023 </v>
   <v>       0.67173288       0.55423978       0.58308023 </v>
   <v>       0.55791699       0.44208301       0.41809300 </v>
   <v>       0.32826705       0.44576024       0.41691983 </v>
   <v>       0.55423973       0.67173293       0.41691983 </v>
   <v>       0.55423980       0.32826710       0.58308023 </v>
   <v>       0.32826712       0.55423978       0.58308023 </v>
   <v>       0.67173295       0.44576024       0.41691983 </v>
   <v>       0.44576027       0.67173293       0.41691983 </v>
   <v>       0.44208301       0.44208301       0.41809300 </v>
   <v>       0.50000000       0.38416601       0.50000000 </v>
   <v>       0.61749315       0.50000005       0.34021317 </v>
   <v>       0.61749315       0.50000005       0.65978680 </v>
   <v>       0.38250685       0.50000005       0.34021317 </v>
   <v>       0.38250685       0.50000005       0.65978680 </v>
   <v>       0.38317830       0.38317830       0.50000000 </v>
   <v>       0.61682172       0.61682172       0.50000000 </v>
   <v>       0.61682170       0.38317830       0.50000000 </v>
   <v>       0.38317828       0.61682172       0.50000000 </v>
   <v>       0.50000000       0.50000000       0.33478917 </v>
   <v>       0.50000000       0.50000000       0.66521087 </v>
   <v>       0.32826705       0.44576024       0.58308023 </v>
   <v>       0.55423973       0.67173293       0.58308023 </v>
   <v>       0.55791699       0.44208301       0.58190703 </v>
   <v>       0.44208298       0.55791702       0.41809300 </v>
   <v>       0.44208301       0.44208301       0.58190703 </v>
   <v>       0.67173295       0.44576024       0.58308023 </v>
   <v>       0.44576027       0.67173293       0.58308023 </v>
   <v>       0.55791702       0.55791702       0.41809300 </v>
   <v>       0.38416599       0.50000002       0.50000000 </v>
   <v>       0.61583401       0.50000002       0.50000000 </v>
   <v>       0.50000000       0.61749319       0.34021317 </v>
   <v>       0.50000000       0.61749319       0.65978680 </v>
   <v>       0.50000000       0.50000000       0.50000000 </v>
   <v>       0.44208298       0.55791702       0.58190703 </v>
   <v>       0.55791702       0.55791702       0.58190703 </v>
   <v>       0.50000000       0.61583404       0.50000000 </v>
   <v>       0.69481823       0.61130047       0.51978573 </v>
   <v>       0.72733973       0.62988013       0.52308863 </v>
  </varray>
  <varray name="selective"  type="logical" >
   <v type="logical" >  F  F  F </v>
   <v type="logical" >  F  F  F </v>
   <v type="logical" >  F  F  F </v>
   <v type="logical" >  F  F  F </v>
   <v type="logical" >  F  F  F </v>
   <v type="logical" >  F  F  F </v>
   <v type="logical" >  F  F  F </v>
   <v type="logical" >  F  F  F </v>
   <v type="logical" >  F  F  F </v>
   <v type="logical" >  F  F  F </v>
   <v type="logical" >  F  F  F </v>
   <v type="logical" >  F  F  F </v>
   <v type="logical" >  F  F  F </v>
   <v type="logical" >  F  F  F </v>
   <v type="logical" >  F  F  F </v>
   <v type="logical" >  F  F  F </v>
   <v type="logical" >  F  F  F </v>
   <v type="logical" >  F  F  F </v>
   <v type="logical" >  F  F  F </v>
   <v type="logical" >  F  F  F </v>
   <v type="logical" >  F  F  F </v>
   <v type="logical" >  F  F  F </v>
   <v type="logical" >  F  F  F </v>
   <v type="logical" >  F  F  F </v>
   <v type="logical" >  F  F  F </v>
   <v type="logical" >  F  F  F </v>
   <v type="logical" >  F  F  F </v>
   <v type="logical" >  F  F  F </v>
   <v type="logical" >  F  F  F </v>
   <v type="logical" >  F  F  F </v>
   <v type="logical" >  F  F  F </v>
   <v type="logical" >  F  F  F </v>
   <v type="logical" >  F  F  F </v>
   <v type="logical" >  F  F  F </v>
   <v type="logical" >  F  F  F </v>
   <v type="logical" >  F  F  F </v>
   <v type="logical" >  F  F  F </v>
   <v type="logical" >  F  F  F </v>
   <v type="logical" >  F  F  F </v>
   <v type="logical" >  F  F  F </v>
   <v type="logical" >  F  F  F </v>
   <v type="logical" >  F  F  F </v>
   <v type="logical" >  F  F  F </v>
   <v type="logical" >  F  F  F </v>
   <v type="logical" >  F  F  F </v>
   <v type="logical" >  F  F  F </v>
   <v type="logical" >  F  F  F </v>
   <v type="logical" >  F  F  F </v>
   <v type="logical" >  F  F  F </v>
   <v type="logical" >  F  F  F </v>
   <v type="logical" >  F  F  F </v>
   <v type="logical" >  F  F  F </v>
   <v type="logical" >  F  F  F </v>
   <v type="logical" >  F  F  F </v>
   <v type="logical" >  F  F  F </v>
   <v type="logical" >  F  F  F </v>
   <v type="logical" >  F  F  F </v>
  </varray>
  <nose>
   <v>      -3.00000000       0.00000000       0.00010000       0.00010000 </v>
  </nose>
 </structure>
</modeling>
