  57  57   0   0
  0.4736842E+03  0.3000000E-08  0.3000000E-08  0.3000000E-08  0.5000000E-15
  1.000000000000000E-004
  CAR 
 6_Pd100_top_free_z(O)                   
      1.26272478    -30.53657007  301     -4.14194352      1.00000000
    -30.537  0.0000E+00  0.0000E+00
    -30.431  0.0000E+00  0.0000E+00
    -30.325  0.0000E+00  0.0000E+00
    -30.219  0.2886E-27  0.3060E-28
    -30.113  0.1324E-23  0.1403E-24
    -30.007  0.3409E-20  0.3615E-21
    -29.901  0.4917E-17  0.5215E-18
    -29.795  0.3957E-14  0.4200E-15
    -29.689  0.1772E-11  0.1882E-12
    -29.583  0.4375E-09  0.4657E-10
    -29.477  0.5906E-07  0.6307E-08
    -29.371  0.4296E-05  0.4617E-06
    -29.265  0.1643E-03  0.1788E-04
    -29.159  0.3151E-02  0.3519E-03
    -29.053  0.2702E-01  0.3216E-02
    -28.947  0.6229E-01  0.9818E-02
    -28.841 -0.2719E+00 -0.1900E-01
    -28.735 -0.7887E+00 -0.1026E+00
    -28.629  0.2569E+01  0.1697E+00
    -28.523  0.9220E+01  0.1147E+01
    -28.417  0.7806E+01  0.1974E+01
    -28.311  0.1068E+01  0.2088E+01
    -28.205 -0.7959E+00  0.2003E+01
    -28.099 -0.1119E+00  0.1991E+01
    -27.993  0.6245E-01  0.1998E+01
    -27.887  0.1680E-01  0.2000E+01
    -27.781  0.1555E-02  0.2000E+01
    -27.675  0.6713E-04  0.2000E+01
    -27.569  0.1477E-05  0.2000E+01
    -27.463  0.1722E-07  0.2000E+01
    -27.357  0.1087E-09  0.2000E+01
    -27.251  0.3771E-12  0.2000E+01
    -27.145  0.0000E+00  0.2000E+01
    -27.039  0.0000E+00  0.2000E+01
    -26.933  0.0000E+00  0.2000E+01
    -26.827  0.0000E+00  0.2000E+01
    -26.721  0.0000E+00  0.2000E+01
    -26.615  0.0000E+00  0.2000E+01
    -26.509  0.0000E+00  0.2000E+01
    -26.403  0.0000E+00  0.2000E+01
    -26.297  0.0000E+00  0.2000E+01
    -26.191  0.0000E+00  0.2000E+01
    -26.085  0.0000E+00  0.2000E+01
    -25.979  0.0000E+00  0.2000E+01
    -25.873  0.0000E+00  0.2000E+01
    -25.767  0.0000E+00  0.2000E+01
    -25.661  0.0000E+00  0.2000E+01
    -25.555  0.0000E+00  0.2000E+01
    -25.449  0.0000E+00  0.2000E+01
    -25.343  0.0000E+00  0.2000E+01
    -25.237  0.0000E+00  0.2000E+01
    -25.131  0.0000E+00  0.2000E+01
    -25.025  0.0000E+00  0.2000E+01
    -24.919  0.0000E+00  0.2000E+01
    -24.813  0.0000E+00  0.2000E+01
    -24.707  0.0000E+00  0.2000E+01
    -24.601  0.0000E+00  0.2000E+01
    -24.495  0.0000E+00  0.2000E+01
    -24.389  0.0000E+00  0.2000E+01
    -24.283  0.0000E+00  0.2000E+01
    -24.177  0.0000E+00  0.2000E+01
    -24.071  0.0000E+00  0.2000E+01
    -23.965  0.0000E+00  0.2000E+01
    -23.859  0.0000E+00  0.2000E+01
    -23.753  0.0000E+00  0.2000E+01
    -23.647  0.0000E+00  0.2000E+01
    -23.541  0.0000E+00  0.2000E+01
    -23.435  0.0000E+00  0.2000E+01
    -23.329  0.0000E+00  0.2000E+01
    -23.223  0.0000E+00  0.2000E+01
    -23.117  0.0000E+00  0.2000E+01
    -23.011  0.0000E+00  0.2000E+01
    -22.905  0.0000E+00  0.2000E+01
    -22.799  0.0000E+00  0.2000E+01
    -22.693  0.0000E+00  0.2000E+01
    -22.587  0.0000E+00  0.2000E+01
    -22.481  0.0000E+00  0.2000E+01
    -22.375  0.0000E+00  0.2000E+01
    -22.269  0.0000E+00  0.2000E+01
    -22.163  0.0000E+00  0.2000E+01
    -22.057  0.0000E+00  0.2000E+01
    -21.951  0.0000E+00  0.2000E+01
    -21.845  0.0000E+00  0.2000E+01
    -21.739  0.0000E+00  0.2000E+01
    -21.633  0.0000E+00  0.2000E+01
    -21.527  0.0000E+00  0.2000E+01
    -21.421  0.0000E+00  0.2000E+01
    -21.315  0.0000E+00  0.2000E+01
    -21.209  0.0000E+00  0.2000E+01
    -21.103  0.0000E+00  0.2000E+01
    -20.997  0.0000E+00  0.2000E+01
    -20.891  0.0000E+00  0.2000E+01
    -20.785  0.0000E+00  0.2000E+01
    -20.679  0.0000E+00  0.2000E+01
    -20.573  0.0000E+00  0.2000E+01
    -20.467  0.0000E+00  0.2000E+01
    -20.361  0.0000E+00  0.2000E+01
    -20.255  0.0000E+00  0.2000E+01
    -20.149  0.0000E+00  0.2000E+01
    -20.043  0.0000E+00  0.2000E+01
    -19.937  0.0000E+00  0.2000E+01
    -19.831  0.0000E+00  0.2000E+01
    -19.725  0.0000E+00  0.2000E+01
    -19.619  0.0000E+00  0.2000E+01
    -19.513  0.0000E+00  0.2000E+01
    -19.407  0.0000E+00  0.2000E+01
    -19.301  0.0000E+00  0.2000E+01
    -19.195  0.0000E+00  0.2000E+01
    -19.089  0.0000E+00  0.2000E+01
    -18.983  0.0000E+00  0.2000E+01
    -18.877  0.0000E+00  0.2000E+01
    -18.771  0.0000E+00  0.2000E+01
    -18.665  0.0000E+00  0.2000E+01
    -18.559  0.0000E+00  0.2000E+01
    -18.453  0.0000E+00  0.2000E+01
    -18.347  0.0000E+00  0.2000E+01
    -18.241  0.0000E+00  0.2000E+01
    -18.135  0.0000E+00  0.2000E+01
    -18.029  0.0000E+00  0.2000E+01
    -17.923  0.0000E+00  0.2000E+01
    -17.817  0.0000E+00  0.2000E+01
    -17.711  0.0000E+00  0.2000E+01
    -17.605  0.0000E+00  0.2000E+01
    -17.499  0.0000E+00  0.2000E+01
    -17.393  0.0000E+00  0.2000E+01
    -17.287  0.0000E+00  0.2000E+01
    -17.181  0.0000E+00  0.2000E+01
    -17.075  0.0000E+00  0.2000E+01
    -16.969  0.0000E+00  0.2000E+01
    -16.863  0.0000E+00  0.2000E+01
    -16.757  0.0000E+00  0.2000E+01
    -16.651  0.0000E+00  0.2000E+01
    -16.545  0.0000E+00  0.2000E+01
    -16.439  0.0000E+00  0.2000E+01
    -16.333  0.0000E+00  0.2000E+01
    -16.227  0.0000E+00  0.2000E+01
    -16.121  0.0000E+00  0.2000E+01
    -16.015  0.0000E+00  0.2000E+01
    -15.909  0.0000E+00  0.2000E+01
    -15.803  0.0000E+00  0.2000E+01
    -15.697  0.0000E+00  0.2000E+01
    -15.591  0.0000E+00  0.2000E+01
    -15.485  0.0000E+00  0.2000E+01
    -15.379  0.0000E+00  0.2000E+01
    -15.273  0.0000E+00  0.2000E+01
    -15.167  0.0000E+00  0.2000E+01
    -15.061  0.5176E-26  0.2000E+01
    -14.955  0.1957E-22  0.2000E+01
    -14.849  0.4153E-19  0.2000E+01
    -14.743  0.4929E-16  0.2000E+01
    -14.637  0.3260E-13  0.2000E+01
    -14.531  0.1198E-10  0.2000E+01
    -14.425  0.2419E-08  0.2000E+01
    -14.319  0.2660E-06  0.2000E+01
    -14.213  0.1566E-04  0.2000E+01
    -14.107  0.4786E-03  0.2000E+01
    -14.001  0.7146E-02  0.2001E+01
    -13.895  0.4397E-01  0.2005E+01
    -13.789  0.2575E-01  0.2008E+01
    -13.683 -0.5336E+00  0.1952E+01
    -13.577 -0.3541E+00  0.1914E+01
    -13.471  0.4937E+01  0.2437E+01
    -13.365  0.1002E+02  0.3499E+01
    -13.259  0.5438E+01  0.4075E+01
    -13.153 -0.1908E+00  0.4055E+01
    -13.047 -0.5875E+00  0.3993E+01
    -12.941  0.1103E-01  0.3994E+01
    -12.835  0.4759E-01  0.3999E+01
    -12.729  0.8326E-02  0.4000E+01
    -12.623  0.5875E-03  0.4000E+01
    -12.517  0.2012E-04  0.4000E+01
    -12.411  0.3567E-06  0.4000E+01
    -12.305  0.3381E-08  0.4000E+01
    -12.199  0.1849E-10  0.4000E+01
    -12.093  0.2795E-09  0.4000E+01
    -11.987  0.4061E-07  0.4000E+01
    -11.881  0.3210E-05  0.4000E+01
    -11.775  0.1353E-03  0.4000E+01
    -11.669  0.2931E-02  0.4000E+01
    -11.563  0.3001E-01  0.4004E+01
    -11.457  0.1082E+00  0.4015E+01
    -11.351 -0.1748E+00  0.3996E+01
    -11.245 -0.1302E+01  0.3858E+01
    -11.139  0.1648E+01  0.4033E+01
    -11.033  0.1315E+02  0.5428E+01
    -10.927  0.1792E+02  0.7327E+01
    -10.821  0.1162E+02  0.8559E+01
    -10.715  0.8996E+01  0.9513E+01
    -10.609  0.5061E+01  0.1005E+02
    -10.503  0.2594E-01  0.1005E+02
    -10.397 -0.5590E+00  0.9993E+01
    -10.291  0.8283E-02  0.9994E+01
    -10.185  0.5100E-01  0.9999E+01
    -10.079  0.9355E-02  0.1000E+02
     -9.973  0.6858E-03  0.1000E+02
     -9.867  0.2431E-04  0.1000E+02
     -9.761  0.4453E-06  0.1000E+02
     -9.655  0.4356E-08  0.1000E+02
     -9.549  0.2316E-10  0.1000E+02
     -9.443  0.6703E-13  0.1000E+02
     -9.337  0.0000E+00  0.1000E+02
     -9.231  0.0000E+00  0.1000E+02
     -9.125  0.0000E+00  0.1000E+02
     -9.019  0.0000E+00  0.1000E+02
     -8.913  0.0000E+00  0.1000E+02
     -8.807  0.0000E+00  0.1000E+02
     -8.701  0.0000E+00  0.1000E+02
     -8.595  0.0000E+00  0.1000E+02
     -8.489  0.0000E+00  0.1000E+02
     -8.383  0.0000E+00  0.1000E+02
     -8.277  0.2820E-25  0.1000E+02
     -8.171  0.9499E-22  0.1000E+02
     -8.065  0.1795E-18  0.1000E+02
     -7.959  0.1895E-15  0.1000E+02
     -7.853  0.1114E-12  0.1000E+02
     -7.747  0.3637E-10  0.1000E+02
     -7.641  0.6510E-08  0.1000E+02
     -7.535  0.6327E-06  0.1000E+02
     -7.429  0.3276E-04  0.1000E+02
     -7.323  0.8734E-03  0.1000E+02
     -7.217  0.1114E-01  0.1000E+02
     -7.111  0.5445E-01  0.1001E+02
     -7.005 -0.2724E-01  0.1000E+02
     -6.899 -0.6832E+00  0.9932E+01
     -6.793  0.2584E+00  0.9959E+01
     -6.687  0.6583E+01  0.1066E+02
     -6.581  0.9751E+01  0.1169E+02
     -6.475  0.2215E+01  0.1193E+02
     -6.369 -0.4489E-01  0.1192E+02
     -6.263  0.1700E+02  0.1372E+02
     -6.157  0.3779E+02  0.1773E+02
     -6.051  0.3205E+02  0.2113E+02
     -5.945  0.8121E+01  0.2199E+02
     -5.839  0.1330E+02  0.2340E+02
     -5.733  0.5663E+02  0.2940E+02
     -5.627  0.1277E+03  0.4293E+02
     -5.521  0.2336E+03  0.6770E+02
     -5.415  0.2997E+03  0.9947E+02
     -5.309  0.2519E+03  0.1262E+03
     -5.203  0.2008E+03  0.1475E+03
     -5.097  0.2592E+03  0.1749E+03
     -4.991  0.3545E+03  0.2125E+03
     -4.885  0.3489E+03  0.2495E+03
     -4.779  0.2893E+03  0.2802E+03
     -4.673  0.3320E+03  0.3153E+03
     -4.567  0.4085E+03  0.3586E+03
     -4.461  0.4160E+03  0.4027E+03
     -4.355  0.4664E+03  0.4522E+03
     -4.249  0.5572E+03  0.5112E+03
     -4.143  0.4564E+03  0.5596E+03
     -4.037  0.1815E+03  0.5789E+03
     -3.931  0.2470E+02  0.5815E+03
     -3.825  0.2607E+02  0.5842E+03
     -3.719  0.2929E+02  0.5873E+03
     -3.613  0.8250E+01  0.5882E+03
     -3.507  0.1377E+02  0.5897E+03
     -3.401  0.2602E+02  0.5924E+03
     -3.295  0.1229E+02  0.5937E+03
     -3.189 -0.5789E+00  0.5937E+03
     -3.083  0.2733E+02  0.5966E+03
     -2.977  0.6320E+02  0.6033E+03
     -2.871  0.4696E+02  0.6082E+03
     -2.765  0.1258E+02  0.6096E+03
     -2.659  0.5933E+01  0.6102E+03
     -2.553  0.2278E+02  0.6126E+03
     -2.447  0.2560E+02  0.6153E+03
     -2.341  0.6750E+01  0.6161E+03
     -2.235  0.9929E+01  0.6171E+03
     -2.129  0.3116E+02  0.6204E+03
     -2.023  0.3376E+02  0.6240E+03
     -1.917  0.3439E+02  0.6276E+03
     -1.811  0.4560E+02  0.6325E+03
     -1.705  0.4808E+02  0.6376E+03
     -1.599  0.4018E+02  0.6418E+03
     -1.493  0.2751E+02  0.6447E+03
     -1.387  0.2114E+02  0.6470E+03
     -1.281  0.1798E+02  0.6489E+03
     -1.175  0.6431E+01  0.6496E+03
     -1.069  0.1904E+02  0.6516E+03
     -0.963  0.6571E+02  0.6585E+03
     -0.857  0.7826E+02  0.6668E+03
     -0.751  0.4085E+02  0.6712E+03
     -0.645  0.9076E+01  0.6721E+03
     -0.539 -0.5449E+00  0.6721E+03
     -0.433 -0.8981E+00  0.6720E+03
     -0.327  0.2088E-01  0.6720E+03
     -0.221  0.1364E+00  0.6720E+03
     -0.115  0.3468E-01  0.6720E+03
     -0.009  0.3545E-02  0.6720E+03
      0.097  0.1750E-03  0.6720E+03
      0.203  0.4453E-05  0.6720E+03
      0.309  0.6033E-07  0.6720E+03
      0.415  0.4432E-09  0.6720E+03
      0.521  0.1785E-11  0.6720E+03
      0.627  0.4190E-14  0.6720E+03
      0.733  0.0000E+00  0.6720E+03
      0.839  0.0000E+00  0.6720E+03
      0.945  0.0000E+00  0.6720E+03
      1.051  0.0000E+00  0.6720E+03
      1.157  0.0000E+00  0.6720E+03
      1.263  0.0000E+00  0.6720E+03
