  57  57   0   0
  0.4736842E+03  0.3000000E-08  0.3000000E-08  0.3000000E-08  0.5000000E-15
  1.000000000000000E-004
  CAR 
 6_Pd100_top_free_z(O)                   
      1.32713449    -31.02688809  301     -4.11991632      1.00000000
    -31.027  0.0000E+00  0.0000E+00
    -30.919  0.0000E+00  0.0000E+00
    -30.811  0.0000E+00  0.0000E+00
    -30.703  0.4474E-27  0.4825E-28
    -30.596  0.2293E-23  0.2474E-24
    -30.488  0.6468E-20  0.6978E-21
    -30.380  0.1001E-16  0.1080E-17
    -30.272  0.8459E-14  0.9133E-15
    -30.164  0.3896E-11  0.4211E-12
    -30.056  0.9675E-09  0.1048E-09
    -29.948  0.1284E-06  0.1395E-07
    -29.841  0.8951E-05  0.9793E-06
    -29.733  0.3187E-03  0.3535E-04
    -29.625  0.5466E-02  0.6249E-03
    -29.517  0.3869E-01  0.4797E-02
    -29.409  0.3910E-01  0.9014E-02
    -29.301 -0.4815E+00 -0.4291E-01
    -29.193 -0.4429E+00 -0.9068E-01
    -29.086  0.4719E+01  0.4183E+00
    -28.978  0.9991E+01  0.1496E+01
    -28.870  0.5397E+01  0.2078E+01
    -28.762 -0.2399E+00  0.2052E+01
    -28.654 -0.5551E+00  0.1992E+01
    -28.546  0.2292E-01  0.1995E+01
    -28.439  0.4356E-01  0.1999E+01
    -28.331  0.6780E-02  0.2000E+01
    -28.223  0.4241E-03  0.2000E+01
    -28.115  0.1268E-04  0.2000E+01
    -28.007  0.1929E-06  0.2000E+01
    -27.899  0.1539E-08  0.2000E+01
    -27.791  0.6551E-11  0.2000E+01
    -27.684  0.1441E-13  0.2000E+01
    -27.576  0.0000E+00  0.2000E+01
    -27.468  0.0000E+00  0.2000E+01
    -27.360  0.0000E+00  0.2000E+01
    -27.252  0.0000E+00  0.2000E+01
    -27.144  0.0000E+00  0.2000E+01
    -27.037  0.0000E+00  0.2000E+01
    -26.929  0.0000E+00  0.2000E+01
    -26.821  0.0000E+00  0.2000E+01
    -26.713  0.0000E+00  0.2000E+01
    -26.605  0.0000E+00  0.2000E+01
    -26.497  0.0000E+00  0.2000E+01
    -26.389  0.0000E+00  0.2000E+01
    -26.282  0.0000E+00  0.2000E+01
    -26.174  0.0000E+00  0.2000E+01
    -26.066  0.0000E+00  0.2000E+01
    -25.958  0.0000E+00  0.2000E+01
    -25.850  0.0000E+00  0.2000E+01
    -25.742  0.0000E+00  0.2000E+01
    -25.635  0.0000E+00  0.2000E+01
    -25.527  0.0000E+00  0.2000E+01
    -25.419  0.0000E+00  0.2000E+01
    -25.311  0.0000E+00  0.2000E+01
    -25.203  0.0000E+00  0.2000E+01
    -25.095  0.0000E+00  0.2000E+01
    -24.987  0.0000E+00  0.2000E+01
    -24.880  0.0000E+00  0.2000E+01
    -24.772  0.0000E+00  0.2000E+01
    -24.664  0.0000E+00  0.2000E+01
    -24.556  0.0000E+00  0.2000E+01
    -24.448  0.0000E+00  0.2000E+01
    -24.340  0.0000E+00  0.2000E+01
    -24.233  0.0000E+00  0.2000E+01
    -24.125  0.0000E+00  0.2000E+01
    -24.017  0.0000E+00  0.2000E+01
    -23.909  0.0000E+00  0.2000E+01
    -23.801  0.0000E+00  0.2000E+01
    -23.693  0.0000E+00  0.2000E+01
    -23.585  0.0000E+00  0.2000E+01
    -23.478  0.0000E+00  0.2000E+01
    -23.370  0.0000E+00  0.2000E+01
    -23.262  0.0000E+00  0.2000E+01
    -23.154  0.0000E+00  0.2000E+01
    -23.046  0.0000E+00  0.2000E+01
    -22.938  0.0000E+00  0.2000E+01
    -22.831  0.0000E+00  0.2000E+01
    -22.723  0.0000E+00  0.2000E+01
    -22.615  0.0000E+00  0.2000E+01
    -22.507  0.0000E+00  0.2000E+01
    -22.399  0.0000E+00  0.2000E+01
    -22.291  0.0000E+00  0.2000E+01
    -22.183  0.0000E+00  0.2000E+01
    -22.076  0.0000E+00  0.2000E+01
    -21.968  0.0000E+00  0.2000E+01
    -21.860  0.0000E+00  0.2000E+01
    -21.752  0.0000E+00  0.2000E+01
    -21.644  0.0000E+00  0.2000E+01
    -21.536  0.0000E+00  0.2000E+01
    -21.429  0.0000E+00  0.2000E+01
    -21.321  0.0000E+00  0.2000E+01
    -21.213  0.0000E+00  0.2000E+01
    -21.105  0.0000E+00  0.2000E+01
    -20.997  0.0000E+00  0.2000E+01
    -20.889  0.0000E+00  0.2000E+01
    -20.781  0.0000E+00  0.2000E+01
    -20.674  0.0000E+00  0.2000E+01
    -20.566  0.0000E+00  0.2000E+01
    -20.458  0.0000E+00  0.2000E+01
    -20.350  0.0000E+00  0.2000E+01
    -20.242  0.0000E+00  0.2000E+01
    -20.134  0.0000E+00  0.2000E+01
    -20.027  0.0000E+00  0.2000E+01
    -19.919  0.0000E+00  0.2000E+01
    -19.811  0.0000E+00  0.2000E+01
    -19.703  0.0000E+00  0.2000E+01
    -19.595  0.0000E+00  0.2000E+01
    -19.487  0.0000E+00  0.2000E+01
    -19.379  0.0000E+00  0.2000E+01
    -19.272  0.0000E+00  0.2000E+01
    -19.164  0.0000E+00  0.2000E+01
    -19.056  0.0000E+00  0.2000E+01
    -18.948  0.0000E+00  0.2000E+01
    -18.840  0.0000E+00  0.2000E+01
    -18.732  0.0000E+00  0.2000E+01
    -18.625  0.0000E+00  0.2000E+01
    -18.517  0.0000E+00  0.2000E+01
    -18.409  0.0000E+00  0.2000E+01
    -18.301  0.0000E+00  0.2000E+01
    -18.193  0.0000E+00  0.2000E+01
    -18.085  0.0000E+00  0.2000E+01
    -17.977  0.0000E+00  0.2000E+01
    -17.870  0.0000E+00  0.2000E+01
    -17.762  0.0000E+00  0.2000E+01
    -17.654  0.0000E+00  0.2000E+01
    -17.546  0.0000E+00  0.2000E+01
    -17.438  0.0000E+00  0.2000E+01
    -17.330  0.0000E+00  0.2000E+01
    -17.223  0.0000E+00  0.2000E+01
    -17.115  0.0000E+00  0.2000E+01
    -17.007  0.0000E+00  0.2000E+01
    -16.899  0.0000E+00  0.2000E+01
    -16.791  0.0000E+00  0.2000E+01
    -16.683  0.0000E+00  0.2000E+01
    -16.575  0.0000E+00  0.2000E+01
    -16.468  0.0000E+00  0.2000E+01
    -16.360  0.0000E+00  0.2000E+01
    -16.252  0.0000E+00  0.2000E+01
    -16.144  0.0000E+00  0.2000E+01
    -16.036  0.0000E+00  0.2000E+01
    -15.928  0.0000E+00  0.2000E+01
    -15.820  0.0000E+00  0.2000E+01
    -15.713  0.0000E+00  0.2000E+01
    -15.605  0.0000E+00  0.2000E+01
    -15.497  0.0000E+00  0.2000E+01
    -15.389  0.2758E-27  0.2000E+01
    -15.281  0.1461E-23  0.2000E+01
    -15.173  0.4257E-20  0.2000E+01
    -15.066  0.6806E-17  0.2000E+01
    -14.958  0.5947E-14  0.2000E+01
    -14.850  0.2832E-11  0.2000E+01
    -14.742  0.7275E-09  0.2000E+01
    -14.634  0.9993E-07  0.2000E+01
    -14.526  0.7221E-05  0.2000E+01
    -14.418  0.2670E-03  0.2000E+01
    -14.311  0.4778E-02  0.2001E+01
    -14.203  0.3579E-01  0.2004E+01
    -14.095  0.4664E-01  0.2009E+01
    -13.987 -0.4367E+00  0.1962E+01
    -13.879 -0.5422E+00  0.1904E+01
    -13.771  0.4310E+01  0.2369E+01
    -13.664  0.9941E+01  0.3441E+01
    -13.556  0.5809E+01  0.4067E+01
    -13.448 -0.9083E-01  0.4058E+01
    -13.340 -0.5989E+00  0.3993E+01
    -13.232  0.1054E-01  0.3994E+01
    -13.124  0.4654E-01  0.3999E+01
    -13.016  0.7704E-02  0.4000E+01
    -12.909  0.5041E-03  0.4000E+01
    -12.801  0.5416E-04  0.4000E+01
    -12.693  0.1086E-02  0.4000E+01
    -12.585  0.1460E-01  0.4002E+01
    -12.477  0.7716E-01  0.4010E+01
    -12.369 -0.1995E-02  0.4010E+01
    -12.262 -0.9233E+00  0.3910E+01
    -12.154 -0.5455E-01  0.3904E+01
    -12.046  0.9264E+01  0.4903E+01
    -11.938  0.1802E+02  0.6847E+01
    -11.830  0.1104E+02  0.8037E+01
    -11.722  0.6833E+00  0.8111E+01
    -11.614 -0.1068E+01  0.7996E+01
    -11.507 -0.7143E-01  0.7988E+01
    -11.399  0.8756E-01  0.7998E+01
    -11.291  0.1971E-01  0.8000E+01
    -11.183  0.1644E-02  0.8000E+01
    -11.075  0.6488E-04  0.8000E+01
    -10.967  0.2648E-04  0.8000E+01
    -10.860  0.7421E-03  0.8000E+01
    -10.752  0.1025E-01  0.8001E+01
    -10.644  0.5322E-01  0.8007E+01
    -10.536 -0.2637E-01  0.8004E+01
    -10.428 -0.6928E+00  0.7929E+01
    -10.320  0.3322E+00  0.7965E+01
    -10.212  0.6744E+01  0.8693E+01
    -10.105  0.9686E+01  0.9737E+01
     -9.997  0.3389E+01  0.1010E+02
     -9.889 -0.7078E+00  0.1003E+02
     -9.781 -0.3360E+00  0.9990E+01
     -9.673  0.5836E-01  0.9996E+01
     -9.565  0.2944E-01  0.1000E+02
     -9.458  0.3465E-02  0.1000E+02
     -9.350  0.1758E-03  0.1000E+02
     -9.242  0.4357E-05  0.1000E+02
     -9.134  0.5553E-07  0.1000E+02
     -9.026  0.3732E-09  0.1000E+02
     -8.918  0.1344E-11  0.1000E+02
     -8.810  0.2059E-14  0.1000E+02
     -8.703  0.0000E+00  0.1000E+02
     -8.595  0.0000E+00  0.1000E+02
     -8.487  0.0000E+00  0.1000E+02
     -8.379  0.0000E+00  0.1000E+02
     -8.271  0.1257E-26  0.1000E+02
     -8.163  0.6010E-23  0.1000E+02
     -8.056  0.1580E-19  0.1000E+02
     -7.948  0.2277E-16  0.1000E+02
     -7.840  0.1793E-13  0.1000E+02
     -7.732  0.7685E-11  0.1000E+02
     -7.624  0.1774E-08  0.1000E+02
     -7.516  0.2185E-06  0.1000E+02
     -7.408  0.1411E-04  0.1000E+02
     -7.301  0.4627E-03  0.1000E+02
     -7.193  0.7237E-02  0.1000E+02
     -7.085  0.4507E-01  0.1001E+02
     -6.977  0.1692E-01  0.1001E+02
     -6.869 -0.5768E+00  0.9945E+01
     -6.761 -0.1547E+00  0.9929E+01
     -6.654  0.5696E+01  0.1054E+02
     -6.546  0.1013E+02  0.1164E+02
     -6.438  0.3691E+01  0.1203E+02
     -6.330 -0.2336E+01  0.1178E+02
     -6.222  0.7804E+01  0.1262E+02
     -6.114  0.3066E+02  0.1593E+02
     -6.006  0.3561E+02  0.1977E+02
     -5.899  0.1953E+02  0.2188E+02
     -5.791  0.2456E+02  0.2452E+02
     -5.683  0.6770E+02  0.3183E+02
     -5.575  0.1552E+03  0.4857E+02
     -5.467  0.2634E+03  0.7697E+02
     -5.359  0.2881E+03  0.1080E+03
     -5.252  0.2292E+03  0.1328E+03
     -5.144  0.2193E+03  0.1564E+03
     -5.036  0.2969E+03  0.1884E+03
     -4.928  0.3601E+03  0.2273E+03
     -4.820  0.3314E+03  0.2630E+03
     -4.712  0.3106E+03  0.2965E+03
     -4.604  0.3736E+03  0.3368E+03
     -4.497  0.4097E+03  0.3810E+03
     -4.389  0.4196E+03  0.4262E+03
     -4.281  0.5138E+03  0.4816E+03
     -4.173  0.5361E+03  0.5395E+03
     -4.065  0.3094E+03  0.5728E+03
     -3.957  0.6945E+02  0.5803E+03
     -3.850  0.1545E+02  0.5820E+03
     -3.742  0.2804E+02  0.5850E+03
     -3.634  0.1974E+02  0.5871E+03
     -3.526  0.1512E+02  0.5888E+03
     -3.418  0.1942E+02  0.5909E+03
     -3.310  0.1263E+02  0.5922E+03
     -3.202  0.5664E+01  0.5928E+03
     -3.095  0.2315E+02  0.5953E+03
     -2.987  0.5699E+02  0.6015E+03
     -2.879  0.5243E+02  0.6071E+03
     -2.771  0.1918E+02  0.6092E+03
     -2.663  0.4942E+01  0.6097E+03
     -2.555  0.1057E+02  0.6109E+03
     -2.448  0.2265E+02  0.6133E+03
     -2.340  0.2368E+02  0.6159E+03
     -2.232  0.1714E+02  0.6177E+03
     -2.124  0.1961E+02  0.6198E+03
     -2.016  0.3122E+02  0.6232E+03
     -1.908  0.4261E+02  0.6278E+03
     -1.800  0.4742E+02  0.6329E+03
     -1.693  0.3767E+02  0.6370E+03
     -1.585  0.3303E+02  0.6405E+03
     -1.477  0.3640E+02  0.6445E+03
     -1.369  0.2843E+02  0.6475E+03
     -1.261  0.1766E+02  0.6494E+03
     -1.153  0.1720E+02  0.6513E+03
     -1.045  0.2688E+02  0.6542E+03
     -0.938  0.4822E+02  0.6594E+03
     -0.830  0.5718E+02  0.6655E+03
     -0.722  0.4050E+02  0.6699E+03
     -0.614  0.1793E+02  0.6719E+03
     -0.506  0.2764E+01  0.6721E+03
     -0.398 -0.1300E+01  0.6720E+03
     -0.291 -0.2906E+00  0.6720E+03
     -0.183  0.1467E+00  0.6720E+03
     -0.075  0.5380E-01  0.6720E+03
      0.033  0.6395E-02  0.6720E+03
      0.141  0.3467E-03  0.6720E+03
      0.249  0.9389E-05  0.6720E+03
      0.357  0.1320E-06  0.6720E+03
      0.464  0.9835E-09  0.6720E+03
      0.572  0.3935E-11  0.6720E+03
      0.680  0.8236E-14  0.6720E+03
      0.788  0.0000E+00  0.6720E+03
      0.896  0.0000E+00  0.6720E+03
      1.004  0.0000E+00  0.6720E+03
      1.111  0.0000E+00  0.6720E+03
      1.219  0.0000E+00  0.6720E+03
      1.327  0.0000E+00  0.6720E+03
