 running on    1 total cores
 distrk:  each k-point on    1 cores,    1 groups
 distr:  one band on    1 cores,    1 groups
 using from now: INCAR     
 vasp.5.4.4.18Apr17-6-g9f103f2a35 (build Sep 03 2018 23:53:05) complex          
  
 POSCAR found type information on POSCAR  Pd C  O 
 POSCAR found :  3 types and      57 ions
 scaLAPACK will be used

 ----------------------------------------------------------------------------- 
|                                                                             |
|  ADVICE TO THIS USER RUNNING 'VASP/VAMP'   (HEAR YOUR MASTER'S VOICE ...):  |
|                                                                             |
|      You enforced a specific xc-type in the INCAR file,                     |
|      a different type was found on the POTCAR file                          |
|          I HOPE YOU KNOW, WHAT YOU ARE  DOING                               |
|                                                                             |
 ----------------------------------------------------------------------------- 

 LDA part: xc-table for Pade appr. of Perdew
 POSCAR, INCAR and KPOINTS ok, starting setup
 FFT: planning ...
 WAVECAR not read
 entering main loop
       N       E                     dE             d eps       ncg     rms          rms(c)
DAV:   1     0.440674553100E+04    0.44067E+04   -0.10061E+05   688   0.815E+02
DAV:   2     0.201407746854E+04   -0.23927E+04   -0.21533E+04  1224   0.106E+02
DAV:   3     0.233561128142E+03   -0.17805E+04   -0.16747E+04  1000   0.918E+01
DAV:   4    -0.134165743022E+03   -0.36773E+03   -0.30990E+03   824   0.438E+01
DAV:   5    -0.178981773377E+03   -0.44816E+02   -0.37012E+02  1048   0.148E+01    0.200E+01
RMM:   6    -0.179292042801E+03   -0.31027E+00   -0.68408E+01   730   0.988E+00    0.255E+01
RMM:   7    -0.181503376966E+03   -0.22113E+01   -0.22022E+01   842   0.505E+00    0.254E+01
RMM:   8    -0.184498835421E+03   -0.29955E+01   -0.10957E+01   763   0.445E+00    0.327E+01
RMM:   9    -0.182060448262E+03    0.24384E+01   -0.74093E+00   744   0.366E+00    0.274E+01
RMM:  10    -0.179783693334E+03    0.22768E+01   -0.71534E+00   726   0.389E+00    0.263E+01
RMM:  11    -0.177328604794E+03    0.24551E+01   -0.53462E+00   716   0.328E+00    0.222E+01
RMM:  12    -0.178223951026E+03   -0.89535E+00   -0.46235E+00   725   0.273E+00    0.263E+01
RMM:  13    -0.180115748100E+03   -0.18918E+01   -0.35437E+00   719   0.270E+00    0.402E+01
RMM:  14    -0.176989734730E+03    0.31260E+01   -0.32706E+00   721   0.221E+00    0.267E+01
RMM:  15    -0.175003399835E+03    0.19863E+01   -0.10870E+00   711   0.149E+00    0.141E+01
RMM:  16    -0.174887325724E+03    0.11607E+00   -0.12358E+00   705   0.164E+00    0.171E+01
RMM:  17    -0.174503489082E+03    0.38384E+00   -0.64153E-01   714   0.119E+00    0.154E+01
RMM:  18    -0.173899554436E+03    0.60393E+00   -0.59659E-01   706   0.114E+00    0.861E+00
RMM:  19    -0.173626720604E+03    0.27283E+00   -0.49882E-01   698   0.103E+00    0.966E+00
RMM:  20    -0.173425980231E+03    0.20074E+00   -0.29301E-01   698   0.807E-01    0.790E+00
RMM:  21    -0.173365289240E+03    0.60691E-01   -0.24331E-01   697   0.732E-01    0.763E+00
RMM:  22    -0.173346755728E+03    0.18534E-01   -0.16620E-01   694   0.627E-01    0.966E+00
RMM:  23    -0.173213739457E+03    0.13302E+00   -0.15434E-01   697   0.622E-01    0.685E+00
RMM:  24    -0.173205984131E+03    0.77553E-02   -0.16031E-01   692   0.631E-01    0.660E+00
RMM:  25    -0.173202128401E+03    0.38557E-02   -0.15004E-01   691   0.599E-01    0.732E+00
RMM:  26    -0.173143461180E+03    0.58667E-01   -0.12584E-01   691   0.564E-01    0.583E+00
RMM:  27    -0.173087370866E+03    0.56090E-01   -0.92718E-02   694   0.475E-01    0.562E+00
RMM:  28    -0.172975691394E+03    0.11168E+00   -0.69178E-02   690   0.412E-01    0.281E+00
RMM:  29    -0.172938911845E+03    0.36780E-01   -0.40553E-02   689   0.317E-01    0.188E+00
RMM:  30    -0.172940362690E+03   -0.14508E-02   -0.22353E-02   691   0.239E-01    0.210E+00
RMM:  31    -0.172920792186E+03    0.19571E-01   -0.10707E-02   692   0.175E-01    0.119E+00
RMM:  32    -0.172918806556E+03    0.19856E-02   -0.92157E-03   692   0.154E-01    0.121E+00
RMM:  33    -0.172918408611E+03    0.39794E-03   -0.99645E-03   692   0.156E-01    0.128E+00
RMM:  34    -0.172911372169E+03    0.70364E-02   -0.70349E-03   688   0.138E-01    0.743E-01
RMM:  35    -0.172910599991E+03    0.77218E-03   -0.34072E-03   688   0.100E-01    0.587E-01
RMM:  36    -0.172911617028E+03   -0.10170E-02   -0.30632E-03   689   0.859E-02    0.649E-01
RMM:  37    -0.172911021006E+03    0.59602E-03   -0.19521E-03   688   0.727E-02    0.398E-01
RMM:  38    -0.172913275204E+03   -0.22542E-02   -0.17770E-03   684   0.645E-02    0.452E-01
RMM:  39    -0.172915014735E+03   -0.17395E-02   -0.10982E-03   684   0.533E-02    0.323E-01
RMM:  40    -0.172916613185E+03   -0.15985E-02   -0.68381E-04   661   0.408E-02    0.322E-01
RMM:  41    -0.172918695820E+03   -0.20826E-02   -0.50093E-04   568   0.360E-02    0.270E-01
RMM:  42    -0.172919870249E+03   -0.11744E-02   -0.30651E-04   429   0.294E-02    0.236E-01
RMM:  43    -0.172922068790E+03   -0.21985E-02   -0.37633E-04   470   0.300E-02    0.253E-01
RMM:  44    -0.172923600021E+03   -0.15312E-02   -0.28774E-04   417   0.270E-02    0.145E-01
RMM:  45    -0.172925760343E+03   -0.21603E-02   -0.31263E-04   447   0.248E-02    0.159E-01
RMM:  46    -0.172927672280E+03   -0.19119E-02   -0.27024E-04   417   0.233E-02    0.124E-01
RMM:  47    -0.172929346039E+03   -0.16738E-02   -0.24230E-04   420   0.206E-02    0.140E-01
RMM:  48    -0.172931538206E+03   -0.21922E-02   -0.30880E-04   460   0.211E-02    0.915E-02
RMM:  49    -0.172932336499E+03   -0.79829E-03   -0.13367E-04   414   0.148E-02    0.728E-02
RMM:  50    -0.172934015251E+03   -0.16788E-02   -0.16950E-04   409   0.152E-02    0.813E-02
RMM:  51    -0.172934631691E+03   -0.61644E-03   -0.96305E-05   410   0.122E-02    0.376E-02
RMM:  52    -0.172935417888E+03   -0.78620E-03   -0.71801E-05   411   0.994E-03    0.417E-02
RMM:  53    -0.172935940058E+03   -0.52217E-03   -0.45531E-05   399   0.763E-03    0.248E-02
RMM:  54    -0.172936403083E+03   -0.46303E-03   -0.28964E-05   373   0.607E-03    0.311E-02
RMM:  55    -0.172936901203E+03   -0.49812E-03   -0.23573E-05   326   0.558E-03    0.198E-02
RMM:  56    -0.172937100261E+03   -0.19906E-03   -0.63705E-06   197   0.418E-03    0.170E-02
RMM:  57    -0.172937490909E+03   -0.39065E-03   -0.88567E-06   207   0.417E-03    0.136E-02
RMM:  58    -0.172937667589E+03   -0.17668E-03   -0.49320E-06   157   0.380E-03    0.127E-02
RMM:  59    -0.172937916245E+03   -0.24866E-03   -0.57239E-06   163   0.395E-03    0.107E-02
RMM:  60    -0.172938074286E+03   -0.15804E-03   -0.79489E-06   178   0.390E-03    0.951E-03
RMM:  61    -0.172938127389E+03   -0.53103E-04   -0.25561E-06   100   0.336E-03
   1 F= -.17293813E+03 E0= -.17293758E+03  d E =-.217734E-02
================================= SLURM INFO ===================================
Command: run-cluster -n 1 -m 10000 -j 0032_vasp --same-node /opt/VASP/vasp
Exit code: 0
Job name: 0032_vasp
Job time: 0 days 5h:10m:9s
MPI task count: 1
Working dir: /home/pashkov/pyFitIt/pyfitit/data/random_pd_co_new/sample/0032
Job was running on nodes: h2
Task per node: 1
       JobID     MaxRSS  MaxDiskRead MaxDiskWrite    Elapsed    JobName 
------------ ---------- ------------ ------------ ---------- ---------- 
105311                                              05:10:10  0032_vasp 
105311.batch                                        05:10:10      batch 
