  57  57   0   0
  0.4736842E+03  0.3000000E-08  0.3000000E-08  0.3000000E-08  0.5000000E-15
  1.000000000000000E-004
  CAR 
 6_Pd100_top_free_z(O)                   
      1.27355852    -31.20921658  301     -4.13121504      1.00000000
    -31.209  0.0000E+00  0.0000E+00
    -31.101  0.0000E+00  0.0000E+00
    -30.993  0.0000E+00  0.0000E+00
    -30.884  0.4952E-27  0.5362E-28
    -30.776  0.2604E-23  0.2820E-24
    -30.668  0.7500E-20  0.8123E-21
    -30.560  0.1179E-16  0.1277E-17
    -30.451  0.1008E-13  0.1092E-14
    -30.343  0.4670E-11  0.5068E-12
    -30.235  0.1161E-08  0.1262E-09
    -30.126  0.1533E-06  0.1673E-07
    -30.018  0.1058E-04  0.1162E-05
    -29.910  0.3701E-03  0.4123E-04
    -29.802  0.6175E-02  0.7099E-03
    -29.693  0.4160E-01  0.5214E-02
    -29.585  0.2905E-01  0.8360E-02
    -29.477 -0.5323E+00 -0.4927E-01
    -29.369 -0.2970E+00 -0.8143E-01
    -29.260  0.5246E+01  0.4865E+00
    -29.152  0.9994E+01  0.1569E+01
    -29.044  0.4811E+01  0.2089E+01
    -28.935 -0.4245E+00  0.2044E+01
    -28.827 -0.4849E+00  0.1991E+01
    -28.719  0.3889E-01  0.1995E+01
    -28.611  0.3849E-01  0.1999E+01
    -28.502  0.5372E-02  0.2000E+01
    -28.394  0.3077E-03  0.2000E+01
    -28.286  0.8448E-05  0.2000E+01
    -28.177  0.1179E-06  0.2000E+01
    -28.069  0.8604E-09  0.2000E+01
    -27.961  0.3343E-11  0.2000E+01
    -27.853  0.6152E-14  0.2000E+01
    -27.744  0.0000E+00  0.2000E+01
    -27.636  0.0000E+00  0.2000E+01
    -27.528  0.0000E+00  0.2000E+01
    -27.420  0.0000E+00  0.2000E+01
    -27.311  0.0000E+00  0.2000E+01
    -27.203  0.0000E+00  0.2000E+01
    -27.095  0.0000E+00  0.2000E+01
    -26.986  0.0000E+00  0.2000E+01
    -26.878  0.0000E+00  0.2000E+01
    -26.770  0.0000E+00  0.2000E+01
    -26.662  0.0000E+00  0.2000E+01
    -26.553  0.0000E+00  0.2000E+01
    -26.445  0.0000E+00  0.2000E+01
    -26.337  0.0000E+00  0.2000E+01
    -26.229  0.0000E+00  0.2000E+01
    -26.120  0.0000E+00  0.2000E+01
    -26.012  0.0000E+00  0.2000E+01
    -25.904  0.0000E+00  0.2000E+01
    -25.795  0.0000E+00  0.2000E+01
    -25.687  0.0000E+00  0.2000E+01
    -25.579  0.0000E+00  0.2000E+01
    -25.471  0.0000E+00  0.2000E+01
    -25.362  0.0000E+00  0.2000E+01
    -25.254  0.0000E+00  0.2000E+01
    -25.146  0.0000E+00  0.2000E+01
    -25.037  0.0000E+00  0.2000E+01
    -24.929  0.0000E+00  0.2000E+01
    -24.821  0.0000E+00  0.2000E+01
    -24.713  0.0000E+00  0.2000E+01
    -24.604  0.0000E+00  0.2000E+01
    -24.496  0.0000E+00  0.2000E+01
    -24.388  0.0000E+00  0.2000E+01
    -24.280  0.0000E+00  0.2000E+01
    -24.171  0.0000E+00  0.2000E+01
    -24.063  0.0000E+00  0.2000E+01
    -23.955  0.0000E+00  0.2000E+01
    -23.846  0.0000E+00  0.2000E+01
    -23.738  0.0000E+00  0.2000E+01
    -23.630  0.0000E+00  0.2000E+01
    -23.522  0.0000E+00  0.2000E+01
    -23.413  0.0000E+00  0.2000E+01
    -23.305  0.0000E+00  0.2000E+01
    -23.197  0.0000E+00  0.2000E+01
    -23.089  0.0000E+00  0.2000E+01
    -22.980  0.0000E+00  0.2000E+01
    -22.872  0.0000E+00  0.2000E+01
    -22.764  0.0000E+00  0.2000E+01
    -22.655  0.0000E+00  0.2000E+01
    -22.547  0.0000E+00  0.2000E+01
    -22.439  0.0000E+00  0.2000E+01
    -22.331  0.0000E+00  0.2000E+01
    -22.222  0.0000E+00  0.2000E+01
    -22.114  0.0000E+00  0.2000E+01
    -22.006  0.0000E+00  0.2000E+01
    -21.897  0.0000E+00  0.2000E+01
    -21.789  0.0000E+00  0.2000E+01
    -21.681  0.0000E+00  0.2000E+01
    -21.573  0.0000E+00  0.2000E+01
    -21.464  0.0000E+00  0.2000E+01
    -21.356  0.0000E+00  0.2000E+01
    -21.248  0.0000E+00  0.2000E+01
    -21.140  0.0000E+00  0.2000E+01
    -21.031  0.0000E+00  0.2000E+01
    -20.923  0.0000E+00  0.2000E+01
    -20.815  0.0000E+00  0.2000E+01
    -20.706  0.0000E+00  0.2000E+01
    -20.598  0.0000E+00  0.2000E+01
    -20.490  0.0000E+00  0.2000E+01
    -20.382  0.0000E+00  0.2000E+01
    -20.273  0.0000E+00  0.2000E+01
    -20.165  0.0000E+00  0.2000E+01
    -20.057  0.0000E+00  0.2000E+01
    -19.949  0.0000E+00  0.2000E+01
    -19.840  0.0000E+00  0.2000E+01
    -19.732  0.0000E+00  0.2000E+01
    -19.624  0.0000E+00  0.2000E+01
    -19.515  0.0000E+00  0.2000E+01
    -19.407  0.0000E+00  0.2000E+01
    -19.299  0.0000E+00  0.2000E+01
    -19.191  0.0000E+00  0.2000E+01
    -19.082  0.0000E+00  0.2000E+01
    -18.974  0.0000E+00  0.2000E+01
    -18.866  0.0000E+00  0.2000E+01
    -18.757  0.0000E+00  0.2000E+01
    -18.649  0.0000E+00  0.2000E+01
    -18.541  0.0000E+00  0.2000E+01
    -18.433  0.0000E+00  0.2000E+01
    -18.324  0.0000E+00  0.2000E+01
    -18.216  0.0000E+00  0.2000E+01
    -18.108  0.0000E+00  0.2000E+01
    -18.000  0.0000E+00  0.2000E+01
    -17.891  0.0000E+00  0.2000E+01
    -17.783  0.0000E+00  0.2000E+01
    -17.675  0.0000E+00  0.2000E+01
    -17.566  0.0000E+00  0.2000E+01
    -17.458  0.0000E+00  0.2000E+01
    -17.350  0.0000E+00  0.2000E+01
    -17.242  0.0000E+00  0.2000E+01
    -17.133  0.0000E+00  0.2000E+01
    -17.025  0.0000E+00  0.2000E+01
    -16.917  0.0000E+00  0.2000E+01
    -16.809  0.0000E+00  0.2000E+01
    -16.700  0.0000E+00  0.2000E+01
    -16.592  0.0000E+00  0.2000E+01
    -16.484  0.0000E+00  0.2000E+01
    -16.375  0.0000E+00  0.2000E+01
    -16.267  0.0000E+00  0.2000E+01
    -16.159  0.0000E+00  0.2000E+01
    -16.051  0.0000E+00  0.2000E+01
    -15.942  0.0000E+00  0.2000E+01
    -15.834  0.0000E+00  0.2000E+01
    -15.726  0.0000E+00  0.2000E+01
    -15.617  0.0000E+00  0.2000E+01
    -15.509  0.0000E+00  0.2000E+01
    -15.401  0.9176E-27  0.2000E+01
    -15.293  0.4628E-23  0.2000E+01
    -15.184  0.1278E-19  0.2000E+01
    -15.076  0.1925E-16  0.2000E+01
    -14.968  0.1577E-13  0.2000E+01
    -14.860  0.7000E-11  0.2000E+01
    -14.751  0.1666E-08  0.2000E+01
    -14.643  0.2104E-06  0.2000E+01
    -14.535  0.1386E-04  0.2000E+01
    -14.426  0.4617E-03  0.2000E+01
    -14.318  0.7288E-02  0.2001E+01
    -14.210  0.4542E-01  0.2006E+01
    -14.102  0.1428E-01  0.2007E+01
    -13.993 -0.5888E+00  0.1944E+01
    -13.885 -0.1133E+00  0.1931E+01
    -13.777  0.5774E+01  0.2556E+01
    -13.669  0.9938E+01  0.3633E+01
    -13.560  0.4286E+01  0.4097E+01
    -13.452 -0.5522E+00  0.4037E+01
    -13.344 -0.4276E+00  0.3990E+01
    -13.235  0.4830E-01  0.3996E+01
    -13.127  0.3480E-01  0.3999E+01
    -13.019  0.4516E-02  0.4000E+01
    -12.911  0.2450E-03  0.4000E+01
    -12.802  0.6408E-05  0.4000E+01
    -12.694  0.8541E-07  0.4000E+01
    -12.586  0.8417E-09  0.4000E+01
    -12.477  0.4236E-07  0.4000E+01
    -12.369  0.3851E-05  0.4000E+01
    -12.261  0.1802E-03  0.4000E+01
    -12.153  0.4153E-02  0.4000E+01
    -12.044  0.4250E-01  0.4005E+01
    -11.936  0.1280E+00  0.4019E+01
    -11.828 -0.4157E+00  0.3974E+01
    -11.720 -0.1615E+01  0.3799E+01
    -11.611  0.4471E+01  0.4283E+01
    -11.503  0.1811E+02  0.6244E+01
    -11.395  0.1574E+02  0.7948E+01
    -11.286  0.2068E+01  0.8172E+01
    -11.178 -0.1560E+01  0.8003E+01
    -11.070 -0.1766E+00  0.7984E+01
    -10.962  0.1197E+00  0.7997E+01
    -10.853  0.2796E-01  0.8000E+01
    -10.745  0.2262E-02  0.8000E+01
    -10.637  0.8391E-04  0.8000E+01
    -10.529  0.1552E-05  0.8000E+01
    -10.420  0.1536E-07  0.8000E+01
    -10.312  0.7414E-07  0.8000E+01
    -10.204  0.5670E-05  0.8000E+01
    -10.095  0.2214E-03  0.8000E+01
     -9.987  0.4180E-02  0.8000E+01
     -9.879  0.3323E-01  0.8004E+01
     -9.771  0.5162E-01  0.8010E+01
     -9.662 -0.4027E+00  0.7966E+01
     -9.554 -0.5993E+00  0.7901E+01
     -9.446  0.4058E+01  0.8341E+01
     -9.337  0.9894E+01  0.9412E+01
     -9.229  0.6005E+01  0.1006E+02
     -9.121 -0.2233E-01  0.1006E+02
     -9.013 -0.6130E+00  0.9993E+01
     -8.904  0.6744E-02  0.9994E+01
     -8.796  0.4709E-01  0.9999E+01
     -8.688  0.7827E-02  0.1000E+02
     -8.580  0.5083E-03  0.1000E+02
     -8.471  0.1559E-04  0.1000E+02
     -8.363  0.2415E-06  0.1000E+02
     -8.255  0.1950E-08  0.1000E+02
     -8.146  0.8355E-11  0.1000E+02
     -8.038  0.1846E-13  0.1000E+02
     -7.930  0.2380E-15  0.1000E+02
     -7.822  0.1559E-12  0.1000E+02
     -7.713  0.5525E-10  0.1000E+02
     -7.605  0.1045E-07  0.1000E+02
     -7.497  0.1044E-05  0.1000E+02
     -7.389  0.5393E-04  0.1000E+02
     -7.280  0.1383E-02  0.1000E+02
     -7.172  0.1610E-01  0.1000E+02
     -7.064  0.6212E-01  0.1001E+02
     -6.955 -0.1228E+00  0.9995E+01
     -6.847 -0.8033E+00  0.9908E+01
     -6.739  0.1399E+01  0.1006E+02
     -6.631  0.8365E+01  0.1097E+02
     -6.522  0.8903E+01  0.1193E+02
     -6.414  0.1116E+01  0.1205E+02
     -6.306 -0.3086E+01  0.1172E+02
     -6.197  0.7692E+01  0.1255E+02
     -6.089  0.2735E+02  0.1551E+02
     -5.981  0.2028E+02  0.1771E+02
     -5.873  0.8035E+01  0.1858E+02
     -5.764  0.3072E+02  0.2190E+02
     -5.656  0.8055E+02  0.3063E+02
     -5.548  0.1835E+03  0.5049E+02
     -5.440  0.2971E+03  0.8266E+02
     -5.331  0.2863E+03  0.1137E+03
     -5.223  0.2107E+03  0.1365E+03
     -5.115  0.2335E+03  0.1618E+03
     -5.006  0.3344E+03  0.1980E+03
     -4.898  0.3629E+03  0.2372E+03
     -4.790  0.2980E+03  0.2695E+03
     -4.682  0.3160E+03  0.3037E+03
     -4.573  0.4146E+03  0.3486E+03
     -4.465  0.4297E+03  0.3951E+03
     -4.357  0.4500E+03  0.4439E+03
     -4.249  0.5542E+03  0.5039E+03
     -4.140  0.4896E+03  0.5569E+03
     -4.032  0.2047E+03  0.5790E+03
     -3.924  0.1992E+02  0.5812E+03
     -3.815  0.2082E+02  0.5835E+03
     -3.707  0.3319E+02  0.5870E+03
     -3.599  0.1071E+02  0.5882E+03
     -3.491  0.1629E+02  0.5900E+03
     -3.382  0.2805E+02  0.5930E+03
     -3.274  0.8665E+01  0.5939E+03
     -3.166 -0.2179E+01  0.5937E+03
     -3.057  0.3121E+02  0.5971E+03
     -2.949  0.6739E+02  0.6044E+03
     -2.841  0.4756E+02  0.6095E+03
     -2.733  0.6039E+01  0.6102E+03
     -2.624 -0.2106E+00  0.6102E+03
     -2.516  0.2267E+02  0.6126E+03
     -2.408  0.2901E+02  0.6158E+03
     -2.300  0.1278E+02  0.6171E+03
     -2.191  0.8737E+01  0.6181E+03
     -2.083  0.2985E+02  0.6213E+03
     -1.975  0.4793E+02  0.6265E+03
     -1.866  0.4240E+02  0.6311E+03
     -1.758  0.3663E+02  0.6351E+03
     -1.650  0.4305E+02  0.6397E+03
     -1.542  0.4570E+02  0.6447E+03
     -1.433  0.3314E+02  0.6483E+03
     -1.325  0.1646E+02  0.6501E+03
     -1.217  0.1702E+02  0.6519E+03
     -1.109  0.2433E+02  0.6545E+03
     -1.000  0.3602E+02  0.6584E+03
     -0.892  0.5976E+02  0.6649E+03
     -0.784  0.4867E+02  0.6702E+03
     -0.675  0.1632E+02  0.6719E+03
     -0.567  0.1498E+01  0.6721E+03
     -0.459 -0.8934E+00  0.6720E+03
     -0.351 -0.2216E+00  0.6720E+03
     -0.242  0.1223E+00  0.6720E+03
     -0.134  0.5123E-01  0.6720E+03
     -0.026  0.6641E-02  0.6720E+03
      0.083  0.3815E-03  0.6720E+03
      0.191  0.1073E-04  0.6720E+03
      0.299  0.1543E-06  0.6720E+03
      0.407  0.1165E-08  0.6720E+03
      0.516  0.4678E-11  0.6720E+03
      0.624  0.1025E-13  0.6720E+03
      0.732  0.0000E+00  0.6720E+03
      0.840  0.0000E+00  0.6720E+03
      0.949  0.0000E+00  0.6720E+03
      1.057  0.0000E+00  0.6720E+03
      1.165  0.0000E+00  0.6720E+03
      1.274  0.0000E+00  0.6720E+03
