 running on    1 total cores
 distrk:  each k-point on    1 cores,    1 groups
 distr:  one band on    1 cores,    1 groups
 using from now: INCAR     
 vasp.5.4.4.18Apr17-6-g9f103f2a35 (build Sep 03 2018 23:53:05) complex          
  
 POSCAR found type information on POSCAR  Pd C  O 
 POSCAR found :  3 types and      57 ions
 scaLAPACK will be used

 ----------------------------------------------------------------------------- 
|                                                                             |
|  ADVICE TO THIS USER RUNNING 'VASP/VAMP'   (HEAR YOUR MASTER'S VOICE ...):  |
|                                                                             |
|      You enforced a specific xc-type in the INCAR file,                     |
|      a different type was found on the POTCAR file                          |
|          I HOPE YOU KNOW, WHAT YOU ARE  DOING                               |
|                                                                             |
 ----------------------------------------------------------------------------- 

 LDA part: xc-table for Pade appr. of Perdew
 POSCAR, INCAR and KPOINTS ok, starting setup
 FFT: planning ...
 WAVECAR not read
 entering main loop
       N       E                     dE             d eps       ncg     rms          rms(c)
DAV:   1     0.438216103001E+04    0.43822E+04   -0.10048E+05   688   0.815E+02
DAV:   2     0.201097062498E+04   -0.23712E+04   -0.21336E+04  1232   0.105E+02
DAV:   3     0.237330011917E+03   -0.17736E+04   -0.16674E+04   984   0.917E+01
DAV:   4    -0.134476459277E+03   -0.37181E+03   -0.31556E+03   832   0.436E+01
DAV:   5    -0.178893208618E+03   -0.44417E+02   -0.36827E+02  1040   0.144E+01    0.139E+01
RMM:   6    -0.178065378568E+03    0.82783E+00   -0.48686E+01   724   0.850E+00    0.200E+01
RMM:   7    -0.180346668052E+03   -0.22813E+01   -0.17179E+01   841   0.451E+00    0.200E+01
RMM:   8    -0.182933694001E+03   -0.25870E+01   -0.61861E+00   784   0.328E+00    0.256E+01
RMM:   9    -0.180791436165E+03    0.21423E+01   -0.44845E+00   730   0.301E+00    0.274E+01
RMM:  10    -0.178972296329E+03    0.18191E+01   -0.22105E+00   736   0.215E+00    0.222E+01
RMM:  11    -0.177213581926E+03    0.17587E+01   -0.13385E+00   730   0.170E+00    0.180E+01
RMM:  12    -0.175889774159E+03    0.13238E+01   -0.10963E+00   727   0.156E+00    0.139E+01
RMM:  13    -0.175568214602E+03    0.32156E+00   -0.68011E-01   732   0.122E+00    0.132E+01
RMM:  14    -0.175796828926E+03   -0.22861E+00   -0.76476E-01   723   0.129E+00    0.155E+01
RMM:  15    -0.175391682262E+03    0.40515E+00   -0.13541E+00   706   0.170E+00    0.160E+01
RMM:  16    -0.175033852935E+03    0.35783E+00   -0.10200E+00   709   0.150E+00    0.149E+01
RMM:  17    -0.174713508030E+03    0.32034E+00   -0.64215E-01   711   0.119E+00    0.118E+01
RMM:  18    -0.174506647866E+03    0.20686E+00   -0.40946E-01   721   0.932E-01    0.107E+01
RMM:  19    -0.174616663071E+03   -0.11002E+00   -0.46516E-01   712   0.101E+00    0.115E+01
RMM:  20    -0.174342080154E+03    0.27458E+00   -0.35755E-01   716   0.896E-01    0.760E+00
RMM:  21    -0.174158345446E+03    0.18373E+00   -0.18187E-01   718   0.660E-01    0.639E+00
RMM:  22    -0.174048078650E+03    0.11027E+00   -0.13462E-01   713   0.560E-01    0.528E+00
RMM:  23    -0.173983646490E+03    0.64432E-01   -0.13849E-01   712   0.556E-01    0.497E+00
RMM:  24    -0.173915142487E+03    0.68504E-01   -0.71744E-02   716   0.415E-01    0.372E+00
RMM:  25    -0.173915194439E+03   -0.51952E-04   -0.62524E-02   712   0.382E-01    0.403E+00
RMM:  26    -0.173854157117E+03    0.61037E-01   -0.50261E-02   713   0.356E-01    0.267E+00
RMM:  27    -0.173849063222E+03    0.50939E-02   -0.36575E-02   707   0.303E-01    0.288E+00
RMM:  28    -0.173842679615E+03    0.63836E-02   -0.25179E-02   709   0.254E-01    0.272E+00
RMM:  29    -0.173813839965E+03    0.28840E-01   -0.17704E-02   708   0.215E-01    0.162E+00
RMM:  30    -0.173808162497E+03    0.56775E-02   -0.10292E-02   709   0.169E-01    0.143E+00
RMM:  31    -0.173803267157E+03    0.48953E-02   -0.88511E-03   711   0.151E-01    0.141E+00
RMM:  32    -0.173796168829E+03    0.70983E-02   -0.70591E-03   707   0.139E-01    0.966E-01
RMM:  33    -0.173794604823E+03    0.15640E-02   -0.34335E-03   708   0.997E-02    0.718E-01
RMM:  34    -0.173793810305E+03    0.79452E-03   -0.23502E-03   706   0.802E-02    0.579E-01
RMM:  35    -0.173793307964E+03    0.50234E-03   -0.16596E-03   707   0.667E-02    0.410E-01
RMM:  36    -0.173795878901E+03   -0.25709E-02   -0.18890E-03   703   0.666E-02    0.560E-01
RMM:  37    -0.173797284495E+03   -0.14056E-02   -0.12455E-03   700   0.580E-02    0.451E-01
RMM:  38    -0.173798324342E+03   -0.10398E-02   -0.62455E-04   651   0.405E-02    0.329E-01
RMM:  39    -0.173802591256E+03   -0.42669E-02   -0.11344E-03   695   0.493E-02    0.310E-01
RMM:  40    -0.173804537702E+03   -0.19464E-02   -0.56992E-04   600   0.366E-02    0.271E-01
RMM:  41    -0.173807013079E+03   -0.24754E-02   -0.51898E-04   560   0.321E-02    0.236E-01
RMM:  42    -0.173808479325E+03   -0.14662E-02   -0.27194E-04   440   0.259E-02    0.171E-01
RMM:  43    -0.173809973656E+03   -0.14943E-02   -0.20807E-04   429   0.212E-02    0.157E-01
RMM:  44    -0.173812725582E+03   -0.27519E-02   -0.32530E-04   452   0.240E-02    0.946E-02
RMM:  45    -0.173813747417E+03   -0.10218E-02   -0.15591E-04   424   0.170E-02    0.941E-02
RMM:  46    -0.173816147269E+03   -0.23999E-02   -0.27245E-04   435   0.197E-02    0.104E-01
RMM:  47    -0.173816845715E+03   -0.69845E-03   -0.11250E-04   419   0.137E-02    0.578E-02
RMM:  48    -0.173817993612E+03   -0.11479E-02   -0.90149E-05   416   0.116E-02    0.692E-02
RMM:  49    -0.173819107563E+03   -0.11140E-02   -0.84694E-05   413   0.109E-02    0.442E-02
RMM:  50    -0.173819383728E+03   -0.27616E-03   -0.33804E-05   393   0.685E-03    0.286E-02
RMM:  51    -0.173820130660E+03   -0.74693E-03   -0.29988E-05   382   0.620E-03    0.305E-02
RMM:  52    -0.173820377065E+03   -0.24641E-03   -0.12325E-05   247   0.462E-03    0.241E-02
RMM:  53    -0.173820753045E+03   -0.37598E-03   -0.86895E-06   233   0.452E-03    0.239E-02
RMM:  54    -0.173821047852E+03   -0.29481E-03   -0.64629E-06   188   0.427E-03    0.108E-02
RMM:  55    -0.173821383128E+03   -0.33528E-03   -0.12218E-05   277   0.464E-03    0.178E-02
RMM:  56    -0.173821668096E+03   -0.28497E-03   -0.41996E-06   149   0.375E-03    0.919E-03
RMM:  57    -0.173821822284E+03   -0.15419E-03   -0.70239E-06   175   0.390E-03    0.103E-02
RMM:  58    -0.173822043999E+03   -0.22171E-03   -0.91046E-06   185   0.398E-03    0.882E-03
RMM:  59    -0.173822149988E+03   -0.10599E-03   -0.48108E-06   146   0.367E-03    0.660E-03
RMM:  60    -0.173822295739E+03   -0.14575E-03   -0.11658E-05   201   0.406E-03    0.662E-03
RMM:  61    -0.173822326754E+03   -0.31014E-04   -0.70935E-07    85   0.317E-03
   1 F= -.17382233E+03 E0= -.17380122E+03  d E =-.844173E-01
================================= SLURM INFO ===================================
Command: run-cluster -n 1 -m 10000 -j 0189_vasp --same-node /opt/VASP/vasp
Exit code: 0
Job name: 0189_vasp
Job time: 0 days 5h:9m:36s
MPI task count: 1
Working dir: /home/pashkov/pyFitIt/pyfitit/data/random_pd_co_new/sample/0189
Job was running on nodes: h4
Task per node: 1
       JobID     MaxRSS  MaxDiskRead MaxDiskWrite    Elapsed    JobName 
------------ ---------- ------------ ------------ ---------- ---------- 
105438                                              05:09:36  0189_vasp 
105438.batch                                        05:09:36      batch 
