<?xml version="1.0" encoding="ISO-8859-1"?>
<modeling>
 <generator>
  <i name="program" type="string">vasp </i>
  <i name="version" type="string">5.4.4.18Apr17-6-g9f103f2a35  </i>
  <i name="subversion" type="string">(build Sep 03 2018 23:53:05) complex            parallel </i>
  <i name="platform" type="string">LinuxIFC </i>
  <i name="date" type="string">2021 11 26 </i>
  <i name="time" type="string">13:19:34 </i>
 </generator>
 <incar>
  <i type="string" name="SYSTEM"> 6_Pd100_top_free_z(O)</i>
  <i type="int" name="ISTART">     0</i>
  <i type="string" name="PREC">normal   			! encut=max(enmax), ngx,y,z</i>
  <i type="string" name="ALGO"> Fast     			! Mix RMM-DIIS and Dav</i>
  <i type="logical" name="ADDGRID"> F  </i>
  <i type="int" name="ISPIN">     1</i>
  <i type="int" name="ICHARG">     2</i>
  <i type="int" name="NELM">   100</i>
  <i type="int" name="NELMIN">     6</i>
  <i type="int" name="IBRION">     2</i>
  <i name="EDIFF">      0.00010000</i>
  <i name="EDIFFG">     -0.05000000</i>
  <i type="int" name="NSW">     0</i>
  <i type="int" name="ISIF">     2</i>
  <i type="int" name="ISYM">     2</i>
  <i name="ENCUT">    400.00000000</i>
  <i type="string" name="LREAL"> Auto     			! Auto or A projection done</i>
  <i type="int" name="ISMEAR">     2</i>
  <i name="SIGMA">      0.20000000</i>
  <i type="logical" name="LWAVE"> F  </i>
  <i type="logical" name="LCHARG"> F  </i>
  <v type="int" name="KPOINT_BSE">    -1     0     0     0</v>
  <i type="int" name="MAXMEM"> 10000</i>
  <i type="int" name="NELM">   100</i>
  <i type="string" name="GGA"> RP         			! Revised PBE</i>
 </incar>
 <structure name="primitive_cell" >
  <crystal>
   <varray name="basis" >
    <v>      30.00000000       0.00000000       0.00000000 </v>
    <v>       0.00000000      30.00000000       0.00000000 </v>
    <v>       0.00000000       0.00000000      30.00000000 </v>
   </varray>
   <i name="volume">  27000.00000000 </i>
   <varray name="rec_basis" >
    <v>       0.03333333       0.00000000       0.00000000 </v>
    <v>       0.00000000       0.03333333       0.00000000 </v>
    <v>       0.00000000       0.00000000       0.03333333 </v>
   </varray>
  </crystal>
  <varray name="positions" >
   <v>       0.44576020       0.32826710       0.41691983 </v>
   <v>      -0.44576020       0.32826710       0.41691983 </v>
   <v>      -0.50000000       0.38250690       0.34021317 </v>
   <v>      -0.50000000       0.27609440      -0.50000000 </v>
   <v>       0.38804720       0.38804720       0.34167483 </v>
   <v>      -0.50000000       0.38416601      -0.50000000 </v>
   <v>       0.44208300       0.44208300       0.41809300 </v>
   <v>       0.38317830       0.38317830      -0.50000000 </v>
   <v>      -0.44208300       0.44208300       0.41809300 </v>
   <v>       0.44576020       0.32826710      -0.41691977 </v>
   <v>       0.32826705       0.44576024       0.41691983 </v>
   <v>      -0.38804720       0.38804720       0.34167483 </v>
   <v>      -0.38317830       0.38317830      -0.50000000 </v>
   <v>      -0.50000000      -0.50000000       0.33478917 </v>
   <v>      -0.50000000      -0.50000000      -0.50000000 </v>
   <v>      -0.44576020       0.32826710      -0.41691977 </v>
   <v>       0.38250685      -0.49999995       0.34021317 </v>
   <v>       0.44208300       0.44208300      -0.41809297 </v>
   <v>       0.38416599      -0.49999998      -0.50000000 </v>
   <v>      -0.44208300       0.44208300      -0.41809297 </v>
   <v>       0.44208298      -0.44208298       0.41809300 </v>
   <v>       0.32826705       0.44576024      -0.41691977 </v>
   <v>       0.46804210       0.49555487       0.25246993 </v>
   <v>      -0.50000000       0.38250690      -0.34021320 </v>
   <v>       0.32826712      -0.44576022       0.41691983 </v>
   <v>      -0.38250685      -0.49999995       0.34021317 </v>
   <v>      -0.32826705       0.44576024       0.41691983 </v>
   <v>       0.27609443       0.49999998      -0.50000000 </v>
   <v>       0.38804720       0.38804720      -0.34167487 </v>
   <v>      -0.38416599      -0.49999998      -0.50000000 </v>
   <v>      -0.44208298      -0.44208298       0.41809300 </v>
   <v>       0.46322840       0.49488530       0.21518537 </v>
   <v>       0.44208298      -0.44208298      -0.41809297 </v>
   <v>      -0.38804720       0.38804720      -0.34167487 </v>
   <v>       0.38804722      -0.38804722       0.34167483 </v>
   <v>       0.38250685      -0.49999995      -0.34021320 </v>
   <v>       0.32826712      -0.44576022      -0.41691977 </v>
   <v>      -0.32826705       0.44576024      -0.41691977 </v>
   <v>       0.50000000      -0.38250681       0.34021317 </v>
   <v>      -0.50000000      -0.38416596      -0.50000000 </v>
   <v>      -0.44208298      -0.44208298      -0.41809297 </v>
   <v>      -0.50000000      -0.50000000      -0.33478913 </v>
   <v>       0.38317828      -0.38317828      -0.50000000 </v>
   <v>      -0.32826712      -0.44576022       0.41691983 </v>
   <v>      -0.27609443       0.49999998      -0.50000000 </v>
   <v>      -0.38804722      -0.38804722       0.34167483 </v>
   <v>      -0.38250685      -0.49999995      -0.34021320 </v>
   <v>       0.44576027      -0.32826707       0.41691983 </v>
   <v>      -0.38317828      -0.38317828      -0.50000000 </v>
   <v>      -0.32826712      -0.44576022      -0.41691977 </v>
   <v>      -0.44576027      -0.32826707       0.41691983 </v>
   <v>       0.38804722      -0.38804722      -0.34167487 </v>
   <v>      -0.50000000      -0.38250681      -0.34021320 </v>
   <v>       0.44576027      -0.32826707      -0.41691977 </v>
   <v>      -0.44576027      -0.32826707      -0.41691977 </v>
   <v>      -0.50000000      -0.27609445       0.50000000 </v>
   <v>      -0.38804722      -0.38804722      -0.34167487 </v>
  </varray>
 </structure>
 <varray name="primitive_index" >
  <v type="int" >        1 </v>
  <v type="int" >        3 </v>
  <v type="int" >        5 </v>
  <v type="int" >        7 </v>
  <v type="int" >       15 </v>
  <v type="int" >       29 </v>
  <v type="int" >       28 </v>
  <v type="int" >       34 </v>
  <v type="int" >       21 </v>
  <v type="int" >       19 </v>
  <v type="int" >       22 </v>
  <v type="int" >       11 </v>
  <v type="int" >       36 </v>
  <v type="int" >       38 </v>
  <v type="int" >       52 </v>
  <v type="int" >       24 </v>
  <v type="int" >       32 </v>
  <v type="int" >       44 </v>
  <v type="int" >       48 </v>
  <v type="int" >       42 </v>
  <v type="int" >       43 </v>
  <v type="int" >       40 </v>
  <v type="int" >       56 </v>
  <v type="int" >        6 </v>
  <v type="int" >        4 </v>
  <v type="int" >       30 </v>
  <v type="int" >       26 </v>
  <v type="int" >        8 </v>
  <v type="int" >       16 </v>
  <v type="int" >       49 </v>
  <v type="int" >       47 </v>
  <v type="int" >       57 </v>
  <v type="int" >       53 </v>
  <v type="int" >       12 </v>
  <v type="int" >       13 </v>
  <v type="int" >       33 </v>
  <v type="int" >       25 </v>
  <v type="int" >       45 </v>
  <v type="int" >       50 </v>
  <v type="int" >       55 </v>
  <v type="int" >       54 </v>
  <v type="int" >       39 </v>
  <v type="int" >       37 </v>
  <v type="int" >        2 </v>
  <v type="int" >        9 </v>
  <v type="int" >       17 </v>
  <v type="int" >       31 </v>
  <v type="int" >       27 </v>
  <v type="int" >       35 </v>
  <v type="int" >       20 </v>
  <v type="int" >       23 </v>
  <v type="int" >       14 </v>
  <v type="int" >       51 </v>
  <v type="int" >       46 </v>
  <v type="int" >       41 </v>
  <v type="int" >       10 </v>
  <v type="int" >       18 </v>
 </varray>
 <kpoints>
  <generation param="Monkhorst-Pack">
   <v type="int" name="divisions">       1        1        1 </v>
   <v name="usershift">      0.00000000       0.00000000       0.00000000 </v>
   <v name="genvec1">      1.00000000       0.00000000       0.00000000 </v>
   <v name="genvec2">      0.00000000       1.00000000       0.00000000 </v>
   <v name="genvec3">      0.00000000       0.00000000       1.00000000 </v>
   <v name="shift">      0.00000000       0.00000000       0.00000000 </v>
  </generation>
  <varray name="kpointlist" >
   <v>       0.00000000       0.00000000       0.00000000 </v>
  </varray>
  <varray name="weights" >
   <v>       1.00000000 </v>
  </varray>
 </kpoints>
 <parameters>
  <separator name="general" >
   <i type="string" name="SYSTEM">6_Pd100_top_free_z(O)</i>
   <i type="logical" name="LCOMPAT"> F  </i>
  </separator>
  <separator name="electronic" >
   <i type="string" name="PREC">normal</i>
   <i name="ENMAX">    400.00000000</i>
   <i name="ENAUG">    644.87300000</i>
   <i name="EDIFF">      0.00010000</i>
   <i type="int" name="IALGO">    68</i>
   <i type="int" name="IWAVPR">    10</i>
   <i type="int" name="NBANDS">   336</i>
   <i name="NELECT">    560.00000000</i>
   <i type="int" name="TURBO">     0</i>
   <i type="int" name="IRESTART">     0</i>
   <i type="int" name="NREBOOT">     0</i>
   <i type="int" name="NMIN">     0</i>
   <i name="EREF">      0.00000000</i>
   <separator name="electronic smearing" >
    <i type="int" name="ISMEAR">     2</i>
    <i name="SIGMA">      0.20000000</i>
    <i name="KSPACING">      0.50000000</i>
    <i type="logical" name="KGAMMA"> T  </i>
   </separator>
   <separator name="electronic projectors" >
    <i type="logical" name="LREAL"> T  </i>
    <v name="ROPT">     -0.00050000     -0.00050000     -0.00050000</v>
    <i type="int" name="LMAXPAW">  -100</i>
    <i type="int" name="LMAXMIX">     2</i>
    <i type="logical" name="NLSPLINE"> F  </i>
   </separator>
   <separator name="electronic startup" >
    <i type="int" name="ISTART">     0</i>
    <i type="int" name="ICHARG">     2</i>
    <i type="int" name="INIWAV">     1</i>
   </separator>
   <separator name="electronic spin" >
    <i type="int" name="ISPIN">     1</i>
    <i type="logical" name="LNONCOLLINEAR"> F  </i>
    <v name="MAGMOM">      1.00000000      1.00000000      1.00000000      1.00000000      1.00000000      1.00000000      1.00000000      1.00000000      1.00000000      1.00000000      1.00000000      1.00000000      1.00000000      1.00000000      1.00000000      1.00000000      1.00000000      1.00000000      1.00000000      1.00000000
      1.00000000      1.00000000      1.00000000      1.00000000      1.00000000      1.00000000      1.00000000      1.00000000      1.00000000      1.00000000      1.00000000      1.00000000      1.00000000      1.00000000      1.00000000      1.00000000      1.00000000      1.00000000      1.00000000      1.00000000
      1.00000000      1.00000000      1.00000000      1.00000000      1.00000000      1.00000000      1.00000000      1.00000000      1.00000000      1.00000000      1.00000000      1.00000000      1.00000000      1.00000000      1.00000000      1.00000000      1.00000000</v>
    <i name="NUPDOWN">     -1.00000000</i>
    <i type="logical" name="LSORBIT"> F  </i>
    <v name="SAXIS">      0.00000000      0.00000000      1.00000000</v>
    <i type="logical" name="LSPIRAL"> F  </i>
    <v name="QSPIRAL">      0.00000000      0.00000000      0.00000000</v>
    <i type="logical" name="LZEROZ"> F  </i>
   </separator>
   <separator name="electronic exchange-correlation" >
    <i type="logical" name="LASPH"> F  </i>
    <i type="logical" name="LMETAGGA"> F  </i>
   </separator>
   <separator name="electronic convergence" >
    <i type="int" name="NELM">   100</i>
    <i type="int" name="NELMDL">    -5</i>
    <i type="int" name="NELMIN">     6</i>
    <i name="ENINI">    400.00000000</i>
    <separator name="electronic convergence detail" >
     <i type="logical" name="LDIAG"> T  </i>
     <i type="logical" name="LSUBROT"> F  </i>
     <i name="WEIMIN">      0.00000000</i>
     <i name="EBREAK">      0.00000007</i>
     <i name="DEPER">      0.30000000</i>
     <i type="int" name="NRMM">     4</i>
     <i name="TIME">      0.40000000</i>
    </separator>
   </separator>
   <separator name="electronic mixer" >
    <i name="AMIX">      0.40000000</i>
    <i name="BMIX">      1.00000000</i>
    <i name="AMIN">      0.10000000</i>
    <i name="AMIX_MAG">      1.60000000</i>
    <i name="BMIX_MAG">      1.00000000</i>
    <separator name="electronic mixer details" >
     <i type="int" name="IMIX">     4</i>
     <i type="logical" name="MIXFIRST"> F  </i>
     <i type="int" name="MAXMIX">   -45</i>
     <i name="WC">    100.00000000</i>
     <i type="int" name="INIMIX">     1</i>
     <i type="int" name="MIXPRE">     1</i>
     <i type="int" name="MREMOVE">     5</i>
    </separator>
   </separator>
   <separator name="electronic dipolcorrection" >
    <i type="logical" name="LDIPOL"> F  </i>
    <i type="logical" name="LMONO"> F  </i>
    <i type="int" name="IDIPOL">     0</i>
    <i name="EPSILON">      1.00000000</i>
    <v name="DIPOL">   -100.00000000   -100.00000000   -100.00000000</v>
    <i name="EFIELD">      0.00000000</i>
   </separator>
  </separator>
  <separator name="grids" >
   <i type="int" name="NGX">   150</i>
   <i type="int" name="NGY">   150</i>
   <i type="int" name="NGZ">   150</i>
   <i type="int" name="NGXF">   300</i>
   <i type="int" name="NGYF">   300</i>
   <i type="int" name="NGZF">   300</i>
   <i type="logical" name="ADDGRID"> F  </i>
  </separator>
  <separator name="ionic" >
   <i type="int" name="NSW">     0</i>
   <i type="int" name="IBRION">    -1</i>
   <i type="int" name="MDALGO">     0</i>
   <i type="int" name="ISIF">     2</i>
   <i name="PSTRESS">      0.00000000</i>
   <i name="EDIFFG">     -0.05000000</i>
   <i type="int" name="NFREE">     1</i>
   <i name="POTIM">      0.50000000</i>
   <i name="SMASS">     -3.00000000</i>
   <i name="SCALEE">      1.00000000</i>
  </separator>
  <separator name="ionic md" >
   <i name="TEBEG">      0.00010000</i>
   <i name="TEEND">      0.00010000</i>
   <i type="int" name="NBLOCK">     1</i>
   <i type="int" name="KBLOCK">     1</i>
   <i type="int" name="NPACO">   256</i>
   <i name="APACO">     16.00000000</i>
  </separator>
  <separator name="symmetry" >
   <i type="int" name="ISYM">     2</i>
   <i name="SYMPREC">      0.00001000</i>
  </separator>
  <separator name="dos" >
   <i type="int" name="LORBIT">     0</i>
   <v name="RWIGS">     -1.00000000     -1.00000000     -1.00000000</v>
   <i type="int" name="NEDOS">   301</i>
   <i name="EMIN">     10.00000000</i>
   <i name="EMAX">    -10.00000000</i>
   <i name="EFERMI">      0.00000000</i>
  </separator>
  <separator name="writing" >
   <i type="int" name="NWRITE">     2</i>
   <i type="logical" name="LWAVE"> F  </i>
   <i type="logical" name="LDOWNSAMPLE"> F  </i>
   <i type="logical" name="LCHARG"> F  </i>
   <i type="logical" name="LPARD"> F  </i>
   <i type="logical" name="LVTOT"> F  </i>
   <i type="logical" name="LVHAR"> F  </i>
   <i type="logical" name="LELF"> F  </i>
   <i type="logical" name="LOPTICS"> F  </i>
   <v name="STM">      0.00000000      0.00000000      0.00000000      0.00000000      0.00000000      0.00000000      0.00000000</v>
  </separator>
  <separator name="performance" >
   <i type="int" name="NPAR">     1</i>
   <i type="int" name="NSIM">     4</i>
   <i type="int" name="NBLK">    -1</i>
   <i type="logical" name="LPLANE"> T  </i>
   <i type="logical" name="LSCALAPACK"> T  </i>
   <i type="logical" name="LSCAAWARE"> F  </i>
   <i type="logical" name="LSCALU"> F  </i>
   <i type="logical" name="LASYNC"> F  </i>
   <i type="logical" name="LORBITALREAL"> F  </i>
  </separator>
  <separator name="miscellaneous" >
   <i type="int" name="IDIOT">     3</i>
   <i type="int" name="ISPECIAL">     0</i>
   <i type="logical" name="LMUSIC"> F  </i>
   <v name="POMASS">    106.42000000     12.01100000     16.00000000</v>
   <v name="DARWINR">      0.00000000      0.00000000      0.00000000</v>
   <v name="DARWINV">      1.00000000      1.00000000      1.00000000</v>
   <i type="logical" name="LCORR"> T  </i>
  </separator>
  <i type="logical" name="GGA_COMPAT"> T  </i>
  <i type="logical" name="LBERRY"> F  </i>
  <i type="int" name="ICORELEVEL">     0</i>
  <i type="logical" name="LDAU"> F  </i>
  <i type="int" name="I_CONSTRAINED_M">     0</i>
  <separator name="electronic exchange-correlation" >
   <i type="string" name="GGA">RP</i>
   <i type="int" name="VOSKOWN">     0</i>
   <i type="logical" name="LHFCALC"> F  </i>
   <i type="string" name="PRECFOCK"></i>
   <i type="logical" name="LSYMGRAD"> F  </i>
   <i type="logical" name="LHFONE"> F  </i>
   <i type="logical" name="LRHFCALC"> F  </i>
   <i type="logical" name="LTHOMAS"> F  </i>
   <i type="logical" name="LMODELHF"> F  </i>
   <i name="ENCUT4O">     -1.00000000</i>
   <i type="int" name="EXXOEP">     0</i>
   <i type="int" name="FOURORBIT">     0</i>
   <i name="AEXX">      0.00000000</i>
   <i name="HFALPHA">      0.00000000</i>
   <i name="MCALPHA">      0.00000000</i>
   <i name="ALDAX">      1.00000000</i>
   <i name="AGGAX">      1.00000000</i>
   <i name="ALDAC">      1.00000000</i>
   <i name="AGGAC">      1.00000000</i>
   <i type="int" name="NKREDX">     1</i>
   <i type="int" name="NKREDY">     1</i>
   <i type="int" name="NKREDZ">     1</i>
   <i type="logical" name="SHIFTRED"> F  </i>
   <i type="logical" name="ODDONLY"> F  </i>
   <i type="logical" name="EVENONLY"> F  </i>
   <i type="int" name="LMAXFOCK">     0</i>
   <i type="int" name="NMAXFOCKAE">     0</i>
   <i type="logical" name="LFOCKAEDFT"> F  </i>
   <i name="HFSCREEN">      0.00000000</i>
   <i name="HFSCREENC">      0.00000000</i>
   <i type="int" name="NBANDSGWLOW">     0</i>
  </separator>
  <separator name="vdW DFT" >
   <i type="logical" name="LUSE_VDW"> F  </i>
   <i name="Zab_VDW">     -0.84910000</i>
   <i name="PARAM1">      0.12340000</i>
   <i name="PARAM2">      1.00000000</i>
   <i name="PARAM3">      0.00000000</i>
  </separator>
  <separator name="model GW" >
   <i type="int" name="MODEL_GW">     0</i>
   <i name="MODEL_EPS0">    284.21052632</i>
   <i name="MODEL_ALPHA">      1.00000000</i>
  </separator>
  <separator name="linear response parameters" >
   <i type="logical" name="LEPSILON"> F  </i>
   <i type="logical" name="LRPA"> F  </i>
   <i type="logical" name="LNABLA"> F  </i>
   <i type="logical" name="LVEL"> F  </i>
   <i type="int" name="KINTER">     0</i>
   <i name="CSHIFT">      0.10000000</i>
   <i name="OMEGAMAX">     -1.00000000</i>
   <i name="DEG_THRESHOLD">      0.00200000</i>
   <i name="RTIME">     -0.10000000</i>
   <i name="WPLASMAI">      0.00000000</i>
   <v name="DFIELD">      0.00000000      0.00000000      0.00000000</v>
   <v name="WPLASMA">      0.00000000      0.00000000      0.00000000      0.00000000      0.00000000      0.00000000      0.00000000      0.00000000      0.00000000</v>
  </separator>
  <separator name="orbital magnetization" >
   <i type="logical" name="NUCIND"> F  </i>
   <v name="MAGPOS">      0.00000000      0.00000000      0.00000000</v>
   <i type="logical" name="LNICSALL"> T  </i>
   <i type="logical" name="ORBITALMAG"> F  </i>
   <i type="logical" name="LMAGBLOCH"> F  </i>
   <i type="logical" name="LCHIMAG"> F  </i>
   <i type="logical" name="LGAUGE"> T  </i>
   <i type="int" name="MAGATOM">     0</i>
   <v name="MAGDIPOL">      0.00000000      0.00000000      0.00000000</v>
   <v name="AVECCONST">      0.00000000      0.00000000      0.00000000</v>
  </separator>
  <separator name="response functions" >
   <i type="logical" name="LADDER"> F  </i>
   <i type="logical" name="LRPAFORCE"> F  </i>
   <i type="logical" name="LFXC"> F  </i>
   <i type="logical" name="LHARTREE"> T  </i>
   <i type="int" name="IBSE">     0</i>
   <v type="int" name="KPOINT">    -1     0     0     0</v>
   <i type="logical" name="LTCTE"> F  </i>
   <i type="logical" name="LTETE"> F  </i>
   <i type="logical" name="LTRIPLET"> F  </i>
   <i type="logical" name="LFXCEPS"> F  </i>
   <i type="logical" name="LFXHEG"> F  </i>
   <i type="int" name="NATURALO">     2</i>
   <i type="logical" name="L2ORDER"> F  </i>
   <i type="logical" name="LMP2LT"> F  </i>
   <i type="logical" name="LUSEW"> F  </i>
   <i name="ENCUTGW">     -2.00000000</i>
   <i name="ENCUTGWSOFT">     -2.00000000</i>
   <i name="ENCUTLF">     -1.00000000</i>
   <i type="int" name="LMAXMP2">    -1</i>
   <i name="SCISSOR">      0.00000000</i>
   <i type="int" name="NOMEGA">     0</i>
   <i type="int" name="NOMEGAR">     0</i>
   <i type="int" name="NBANDSGW">    -1</i>
   <i type="int" name="NBANDSO">    -1</i>
   <i type="int" name="NBANDSV">    -1</i>
   <i type="int" name="NELM">   100</i>
   <i type="int" name="NELMHF">     1</i>
   <i type="int" name="DIM">     3</i>
   <i type="int" name="ANTIRES">     0</i>
   <i name="OMEGAMAX">    -30.00000000</i>
   <i name="OMEGAMIN">    -30.00000000</i>
   <i name="OMEGATL">   -200.00000000</i>
   <i type="int" name="OMEGAGRID">   140</i>
   <i name="CSHIFT">     -0.10000000</i>
   <i type="logical" name="SELFENERGY"> F  </i>
   <i type="logical" name="LSPECTRAL"> F  </i>
   <i type="logical" name="LSPECTRALGW"> F  </i>
   <i type="logical" name="LSINGLES"> F  </i>
   <i type="logical" name="LFERMIGW"> F  </i>
   <i type="logical" name="ODDONLYGW"> F  </i>
   <i type="logical" name="EVENONLYGW"> F  </i>
   <i type="int" name="NKREDLFX">     1</i>
   <i type="int" name="NKREDLFY">     1</i>
   <i type="int" name="NKREDLFZ">     1</i>
   <i type="int" name="MAXMEM"> 10000</i>
   <i type="int" name="TELESCOPE">     0</i>
   <i type="int" name="TAUPAR">     1</i>
   <i type="int" name="OMEGAPAR">    -1</i>
   <i name="LAMBDA">      1.00000000</i>
  </separator>
  <separator name="External order field" >
   <i name="OFIELD_KAPPA">      0.00000000</i>
   <v name="OFIELD_K">      0.00000000      0.00000000      0.00000000</v>
   <i name="OFIELD_Q6_NEAR">      0.00000000</i>
   <i name="OFIELD_Q6_FAR">      0.00000000</i>
   <i name="OFIELD_A">      0.00000000</i>
  </separator>
 </parameters>
 <atominfo>
  <atoms>      57 </atoms>
  <types>       3 </types>
  <array name="atoms" >
   <dimension dim="1">ion</dimension>
   <field type="string">element</field>
   <field type="int">atomtype</field>
   <set>
    <rc><c>Pd</c><c>   1</c></rc>
    <rc><c>Pd</c><c>   1</c></rc>
    <rc><c>Pd</c><c>   1</c></rc>
    <rc><c>Pd</c><c>   1</c></rc>
    <rc><c>Pd</c><c>   1</c></rc>
    <rc><c>Pd</c><c>   1</c></rc>
    <rc><c>Pd</c><c>   1</c></rc>
    <rc><c>Pd</c><c>   1</c></rc>
    <rc><c>Pd</c><c>   1</c></rc>
    <rc><c>Pd</c><c>   1</c></rc>
    <rc><c>Pd</c><c>   1</c></rc>
    <rc><c>Pd</c><c>   1</c></rc>
    <rc><c>Pd</c><c>   1</c></rc>
    <rc><c>Pd</c><c>   1</c></rc>
    <rc><c>Pd</c><c>   1</c></rc>
    <rc><c>Pd</c><c>   1</c></rc>
    <rc><c>Pd</c><c>   1</c></rc>
    <rc><c>Pd</c><c>   1</c></rc>
    <rc><c>Pd</c><c>   1</c></rc>
    <rc><c>Pd</c><c>   1</c></rc>
    <rc><c>Pd</c><c>   1</c></rc>
    <rc><c>Pd</c><c>   1</c></rc>
    <rc><c>Pd</c><c>   1</c></rc>
    <rc><c>Pd</c><c>   1</c></rc>
    <rc><c>Pd</c><c>   1</c></rc>
    <rc><c>Pd</c><c>   1</c></rc>
    <rc><c>Pd</c><c>   1</c></rc>
    <rc><c>Pd</c><c>   1</c></rc>
    <rc><c>Pd</c><c>   1</c></rc>
    <rc><c>Pd</c><c>   1</c></rc>
    <rc><c>Pd</c><c>   1</c></rc>
    <rc><c>Pd</c><c>   1</c></rc>
    <rc><c>Pd</c><c>   1</c></rc>
    <rc><c>Pd</c><c>   1</c></rc>
    <rc><c>Pd</c><c>   1</c></rc>
    <rc><c>Pd</c><c>   1</c></rc>
    <rc><c>Pd</c><c>   1</c></rc>
    <rc><c>Pd</c><c>   1</c></rc>
    <rc><c>Pd</c><c>   1</c></rc>
    <rc><c>Pd</c><c>   1</c></rc>
    <rc><c>Pd</c><c>   1</c></rc>
    <rc><c>Pd</c><c>   1</c></rc>
    <rc><c>Pd</c><c>   1</c></rc>
    <rc><c>Pd</c><c>   1</c></rc>
    <rc><c>Pd</c><c>   1</c></rc>
    <rc><c>Pd</c><c>   1</c></rc>
    <rc><c>Pd</c><c>   1</c></rc>
    <rc><c>Pd</c><c>   1</c></rc>
    <rc><c>Pd</c><c>   1</c></rc>
    <rc><c>Pd</c><c>   1</c></rc>
    <rc><c>Pd</c><c>   1</c></rc>
    <rc><c>Pd</c><c>   1</c></rc>
    <rc><c>Pd</c><c>   1</c></rc>
    <rc><c>Pd</c><c>   1</c></rc>
    <rc><c>Pd</c><c>   1</c></rc>
    <rc><c>C </c><c>   2</c></rc>
    <rc><c>O </c><c>   3</c></rc>
   </set>
  </array>
  <array name="atomtypes" >
   <dimension dim="1">type</dimension>
   <field type="int">atomspertype</field>
   <field type="string">element</field>
   <field>mass</field>
   <field>valence</field>
   <field type="string">pseudopotential</field>
   <set>
    <rc><c>  55</c><c>Pd</c><c>    106.42000000</c><c>     10.00000000</c><c>  PAW_PBE Pd 04Jan2005                  </c></rc>
    <rc><c>   1</c><c>C </c><c>     12.01100000</c><c>      4.00000000</c><c>  PAW_PBE C 08Apr2002                   </c></rc>
    <rc><c>   1</c><c>O </c><c>     16.00000000</c><c>      6.00000000</c><c>  PAW_PBE O 08Apr2002                   </c></rc>
   </set>
  </array>
 </atominfo>
 <structure name="initialpos" >
  <crystal>
   <varray name="basis" >
    <v>      30.00000000       0.00000000       0.00000000 </v>
    <v>       0.00000000      30.00000000       0.00000000 </v>
    <v>       0.00000000       0.00000000      30.00000000 </v>
   </varray>
   <i name="volume">  27000.00000000 </i>
   <varray name="rec_basis" >
    <v>       0.03333333       0.00000000       0.00000000 </v>
    <v>       0.00000000       0.03333333       0.00000000 </v>
    <v>       0.00000000       0.00000000       0.03333333 </v>
   </varray>
  </crystal>
  <varray name="positions" >
   <v>       0.44576020       0.32826710       0.41691983 </v>
   <v>       0.67173288       0.55423978       0.41691983 </v>
   <v>       0.55423980       0.32826710       0.41691983 </v>
   <v>       0.32826712       0.55423978       0.41691983 </v>
   <v>       0.50000000       0.38250690       0.34021317 </v>
   <v>       0.50000000       0.38250690       0.65978680 </v>
   <v>       0.50000000       0.27609440       0.50000000 </v>
   <v>       0.27609443       0.49999998       0.50000000 </v>
   <v>       0.72390557       0.49999998       0.50000000 </v>
   <v>       0.50000000       0.72390555       0.50000000 </v>
   <v>       0.61195280       0.38804720       0.34167483 </v>
   <v>       0.61195280       0.38804720       0.65832513 </v>
   <v>       0.38804722       0.61195278       0.34167483 </v>
   <v>       0.38804722       0.61195278       0.65832513 </v>
   <v>       0.38804720       0.38804720       0.34167483 </v>
   <v>       0.38804720       0.38804720       0.65832513 </v>
   <v>       0.61195278       0.61195278       0.34167483 </v>
   <v>       0.61195278       0.61195278       0.65832513 </v>
   <v>       0.44576020       0.32826710       0.58308023 </v>
   <v>       0.67173288       0.55423978       0.58308023 </v>
   <v>       0.55791699       0.44208301       0.41809300 </v>
   <v>       0.32826705       0.44576024       0.41691983 </v>
   <v>       0.55423973       0.67173293       0.41691983 </v>
   <v>       0.55423980       0.32826710       0.58308023 </v>
   <v>       0.32826712       0.55423978       0.58308023 </v>
   <v>       0.67173295       0.44576024       0.41691983 </v>
   <v>       0.44576027       0.67173293       0.41691983 </v>
   <v>       0.44208301       0.44208301       0.41809300 </v>
   <v>       0.50000000       0.38416601       0.50000000 </v>
   <v>       0.61749315       0.50000005       0.34021317 </v>
   <v>       0.61749315       0.50000005       0.65978680 </v>
   <v>       0.38250685       0.50000005       0.34021317 </v>
   <v>       0.38250685       0.50000005       0.65978680 </v>
   <v>       0.38317830       0.38317830       0.50000000 </v>
   <v>       0.61682172       0.61682172       0.50000000 </v>
   <v>       0.61682170       0.38317830       0.50000000 </v>
   <v>       0.38317828       0.61682172       0.50000000 </v>
   <v>       0.50000000       0.50000000       0.33478917 </v>
   <v>       0.50000000       0.50000000       0.66521087 </v>
   <v>       0.32826705       0.44576024       0.58308023 </v>
   <v>       0.55423973       0.67173293       0.58308023 </v>
   <v>       0.55791699       0.44208301       0.58190703 </v>
   <v>       0.44208298       0.55791702       0.41809300 </v>
   <v>       0.44208301       0.44208301       0.58190703 </v>
   <v>       0.67173295       0.44576024       0.58308023 </v>
   <v>       0.44576027       0.67173293       0.58308023 </v>
   <v>       0.55791702       0.55791702       0.41809300 </v>
   <v>       0.38416599       0.50000002       0.50000000 </v>
   <v>       0.61583401       0.50000002       0.50000000 </v>
   <v>       0.50000000       0.61749319       0.34021317 </v>
   <v>       0.50000000       0.61749319       0.65978680 </v>
   <v>       0.50000000       0.50000000       0.50000000 </v>
   <v>       0.44208298       0.55791702       0.58190703 </v>
   <v>       0.55791702       0.55791702       0.58190703 </v>
   <v>       0.50000000       0.61583404       0.50000000 </v>
   <v>       0.46804210       0.49555487       0.25246993 </v>
   <v>       0.46322840       0.49488530       0.21518537 </v>
  </varray>
  <varray name="selective"  type="logical" >
   <v type="logical" >  F  F  F </v>
   <v type="logical" >  F  F  F </v>
   <v type="logical" >  F  F  F </v>
   <v type="logical" >  F  F  F </v>
   <v type="logical" >  F  F  F </v>
   <v type="logical" >  F  F  F </v>
   <v type="logical" >  F  F  F </v>
   <v type="logical" >  F  F  F </v>
   <v type="logical" >  F  F  F </v>
   <v type="logical" >  F  F  F </v>
   <v type="logical" >  F  F  F </v>
   <v type="logical" >  F  F  F </v>
   <v type="logical" >  F  F  F </v>
   <v type="logical" >  F  F  F </v>
   <v type="logical" >  F  F  F </v>
   <v type="logical" >  F  F  F </v>
   <v type="logical" >  F  F  F </v>
   <v type="logical" >  F  F  F </v>
   <v type="logical" >  F  F  F </v>
   <v type="logical" >  F  F  F </v>
   <v type="logical" >  F  F  F </v>
   <v type="logical" >  F  F  F </v>
   <v type="logical" >  F  F  F </v>
   <v type="logical" >  F  F  F </v>
   <v type="logical" >  F  F  F </v>
   <v type="logical" >  F  F  F </v>
   <v type="logical" >  F  F  F </v>
   <v type="logical" >  F  F  F </v>
   <v type="logical" >  F  F  F </v>
   <v type="logical" >  F  F  F </v>
   <v type="logical" >  F  F  F </v>
   <v type="logical" >  F  F  F </v>
   <v type="logical" >  F  F  F </v>
   <v type="logical" >  F  F  F </v>
   <v type="logical" >  F  F  F </v>
   <v type="logical" >  F  F  F </v>
   <v type="logical" >  F  F  F </v>
   <v type="logical" >  F  F  F </v>
   <v type="logical" >  F  F  F </v>
   <v type="logical" >  F  F  F </v>
   <v type="logical" >  F  F  F </v>
   <v type="logical" >  F  F  F </v>
   <v type="logical" >  F  F  F </v>
   <v type="logical" >  F  F  F </v>
   <v type="logical" >  F  F  F </v>
   <v type="logical" >  F  F  F </v>
   <v type="logical" >  F  F  F </v>
   <v type="logical" >  F  F  F </v>
   <v type="logical" >  F  F  F </v>
   <v type="logical" >  F  F  F </v>
   <v type="logical" >  F  F  F </v>
   <v type="logical" >  F  F  F </v>
   <v type="logical" >  F  F  F </v>
   <v type="logical" >  F  F  F </v>
   <v type="logical" >  F  F  F </v>
   <v type="logical" >  F  F  F </v>
   <v type="logical" >  F  F  F </v>
  </varray>
  <nose>
   <v>      -3.00000000       0.00000000       0.00010000       0.00010000 </v>
  </nose>
 </structure>
 <calculation>
  <scstep>
   <time name="dav">  646.29  646.48</time>
   <time name="total">  667.52  667.71</time>
   <energy>
    <i name="alphaZ">     75.25431677 </i>
    <i name="ewald"> 137986.04424444 </i>
    <i name="hartreedc">-181353.92956626 </i>
    <i name="XCdc">  -1703.97502253 </i>
    <i name="pawpsdc">  44873.02882129 </i>
    <i name="pawaedc"> -41398.84523641 </i>
    <i name="eentropy">     -0.01106843 </i>
    <i name="bandstr">    819.25106316 </i>
    <i name="atom">  45086.50549395 </i>
    <i name="e_fr_energy">   4383.32304598 </i>
    <i name="e_wo_entrp">   4383.33411441 </i>
    <i name="e_0_energy">   4383.32581309 </i>
   </energy>
  </scstep>
  <scstep>
   <time name="dav">  972.67  972.75</time>
   <time name="total">  972.67  972.75</time>
   <energy>
    <i name="e_fr_energy">   2030.24534927 </i>
    <i name="e_wo_entrp">   2030.28200008 </i>
    <i name="e_0_energy">   2030.25451197 </i>
   </energy>
  </scstep>
  <scstep>
   <time name="dav">  740.15  740.21</time>
   <time name="total">  740.15  740.21</time>
   <energy>
    <i name="e_fr_energy">    241.47287213 </i>
    <i name="e_wo_entrp">    241.48682200 </i>
    <i name="e_0_energy">    241.47635960 </i>
   </energy>
  </scstep>
  <scstep>
   <time name="dav">  660.93  660.98</time>
   <time name="total">  660.93  660.98</time>
   <energy>
    <i name="e_fr_energy">   -131.92118718 </i>
    <i name="e_wo_entrp">   -131.90103845 </i>
    <i name="e_0_energy">   -131.91615000 </i>
   </energy>
  </scstep>
  <scstep>
   <time name="dav">  823.77  823.84</time>
   <time name="total">  859.55  859.62</time>
   <energy>
    <i name="e_fr_energy">   -178.41704610 </i>
    <i name="e_wo_entrp">   -178.91151835 </i>
    <i name="e_0_energy">   -178.54066416 </i>
   </energy>
  </scstep>
  <scstep>
   <time name="diag">  104.10  104.11</time>
   <time name="diis">  287.18  287.21</time>
   <time name="orth">   27.19   27.20</time>
   <time name="total">  475.77  475.81</time>
   <energy>
    <i name="e_fr_energy">   -178.16078046 </i>
    <i name="e_wo_entrp">   -177.92194433 </i>
    <i name="e_0_energy">   -178.10107143 </i>
   </energy>
  </scstep>
  <scstep>
   <time name="diag">  110.05  110.06</time>
   <time name="diis">  386.98  387.01</time>
   <time name="orth">   29.36   29.36</time>
   <time name="total">  587.06  587.11</time>
   <energy>
    <i name="e_fr_energy">   -180.76822822 </i>
    <i name="e_wo_entrp">   -180.78811759 </i>
    <i name="e_0_energy">   -180.77320056 </i>
   </energy>
  </scstep>
  <scstep>
   <time name="diag">  119.08  119.09</time>
   <time name="diis">  365.28  365.32</time>
   <time name="orth">   30.59   30.59</time>
   <time name="total">  580.73  580.79</time>
   <energy>
    <i name="e_fr_energy">   -182.43297375 </i>
    <i name="e_wo_entrp">   -182.25129321 </i>
    <i name="e_0_energy">   -182.38755362 </i>
   </energy>
  </scstep>
  <scstep>
   <time name="diag">  125.90  125.91</time>
   <time name="diis">  317.60  317.63</time>
   <time name="orth">   27.26   27.26</time>
   <time name="total">  527.58  527.62</time>
   <energy>
    <i name="e_fr_energy">   -181.59041595 </i>
    <i name="e_wo_entrp">   -181.50142039 </i>
    <i name="e_0_energy">   -181.56816706 </i>
   </energy>
  </scstep>
  <scstep>
   <time name="diag">  104.80  104.81</time>
   <time name="diis">  273.95  273.98</time>
   <time name="orth">   27.02   27.02</time>
   <time name="total">  458.96  459.00</time>
   <energy>
    <i name="e_fr_energy">   -180.03098388 </i>
    <i name="e_wo_entrp">   -180.01253340 </i>
    <i name="e_0_energy">   -180.02637126 </i>
   </energy>
  </scstep>
  <scstep>
   <time name="diag">  105.54  105.54</time>
   <time name="diis">  270.39  270.44</time>
   <time name="orth">   26.90   26.90</time>
   <time name="total">  455.80  455.88</time>
   <energy>
    <i name="e_fr_energy">   -177.22555509 </i>
    <i name="e_wo_entrp">   -177.11300301 </i>
    <i name="e_0_energy">   -177.19741707 </i>
   </energy>
  </scstep>
  <scstep>
   <time name="diag">  104.65  104.66</time>
   <time name="diis">  264.31  264.35</time>
   <time name="orth">   25.95   25.95</time>
   <time name="total">  446.24  446.32</time>
   <energy>
    <i name="e_fr_energy">   -175.42611412 </i>
    <i name="e_wo_entrp">   -175.31751790 </i>
    <i name="e_0_energy">   -175.39896506 </i>
   </energy>
  </scstep>
  <scstep>
   <time name="diag">  104.17  104.19</time>
   <time name="diis">  261.78  261.82</time>
   <time name="orth">   26.50   26.51</time>
   <time name="total">  443.53  443.60</time>
   <energy>
    <i name="e_fr_energy">   -175.21975333 </i>
    <i name="e_wo_entrp">   -175.10398892 </i>
    <i name="e_0_energy">   -175.19081223 </i>
   </energy>
  </scstep>
  <scstep>
   <time name="diag">  105.16  105.17</time>
   <time name="diis">  259.81  259.83</time>
   <time name="orth">   26.30   26.30</time>
   <time name="total">  442.32  442.38</time>
   <energy>
    <i name="e_fr_energy">   -175.61426045 </i>
    <i name="e_wo_entrp">   -175.58968745 </i>
    <i name="e_0_energy">   -175.60811720 </i>
   </energy>
  </scstep>
  <scstep>
   <time name="diag">  103.20  103.21</time>
   <time name="diis">  255.94  255.96</time>
   <time name="orth">   26.58   26.58</time>
   <time name="total">  435.85  435.89</time>
   <energy>
    <i name="e_fr_energy">   -175.31991037 </i>
    <i name="e_wo_entrp">   -175.28898711 </i>
    <i name="e_0_energy">   -175.31217956 </i>
   </energy>
  </scstep>
  <scstep>
   <time name="diag">  104.59  104.60</time>
   <time name="diis">  255.36  255.38</time>
   <time name="orth">   26.46   26.46</time>
   <time name="total">  436.66  436.70</time>
   <energy>
    <i name="e_fr_energy">   -175.18290065 </i>
    <i name="e_wo_entrp">   -175.25533769 </i>
    <i name="e_0_energy">   -175.20100991 </i>
   </energy>
  </scstep>
  <scstep>
   <time name="diag">  104.64  104.65</time>
   <time name="diis">  260.95  260.97</time>
   <time name="orth">   26.95   26.96</time>
   <time name="total">  443.92  443.96</time>
   <energy>
    <i name="e_fr_energy">   -174.72270332 </i>
    <i name="e_wo_entrp">   -174.72326358 </i>
    <i name="e_0_energy">   -174.72284338 </i>
   </energy>
  </scstep>
  <scstep>
   <time name="diag">  107.60  107.61</time>
   <time name="diis">  263.49  263.51</time>
   <time name="orth">   27.13   27.14</time>
   <time name="total">  450.39  450.43</time>
   <energy>
    <i name="e_fr_energy">   -174.68875552 </i>
    <i name="e_wo_entrp">   -174.73393927 </i>
    <i name="e_0_energy">   -174.70005146 </i>
   </energy>
  </scstep>
  <scstep>
   <time name="diag">  109.62  109.63</time>
   <time name="diis">  266.82  266.84</time>
   <time name="orth">   27.00   27.00</time>
   <time name="total">  456.19  456.23</time>
   <energy>
    <i name="e_fr_energy">   -174.83940528 </i>
    <i name="e_wo_entrp">   -174.89921708 </i>
    <i name="e_0_energy">   -174.85435823 </i>
   </energy>
  </scstep>
  <scstep>
   <time name="diag">  111.99  112.00</time>
   <time name="diis">  273.65  273.68</time>
   <time name="orth">   27.37   27.37</time>
   <time name="total">  466.39  466.43</time>
   <energy>
    <i name="e_fr_energy">   -174.45851345 </i>
    <i name="e_wo_entrp">   -174.44071525 </i>
    <i name="e_0_energy">   -174.45406390 </i>
   </energy>
  </scstep>
  <scstep>
   <time name="diag">  111.66  111.66</time>
   <time name="diis">  356.55  356.60</time>
   <time name="orth">   31.70   31.70</time>
   <time name="total">  563.39  563.45</time>
   <energy>
    <i name="e_fr_energy">   -174.34229555 </i>
    <i name="e_wo_entrp">   -174.28669292 </i>
    <i name="e_0_energy">   -174.32839489 </i>
   </energy>
  </scstep>
  <scstep>
   <time name="diag">  110.89  110.90</time>
   <time name="diis">  304.70  304.73</time>
   <time name="orth">   26.59   26.59</time>
   <time name="total">  496.85  496.90</time>
   <energy>
    <i name="e_fr_energy">   -174.31534345 </i>
    <i name="e_wo_entrp">   -174.26350944 </i>
    <i name="e_0_energy">   -174.30238495 </i>
   </energy>
  </scstep>
  <scstep>
   <time name="diag">  118.80  118.81</time>
   <time name="diis">  298.72  298.74</time>
   <time name="orth">   26.93   26.94</time>
   <time name="total">  497.59  497.64</time>
   <energy>
    <i name="e_fr_energy">   -174.15871434 </i>
    <i name="e_wo_entrp">   -174.07208230 </i>
    <i name="e_0_energy">   -174.13705633 </i>
   </energy>
  </scstep>
  <scstep>
   <time name="diag">  121.94  121.95</time>
   <time name="diis">  307.15  307.17</time>
   <time name="orth">   26.47   26.47</time>
   <time name="total">  511.10  511.15</time>
   <energy>
    <i name="e_fr_energy">   -174.05687262 </i>
    <i name="e_wo_entrp">   -173.96095969 </i>
    <i name="e_0_energy">   -174.03289439 </i>
   </energy>
  </scstep>
  <scstep>
   <time name="diag">  111.55  111.56</time>
   <time name="diis">  327.59  327.62</time>
   <time name="orth">   28.85   28.85</time>
   <time name="total">  523.44  523.50</time>
   <energy>
    <i name="e_fr_energy">   -174.01079566 </i>
    <i name="e_wo_entrp">   -173.92478898 </i>
    <i name="e_0_energy">   -173.98929399 </i>
   </energy>
  </scstep>
  <scstep>
   <time name="diag">  108.59  108.61</time>
   <time name="diis">  277.91  277.95</time>
   <time name="orth">   29.87   29.87</time>
   <time name="total">  480.78  480.84</time>
   <energy>
    <i name="e_fr_energy">   -173.94813433 </i>
    <i name="e_wo_entrp">   -173.85616258 </i>
    <i name="e_0_energy">   -173.92514139 </i>
   </energy>
  </scstep>
  <scstep>
   <time name="diag">  121.04  121.05</time>
   <time name="diis">  302.59  302.62</time>
   <time name="orth">   27.83   27.83</time>
   <time name="total">  512.29  512.34</time>
   <energy>
    <i name="e_fr_energy">   -173.92856490 </i>
    <i name="e_wo_entrp">   -173.83756171 </i>
    <i name="e_0_energy">   -173.90581410 </i>
   </energy>
  </scstep>
  <scstep>
   <time name="diag">  108.97  108.98</time>
   <time name="diis">  266.99  267.02</time>
   <time name="orth">   28.80   28.80</time>
   <time name="total">  464.71  464.76</time>
   <energy>
    <i name="e_fr_energy">   -173.91697982 </i>
    <i name="e_wo_entrp">   -173.83294637 </i>
    <i name="e_0_energy">   -173.89597146 </i>
   </energy>
  </scstep>
  <scstep>
   <time name="diag">  121.81  121.82</time>
   <time name="diis">  313.21  313.25</time>
   <time name="orth">   31.39   31.39</time>
   <time name="total">  535.09  535.16</time>
   <energy>
    <i name="e_fr_energy">   -173.89856444 </i>
    <i name="e_wo_entrp">   -173.81239574 </i>
    <i name="e_0_energy">   -173.87702227 </i>
   </energy>
  </scstep>
  <scstep>
   <time name="diag">  111.21  111.22</time>
   <time name="diis">  263.77  263.79</time>
   <time name="orth">   28.76   28.76</time>
   <time name="total">  463.98  464.02</time>
   <energy>
    <i name="e_fr_energy">   -173.89487944 </i>
    <i name="e_wo_entrp">   -173.81195695 </i>
    <i name="e_0_energy">   -173.87414882 </i>
   </energy>
  </scstep>
  <scstep>
   <time name="diag">  111.85  111.86</time>
   <time name="diis">  266.82  266.86</time>
   <time name="orth">   29.33   29.34</time>
   <time name="total">  472.55  472.61</time>
   <energy>
    <i name="e_fr_energy">   -173.88911961 </i>
    <i name="e_wo_entrp">   -173.80965484 </i>
    <i name="e_0_energy">   -173.86925342 </i>
   </energy>
  </scstep>
  <scstep>
   <time name="diag">  123.28  123.29</time>
   <time name="diis">  316.35  316.39</time>
   <time name="orth">   30.92   30.93</time>
   <time name="total">  540.29  540.37</time>
   <energy>
    <i name="e_fr_energy">   -173.88513131 </i>
    <i name="e_wo_entrp">   -173.80883974 </i>
    <i name="e_0_energy">   -173.86605842 </i>
   </energy>
  </scstep>
  <scstep>
   <time name="diag">  123.96  123.99</time>
   <time name="diis">  267.51  267.54</time>
   <time name="orth">   28.51   28.51</time>
   <time name="total">  484.46  484.54</time>
   <energy>
    <i name="e_fr_energy">   -173.88682291 </i>
    <i name="e_wo_entrp">   -173.81116533 </i>
    <i name="e_0_energy">   -173.86790852 </i>
   </energy>
  </scstep>
  <scstep>
   <time name="diag">  111.72  111.73</time>
   <time name="diis">  264.39  264.42</time>
   <time name="orth">   28.34   28.34</time>
   <time name="total">  465.92  465.97</time>
   <energy>
    <i name="e_fr_energy">   -173.88612242 </i>
    <i name="e_wo_entrp">   -173.80849678 </i>
    <i name="e_0_energy">   -173.86671601 </i>
   </energy>
  </scstep>
  <scstep>
   <time name="diag">  111.25  111.26</time>
   <time name="diis">  269.86  269.89</time>
   <time name="orth">   30.14   30.14</time>
   <time name="total">  479.14  479.19</time>
   <energy>
    <i name="e_fr_energy">   -173.88502922 </i>
    <i name="e_wo_entrp">   -173.80506121 </i>
    <i name="e_0_energy">   -173.86503722 </i>
   </energy>
  </scstep>
  <scstep>
   <time name="diag">  123.53  123.54</time>
   <time name="diis">  307.65  307.71</time>
   <time name="orth">   31.73   31.73</time>
   <time name="total">  534.65  534.74</time>
   <energy>
    <i name="e_fr_energy">   -173.88828313 </i>
    <i name="e_wo_entrp">   -173.80772742 </i>
    <i name="e_0_energy">   -173.86814421 </i>
   </energy>
  </scstep>
  <scstep>
   <time name="diag">  126.36  126.40</time>
   <time name="diis">  279.41  279.47</time>
   <time name="orth">   28.92   28.92</time>
   <time name="total">  500.49  500.60</time>
   <energy>
    <i name="e_fr_energy">   -173.88783028 </i>
    <i name="e_wo_entrp">   -173.80669891 </i>
    <i name="e_0_energy">   -173.86754743 </i>
   </energy>
  </scstep>
  <scstep>
   <time name="diag">  107.43  107.46</time>
   <time name="diis">  266.77  266.80</time>
   <time name="orth">   28.40   28.40</time>
   <time name="total">  465.08  465.15</time>
   <energy>
    <i name="e_fr_energy">   -173.88961966 </i>
    <i name="e_wo_entrp">   -173.81014561 </i>
    <i name="e_0_energy">   -173.86975115 </i>
   </energy>
  </scstep>
  <scstep>
   <time name="diag">  105.36  105.37</time>
   <time name="diis">  240.99  241.01</time>
   <time name="orth">   29.56   29.56</time>
   <time name="total">  433.82  433.86</time>
   <energy>
    <i name="e_fr_energy">   -173.89167748 </i>
    <i name="e_wo_entrp">   -173.81351774 </i>
    <i name="e_0_energy">   -173.87213755 </i>
   </energy>
  </scstep>
  <scstep>
   <time name="diag">  106.34  106.35</time>
   <time name="diis">  182.88  182.90</time>
   <time name="orth">   29.44   29.44</time>
   <time name="total">  380.53  380.56</time>
   <energy>
    <i name="e_fr_energy">   -173.89311416 </i>
    <i name="e_wo_entrp">   -173.81499281 </i>
    <i name="e_0_energy">   -173.87358382 </i>
   </energy>
  </scstep>
  <scstep>
   <time name="diag">  116.95  116.96</time>
   <time name="diis">  206.43  206.45</time>
   <time name="orth">   30.30   30.31</time>
   <time name="total">  422.35  422.39</time>
   <energy>
    <i name="e_fr_energy">   -173.89545986 </i>
    <i name="e_wo_entrp">   -173.81570475 </i>
    <i name="e_0_energy">   -173.87552108 </i>
   </energy>
  </scstep>
  <scstep>
   <time name="diag">  123.87  123.88</time>
   <time name="diis">  203.36  203.38</time>
   <time name="orth">   29.82   29.82</time>
   <time name="total">  428.93  428.98</time>
   <energy>
    <i name="e_fr_energy">   -173.89710477 </i>
    <i name="e_wo_entrp">   -173.81794340 </i>
    <i name="e_0_energy">   -173.87731442 </i>
   </energy>
  </scstep>
  <scstep>
   <time name="diag">  127.22  127.24</time>
   <time name="diis">  195.21  195.24</time>
   <time name="orth">   27.16   27.16</time>
   <time name="total">  414.35  414.40</time>
   <energy>
    <i name="e_fr_energy">   -173.89890423 </i>
    <i name="e_wo_entrp">   -173.81916280 </i>
    <i name="e_0_energy">   -173.87896887 </i>
   </energy>
  </scstep>
  <scstep>
   <time name="diag">  103.16  103.16</time>
   <time name="diis">  209.55  209.57</time>
   <time name="orth">   28.49   28.49</time>
   <time name="total">  401.21  401.25</time>
   <energy>
    <i name="e_fr_energy">   -173.90248813 </i>
    <i name="e_wo_entrp">   -173.82315620 </i>
    <i name="e_0_energy">   -173.88265515 </i>
   </energy>
  </scstep>
  <scstep>
   <time name="diag">  103.05  103.06</time>
   <time name="diis">  174.79  174.80</time>
   <time name="orth">   28.73   28.73</time>
   <time name="total">  365.70  365.73</time>
   <energy>
    <i name="e_fr_energy">   -173.90356862 </i>
    <i name="e_wo_entrp">   -173.82446174 </i>
    <i name="e_0_energy">   -173.88379190 </i>
   </energy>
  </scstep>
  <scstep>
   <time name="diag">  103.94  103.94</time>
   <time name="diis">  167.60  167.62</time>
   <time name="orth">   29.08   29.08</time>
   <time name="total">  362.24  362.27</time>
   <energy>
    <i name="e_fr_energy">   -173.90550030 </i>
    <i name="e_wo_entrp">   -173.82597433 </i>
    <i name="e_0_energy">   -173.88561881 </i>
   </energy>
  </scstep>
  <scstep>
   <time name="diag">  107.00  107.01</time>
   <time name="diis">  164.32  164.34</time>
   <time name="orth">   28.23   28.23</time>
   <time name="total">  359.50  359.54</time>
   <energy>
    <i name="e_fr_energy">   -173.90686925 </i>
    <i name="e_wo_entrp">   -173.82784251 </i>
    <i name="e_0_energy">   -173.88711256 </i>
   </energy>
  </scstep>
  <scstep>
   <time name="diag">  108.90  108.91</time>
   <time name="diis">  165.25  165.27</time>
   <time name="orth">   27.58   27.58</time>
   <time name="total">  360.10  360.13</time>
   <energy>
    <i name="e_fr_energy">   -173.90759424 </i>
    <i name="e_wo_entrp">   -173.82825185 </i>
    <i name="e_0_energy">   -173.88775864 </i>
   </energy>
  </scstep>
  <scstep>
   <time name="diag">  106.33  106.34</time>
   <time name="diis">  188.92  188.94</time>
   <time name="orth">   28.81   28.82</time>
   <time name="total">  386.58  386.61</time>
   <energy>
    <i name="e_fr_energy">   -173.90946910 </i>
    <i name="e_wo_entrp">   -173.82988443 </i>
    <i name="e_0_energy">   -173.88957293 </i>
   </energy>
  </scstep>
  <scstep>
   <time name="diag">  117.36  117.37</time>
   <time name="diis">  198.36  198.38</time>
   <time name="orth">   30.28   30.28</time>
   <time name="total">  413.10  413.14</time>
   <energy>
    <i name="e_fr_energy">   -173.90982272 </i>
    <i name="e_wo_entrp">   -173.83056108 </i>
    <i name="e_0_energy">   -173.89000731 </i>
   </energy>
  </scstep>
  <scstep>
   <time name="diag">  122.27  122.29</time>
   <time name="diis">  188.85  188.87</time>
   <time name="orth">   31.40   31.41</time>
   <time name="total">  419.96  420.01</time>
   <energy>
    <i name="e_fr_energy">   -173.91033235 </i>
    <i name="e_wo_entrp">   -173.83108198 </i>
    <i name="e_0_energy">   -173.89051976 </i>
   </energy>
  </scstep>
  <scstep>
   <time name="diag">  127.35  127.37</time>
   <time name="diis">  150.31  150.32</time>
   <time name="orth">   28.49   28.49</time>
   <time name="total">  375.32  375.37</time>
   <energy>
    <i name="e_fr_energy">   -173.91063579 </i>
    <i name="e_wo_entrp">   -173.83157633 </i>
    <i name="e_0_energy">   -173.89087092 </i>
   </energy>
  </scstep>
  <scstep>
   <time name="diag">  110.65  110.66</time>
   <time name="diis">  122.25  122.27</time>
   <time name="orth">   26.16   26.16</time>
   <time name="total">  321.11  321.15</time>
   <energy>
    <i name="e_fr_energy">   -173.91089542 </i>
    <i name="e_wo_entrp">   -173.83173123 </i>
    <i name="e_0_energy">   -173.89110437 </i>
   </energy>
  </scstep>
  <scstep>
   <time name="diag">  107.51  107.52</time>
   <time name="diis">  116.84  116.86</time>
   <time name="orth">   28.63   28.63</time>
   <time name="total">  313.23  313.26</time>
   <energy>
    <i name="e_fr_energy">   -173.91113512 </i>
    <i name="e_wo_entrp">   -173.83193760 </i>
    <i name="e_0_energy">   -173.89133574 </i>
   </energy>
  </scstep>
  <scstep>
   <time name="diag">  105.92  105.93</time>
   <time name="diis">  116.02  116.04</time>
   <time name="orth">   27.77   27.78</time>
   <time name="total">  314.13  314.17</time>
   <energy>
    <i name="e_fr_energy">   -173.91136418 </i>
    <i name="e_wo_entrp">   -173.83213602 </i>
    <i name="e_0_energy">   -173.89155714 </i>
   </energy>
  </scstep>
  <scstep>
   <time name="diag">  110.07  110.08</time>
   <time name="diis">  117.68  117.70</time>
   <time name="orth">   26.01   26.02</time>
   <time name="total">  311.57  311.61</time>
   <energy>
    <i name="e_fr_energy">   -173.91162840 </i>
    <i name="e_wo_entrp">   -173.83237978 </i>
    <i name="e_0_energy">   -173.89181624 </i>
   </energy>
  </scstep>
  <scstep>
   <time name="diag">  102.01  102.03</time>
   <time name="diis">  113.42  113.44</time>
   <time name="orth">   26.93   26.93</time>
   <time name="total">  297.13  297.18</time>
   <energy>
    <i name="e_fr_energy">   -173.91188120 </i>
    <i name="e_wo_entrp">   -173.83266226 </i>
    <i name="e_0_energy">   -173.89207646 </i>
   </energy>
  </scstep>
  <scstep>
   <time name="diag">   98.77   98.77</time>
   <time name="diis">  106.53  106.54</time>
   <time name="orth">   26.99   26.99</time>
   <time name="total">  287.72  287.75</time>
   <energy>
    <i name="e_fr_energy">   -173.91204272 </i>
    <i name="e_wo_entrp">   -173.83283624 </i>
    <i name="e_0_energy">   -173.89224110 </i>
   </energy>
  </scstep>
  <scstep>
   <time name="diag">  100.21  100.21</time>
   <time name="diis">  104.24  104.25</time>
   <time name="orth">   26.31   26.31</time>
   <time name="total">  285.47  285.49</time>
   <energy>
    <i name="e_fr_energy">   -173.91221338 </i>
    <i name="e_wo_entrp">   -173.83299281 </i>
    <i name="e_0_energy">   -173.89240823 </i>
   </energy>
  </scstep>
  <scstep>
   <time name="diag">  103.37  103.39</time>
   <time name="diis">   97.14   97.15</time>
   <time name="orth">   26.39   26.39</time>
   <time name="total">  245.01  245.04</time>
   <energy>
    <i name="alphaZ">     75.25431677 </i>
    <i name="ewald"> 137986.04424444 </i>
    <i name="hartreedc">-182361.46171094 </i>
    <i name="XCdc">  -1693.29133063 </i>
    <i name="pawpsdc">  46038.73507258 </i>
    <i name="pawaedc"> -42508.08591097 </i>
    <i name="eentropy">     -0.07920683 </i>
    <i name="bandstr">  -2797.53324543 </i>
    <i name="atom">  45086.50549395 </i>
    <i name="e_fr_energy">   -173.91227706 </i>
    <i name="e_wo_entrp">   -173.83307023 </i>
    <i name="e_0_energy">   -173.89247535 </i>
   </energy>
  </scstep>
  <structure>
   <crystal>
    <varray name="basis" >
     <v>      30.00000000       0.00000000       0.00000000 </v>
     <v>       0.00000000      30.00000000       0.00000000 </v>
     <v>       0.00000000       0.00000000      30.00000000 </v>
    </varray>
    <i name="volume">  27000.00000000 </i>
    <varray name="rec_basis" >
     <v>       0.03333333       0.00000000       0.00000000 </v>
     <v>       0.00000000       0.03333333       0.00000000 </v>
     <v>       0.00000000       0.00000000       0.03333333 </v>
    </varray>
   </crystal>
   <varray name="positions" >
    <v>       0.44576020       0.32826710       0.41691983 </v>
    <v>       0.67173288       0.55423978       0.41691983 </v>
    <v>       0.55423980       0.32826710       0.41691983 </v>
    <v>       0.32826712       0.55423978       0.41691983 </v>
    <v>       0.50000000       0.38250690       0.34021317 </v>
    <v>       0.50000000       0.38250690       0.65978680 </v>
    <v>       0.50000000       0.27609440       0.50000000 </v>
    <v>       0.27609443       0.49999998       0.50000000 </v>
    <v>       0.72390557       0.49999998       0.50000000 </v>
    <v>       0.50000000       0.72390555       0.50000000 </v>
    <v>       0.61195280       0.38804720       0.34167483 </v>
    <v>       0.61195280       0.38804720       0.65832513 </v>
    <v>       0.38804722       0.61195278       0.34167483 </v>
    <v>       0.38804722       0.61195278       0.65832513 </v>
    <v>       0.38804720       0.38804720       0.34167483 </v>
    <v>       0.38804720       0.38804720       0.65832513 </v>
    <v>       0.61195278       0.61195278       0.34167483 </v>
    <v>       0.61195278       0.61195278       0.65832513 </v>
    <v>       0.44576020       0.32826710       0.58308023 </v>
    <v>       0.67173288       0.55423978       0.58308023 </v>
    <v>       0.55791699       0.44208301       0.41809300 </v>
    <v>       0.32826705       0.44576024       0.41691983 </v>
    <v>       0.55423973       0.67173293       0.41691983 </v>
    <v>       0.55423980       0.32826710       0.58308023 </v>
    <v>       0.32826712       0.55423978       0.58308023 </v>
    <v>       0.67173295       0.44576024       0.41691983 </v>
    <v>       0.44576027       0.67173293       0.41691983 </v>
    <v>       0.44208301       0.44208301       0.41809300 </v>
    <v>       0.50000000       0.38416601       0.50000000 </v>
    <v>       0.61749315       0.50000005       0.34021317 </v>
    <v>       0.61749315       0.50000005       0.65978680 </v>
    <v>       0.38250685       0.50000005       0.34021317 </v>
    <v>       0.38250685       0.50000005       0.65978680 </v>
    <v>       0.38317830       0.38317830       0.50000000 </v>
    <v>       0.61682172       0.61682172       0.50000000 </v>
    <v>       0.61682170       0.38317830       0.50000000 </v>
    <v>       0.38317828       0.61682172       0.50000000 </v>
    <v>       0.50000000       0.50000000       0.33478917 </v>
    <v>       0.50000000       0.50000000       0.66521087 </v>
    <v>       0.32826705       0.44576024       0.58308023 </v>
    <v>       0.55423973       0.67173293       0.58308023 </v>
    <v>       0.55791699       0.44208301       0.58190703 </v>
    <v>       0.44208298       0.55791702       0.41809300 </v>
    <v>       0.44208301       0.44208301       0.58190703 </v>
    <v>       0.67173295       0.44576024       0.58308023 </v>
    <v>       0.44576027       0.67173293       0.58308023 </v>
    <v>       0.55791702       0.55791702       0.41809300 </v>
    <v>       0.38416599       0.50000002       0.50000000 </v>
    <v>       0.61583401       0.50000002       0.50000000 </v>
    <v>       0.50000000       0.61749319       0.34021317 </v>
    <v>       0.50000000       0.61749319       0.65978680 </v>
    <v>       0.50000000       0.50000000       0.50000000 </v>
    <v>       0.44208298       0.55791702       0.58190703 </v>
    <v>       0.55791702       0.55791702       0.58190703 </v>
    <v>       0.50000000       0.61583404       0.50000000 </v>
    <v>       0.46804210       0.49555487       0.25246993 </v>
    <v>       0.46322840       0.49488530       0.21518537 </v>
   </varray>
  </structure>
  <varray name="forces" >
   <v>       0.70003704       1.10495354       0.29367675 </v>
   <v>      -1.10719678      -0.70075043       0.29052384 </v>
   <v>      -0.70413430       1.10888993       0.28892764 </v>
   <v>       1.10568312      -0.70430499       0.29081657 </v>
   <v>       0.00432838       0.38131424       1.31279165 </v>
   <v>      -0.00063477       0.40977769      -1.28146595 </v>
   <v>      -0.00041083       1.51392908      -0.00165099 </v>
   <v>       1.51305719      -0.00008460      -0.00389611 </v>
   <v>      -1.51539007       0.00006785      -0.00011026 </v>
   <v>      -0.00041341      -1.51430985      -0.00130605 </v>
   <v>      -0.75581550       0.75631571       1.07224378 </v>
   <v>      -0.75571741       0.75453666      -1.07369829 </v>
   <v>       0.75504977      -0.75053613       1.07530352 </v>
   <v>       0.75390312      -0.75560966      -1.07330254 </v>
   <v>       0.75383569       0.74954526       1.07614838 </v>
   <v>       0.75412638       0.75571713      -1.07313799 </v>
   <v>      -0.75603968      -0.75593988       1.07179106 </v>
   <v>      -0.75533449      -0.75424290      -1.07326525 </v>
   <v>       0.70168097       1.10730334      -0.29104612 </v>
   <v>      -1.10729121      -0.70211378      -0.29345073 </v>
   <v>       0.10672721      -0.09354853      -0.16448118 </v>
   <v>       1.10440087       0.70368799       0.29204963 </v>
   <v>      -0.70371777      -1.10825658       0.28924358 </v>
   <v>      -0.70172765       1.10878310      -0.29295444 </v>
   <v>       1.10860711      -0.70135275      -0.29027643 </v>
   <v>      -1.10703004       0.70035579       0.29075464 </v>
   <v>       0.69977953      -1.10537428       0.29343958 </v>
   <v>      -0.12656257      -0.13624146      -0.14147199 </v>
   <v>       0.00177759      -0.22287183       0.00165553 </v>
   <v>      -0.40098091       0.00023407       1.30369413 </v>
   <v>      -0.40853274      -0.00008302      -1.28143312 </v>
   <v>       0.38487386      -0.00030685       1.28896355 </v>
   <v>       0.40948239      -0.00002201      -1.28115123 </v>
   <v>       0.82595819       0.82521843       0.00377370 </v>
   <v>      -0.82088883      -0.82236707       0.01169999 </v>
   <v>      -0.82082869       0.82287660       0.01178085 </v>
   <v>       0.82547668      -0.82404431       0.00539968 </v>
   <v>      -0.30169826      -0.04273495       0.10050306 </v>
   <v>      -0.00338321      -0.00036408      -1.18265833 </v>
   <v>       1.10845875       0.70174539      -0.29023827 </v>
   <v>      -0.70193213      -1.10817984      -0.29358144 </v>
   <v>       0.11272427      -0.11290252       0.15538869 </v>
   <v>      -0.12320524       0.13601852      -0.14287486 </v>
   <v>      -0.11294705      -0.11325178       0.15572028 </v>
   <v>      -1.10726047       0.70220889      -0.29297433 </v>
   <v>       0.70172563      -1.10694552      -0.29131068 </v>
   <v>       0.09726018       0.08715488      -0.17188265 </v>
   <v>      -0.22283367       0.00018958       0.00320309 </v>
   <v>       0.22282278       0.00034626      -0.00106314 </v>
   <v>       0.00346859      -0.38664762       1.31051515 </v>
   <v>      -0.00068791      -0.40935451      -1.28122377 </v>
   <v>      -0.00024929       0.00002929      -0.00662460 </v>
   <v>      -0.11299876       0.11352612       0.15575592 </v>
   <v>       0.11250611       0.11287774       0.15528284 </v>
   <v>       0.00193429       0.22333084       0.00119104 </v>
   <v>       0.72881088       0.11267444       3.72272542 </v>
   <v>      -0.36265291      -0.06086665      -2.75243284 </v>
  </varray>
  <varray name="stress" >
   <v>      -6.75769961      -0.00307503      -0.03484325 </v>
   <v>      -0.00307504      -6.73630421      -0.00621265 </v>
   <v>      -0.03484327      -0.00621266      -6.71918100 </v>
  </varray>
  <energy>
   <i name="e_fr_energy">   -173.91227706 </i>
   <i name="e_wo_entrp">   -173.89247535 </i>
   <i name="e_0_energy">     -0.07920683 </i>
  </energy>
  <time name="totalsc">28357.3528360.53</time>
  <eigenvalues>
   <array>
    <dimension dim="1">band</dimension>
    <dimension dim="2">kpoint</dimension>
    <dimension dim="3">spin</dimension>
    <field>eigene</field>
    <field>occ</field>
    <set>
     <set comment="spin 1">
      <set comment="kpoint 1">
       <r>  -29.1857    1.0000 </r>
       <r>  -13.7074    1.0000 </r>
       <r>  -11.4882    1.0000 </r>
       <r>  -11.4863    1.0000 </r>
       <r>   -9.3365    1.0000 </r>
       <r>   -6.6216    1.0000 </r>
       <r>   -6.1049    1.0000 </r>
       <r>   -6.1046    1.0000 </r>
       <r>   -6.0963    1.0000 </r>
       <r>   -5.7907    1.0000 </r>
       <r>   -5.7902    1.0000 </r>
       <r>   -5.7886    1.0000 </r>
       <r>   -5.7219    1.0000 </r>
       <r>   -5.6700    1.0000 </r>
       <r>   -5.6616    1.0000 </r>
       <r>   -5.6615    1.0000 </r>
       <r>   -5.6612    1.0000 </r>
       <r>   -5.5994    1.0000 </r>
       <r>   -5.5987    1.0000 </r>
       <r>   -5.5842    1.0000 </r>
       <r>   -5.5732    1.0000 </r>
       <r>   -5.5732    1.0000 </r>
       <r>   -5.5721    1.0000 </r>
       <r>   -5.5289    1.0000 </r>
       <r>   -5.5280    1.0000 </r>
       <r>   -5.5269    1.0000 </r>
       <r>   -5.5243    1.0000 </r>
       <r>   -5.4978    1.0000 </r>
       <r>   -5.4975    1.0000 </r>
       <r>   -5.4965    1.0000 </r>
       <r>   -5.4917    1.0000 </r>
       <r>   -5.4911    1.0000 </r>
       <r>   -5.4907    1.0000 </r>
       <r>   -5.4906    1.0000 </r>
       <r>   -5.4887    1.0000 </r>
       <r>   -5.4549    1.0000 </r>
       <r>   -5.4547    1.0000 </r>
       <r>   -5.4483    1.0000 </r>
       <r>   -5.4468    1.0000 </r>
       <r>   -5.4449    1.0000 </r>
       <r>   -5.4440    1.0000 </r>
       <r>   -5.4437    1.0000 </r>
       <r>   -5.4433    1.0000 </r>
       <r>   -5.4098    1.0000 </r>
       <r>   -5.4083    1.0000 </r>
       <r>   -5.4058    1.0000 </r>
       <r>   -5.4054    1.0000 </r>
       <r>   -5.4035    1.0000 </r>
       <r>   -5.4022    1.0000 </r>
       <r>   -5.3993    1.0000 </r>
       <r>   -5.3988    1.0000 </r>
       <r>   -5.3855    1.0000 </r>
       <r>   -5.3827    1.0000 </r>
       <r>   -5.3825    1.0000 </r>
       <r>   -5.3682    1.0000 </r>
       <r>   -5.3070    1.0000 </r>
       <r>   -5.3066    1.0000 </r>
       <r>   -5.3044    1.0000 </r>
       <r>   -5.3037    1.0000 </r>
       <r>   -5.2929    1.0000 </r>
       <r>   -5.2928    1.0000 </r>
       <r>   -5.2924    1.0000 </r>
       <r>   -5.2793    1.0000 </r>
       <r>   -5.2778    1.0000 </r>
       <r>   -5.2767    1.0000 </r>
       <r>   -5.2661    1.0000 </r>
       <r>   -5.2649    1.0000 </r>
       <r>   -5.1946    1.0000 </r>
       <r>   -5.1874    1.0000 </r>
       <r>   -5.1842    1.0000 </r>
       <r>   -5.1830    1.0000 </r>
       <r>   -5.1571    1.0000 </r>
       <r>   -5.1562    1.0000 </r>
       <r>   -5.1558    1.0000 </r>
       <r>   -5.1538    1.0000 </r>
       <r>   -5.1511    1.0000 </r>
       <r>   -5.1403    1.0000 </r>
       <r>   -5.1399    1.0000 </r>
       <r>   -5.1380    1.0000 </r>
       <r>   -5.1236    1.0000 </r>
       <r>   -5.1043    1.0000 </r>
       <r>   -5.1005    1.0000 </r>
       <r>   -5.0999    1.0000 </r>
       <r>   -5.0912    1.0000 </r>
       <r>   -5.0801    1.0000 </r>
       <r>   -5.0797    1.0000 </r>
       <r>   -5.0786    1.0000 </r>
       <r>   -5.0377    1.0000 </r>
       <r>   -5.0349    1.0000 </r>
       <r>   -5.0345    1.0000 </r>
       <r>   -5.0320    1.0000 </r>
       <r>   -5.0312    1.0000 </r>
       <r>   -5.0299    1.0000 </r>
       <r>   -5.0245    1.0000 </r>
       <r>   -5.0244    1.0000 </r>
       <r>   -5.0171    1.0000 </r>
       <r>   -5.0136    1.0000 </r>
       <r>   -5.0039    1.0000 </r>
       <r>   -4.9945    1.0000 </r>
       <r>   -4.9937    1.0000 </r>
       <r>   -4.9814    1.0000 </r>
       <r>   -4.9814    1.0000 </r>
       <r>   -4.9813    1.0000 </r>
       <r>   -4.9710    1.0000 </r>
       <r>   -4.9701    1.0000 </r>
       <r>   -4.9671    1.0000 </r>
       <r>   -4.9567    1.0000 </r>
       <r>   -4.9562    1.0000 </r>
       <r>   -4.9558    1.0000 </r>
       <r>   -4.9510    1.0000 </r>
       <r>   -4.9447    1.0000 </r>
       <r>   -4.9424    1.0000 </r>
       <r>   -4.9391    1.0000 </r>
       <r>   -4.9318    1.0000 </r>
       <r>   -4.9293    1.0000 </r>
       <r>   -4.9286    1.0000 </r>
       <r>   -4.9185    1.0000 </r>
       <r>   -4.8942    1.0000 </r>
       <r>   -4.8936    1.0000 </r>
       <r>   -4.8932    1.0000 </r>
       <r>   -4.8853    1.0000 </r>
       <r>   -4.8845    1.0000 </r>
       <r>   -4.8824    1.0000 </r>
       <r>   -4.8793    1.0000 </r>
       <r>   -4.8780    1.0000 </r>
       <r>   -4.8775    1.0000 </r>
       <r>   -4.8283    1.0000 </r>
       <r>   -4.8261    1.0000 </r>
       <r>   -4.8203    1.0000 </r>
       <r>   -4.8195    1.0000 </r>
       <r>   -4.8189    1.0000 </r>
       <r>   -4.8173    1.0000 </r>
       <r>   -4.8072    1.0000 </r>
       <r>   -4.8069    1.0000 </r>
       <r>   -4.8060    1.0000 </r>
       <r>   -4.7823    0.9999 </r>
       <r>   -4.7705    0.9999 </r>
       <r>   -4.7681    0.9999 </r>
       <r>   -4.7677    0.9999 </r>
       <r>   -4.7604    0.9999 </r>
       <r>   -4.7492    0.9998 </r>
       <r>   -4.7377    0.9998 </r>
       <r>   -4.7134    0.9996 </r>
       <r>   -4.7133    0.9996 </r>
       <r>   -4.7129    0.9996 </r>
       <r>   -4.7081    0.9996 </r>
       <r>   -4.7035    0.9995 </r>
       <r>   -4.6834    0.9993 </r>
       <r>   -4.6784    0.9992 </r>
       <r>   -4.6728    0.9991 </r>
       <r>   -4.6673    0.9990 </r>
       <r>   -4.6586    0.9988 </r>
       <r>   -4.6537    0.9987 </r>
       <r>   -4.6510    0.9987 </r>
       <r>   -4.6504    0.9987 </r>
       <r>   -4.6492    0.9986 </r>
       <r>   -4.6484    0.9986 </r>
       <r>   -4.6483    0.9986 </r>
       <r>   -4.6418    0.9984 </r>
       <r>   -4.6278    0.9980 </r>
       <r>   -4.6271    0.9980 </r>
       <r>   -4.6266    0.9980 </r>
       <r>   -4.6246    0.9980 </r>
       <r>   -4.6235    0.9979 </r>
       <r>   -4.6214    0.9979 </r>
       <r>   -4.6214    0.9978 </r>
       <r>   -4.6185    0.9978 </r>
       <r>   -4.6163    0.9977 </r>
       <r>   -4.6058    0.9973 </r>
       <r>   -4.6038    0.9972 </r>
       <r>   -4.5897    0.9967 </r>
       <r>   -4.5789    0.9963 </r>
       <r>   -4.5752    0.9962 </r>
       <r>   -4.5733    0.9961 </r>
       <r>   -4.5730    0.9961 </r>
       <r>   -4.5694    0.9960 </r>
       <r>   -4.5685    0.9959 </r>
       <r>   -4.5637    0.9958 </r>
       <r>   -4.5603    0.9957 </r>
       <r>   -4.5598    0.9957 </r>
       <r>   -4.5493    0.9954 </r>
       <r>   -4.5305    0.9951 </r>
       <r>   -4.5282    0.9951 </r>
       <r>   -4.5279    0.9951 </r>
       <r>   -4.5277    0.9951 </r>
       <r>   -4.5274    0.9951 </r>
       <r>   -4.5270    0.9951 </r>
       <r>   -4.5269    0.9951 </r>
       <r>   -4.5248    0.9951 </r>
       <r>   -4.5244    0.9951 </r>
       <r>   -4.4849    0.9970 </r>
       <r>   -4.4816    0.9974 </r>
       <r>   -4.4811    0.9974 </r>
       <r>   -4.4801    0.9975 </r>
       <r>   -4.4792    0.9977 </r>
       <r>   -4.4669    0.9995 </r>
       <r>   -4.4568    1.0014 </r>
       <r>   -4.4565    1.0015 </r>
       <r>   -4.4532    1.0022 </r>
       <r>   -4.4447    1.0043 </r>
       <r>   -4.4436    1.0046 </r>
       <r>   -4.4356    1.0069 </r>
       <r>   -4.4326    1.0079 </r>
       <r>   -4.4320    1.0081 </r>
       <r>   -4.4245    1.0106 </r>
       <r>   -4.4231    1.0111 </r>
       <r>   -4.4229    1.0112 </r>
       <r>   -4.4216    1.0117 </r>
       <r>   -4.4211    1.0119 </r>
       <r>   -4.4153    1.0141 </r>
       <r>   -4.4034    1.0191 </r>
       <r>   -4.3867    1.0268 </r>
       <r>   -4.3851    1.0276 </r>
       <r>   -4.3842    1.0280 </r>
       <r>   -4.3835    1.0283 </r>
       <r>   -4.3794    1.0303 </r>
       <r>   -4.3767    1.0316 </r>
       <r>   -4.3764    1.0318 </r>
       <r>   -4.3752    1.0323 </r>
       <r>   -4.3516    1.0431 </r>
       <r>   -4.3478    1.0445 </r>
       <r>   -4.3412    1.0469 </r>
       <r>   -4.3196    1.0515 </r>
       <r>   -4.3172    1.0516 </r>
       <r>   -4.3137    1.0516 </r>
       <r>   -4.3136    1.0516 </r>
       <r>   -4.3130    1.0516 </r>
       <r>   -4.3118    1.0515 </r>
       <r>   -4.3115    1.0515 </r>
       <r>   -4.3090    1.0513 </r>
       <r>   -4.3048    1.0506 </r>
       <r>   -4.3042    1.0505 </r>
       <r>   -4.3008    1.0496 </r>
       <r>   -4.2988    1.0490 </r>
       <r>   -4.2970    1.0483 </r>
       <r>   -4.2964    1.0481 </r>
       <r>   -4.2960    1.0480 </r>
       <r>   -4.2946    1.0474 </r>
       <r>   -4.2924    1.0464 </r>
       <r>   -4.2922    1.0463 </r>
       <r>   -4.2792    1.0377 </r>
       <r>   -4.2755    1.0344 </r>
       <r>   -4.2662    1.0242 </r>
       <r>   -4.2651    1.0227 </r>
       <r>   -4.2602    1.0161 </r>
       <r>   -4.2593    1.0148 </r>
       <r>   -4.2589    1.0142 </r>
       <r>   -4.2583    1.0133 </r>
       <r>   -4.2531    1.0049 </r>
       <r>   -4.2500    0.9994 </r>
       <r>   -4.2383    0.9756 </r>
       <r>   -4.2317    0.9601 </r>
       <r>   -4.2311    0.9585 </r>
       <r>   -4.2301    0.9559 </r>
       <r>   -4.2246    0.9413 </r>
       <r>   -4.2240    0.9395 </r>
       <r>   -4.2238    0.9391 </r>
       <r>   -4.2202    0.9287 </r>
       <r>   -4.2184    0.9233 </r>
       <r>   -4.2184    0.9233 </r>
       <r>   -4.2128    0.9057 </r>
       <r>   -4.2120    0.9029 </r>
       <r>   -4.2115    0.9013 </r>
       <r>   -4.2112    0.9005 </r>
       <r>   -4.2084    0.8910 </r>
       <r>   -4.1964    0.8477 </r>
       <r>   -4.1957    0.8448 </r>
       <r>   -4.1929    0.8339 </r>
       <r>   -4.1927    0.8333 </r>
       <r>   -4.1900    0.8222 </r>
       <r>   -4.1897    0.8211 </r>
       <r>   -4.1884    0.8159 </r>
       <r>   -4.1676    0.7237 </r>
       <r>   -4.1666    0.7187 </r>
       <r>   -4.1647    0.7097 </r>
       <r>   -4.1562    0.6684 </r>
       <r>   -4.1557    0.6660 </r>
       <r>   -4.1513    0.6436 </r>
       <r>   -4.1441    0.6067 </r>
       <r>   -4.1439    0.6057 </r>
       <r>   -4.1433    0.6028 </r>
       <r>   -4.1296    0.5313 </r>
       <r>   -4.1043    0.3979 </r>
       <r>   -4.1038    0.3956 </r>
       <r>   -4.1032    0.3922 </r>
       <r>   -4.0998    0.3751 </r>
       <r>   -4.0883    0.3173 </r>
       <r>   -4.0852    0.3019 </r>
       <r>   -4.0707    0.2342 </r>
       <r>   -3.9451   -0.0500 </r>
       <r>   -3.8736   -0.0330 </r>
       <r>   -3.7951   -0.0024 </r>
       <r>   -3.7930   -0.0019 </r>
       <r>   -3.7914   -0.0016 </r>
       <r>   -3.4686    0.0001 </r>
       <r>   -3.4666    0.0001 </r>
       <r>   -3.4141    0.0000 </r>
       <r>   -3.0314    0.0000 </r>
       <r>   -3.0309    0.0000 </r>
       <r>   -2.9996    0.0000 </r>
       <r>   -2.9911    0.0000 </r>
       <r>   -2.9897    0.0000 </r>
       <r>   -2.9874    0.0000 </r>
       <r>   -2.9063    0.0000 </r>
       <r>   -2.8605    0.0000 </r>
       <r>   -2.5404    0.0000 </r>
       <r>   -2.5265    0.0000 </r>
       <r>   -2.4941    0.0000 </r>
       <r>   -2.2680    0.0000 </r>
       <r>   -2.0982    0.0000 </r>
       <r>   -2.0965    0.0000 </r>
       <r>   -2.0947    0.0000 </r>
       <r>   -1.9420    0.0000 </r>
       <r>   -1.9326    0.0000 </r>
       <r>   -1.9075    0.0000 </r>
       <r>   -1.8506    0.0000 </r>
       <r>   -1.8252    0.0000 </r>
       <r>   -1.7586    0.0000 </r>
       <r>   -1.7511    0.0000 </r>
       <r>   -1.6997    0.0000 </r>
       <r>   -1.6198    0.0000 </r>
       <r>   -1.5294    0.0000 </r>
       <r>   -1.5243    0.0000 </r>
       <r>   -1.4881    0.0000 </r>
       <r>   -1.4764    0.0000 </r>
       <r>   -1.1511    0.0000 </r>
       <r>   -1.1443    0.0000 </r>
       <r>   -1.0580    0.0000 </r>
       <r>   -0.9664    0.0000 </r>
       <r>   -0.9640    0.0000 </r>
       <r>   -0.9588    0.0000 </r>
       <r>   -0.9180    0.0000 </r>
       <r>   -0.9025    0.0000 </r>
       <r>   -0.8777    0.0000 </r>
       <r>   -0.7987    0.0000 </r>
       <r>   -0.7453    0.0000 </r>
      </set>
     </set>
    </set>
   </array>
  </eigenvalues>
  <separator name="orbital magnetization" >
   <v name="MAGDIPOLOUT">      0.00000000      0.00000000      0.00000000</v>
  </separator>
  <dos>
   <i name="efermi">     -4.12372469 </i>
   <total>
    <array>
     <dimension dim="1">gridpoints</dimension>
     <dimension dim="2">spin</dimension>
     <field>energy</field>
     <field>total</field>
     <field>integrated</field>
     <set>
      <set comment="spin 1">
       <r>   -31.1857     0.0000     0.0000 </r>
       <r>   -31.0776     0.0000     0.0000 </r>
       <r>   -30.9695     0.0000     0.0000 </r>
       <r>   -30.8613     0.0000     0.0000 </r>
       <r>   -30.7532     0.0000     0.0000 </r>
       <r>   -30.6451     0.0000     0.0000 </r>
       <r>   -30.5369     0.0000     0.0000 </r>
       <r>   -30.4288     0.0000     0.0000 </r>
       <r>   -30.3206     0.0000     0.0000 </r>
       <r>   -30.2125     0.0000     0.0000 </r>
       <r>   -30.1044     0.0000     0.0000 </r>
       <r>   -29.9962     0.0000     0.0000 </r>
       <r>   -29.8881     0.0004     0.0000 </r>
       <r>   -29.7800     0.0059     0.0007 </r>
       <r>   -29.6718     0.0406     0.0051 </r>
       <r>   -29.5637     0.0326     0.0086 </r>
       <r>   -29.4556    -0.5156    -0.0472 </r>
       <r>   -29.3474    -0.3480    -0.0848 </r>
       <r>   -29.2393     5.0722     0.4637 </r>
       <r>   -29.1312    10.0002     1.5451 </r>
       <r>   -29.0230     5.0032     2.0861 </r>
       <r>   -28.9149    -0.3684     2.0462 </r>
       <r>   -28.8068    -0.5081     1.9913 </r>
       <r>   -28.6986     0.0342     1.9950 </r>
       <r>   -28.5905     0.0401     1.9993 </r>
       <r>   -28.4824     0.0058     2.0000 </r>
       <r>   -28.3742     0.0003     2.0000 </r>
       <r>   -28.2661     0.0000     2.0000 </r>
       <r>   -28.1580     0.0000     2.0000 </r>
       <r>   -28.0498     0.0000     2.0000 </r>
       <r>   -27.9417     0.0000     2.0000 </r>
       <r>   -27.8335     0.0000     2.0000 </r>
       <r>   -27.7254     0.0000     2.0000 </r>
       <r>   -27.6173     0.0000     2.0000 </r>
       <r>   -27.5091     0.0000     2.0000 </r>
       <r>   -27.4010     0.0000     2.0000 </r>
       <r>   -27.2929     0.0000     2.0000 </r>
       <r>   -27.1847     0.0000     2.0000 </r>
       <r>   -27.0766     0.0000     2.0000 </r>
       <r>   -26.9685     0.0000     2.0000 </r>
       <r>   -26.8603     0.0000     2.0000 </r>
       <r>   -26.7522     0.0000     2.0000 </r>
       <r>   -26.6441     0.0000     2.0000 </r>
       <r>   -26.5359     0.0000     2.0000 </r>
       <r>   -26.4278     0.0000     2.0000 </r>
       <r>   -26.3197     0.0000     2.0000 </r>
       <r>   -26.2115     0.0000     2.0000 </r>
       <r>   -26.1034     0.0000     2.0000 </r>
       <r>   -25.9953     0.0000     2.0000 </r>
       <r>   -25.8871     0.0000     2.0000 </r>
       <r>   -25.7790     0.0000     2.0000 </r>
       <r>   -25.6709     0.0000     2.0000 </r>
       <r>   -25.5627     0.0000     2.0000 </r>
       <r>   -25.4546     0.0000     2.0000 </r>
       <r>   -25.3465     0.0000     2.0000 </r>
       <r>   -25.2383     0.0000     2.0000 </r>
       <r>   -25.1302     0.0000     2.0000 </r>
       <r>   -25.0220     0.0000     2.0000 </r>
       <r>   -24.9139     0.0000     2.0000 </r>
       <r>   -24.8058     0.0000     2.0000 </r>
       <r>   -24.6976     0.0000     2.0000 </r>
       <r>   -24.5895     0.0000     2.0000 </r>
       <r>   -24.4814     0.0000     2.0000 </r>
       <r>   -24.3732     0.0000     2.0000 </r>
       <r>   -24.2651     0.0000     2.0000 </r>
       <r>   -24.1570     0.0000     2.0000 </r>
       <r>   -24.0488     0.0000     2.0000 </r>
       <r>   -23.9407     0.0000     2.0000 </r>
       <r>   -23.8326     0.0000     2.0000 </r>
       <r>   -23.7244     0.0000     2.0000 </r>
       <r>   -23.6163     0.0000     2.0000 </r>
       <r>   -23.5082     0.0000     2.0000 </r>
       <r>   -23.4000     0.0000     2.0000 </r>
       <r>   -23.2919     0.0000     2.0000 </r>
       <r>   -23.1838     0.0000     2.0000 </r>
       <r>   -23.0756     0.0000     2.0000 </r>
       <r>   -22.9675     0.0000     2.0000 </r>
       <r>   -22.8594     0.0000     2.0000 </r>
       <r>   -22.7512     0.0000     2.0000 </r>
       <r>   -22.6431     0.0000     2.0000 </r>
       <r>   -22.5349     0.0000     2.0000 </r>
       <r>   -22.4268     0.0000     2.0000 </r>
       <r>   -22.3187     0.0000     2.0000 </r>
       <r>   -22.2105     0.0000     2.0000 </r>
       <r>   -22.1024     0.0000     2.0000 </r>
       <r>   -21.9943     0.0000     2.0000 </r>
       <r>   -21.8861     0.0000     2.0000 </r>
       <r>   -21.7780     0.0000     2.0000 </r>
       <r>   -21.6699     0.0000     2.0000 </r>
       <r>   -21.5617     0.0000     2.0000 </r>
       <r>   -21.4536     0.0000     2.0000 </r>
       <r>   -21.3455     0.0000     2.0000 </r>
       <r>   -21.2373     0.0000     2.0000 </r>
       <r>   -21.1292     0.0000     2.0000 </r>
       <r>   -21.0211     0.0000     2.0000 </r>
       <r>   -20.9129     0.0000     2.0000 </r>
       <r>   -20.8048     0.0000     2.0000 </r>
       <r>   -20.6967     0.0000     2.0000 </r>
       <r>   -20.5885     0.0000     2.0000 </r>
       <r>   -20.4804     0.0000     2.0000 </r>
       <r>   -20.3723     0.0000     2.0000 </r>
       <r>   -20.2641     0.0000     2.0000 </r>
       <r>   -20.1560     0.0000     2.0000 </r>
       <r>   -20.0478     0.0000     2.0000 </r>
       <r>   -19.9397     0.0000     2.0000 </r>
       <r>   -19.8316     0.0000     2.0000 </r>
       <r>   -19.7234     0.0000     2.0000 </r>
       <r>   -19.6153     0.0000     2.0000 </r>
       <r>   -19.5072     0.0000     2.0000 </r>
       <r>   -19.3990     0.0000     2.0000 </r>
       <r>   -19.2909     0.0000     2.0000 </r>
       <r>   -19.1828     0.0000     2.0000 </r>
       <r>   -19.0746     0.0000     2.0000 </r>
       <r>   -18.9665     0.0000     2.0000 </r>
       <r>   -18.8584     0.0000     2.0000 </r>
       <r>   -18.7502     0.0000     2.0000 </r>
       <r>   -18.6421     0.0000     2.0000 </r>
       <r>   -18.5340     0.0000     2.0000 </r>
       <r>   -18.4258     0.0000     2.0000 </r>
       <r>   -18.3177     0.0000     2.0000 </r>
       <r>   -18.2096     0.0000     2.0000 </r>
       <r>   -18.1014     0.0000     2.0000 </r>
       <r>   -17.9933     0.0000     2.0000 </r>
       <r>   -17.8852     0.0000     2.0000 </r>
       <r>   -17.7770     0.0000     2.0000 </r>
       <r>   -17.6689     0.0000     2.0000 </r>
       <r>   -17.5608     0.0000     2.0000 </r>
       <r>   -17.4526     0.0000     2.0000 </r>
       <r>   -17.3445     0.0000     2.0000 </r>
       <r>   -17.2363     0.0000     2.0000 </r>
       <r>   -17.1282     0.0000     2.0000 </r>
       <r>   -17.0201     0.0000     2.0000 </r>
       <r>   -16.9119     0.0000     2.0000 </r>
       <r>   -16.8038     0.0000     2.0000 </r>
       <r>   -16.6957     0.0000     2.0000 </r>
       <r>   -16.5875     0.0000     2.0000 </r>
       <r>   -16.4794     0.0000     2.0000 </r>
       <r>   -16.3713     0.0000     2.0000 </r>
       <r>   -16.2631     0.0000     2.0000 </r>
       <r>   -16.1550     0.0000     2.0000 </r>
       <r>   -16.0469     0.0000     2.0000 </r>
       <r>   -15.9387     0.0000     2.0000 </r>
       <r>   -15.8306     0.0000     2.0000 </r>
       <r>   -15.7225     0.0000     2.0000 </r>
       <r>   -15.6143     0.0000     2.0000 </r>
       <r>   -15.5062     0.0000     2.0000 </r>
       <r>   -15.3981     0.0000     2.0000 </r>
       <r>   -15.2899     0.0000     2.0000 </r>
       <r>   -15.1818     0.0000     2.0000 </r>
       <r>   -15.0737     0.0000     2.0000 </r>
       <r>   -14.9655     0.0000     2.0000 </r>
       <r>   -14.8574     0.0000     2.0000 </r>
       <r>   -14.7492     0.0000     2.0000 </r>
       <r>   -14.6411     0.0000     2.0000 </r>
       <r>   -14.5330     0.0000     2.0000 </r>
       <r>   -14.4248     0.0002     2.0000 </r>
       <r>   -14.3167     0.0042     2.0005 </r>
       <r>   -14.2086     0.0333     2.0041 </r>
       <r>   -14.1004     0.0517     2.0097 </r>
       <r>   -13.9923    -0.4011     1.9663 </r>
       <r>   -13.8842    -0.6046     1.9009 </r>
       <r>   -13.7760     4.0246     2.3361 </r>
       <r>   -13.6679     9.8856     3.4051 </r>
       <r>   -13.5598     6.0587     4.0603 </r>
       <r>   -13.4516     0.0031     4.0606 </r>
       <r>   -13.3435    -0.6206     3.9935 </r>
       <r>   -13.2354     0.0039     3.9939 </r>
       <r>   -13.1272     0.0478     3.9991 </r>
       <r>   -13.0191     0.0081     3.9999 </r>
       <r>   -12.9110     0.0005     4.0000 </r>
       <r>   -12.8028     0.0000     4.0000 </r>
       <r>   -12.6947     0.0000     4.0000 </r>
       <r>   -12.5866     0.0000     4.0000 </r>
       <r>   -12.4784     0.0000     4.0000 </r>
       <r>   -12.3703     0.0000     4.0000 </r>
       <r>   -12.2621     0.0001     4.0000 </r>
       <r>   -12.1540     0.0019     4.0002 </r>
       <r>   -12.0459     0.0251     4.0029 </r>
       <r>   -11.9377     0.1154     4.0154 </r>
       <r>   -11.8296    -0.1279     4.0016 </r>
       <r>   -11.7215    -1.5079     3.8385 </r>
       <r>   -11.6133     1.5281     4.0038 </r>
       <r>   -11.5052    14.9718     5.6227 </r>
       <r>   -11.3971    18.6278     7.6370 </r>
       <r>   -11.2889     5.2527     8.2050 </r>
       <r>   -11.1808    -1.5752     8.0347 </r>
       <r>   -11.0727    -0.5007     7.9806 </r>
       <r>   -10.9645     0.1266     7.9943 </r>
       <r>   -10.8564     0.0479     7.9994 </r>
       <r>   -10.7483     0.0050     8.0000 </r>
       <r>   -10.6401     0.0002     8.0000 </r>
       <r>   -10.5320     0.0000     8.0000 </r>
       <r>   -10.4239     0.0000     8.0000 </r>
       <r>   -10.3157     0.0000     8.0000 </r>
       <r>   -10.2076     0.0000     8.0000 </r>
       <r>   -10.0995     0.0001     8.0000 </r>
       <r>    -9.9913     0.0013     8.0002 </r>
       <r>    -9.8832     0.0157     8.0019 </r>
       <r>    -9.7751     0.0618     8.0085 </r>
       <r>    -9.6669    -0.1155     7.9960 </r>
       <r>    -9.5588    -0.7998     7.9096 </r>
       <r>    -9.4506     1.3039     8.0505 </r>
       <r>    -9.3425     8.1914     8.9363 </r>
       <r>    -9.2344     8.8121     9.8892 </r>
       <r>    -9.1262     1.9317    10.0981 </r>
       <r>    -9.0181    -0.8144    10.0100 </r>
       <r>    -8.9100    -0.1783     9.9908 </r>
       <r>    -8.8018     0.0639     9.9977 </r>
       <r>    -8.6937     0.0196     9.9998 </r>
       <r>    -8.5856     0.0018    10.0000 </r>
       <r>    -8.4774     0.0001    10.0000 </r>
       <r>    -8.3693     0.0000    10.0000 </r>
       <r>    -8.2612     0.0000    10.0000 </r>
       <r>    -8.1530     0.0000    10.0000 </r>
       <r>    -8.0449     0.0000    10.0000 </r>
       <r>    -7.9368     0.0000    10.0000 </r>
       <r>    -7.8286     0.0000    10.0000 </r>
       <r>    -7.7205     0.0000    10.0000 </r>
       <r>    -7.6124     0.0000    10.0000 </r>
       <r>    -7.5042     0.0000    10.0000 </r>
       <r>    -7.3961     0.0000    10.0000 </r>
       <r>    -7.2880     0.0010    10.0001 </r>
       <r>    -7.1798     0.0126    10.0015 </r>
       <r>    -7.0717     0.0579    10.0077 </r>
       <r>    -6.9635    -0.0653    10.0007 </r>
       <r>    -6.8554    -0.7556     9.9190 </r>
       <r>    -6.7473     0.7843    10.0038 </r>
       <r>    -6.6391     7.5651    10.8218 </r>
       <r>    -6.5310     9.4917    11.8482 </r>
       <r>    -6.4229     2.1180    12.0772 </r>
       <r>    -6.3147    -3.1437    11.7373 </r>
       <r>    -6.2066     5.4598    12.3277 </r>
       <r>    -6.0985    25.9358    15.1322 </r>
       <r>    -5.9903    22.6121    17.5774 </r>
       <r>    -5.8822     7.7929    18.4201 </r>
       <r>    -5.7741    25.7690    21.2066 </r>
       <r>    -5.6659    69.7437    28.7483 </r>
       <r>    -5.5578   163.5973    46.4389 </r>
       <r>    -5.4497   285.8993    77.3545 </r>
       <r>    -5.3415   295.7173   109.3318 </r>
       <r>    -5.2334   216.4652   132.7392 </r>
       <r>    -5.1253   221.4487   156.6855 </r>
       <r>    -5.0171   321.7340   191.4761 </r>
       <r>    -4.9090   370.6135   231.5523 </r>
       <r>    -4.8009   311.9683   265.2869 </r>
       <r>    -4.6927   308.5339   298.6502 </r>
       <r>    -4.5846   399.8184   341.8844 </r>
       <r>    -4.4764   424.1154   387.7460 </r>
       <r>    -4.3683   437.1641   435.0186 </r>
       <r>    -4.2602   541.1894   493.5400 </r>
       <r>    -4.1520   517.9823   549.5519 </r>
       <r>    -4.0439   254.7906   577.1036 </r>
       <r>    -3.9358    40.5280   581.4861 </r>
       <r>    -3.8276    17.7041   583.4005 </r>
       <r>    -3.7195    31.8023   586.8394 </r>
       <r>    -3.6114    11.5064   588.0837 </r>
       <r>    -3.5032    13.5009   589.5436 </r>
       <r>    -3.3951    28.3491   592.6091 </r>
       <r>    -3.2870    12.7345   593.9862 </r>
       <r>    -3.1788    -3.9897   593.5547 </r>
       <r>    -3.0707    22.8626   596.0270 </r>
       <r>    -2.9626    65.4726   603.1068 </r>
       <r>    -2.8544    53.6355   608.9067 </r>
       <r>    -2.7463    11.3118   610.1299 </r>
       <r>    -2.6382     1.2261   610.2625 </r>
       <r>    -2.5300    21.9518   612.6362 </r>
       <r>    -2.4219    26.1877   615.4680 </r>
       <r>    -2.3138    10.2565   616.5771 </r>
       <r>    -2.2056    11.2124   617.7896 </r>
       <r>    -2.0975    26.6675   620.6732 </r>
       <r>    -1.9894    37.0759   624.6824 </r>
       <r>    -1.8812    46.0707   629.6643 </r>
       <r>    -1.7731    50.4705   635.1219 </r>
       <r>    -1.6649    41.2766   639.5853 </r>
       <r>    -1.5568    39.9539   643.9057 </r>
       <r>    -1.4487    40.7572   648.3130 </r>
       <r>    -1.3405    16.6105   650.1092 </r>
       <r>    -1.2324     2.3111   650.3591 </r>
       <r>    -1.1243    17.9501   652.3001 </r>
       <r>    -1.0161    42.1158   656.8543 </r>
       <r>    -0.9080    62.2052   663.5808 </r>
       <r>    -0.7999    53.3242   669.3470 </r>
       <r>    -0.6917    23.1902   671.8547 </r>
       <r>    -0.5836     3.0429   672.1837 </r>
       <r>    -0.4755    -1.5949   672.0113 </r>
       <r>    -0.3673    -0.3554   671.9728 </r>
       <r>    -0.2592     0.1768   671.9920 </r>
       <r>    -0.1511     0.0660   671.9991 </r>
       <r>    -0.0429     0.0079   672.0000 </r>
       <r>     0.0652     0.0004   672.0000 </r>
       <r>     0.1733     0.0000   672.0000 </r>
       <r>     0.2815     0.0000   672.0000 </r>
       <r>     0.3896     0.0000   672.0000 </r>
       <r>     0.4977     0.0000   672.0000 </r>
       <r>     0.6059     0.0000   672.0000 </r>
       <r>     0.7140     0.0000   672.0000 </r>
       <r>     0.8222     0.0000   672.0000 </r>
       <r>     0.9303     0.0000   672.0000 </r>
       <r>     1.0384     0.0000   672.0000 </r>
       <r>     1.1466     0.0000   672.0000 </r>
       <r>     1.2547     0.0000   672.0000 </r>
      </set>
     </set>
    </array>
   </total>
  </dos>
 </calculation>
 <structure name="finalpos" >
  <crystal>
   <varray name="basis" >
    <v>      30.00000000       0.00000000       0.00000000 </v>
    <v>       0.00000000      30.00000000       0.00000000 </v>
    <v>       0.00000000       0.00000000      30.00000000 </v>
   </varray>
   <i name="volume">  27000.00000000 </i>
   <varray name="rec_basis" >
    <v>       0.03333333       0.00000000       0.00000000 </v>
    <v>       0.00000000       0.03333333       0.00000000 </v>
    <v>       0.00000000       0.00000000       0.03333333 </v>
   </varray>
  </crystal>
  <varray name="positions" >
   <v>       0.44576020       0.32826710       0.41691983 </v>
   <v>       0.67173288       0.55423978       0.41691983 </v>
   <v>       0.55423980       0.32826710       0.41691983 </v>
   <v>       0.32826712       0.55423978       0.41691983 </v>
   <v>       0.50000000       0.38250690       0.34021317 </v>
   <v>       0.50000000       0.38250690       0.65978680 </v>
   <v>       0.50000000       0.27609440       0.50000000 </v>
   <v>       0.27609443       0.49999998       0.50000000 </v>
   <v>       0.72390557       0.49999998       0.50000000 </v>
   <v>       0.50000000       0.72390555       0.50000000 </v>
   <v>       0.61195280       0.38804720       0.34167483 </v>
   <v>       0.61195280       0.38804720       0.65832513 </v>
   <v>       0.38804722       0.61195278       0.34167483 </v>
   <v>       0.38804722       0.61195278       0.65832513 </v>
   <v>       0.38804720       0.38804720       0.34167483 </v>
   <v>       0.38804720       0.38804720       0.65832513 </v>
   <v>       0.61195278       0.61195278       0.34167483 </v>
   <v>       0.61195278       0.61195278       0.65832513 </v>
   <v>       0.44576020       0.32826710       0.58308023 </v>
   <v>       0.67173288       0.55423978       0.58308023 </v>
   <v>       0.55791699       0.44208301       0.41809300 </v>
   <v>       0.32826705       0.44576024       0.41691983 </v>
   <v>       0.55423973       0.67173293       0.41691983 </v>
   <v>       0.55423980       0.32826710       0.58308023 </v>
   <v>       0.32826712       0.55423978       0.58308023 </v>
   <v>       0.67173295       0.44576024       0.41691983 </v>
   <v>       0.44576027       0.67173293       0.41691983 </v>
   <v>       0.44208301       0.44208301       0.41809300 </v>
   <v>       0.50000000       0.38416601       0.50000000 </v>
   <v>       0.61749315       0.50000005       0.34021317 </v>
   <v>       0.61749315       0.50000005       0.65978680 </v>
   <v>       0.38250685       0.50000005       0.34021317 </v>
   <v>       0.38250685       0.50000005       0.65978680 </v>
   <v>       0.38317830       0.38317830       0.50000000 </v>
   <v>       0.61682172       0.61682172       0.50000000 </v>
   <v>       0.61682170       0.38317830       0.50000000 </v>
   <v>       0.38317828       0.61682172       0.50000000 </v>
   <v>       0.50000000       0.50000000       0.33478917 </v>
   <v>       0.50000000       0.50000000       0.66521087 </v>
   <v>       0.32826705       0.44576024       0.58308023 </v>
   <v>       0.55423973       0.67173293       0.58308023 </v>
   <v>       0.55791699       0.44208301       0.58190703 </v>
   <v>       0.44208298       0.55791702       0.41809300 </v>
   <v>       0.44208301       0.44208301       0.58190703 </v>
   <v>       0.67173295       0.44576024       0.58308023 </v>
   <v>       0.44576027       0.67173293       0.58308023 </v>
   <v>       0.55791702       0.55791702       0.41809300 </v>
   <v>       0.38416599       0.50000002       0.50000000 </v>
   <v>       0.61583401       0.50000002       0.50000000 </v>
   <v>       0.50000000       0.61749319       0.34021317 </v>
   <v>       0.50000000       0.61749319       0.65978680 </v>
   <v>       0.50000000       0.50000000       0.50000000 </v>
   <v>       0.44208298       0.55791702       0.58190703 </v>
   <v>       0.55791702       0.55791702       0.58190703 </v>
   <v>       0.50000000       0.61583404       0.50000000 </v>
   <v>       0.46804210       0.49555487       0.25246993 </v>
   <v>       0.46322840       0.49488530       0.21518537 </v>
  </varray>
  <varray name="selective"  type="logical" >
   <v type="logical" >  F  F  F </v>
   <v type="logical" >  F  F  F </v>
   <v type="logical" >  F  F  F </v>
   <v type="logical" >  F  F  F </v>
   <v type="logical" >  F  F  F </v>
   <v type="logical" >  F  F  F </v>
   <v type="logical" >  F  F  F </v>
   <v type="logical" >  F  F  F </v>
   <v type="logical" >  F  F  F </v>
   <v type="logical" >  F  F  F </v>
   <v type="logical" >  F  F  F </v>
   <v type="logical" >  F  F  F </v>
   <v type="logical" >  F  F  F </v>
   <v type="logical" >  F  F  F </v>
   <v type="logical" >  F  F  F </v>
   <v type="logical" >  F  F  F </v>
   <v type="logical" >  F  F  F </v>
   <v type="logical" >  F  F  F </v>
   <v type="logical" >  F  F  F </v>
   <v type="logical" >  F  F  F </v>
   <v type="logical" >  F  F  F </v>
   <v type="logical" >  F  F  F </v>
   <v type="logical" >  F  F  F </v>
   <v type="logical" >  F  F  F </v>
   <v type="logical" >  F  F  F </v>
   <v type="logical" >  F  F  F </v>
   <v type="logical" >  F  F  F </v>
   <v type="logical" >  F  F  F </v>
   <v type="logical" >  F  F  F </v>
   <v type="logical" >  F  F  F </v>
   <v type="logical" >  F  F  F </v>
   <v type="logical" >  F  F  F </v>
   <v type="logical" >  F  F  F </v>
   <v type="logical" >  F  F  F </v>
   <v type="logical" >  F  F  F </v>
   <v type="logical" >  F  F  F </v>
   <v type="logical" >  F  F  F </v>
   <v type="logical" >  F  F  F </v>
   <v type="logical" >  F  F  F </v>
   <v type="logical" >  F  F  F </v>
   <v type="logical" >  F  F  F </v>
   <v type="logical" >  F  F  F </v>
   <v type="logical" >  F  F  F </v>
   <v type="logical" >  F  F  F </v>
   <v type="logical" >  F  F  F </v>
   <v type="logical" >  F  F  F </v>
   <v type="logical" >  F  F  F </v>
   <v type="logical" >  F  F  F </v>
   <v type="logical" >  F  F  F </v>
   <v type="logical" >  F  F  F </v>
   <v type="logical" >  F  F  F </v>
   <v type="logical" >  F  F  F </v>
   <v type="logical" >  F  F  F </v>
   <v type="logical" >  F  F  F </v>
   <v type="logical" >  F  F  F </v>
   <v type="logical" >  F  F  F </v>
   <v type="logical" >  F  F  F </v>
  </varray>
  <nose>
   <v>      -3.00000000       0.00000000       0.00010000       0.00010000 </v>
  </nose>
 </structure>
</modeling>
