 vasp.5.4.4.18Apr17-6-g9f103f2a35 (build Sep 03 2018 23:53:05) complex          
  
 executed on             LinuxIFC date 2021.12.01  14:56:56
 running on    1 total cores
 distrk:  each k-point on    1 cores,    1 groups
 distr:  one band on NCORES_PER_BAND=   1 cores,    1 groups


--------------------------------------------------------------------------------------------------------


 INCAR:
 POTCAR:    PAW_PBE Pd 04Jan2005                  
 POTCAR:    PAW_PBE C 08Apr2002                   
 POTCAR:    PAW_PBE O 08Apr2002                   
 POTCAR:    PAW_PBE Pd 04Jan2005                  
   VRHFIN =Pd : s1 d9                                                           
   LEXCH  = PE                                                                  
   EATOM  =   809.7530 eV,   59.5152 Ry                                         
                                                                                
   TITEL  = PAW_PBE Pd 04Jan2005                                                
   LULTRA =        F    use ultrasoft PP ?                                      
   IUNSCR =        1    unscreen: 0-lin 1-nonlin 2-no                           
   RPACOR =    2.000    partial core radius                                     
   POMASS =  106.420; ZVAL   =   10.000    mass and valenz                      
   RCORE  =    2.600    outmost cutoff radius                                   
   RWIGS  =    2.710; RWIGS  =    1.434    wigner-seitz radius (au A)           
   ENMAX  =  250.925; ENMIN  =  188.194 eV                                      
   ICORE  =        3    local potential                                         
   LCOR   =        T    correct aug charges                                     
   LPAW   =        T    paw PP                                                  
   EAUG   =  416.230                                                            
   DEXC   =    0.000                                                            
   RMAX   =    2.653    core radius for proj-oper                               
   RAUG   =    1.300    factor for augmentation sphere                          
   RDEP   =    2.734    radius for radial grids                                 
   RDEPT  =    2.103    core radius for aug-charge                              
                                                                                
   Atomic configuration                                                         
   12 entries                                                                   
     n  l   j            E        occ.                                          
     1  0  0.50    -24164.6631   2.0000                                         
     2  0  0.50     -3530.9218   2.0000                                         
     2  1  1.50     -3165.6822   6.0000                                         
     3  0  0.50      -639.4577   2.0000                                         
     3  1  1.50      -519.4532   6.0000                                         
     3  2  2.50      -328.9757  10.0000                                         
     4  0  0.50       -88.7014   2.0000                                         
     4  1  1.50       -54.4540   6.0000                                         
     4  2  2.50        -6.6878   9.0000                                         
     5  0  0.50        -4.3543   1.0000                                         
     5  1  0.50        -1.3606   0.0000                                         
     4  3  2.50        -1.3606   0.0000                                         
   Description                                                                  
     l       E           TYP  RCUT    TYP  RCUT                                 
     2     -6.6878251     23  2.400                                             
     2     -8.0484077     23  2.400                                             
     0     -4.3542939     23  2.400                                             
     0      4.3406793     23  2.400                                             
     1     -4.0817478     23  2.600                                             
     1     15.8380318     23  2.600                                             
     3     -4.0817478     23  2.400                                             
  local pseudopotential read in
  partial core-charges read in
  partial kinetic energy density read in
  atomic valenz-charges read in
  non local Contribution for L=           2  read in
    real space projection operators read in
  non local Contribution for L=           2  read in
    real space projection operators read in
  non local Contribution for L=           0  read in
    real space projection operators read in
  non local Contribution for L=           0  read in
    real space projection operators read in
  non local Contribution for L=           1  read in
    real space projection operators read in
  non local Contribution for L=           1  read in
    real space projection operators read in
    PAW grid and wavefunctions read in
 
   number of l-projection  operators is LMAX  =           6
   number of lm-projection operators is LMMAX =          18
 
 POTCAR:    PAW_PBE C 08Apr2002                   
   VRHFIN =C: s2p2                                                              
   LEXCH  = PE                                                                  
   EATOM  =   147.1560 eV,   10.8157 Ry                                         
                                                                                
   TITEL  = PAW_PBE C 08Apr2002                                                 
   LULTRA =        F    use ultrasoft PP ?                                      
   IUNSCR =        1    unscreen: 0-lin 1-nonlin 2-no                           
   RPACOR =    1.200    partial core radius                                     
   POMASS =   12.011; ZVAL   =    4.000    mass and valenz                      
   RCORE  =    1.500    outmost cutoff radius                                   
   RWIGS  =    1.630; RWIGS  =    0.863    wigner-seitz radius (au A)           
   ENMAX  =  400.000; ENMIN  =  300.000 eV                                      
   ICORE  =        2    local potential                                         
   LCOR   =        T    correct aug charges                                     
   LPAW   =        T    paw PP                                                  
   EAUG   =  644.873                                                            
   DEXC   =    0.000                                                            
   RMAX   =    1.529    core radius for proj-oper                               
   RAUG   =    1.300    factor for augmentation sphere                          
   RDEP   =    1.501    radius for radial grids                                 
   RDEPT  =    1.300    core radius for aug-charge                              
                                                                                
   Atomic configuration                                                         
    4 entries                                                                   
     n  l   j            E        occ.                                          
     1  0  0.50      -273.3789   2.0000                                         
     2  0  0.50       -13.7508   2.0000                                         
     2  1  0.50        -5.2854   2.0000                                         
     3  2  1.50        -5.4423   0.0000                                         
   Description                                                                  
     l       E           TYP  RCUT    TYP  RCUT                                 
     0    -13.7508458     23  1.200                                             
     0     -8.2022199     23  1.200                                             
     1     -5.2854383     23  1.500                                             
     1     34.0145650     23  1.500                                             
     2     -5.4423304      7  1.500                                             
  local pseudopotential read in
  partial core-charges read in
  partial kinetic energy density read in
  atomic valenz-charges read in
  non local Contribution for L=           0  read in
    real space projection operators read in
  non local Contribution for L=           0  read in
    real space projection operators read in
  non local Contribution for L=           1  read in
    real space projection operators read in
  non local Contribution for L=           1  read in
    real space projection operators read in
    PAW grid and wavefunctions read in
 
   number of l-projection  operators is LMAX  =           4
   number of lm-projection operators is LMMAX =           8
 
 POTCAR:    PAW_PBE O 08Apr2002                   
   VRHFIN =O: s2p4                                                              
   LEXCH  = PE                                                                  
   EATOM  =   432.3788 eV,   31.7789 Ry                                         
                                                                                
   TITEL  = PAW_PBE O 08Apr2002                                                 
   LULTRA =        F    use ultrasoft PP ?                                      
   IUNSCR =        1    unscreen: 0-lin 1-nonlin 2-no                           
   RPACOR =    1.200    partial core radius                                     
   POMASS =   16.000; ZVAL   =    6.000    mass and valenz                      
   RCORE  =    1.520    outmost cutoff radius                                   
   RWIGS  =    1.550; RWIGS  =    0.820    wigner-seitz radius (au A)           
   ENMAX  =  400.000; ENMIN  =  300.000 eV                                      
   ICORE  =        2    local potential                                         
   LCOR   =        T    correct aug charges                                     
   LPAW   =        T    paw PP                                                  
   EAUG   =  605.392                                                            
   DEXC   =    0.000                                                            
   RMAX   =    1.553    core radius for proj-oper                               
   RAUG   =    1.300    factor for augmentation sphere                          
   RDEP   =    1.550    radius for radial grids                                 
   RDEPT  =    1.329    core radius for aug-charge                              
                                                                                
   Atomic configuration                                                         
    4 entries                                                                   
     n  l   j            E        occ.                                          
     1  0  0.50      -514.6923   2.0000                                         
     2  0  0.50       -23.9615   2.0000                                         
     2  1  0.50        -9.0305   4.0000                                         
     3  2  1.50        -9.5241   0.0000                                         
   Description                                                                  
     l       E           TYP  RCUT    TYP  RCUT                                 
     0    -23.9615318     23  1.200                                             
     0     -9.5240782     23  1.200                                             
     1     -9.0304911     23  1.520                                             
     1      8.1634956     23  1.520                                             
     2     -9.5240782      7  1.500                                             
  local pseudopotential read in
  partial core-charges read in
  partial kinetic energy density read in
  kinetic energy density of atom read in
  atomic valenz-charges read in
  non local Contribution for L=           0  read in
    real space projection operators read in
  non local Contribution for L=           0  read in
    real space projection operators read in
  non local Contribution for L=           1  read in
    real space projection operators read in
  non local Contribution for L=           1  read in
    real space projection operators read in
    PAW grid and wavefunctions read in
 
   number of l-projection  operators is LMAX  =           4
   number of lm-projection operators is LMMAX =           8
 
 Optimization of the real space projectors (new method)

 maximal supplied QI-value         = 14.36
 optimisation between [QCUT,QGAM] = [ 10.20, 20.39] = [ 29.12,116.47] Ry 
 Optimized for a Real-space Cutoff    1.51 Angstroem

   l    n(q)    QCUT    max X(q) W(low)/X(q) W(high)/X(q)  e(spline) 
   2      8    10.197    59.108    0.26E-03    0.14E-03    0.96E-07
   2      8    10.197    58.101    0.27E-03    0.14E-03    0.98E-07
   0      9    10.197   102.235    0.54E-04    0.60E-05    0.72E-07
   0      9    10.197    58.388    0.52E-04    0.60E-05    0.68E-07
   1      9    10.197    22.191    0.18E-03    0.25E-03    0.79E-07
   1      9    10.197    15.590    0.15E-03    0.21E-03    0.69E-07
 Optimization of the real space projectors (new method)

 maximal supplied QI-value         = 25.13
 optimisation between [QCUT,QGAM] = [ 10.05, 20.36] = [ 28.30,116.06] Ry 
 Optimized for a Real-space Cutoff    1.30 Angstroem

   l    n(q)    QCUT    max X(q) W(low)/X(q) W(high)/X(q)  e(spline) 
   0      8    10.053   115.676    0.49E-03    0.72E-03    0.18E-06
   0      8    10.053    87.132    0.49E-03    0.71E-03    0.18E-06
   1      7    10.053     4.429    0.32E-03    0.31E-03    0.18E-06
   1      7    10.053     2.733    0.23E-03    0.19E-03    0.20E-06
 Optimization of the real space projectors (new method)

 maximal supplied QI-value         = 24.76
 optimisation between [QCUT,QGAM] = [ 10.15, 20.30] = [ 28.85,115.39] Ry 
 Optimized for a Real-space Cutoff    1.38 Angstroem

   l    n(q)    QCUT    max X(q) W(low)/X(q) W(high)/X(q)  e(spline) 
   0      8    10.150    20.381    0.22E-03    0.32E-03    0.29E-06
   0      8    10.150    15.268    0.23E-03    0.35E-03    0.30E-06
   1      8    10.150     5.964    0.46E-03    0.53E-03    0.21E-06
   1      8    10.150     5.382    0.38E-03    0.45E-03    0.19E-06

 ----------------------------------------------------------------------------- 
|                                                                             |
|  ADVICE TO THIS USER RUNNING 'VASP/VAMP'   (HEAR YOUR MASTER'S VOICE ...):  |
|                                                                             |
|      You enforced a specific xc-type in the INCAR file,                     |
|      a different type was found on the POTCAR file                          |
|          I HOPE YOU KNOW, WHAT YOU ARE  DOING                               |
|                                                                             |
 ----------------------------------------------------------------------------- 

  PAW_PBE Pd 04Jan2005                  :
 energy of atom  1       EATOM= -809.7530
 kinetic energy error for atom=    0.0091 (will be added to EATOM!!)
  PAW_PBE C 08Apr2002                   :
 energy of atom  2       EATOM= -147.1560
 kinetic energy error for atom=    0.0288 (will be added to EATOM!!)
  PAW_PBE O 08Apr2002                   :
 energy of atom  3       EATOM= -432.3788
 kinetic energy error for atom=    0.1156 (will be added to EATOM!!)
 
 
 POSCAR: Pd55PES                                 
  positions in cartesian coordinates
  No initial velocities read in
 exchange correlation table for  LEXCH =        9
   RHO(1)=    0.500       N(1)  =     2000
   RHO(2)=  100.500       N(2)  =     4000
 


--------------------------------------------------------------------------------------------------------


 ion  position               nearest neighbor table
   1  0.446  0.328  0.417-   3 3.25   5 3.25   7 3.36  15 3.36  29 3.42  28 3.42
   2  0.672  0.554  0.417-  26 3.25  30 3.25  17 3.36   9 3.36  47 3.42  49 3.42
   3  0.554  0.328  0.417-   1 3.25   5 3.25   7 3.36  11 3.36  29 3.42  21 3.42
   4  0.328  0.554  0.417-  32 3.25  22 3.25  13 3.36   8 3.36  43 3.42  48 3.42
   5  0.500  0.383  0.340-   1 3.25   3 3.25  11 3.36  15 3.36  21 3.42  28 3.42
   6  0.500  0.383  0.660-  24 3.25  19 3.25  16 3.36  12 3.36  42 3.42  44 3.42
   7  0.500  0.276  0.500-  29 3.24   3 3.36   1 3.36  19 3.36  24 3.36
   8  0.276  0.500  0.500-  48 3.24  22 3.36  40 3.36   4 3.36  25 3.36
   9  0.724  0.500  0.500-  49 3.24  26 3.36  45 3.36   2 3.36  20 3.36
  10  0.500  0.724  0.500-  55 3.24  27 3.36  23 3.36  46 3.36  41 3.36
  11  0.612  0.388  0.342-  21 3.24   5 3.36   3 3.36  30 3.36  26 3.36
  12  0.612  0.388  0.658-  42 3.24  24 3.36  45 3.36   6 3.36  31 3.36
  13  0.388  0.612  0.342-  43 3.24  32 3.36  50 3.36   4 3.36  27 3.36
  14  0.388  0.612  0.658-  53 3.24  25 3.36  33 3.36  51 3.36  46 3.36
  15  0.388  0.388  0.342-  28 3.24   5 3.36   1 3.36  32 3.36  22 3.36
  16  0.388  0.388  0.658-  44 3.24  19 3.36  40 3.36   6 3.36  33 3.36
  17  0.612  0.612  0.342-  47 3.24  30 3.36  50 3.36   2 3.36  23 3.36
  18  0.612  0.612  0.658-  54 3.24  31 3.36  20 3.36  51 3.36  41 3.36
  19  0.446  0.328  0.583-   6 3.25  24 3.25  16 3.36   7 3.36  44 3.42  29 3.42
  20  0.672  0.554  0.583-  31 3.25  45 3.25  18 3.36   9 3.36  54 3.42  49 3.42
  21  0.558  0.442  0.418-  11 3.24   5 3.42   3 3.42  30 3.42  26 3.42
  22  0.328  0.446  0.417-   4 3.25  32 3.25   8 3.36  15 3.36  48 3.42  28 3.42
  23  0.554  0.672  0.417-  27 3.25  50 3.25  10 3.36  17 3.36  55 3.42  47 3.42
  24  0.554  0.328  0.583-   6 3.25  19 3.25  12 3.36   7 3.36  42 3.42  29 3.42
  25  0.328  0.554  0.583-  33 3.25  40 3.25  14 3.36   8 3.36  53 3.42  48 3.42
  26  0.672  0.446  0.417-   2 3.25  30 3.25   9 3.36  11 3.36  49 3.42  21 3.42
  27  0.446  0.672  0.417-  23 3.25  50 3.25  10 3.36  13 3.36  55 3.42  43 3.42
  28  0.442  0.442  0.418-  15 3.24   5 3.42   1 3.42  32 3.42  22 3.42
  29  0.500  0.384  0.500-   7 3.24   3 3.42   1 3.42  24 3.42  19 3.42
  30  0.617  0.500  0.340-   2 3.25  26 3.25  17 3.36  11 3.36  47 3.42  21 3.42
  31  0.617  0.500  0.660-  20 3.25  45 3.25  18 3.36  12 3.36  54 3.42  42 3.42
  32  0.383  0.500  0.340-   4 3.25  22 3.25  13 3.36  15 3.36  43 3.42  28 3.42
  33  0.383  0.500  0.660-  25 3.25  40 3.25  14 3.36  16 3.36  53 3.42  44 3.42
  34  0.383  0.383  0.500-
  35  0.617  0.617  0.500-
  36  0.617  0.383  0.500-
  37  0.383  0.617  0.500-
  38  0.500  0.500  0.335-
  39  0.500  0.500  0.665-
  40  0.328  0.446  0.583-  33 3.25  25 3.25  16 3.36   8 3.36  44 3.42  48 3.42
  41  0.554  0.672  0.583-  46 3.25  51 3.25  10 3.36  18 3.36  54 3.42  55 3.42
  42  0.558  0.442  0.582-  12 3.24   6 3.42  24 3.42  31 3.42  45 3.42
  43  0.442  0.558  0.418-  13 3.24   4 3.42  32 3.42  27 3.42  50 3.42
  44  0.442  0.442  0.582-  16 3.24   6 3.42  19 3.42  33 3.42  40 3.42
  45  0.672  0.446  0.583-  20 3.25  31 3.25   9 3.36  12 3.36  49 3.42  42 3.42
  46  0.446  0.672  0.583-  41 3.25  51 3.25  10 3.36  14 3.36  53 3.42  55 3.42
  47  0.558  0.558  0.418-  17 3.24   2 3.42  30 3.42  23 3.42  50 3.42
  48  0.384  0.500  0.500-   8 3.24   4 3.42  22 3.42  25 3.42  40 3.42
  49  0.616  0.500  0.500-   9 3.24   2 3.42  26 3.42  20 3.42  45 3.42
  50  0.500  0.617  0.340-  27 3.25  23 3.25  13 3.36  17 3.36  43 3.42  47 3.42
  51  0.500  0.617  0.660-  41 3.25  46 3.25  14 3.36  18 3.36  53 3.42  54 3.42
  52  0.500  0.500  0.500-
  53  0.442  0.558  0.582-  14 3.24  25 3.42  33 3.42  51 3.42  46 3.42
  54  0.558  0.558  0.582-  18 3.24  31 3.42  20 3.42  51 3.42  41 3.42
  55  0.500  0.616  0.500-  10 3.24  23 3.42  27 3.42  41 3.42  46 3.42
  56  0.244  0.535  0.378-  57 1.13
  57  0.210  0.539  0.362-  56 1.13
 
  LATTYP: Found a simple cubic cell.
 ALAT       =    30.0000000000
  
  Lattice vectors:
  
 A1 = (  30.0000000000,   0.0000000000,   0.0000000000)
 A2 = (   0.0000000000,  30.0000000000,   0.0000000000)
 A3 = (   0.0000000000,   0.0000000000,  30.0000000000)


Analysis of symmetry for initial positions (statically):
=====================================================================
 Subroutine PRICEL returns:
 Original cell was already a primitive cell.
 

 Routine SETGRP: Setting up the symmetry group for a 
 simple cubic supercell.


 Subroutine GETGRP returns: Found  1 space group operations
 (whereof  1 operations were pure point group operations)
 out of a pool of 48 trial point group operations.


The static configuration has the point symmetry C_1 .


Analysis of symmetry for dynamics (positions and initial velocities):
=====================================================================
 Subroutine PRICEL returns:
 Original cell was already a primitive cell.
 

 Routine SETGRP: Setting up the symmetry group for a 
 simple cubic supercell.


 Subroutine GETGRP returns: Found  1 space group operations
 (whereof  1 operations were pure point group operations)
 out of a pool of 48 trial point group operations.


The dynamic configuration has the point symmetry C_1 .


Analysis of constrained symmetry for selective dynamics:
=====================================================================
 Subroutine PRICEL returns:
 Original cell was already a primitive cell.
 

 Routine SETGRP: Setting up the symmetry group for a 
 simple cubic supercell.


 Subroutine GETGRP returns: Found  1 space group operations
 (whereof  1 operations were pure point group operations)
 out of a pool of 48 trial point group operations.


The constrained configuration has the point symmetry C_1 .


 Subroutine INISYM returns: Found  1 space group operations
 (whereof  1 operations are pure point group operations),
 and found     1 'primitive' translations

 
 
 KPOINTS: K-points                                

Automatic generation of k-mesh.
Space group operators:
 irot       det(A)        alpha          n_x          n_y          n_z        tau_x        tau_y        tau_z
    1     1.000000     0.000000     1.000000     0.000000     0.000000     0.000000     0.000000     0.000000
 
 Subroutine IBZKPT returns following result:
 ===========================================
 
 Found      1 irreducible k-points:
 
 Following reciprocal coordinates:
            Coordinates               Weight
  0.000000  0.000000  0.000000      1.000000
 
 Following cartesian coordinates:
            Coordinates               Weight
  0.000000  0.000000  0.000000      1.000000
 


--------------------------------------------------------------------------------------------------------




 Dimension of arrays:
   k-points           NKPTS =      1   k-points in BZ     NKDIM =      1   number of bands    NBANDS=    336
   number of dos      NEDOS =    301   number of ions     NIONS =     57
   non local maximal  LDIM  =      6   non local SUM 2l+1 LMDIM =     18
   total plane-waves  NPLWV = ******
   max r-space proj   IRMAX =   1847   max aug-charges    IRDMAX=   6262
   dimension x,y,z NGX =   150 NGY =  150 NGZ =  150
   dimension x,y,z NGXF=   300 NGYF=  300 NGZF=  300
   support grid    NGXF=   300 NGYF=  300 NGZF=  300
   ions per type =              55   1   1
   NGX,Y,Z   is equivalent  to a cutoff of   8.31,  8.31,  8.31 a.u.
   NGXF,Y,Z  is equivalent  to a cutoff of  16.62, 16.62, 16.62 a.u.

 SYSTEM =  6_Pd100_top_free_z(O)                   
 POSCAR =  Pd55PES                                 

 Startparameter for this run:
   NWRITE =      2    write-flag & timer
   PREC   = normal    normal or accurate (medium, high low for compatibility)
   ISTART =      0    job   : 0-new  1-cont  2-samecut
   ICHARG =      2    charge: 1-file 2-atom 10-const
   ISPIN  =      1    spin polarized calculation?
   LNONCOLLINEAR =      F non collinear calculations
   LSORBIT =      F    spin-orbit coupling
   INIWAV =      1    electr: 0-lowe 1-rand  2-diag
   LASPH  =      F    aspherical Exc in radial PAW
   METAGGA=      F    non-selfconsistent MetaGGA calc.

 Electronic Relaxation 1
   ENCUT  =  400.0 eV  29.40 Ry    5.42 a.u.  48.92 48.92 48.92*2*pi/ulx,y,z
   ENINI  =  400.0     initial cutoff
   ENAUG  =  644.9 eV  augmentation charge cutoff
   NELM   =    100;   NELMIN=  6; NELMDL= -5     # of ELM steps 
   EDIFF  = 0.1E-03   stopping-criterion for ELM
   LREAL  =      T    real-space projection
   NLSPLINE    = F    spline interpolate recip. space projectors
   LCOMPAT=      F    compatible to vasp.4.4
   GGA_COMPAT  = T    GGA compatible to vasp.4.4-vasp.4.6
   LMAXPAW     = -100 max onsite density
   LMAXMIX     =    2 max onsite mixed and CHGCAR
   VOSKOWN=      0    Vosko Wilk Nusair interpolation
   ROPT   =   -0.00050  -0.00050  -0.00050
 Ionic relaxation
   EDIFFG = -.5E-01   stopping-criterion for IOM
   NSW    =      0    number of steps for IOM
   NBLOCK =      1;   KBLOCK =      1    inner block; outer block 
   IBRION =     -1    ionic relax: 0-MD 1-quasi-New 2-CG
   NFREE  =      1    steps in history (QN), initial steepest desc. (CG)
   ISIF   =      2    stress and relaxation
   IWAVPR =     10    prediction:  0-non 1-charg 2-wave 3-comb
   ISYM   =      2    0-nonsym 1-usesym 2-fastsym
   LCORR  =      T    Harris-Foulkes like correction to forces

   POTIM  = 0.5000    time-step for ionic-motion
   TEIN   =    0.0    initial temperature
   TEBEG  =    0.0;   TEEND  =   0.0 temperature during run
   SMASS  =  -3.00    Nose mass-parameter (am)
   estimated Nose-frequenzy (Omega)   =  0.10E-29 period in steps =****** mass=  -0.206E-25a.u.
   SCALEE = 1.0000    scale energy and forces
   NPACO  =    256;   APACO  = 16.0  distance and # of slots for P.C.
   PSTRESS=    0.0 pullay stress

  Mass of Ions in am
   POMASS = 106.42 12.01 16.00
  Ionic Valenz
   ZVAL   =  10.00  4.00  6.00
  Atomic Wigner-Seitz radii
   RWIGS  =  -1.00 -1.00 -1.00
  virtual crystal weights 
   VCA    =   1.00  1.00  1.00
   NELECT =     560.0000    total number of electrons
   NUPDOWN=      -1.0000    fix difference up-down

 DOS related values:
   EMIN   =  10.00;   EMAX   =-10.00  energy-range for DOS
   EFERMI =   0.00
   ISMEAR =     2;   SIGMA  =   0.20  broadening in eV -4-tet -1-fermi 0-gaus

 Electronic relaxation 2 (details)
   IALGO  =     68    algorithm
   LDIAG  =      T    sub-space diagonalisation (order eigenvalues)
   LSUBROT=      F    optimize rotation matrix (better conditioning)
   TURBO    =      0    0=normal 1=particle mesh
   IRESTART =      0    0=no restart 2=restart with 2 vectors
   NREBOOT  =      0    no. of reboots
   NMIN     =      0    reboot dimension
   EREF     =   0.00    reference energy to select bands
   IMIX   =      4    mixing-type and parameters
     AMIX     =   0.40;   BMIX     =  1.00
     AMIX_MAG =   1.60;   BMIX_MAG =  1.00
     AMIN     =   0.10
     WC   =   100.;   INIMIX=   1;  MIXPRE=   1;  MAXMIX= -45

 Intra band minimization:
   WEIMIN = 0.0000     energy-eigenvalue tresh-hold
   EBREAK =  0.74E-07  absolut break condition
   DEPER  =   0.30     relativ break condition  

   TIME   =   0.40     timestep for ELM

  volume/ion in A,a.u.               =     473.68      3196.58
  Fermi-wavevector in a.u.,A,eV,Ry     =   0.449797  0.849992  2.752691  0.202317
  Thomas-Fermi vector in A             =   1.430086
 
 Write flags
   LWAVE        =      F    write WAVECAR
   LDOWNSAMPLE  =      F    k-point downsampling of WAVECAR
   LCHARG       =      F    write CHGCAR
   LVTOT        =      F    write LOCPOT, total local potential
   LVHAR        =      F    write LOCPOT, Hartree potential only
   LELF         =      F    write electronic localiz. function (ELF)
   LORBIT       =      0    0 simple, 1 ext, 2 COOP (PROOUT), +10 PAW based schemes


 Dipole corrections
   LMONO  =      F    monopole corrections only (constant potential shift)
   LDIPOL =      F    correct potential (dipole corrections)
   IDIPOL =      0    1-x, 2-y, 3-z, 4-all directions 
   EPSILON=  1.0000000 bulk dielectric constant

 Exchange correlation treatment:
   GGA     =    RP    GGA type
   LEXCH   =     9    internal setting for exchange type
   VOSKOWN=      0    Vosko Wilk Nusair interpolation
   LHFCALC =     F    Hartree Fock is set to
   LHFONE  =     F    Hartree Fock one center treatment
   AEXX    =    0.0000 exact exchange contribution

 Linear response parameters
   LEPSILON=     F    determine dielectric tensor
   LRPA    =     F    only Hartree local field effects (RPA)
   LNABLA  =     F    use nabla operator in PAW spheres
   LVEL    =     F    velocity operator in full k-point grid
   LINTERFAST=   F  fast interpolation
   KINTER  =     0    interpolate to denser k-point grid
   CSHIFT  =0.1000    complex shift for real part using Kramers Kronig
   OMEGAMAX=  -1.0    maximum frequency
   DEG_THRESHOLD= 0.2000000E-02 threshold for treating states as degnerate
   RTIME   =   -0.100 relaxation time in fs
  (WPLASMAI=    0.000 imaginary part of plasma frequency in eV, 0.658/RTIME)
   DFIELD  = 0.0000000 0.0000000 0.0000000 field for delta impulse in time
 
 Orbital magnetization related:
   ORBITALMAG=     F  switch on orbital magnetization
   LCHIMAG   =     F  perturbation theory with respect to B field
   DQ        =  0.001000  dq finite difference perturbation B field
   LLRAUG    =     F  two centre corrections for induced B field



--------------------------------------------------------------------------------------------------------


 Static calculation
 charge density and potential will be updated during run
 non-spin polarized calculation
 RMM-DIIS sequential band-by-band and
  variant of blocked Davidson during initial phase
 perform sub-space diagonalisation
    before iterative eigenvector-optimisation
 modified Broyden-mixing scheme, WC =      100.0
 initial mixing is a Kerker type mixing with AMIX =  0.4000 and BMIX =      1.0000
 Hartree-type preconditioning will be used
 using additional bands           56
 real space projection scheme for non local part
 use partial core corrections
 calculate Harris-corrections to forces 
   (improved forces if not selfconsistent)
 use gradient corrections 
 use of overlap-Matrix (Vanderbilt PP)
 Methfessel and Paxton  Order N= 2 SIGMA  =   0.20


--------------------------------------------------------------------------------------------------------


  energy-cutoff  :      400.00
  volume of cell :    27000.00
      direct lattice vectors                 reciprocal lattice vectors
    30.000000000  0.000000000  0.000000000     0.033333333  0.000000000  0.000000000
     0.000000000 30.000000000  0.000000000     0.000000000  0.033333333  0.000000000
     0.000000000  0.000000000 30.000000000     0.000000000  0.000000000  0.033333333

  length of vectors
    30.000000000 30.000000000 30.000000000     0.033333333  0.033333333  0.033333333


 
 k-points in units of 2pi/SCALE and weight: K-points                                
   0.00000000  0.00000000  0.00000000       1.000
 
 k-points in reciprocal lattice and weights: K-points                                
   0.00000000  0.00000000  0.00000000       1.000
 
 position of ions in fractional coordinates (direct lattice) 
   0.44576020  0.32826710  0.41691983
   0.67173288  0.55423978  0.41691983
   0.55423980  0.32826710  0.41691983
   0.32826712  0.55423978  0.41691983
   0.50000000  0.38250690  0.34021317
   0.50000000  0.38250690  0.65978680
   0.50000000  0.27609440  0.50000000
   0.27609443  0.49999998  0.50000000
   0.72390557  0.49999998  0.50000000
   0.50000000  0.72390555  0.50000000
   0.61195280  0.38804720  0.34167483
   0.61195280  0.38804720  0.65832513
   0.38804722  0.61195278  0.34167483
   0.38804722  0.61195278  0.65832513
   0.38804720  0.38804720  0.34167483
   0.38804720  0.38804720  0.65832513
   0.61195278  0.61195278  0.34167483
   0.61195278  0.61195278  0.65832513
   0.44576020  0.32826710  0.58308023
   0.67173288  0.55423978  0.58308023
   0.55791699  0.44208301  0.41809300
   0.32826705  0.44576024  0.41691983
   0.55423973  0.67173293  0.41691983
   0.55423980  0.32826710  0.58308023
   0.32826712  0.55423978  0.58308023
   0.67173295  0.44576024  0.41691983
   0.44576027  0.67173293  0.41691983
   0.44208301  0.44208301  0.41809300
   0.50000000  0.38416601  0.50000000
   0.61749315  0.50000005  0.34021317
   0.61749315  0.50000005  0.65978680
   0.38250685  0.50000005  0.34021317
   0.38250685  0.50000005  0.65978680
   0.38317830  0.38317830  0.50000000
   0.61682172  0.61682172  0.50000000
   0.61682170  0.38317830  0.50000000
   0.38317828  0.61682172  0.50000000
   0.50000000  0.50000000  0.33478917
   0.50000000  0.50000000  0.66521087
   0.32826705  0.44576024  0.58308023
   0.55423973  0.67173293  0.58308023
   0.55791699  0.44208301  0.58190703
   0.44208298  0.55791702  0.41809300
   0.44208301  0.44208301  0.58190703
   0.67173295  0.44576024  0.58308023
   0.44576027  0.67173293  0.58308023
   0.55791702  0.55791702  0.41809300
   0.38416599  0.50000002  0.50000000
   0.61583401  0.50000002  0.50000000
   0.50000000  0.61749319  0.34021317
   0.50000000  0.61749319  0.65978680
   0.50000000  0.50000000  0.50000000
   0.44208298  0.55791702  0.58190703
   0.55791702  0.55791702  0.58190703
   0.50000000  0.61583404  0.50000000
   0.24363827  0.53486843  0.37831543
   0.20992410  0.53945400  0.36231267
 
 position of ions in cartesian coordinates  (Angst):
  13.37280588  9.84801292 12.50759500
  20.15198637 16.62719342 12.50759500
  16.62719412  9.84801292 12.50759500
   9.84801363 16.62719342 12.50759500
  15.00000000 11.47520705 10.20639500
  15.00000000 11.47520705 19.79360400
  15.00000000  8.28283206 15.00000000
   8.28283277 14.99999929 15.00000000
  21.71716723 14.99999929 15.00000000
  15.00000000 21.71716652 14.99999999
  18.35858397 11.64141603 10.25024500
  18.35858397 11.64141603 19.74975399
  11.64141674 18.35858326 10.25024500
  11.64141674 18.35858326 19.74975400
  11.64141603 11.64141603 10.25024500
  11.64141603 11.64141603 19.74975400
  18.35858326 18.35858326 10.25024500
  18.35858326 18.35858326 19.74975400
  13.37280588  9.84801291 17.49240700
  20.15198638 16.62719341 17.49240700
  16.73750985 13.26249015 12.54279000
   9.84801151 13.37280729 12.50759500
  16.62719200 20.15198779 12.50759500
  16.62719412  9.84801292 17.49240700
   9.84801363 16.62719342 17.49240700
  20.15198849 13.37280729 12.50759500
  13.37280800 20.15198779 12.50759500
  13.26249015 13.26249015 12.54279000
  15.00000000 11.52498029 15.00000000
  18.52479437 15.00000140 10.20639500
  18.52479437 15.00000141 19.79360400
  11.47520562 15.00000141 10.20639501
  11.47520563 15.00000141 19.79360400
  11.49534898 11.49534898 15.00000000
  18.50465172 18.50465172 15.00000000
  18.50465102 11.49534898 15.00000000
  11.49534828 18.50465172 15.00000000
  15.00000000 15.00000000 10.04367500
  15.00000000 15.00000000 19.95632599
   9.84801151 13.37280729 17.49240700
  16.62719200 20.15198779 17.49240700
  16.73750985 13.26249015 17.45721100
  13.26248944 16.73751056 12.54279001
  13.26249015 13.26249015 17.45721100
  20.15198849 13.37280729 17.49240699
  13.37280800 20.15198779 17.49240700
  16.73751056 16.73751056 12.54279000
  11.52497959 15.00000071 15.00000000
  18.47502041 15.00000071 15.00000000
  14.99999999 18.52479579 10.20639500
  15.00000000 18.52479578 19.79360400
  15.00000000 15.00000000 15.00000000
  13.26248944 16.73751057 17.45721101
  16.73751056 16.73751057 17.45721100
  15.00000000 18.47502112 15.00000000
   7.30914800 16.04605300 11.34946300
   6.29772300 16.18362000 10.86938000
 


--------------------------------------------------------------------------------------------------------


 k-point  1 :   0.0000 0.0000 0.0000  plane waves:  490521

 maximum and minimum number of plane-waves per node :    490521   490521

 maximum number of plane-waves:    490521
 maximum index in each direction: 
   IXMAX=   48   IYMAX=   48   IZMAX=   48
   IXMIN=  -48   IYMIN=  -48   IZMIN=  -48


 serial   3D FFT for wavefunctions
 parallel 3D FFT for charge:
    minimum data exchange during FFTs selected (reduces bandwidth)


 total amount of memory used by VASP MPI-rank0  5486941. kBytes
=======================================================================

   base      :      30000. kBytes
   nonlr-proj:      17126. kBytes
   fftplans  :     924480. kBytes
   grid      :    1872000. kBytes
   one-center:        886. kBytes
   wavefun   :    2642449. kBytes
 
     INWAV:  cpu time    0.0001: real time    0.0004
 Broyden mixing: mesh for mixing (old mesh)
   NGX = 97   NGY = 97   NGZ = 97
  (NGX  =300   NGY  =300   NGZ  =300)
  gives a total of 912673 points

 initial charge density was supplied:
 charge density of overlapping atoms calculated
 number of electron     560.0000000 magnetization 
 keeping initial charge density in first step


--------------------------------------------------------------------------------------------------------


 Maximum index for non-local projection operator         1763
 Maximum index for augmentation-charges         5898 (set IRDMAX)


--------------------------------------------------------------------------------------------------------


 First call to EWALD:  gamma=   0.059
 Maximum number of real-space cells 3x 3x 3
 Maximum number of reciprocal cells 3x 3x 3

    FEWALD:  cpu time    0.0146: real time    0.0146


--------------------------------------- Iteration      1(   1)  ---------------------------------------


    POTLOK:  cpu time   13.3927: real time   13.3953
    SETDIJ:  cpu time    0.1130: real time    0.1130
     EDDAV:  cpu time  336.5379: real time  336.6172
       DOS:  cpu time    0.0014: real time    0.0014
    --------------------------------------------
      LOOP:  cpu time  350.0450: real time  350.1269

 eigenvalue-minimisations  :   688
 total energy-change (2. order) : 0.4382564E+04  (-0.1004704E+05)
 number of electron     560.0000000 magnetization 
 augmentation part      560.0000000 magnetization 

 Free energy of the ion-electron system (eV)
  ---------------------------------------------------
  alpha Z        PSCENC =        75.25431677
  Ewald energy   TEWEN  =    137228.94455843
  -Hartree energ DENC   =   -180597.32692703
  -exchange      EXHF   =         0.00000000
  -V(xc)+E(xc)   XCENC  =     -1704.07924355
  PAW double counting   =     44873.02882129   -41398.84523641
  entropy T*S    EENTRO =         0.02467163
  eigenvalues    EBANDS =       819.05712951
  atomic energy  EATOM  =     45086.50549395
  Solvation  Ediel_sol  =         0.00000000
  ---------------------------------------------------
  free energy    TOTEN  =      4382.56358459 eV

  energy without entropy =     4382.53891296  energy(sigma->0) =     4382.55741669


--------------------------------------------------------------------------------------------------------




--------------------------------------- Iteration      1(   2)  ---------------------------------------


     EDDAV:  cpu time  542.2572: real time  542.3021
       DOS:  cpu time    0.0014: real time    0.0014
    --------------------------------------------
      LOOP:  cpu time  542.2586: real time  542.3035

 eigenvalue-minimisations  :  1224
 total energy-change (2. order) :-0.2367577E+04  (-0.2128071E+04)
 number of electron     560.0000000 magnetization 
 augmentation part      560.0000000 magnetization 

 Free energy of the ion-electron system (eV)
  ---------------------------------------------------
  alpha Z        PSCENC =        75.25431677
  Ewald energy   TEWEN  =    137228.94455843
  -Hartree energ DENC   =   -180597.32692703
  -exchange      EXHF   =         0.00000000
  -V(xc)+E(xc)   XCENC  =     -1704.07924355
  PAW double counting   =     44873.02882129   -41398.84523641
  entropy T*S    EENTRO =        -0.00750776
  eigenvalues    EBANDS =     -1548.48755324
  atomic energy  EATOM  =     45086.50549395
  Solvation  Ediel_sol  =         0.00000000
  ---------------------------------------------------
  free energy    TOTEN  =      2014.98672245 eV

  energy without entropy =     2014.99423022  energy(sigma->0) =     2014.98859939


--------------------------------------------------------------------------------------------------------




--------------------------------------- Iteration      1(   3)  ---------------------------------------


     EDDAV:  cpu time  460.1352: real time  460.1519
       DOS:  cpu time    0.0012: real time    0.0012
    --------------------------------------------
      LOOP:  cpu time  460.1365: real time  460.1531

 eigenvalue-minimisations  :  1008
 total energy-change (2. order) :-0.1785446E+04  (-0.1680177E+04)
 number of electron     560.0000000 magnetization 
 augmentation part      560.0000000 magnetization 

 Free energy of the ion-electron system (eV)
  ---------------------------------------------------
  alpha Z        PSCENC =        75.25431677
  Ewald energy   TEWEN  =    137228.94455843
  -Hartree energ DENC   =   -180597.32692703
  -exchange      EXHF   =         0.00000000
  -V(xc)+E(xc)   XCENC  =     -1704.07924355
  PAW double counting   =     44873.02882129   -41398.84523641
  entropy T*S    EENTRO =        -0.02351502
  eigenvalues    EBANDS =     -3333.91765548
  atomic energy  EATOM  =     45086.50549395
  Solvation  Ediel_sol  =         0.00000000
  ---------------------------------------------------
  free energy    TOTEN  =       229.54061296 eV

  energy without entropy =      229.56412798  energy(sigma->0) =      229.54649171


--------------------------------------------------------------------------------------------------------




--------------------------------------- Iteration      1(   4)  ---------------------------------------


     EDDAV:  cpu time  398.8680: real time  398.9120
       DOS:  cpu time    0.0013: real time    0.0013
    --------------------------------------------
      LOOP:  cpu time  398.8692: real time  398.9132

 eigenvalue-minimisations  :   840
 total energy-change (2. order) :-0.3652980E+03  (-0.3131574E+03)
 number of electron     560.0000000 magnetization 
 augmentation part      560.0000000 magnetization 

 Free energy of the ion-electron system (eV)
  ---------------------------------------------------
  alpha Z        PSCENC =        75.25431677
  Ewald energy   TEWEN  =    137228.94455843
  -Hartree energ DENC   =   -180597.32692703
  -exchange      EXHF   =         0.00000000
  -V(xc)+E(xc)   XCENC  =     -1704.07924355
  PAW double counting   =     44873.02882129   -41398.84523641
  entropy T*S    EENTRO =         0.01356087
  eigenvalues    EBANDS =     -3699.25276315
  atomic energy  EATOM  =     45086.50549395
  Solvation  Ediel_sol  =         0.00000000
  ---------------------------------------------------
  free energy    TOTEN  =      -135.75741883 eV

  energy without entropy =     -135.77097970  energy(sigma->0) =     -135.76080905


--------------------------------------------------------------------------------------------------------




--------------------------------------- Iteration      1(   5)  ---------------------------------------


     EDDAV:  cpu time  502.0242: real time  502.0479
       DOS:  cpu time    0.0016: real time    0.0016
    CHARGE:  cpu time   25.3278: real time   25.3278
    MIXING:  cpu time    0.4317: real time    0.4317
    --------------------------------------------
      LOOP:  cpu time  527.7853: real time  527.8090

 eigenvalue-minimisations  :  1048
 total energy-change (2. order) :-0.4316245E+02  (-0.3570221E+02)
 number of electron     559.9999902 magnetization 
 augmentation part      245.3352560 magnetization 

 Broyden mixing:
  rms(total) = 0.13941E+01    rms(broyden)= 0.13931E+01
  rms(prec ) = 0.14987E+01
  weight for this iteration     100.00

 Free energy of the ion-electron system (eV)
  ---------------------------------------------------
  alpha Z        PSCENC =        75.25431677
  Ewald energy   TEWEN  =    137228.94455843
  -Hartree energ DENC   =   -180597.32692703
  -exchange      EXHF   =         0.00000000
  -V(xc)+E(xc)   XCENC  =     -1704.07924355
  PAW double counting   =     44873.02882129   -41398.84523641
  entropy T*S    EENTRO =         0.52650855
  eigenvalues    EBANDS =     -3742.92816008
  atomic energy  EATOM  =     45086.50549395
  Solvation  Ediel_sol  =         0.00000000
  ---------------------------------------------------
  free energy    TOTEN  =      -178.91986807 eV

  energy without entropy =     -179.44637662  energy(sigma->0) =     -179.05149521


--------------------------------------------------------------------------------------------------------




--------------------------------------- Iteration      1(   6)  ---------------------------------------


    POTLOK:  cpu time   13.2146: real time   13.2156
    SETDIJ:  cpu time    0.1200: real time    0.1200
    EDDIAG:  cpu time   67.8936: real time   67.8936
  RMM-DIIS:  cpu time  187.4615: real time  187.4637
    ORTHCH:  cpu time   13.4644: real time   13.4643
       DOS:  cpu time    0.0016: real time    0.0016
    CHARGE:  cpu time   25.2078: real time   25.2076
    MIXING:  cpu time    0.4552: real time    0.4551
    --------------------------------------------
      LOOP:  cpu time  307.8185: real time  307.8215

 eigenvalue-minimisations  :   722
 total energy-change (2. order) : 0.1001238E+01  (-0.4825140E+01)
 number of electron     559.9999922 magnetization 
 augmentation part      240.7450273 magnetization 

 Broyden mixing:
  rms(total) = 0.20641E+01    rms(broyden)= 0.20639E+01
  rms(prec ) = 0.24099E+01
  weight for this iteration     100.00

 eigenvalues of (default mixing * dielectric matrix)
  average eigenvalue GAMMA=   0.3488
  0.3488

 Free energy of the ion-electron system (eV)
  ---------------------------------------------------
  alpha Z        PSCENC =        75.25431677
  Ewald energy   TEWEN  =    137228.94455843
  -Hartree energ DENC   =   -181013.11288521
  -exchange      EXHF   =         0.00000000
  -V(xc)+E(xc)   XCENC  =     -1697.69341726
  PAW double counting   =     45619.54132144   -42117.82900324
  entropy T*S    EENTRO =        -0.20720729
  eigenvalues    EBANDS =     -3359.32180768
  atomic energy  EATOM  =     45086.50549395
  Solvation  Ediel_sol  =         0.00000000
  ---------------------------------------------------
  free energy    TOTEN  =      -177.91863008 eV

  energy without entropy =     -177.71142278  energy(sigma->0) =     -177.86682825


--------------------------------------------------------------------------------------------------------




--------------------------------------- Iteration      1(   7)  ---------------------------------------


    POTLOK:  cpu time   13.2365: real time   13.2369
    SETDIJ:  cpu time    0.1195: real time    0.1195
    EDDIAG:  cpu time   68.0572: real time   68.0610
  RMM-DIIS:  cpu time  218.4997: real time  218.5031
    ORTHCH:  cpu time   13.3916: real time   13.3915
       DOS:  cpu time    0.0016: real time    0.0016
    CHARGE:  cpu time   25.2835: real time   25.2833
    MIXING:  cpu time    0.4861: real time    0.4861
    --------------------------------------------
      LOOP:  cpu time  339.0757: real time  339.0830

 eigenvalue-minimisations  :   845
 total energy-change (2. order) :-0.3077625E+01  (-0.1727353E+01)
 number of electron     559.9999891 magnetization 
 augmentation part      240.3657889 magnetization 

 Broyden mixing:
  rms(total) = 0.23679E+01    rms(broyden)= 0.23676E+01
  rms(prec ) = 0.29280E+01
  weight for this iteration     100.00

 eigenvalues of (default mixing * dielectric matrix)
  average eigenvalue GAMMA=   0.3166
  0.4977  0.1355

 Free energy of the ion-electron system (eV)
  ---------------------------------------------------
  alpha Z        PSCENC =        75.25431677
  Ewald energy   TEWEN  =    137228.94455843
  -Hartree energ DENC   =   -181102.41548792
  -exchange      EXHF   =         0.00000000
  -V(xc)+E(xc)   XCENC  =     -1697.83512363
  PAW double counting   =     45680.31486307   -42175.73962101
  entropy T*S    EENTRO =        -0.03739096
  eigenvalues    EBANDS =     -3275.98786388
  atomic energy  EATOM  =     45086.50549395
  Solvation  Ediel_sol  =         0.00000000
  ---------------------------------------------------
  free energy    TOTEN  =      -180.99625518 eV

  energy without entropy =     -180.95886421  energy(sigma->0) =     -180.98690744


--------------------------------------------------------------------------------------------------------




--------------------------------------- Iteration      1(   8)  ---------------------------------------


    POTLOK:  cpu time   13.1961: real time   13.1980
    SETDIJ:  cpu time    0.1214: real time    0.1214
    EDDIAG:  cpu time   68.6475: real time   68.6477
  RMM-DIIS:  cpu time  206.6956: real time  206.6968
    ORTHCH:  cpu time   13.5443: real time   13.5442
       DOS:  cpu time    0.0017: real time    0.0016
    CHARGE:  cpu time   25.6541: real time   25.6538
    MIXING:  cpu time    0.5132: real time    0.5132
    --------------------------------------------
      LOOP:  cpu time  328.3738: real time  328.3768

 eigenvalue-minimisations  :   791
 total energy-change (2. order) :-0.1958504E+01  (-0.5914604E+00)
 number of electron     559.9999891 magnetization 
 augmentation part      240.0082886 magnetization 

 Broyden mixing:
  rms(total) = 0.26732E+01    rms(broyden)= 0.26729E+01
  rms(prec ) = 0.31477E+01
  weight for this iteration     100.00

 eigenvalues of (default mixing * dielectric matrix)
  average eigenvalue GAMMA=   0.3140
  0.6893  0.1264  0.1264

 Free energy of the ion-electron system (eV)
  ---------------------------------------------------
  alpha Z        PSCENC =        75.25431677
  Ewald energy   TEWEN  =    137228.94455843
  -Hartree energ DENC   =   -181141.42898700
  -exchange      EXHF   =         0.00000000
  -V(xc)+E(xc)   XCENC  =     -1697.84885966
  PAW double counting   =     45728.16816228   -42221.27112847
  entropy T*S    EENTRO =        -0.09082933
  eigenvalues    EBANDS =     -3241.18748565
  atomic energy  EATOM  =     45086.50549395
  Solvation  Ediel_sol  =         0.00000000
  ---------------------------------------------------
  free energy    TOTEN  =      -182.95475868 eV

  energy without entropy =     -182.86392935  energy(sigma->0) =     -182.93205135


--------------------------------------------------------------------------------------------------------




--------------------------------------- Iteration      1(   9)  ---------------------------------------


    POTLOK:  cpu time   13.2916: real time   13.2943
    SETDIJ:  cpu time    0.1271: real time    0.1271
    EDDIAG:  cpu time   68.5623: real time   68.5635
  RMM-DIIS:  cpu time  189.2903: real time  189.2911
    ORTHCH:  cpu time   13.5953: real time   13.5953
       DOS:  cpu time    0.0016: real time    0.0016
    CHARGE:  cpu time   25.7502: real time   25.7501
    MIXING:  cpu time    0.5684: real time    0.5684
    --------------------------------------------
      LOOP:  cpu time  311.1868: real time  311.1914

 eigenvalue-minimisations  :   724
 total energy-change (2. order) : 0.5969762E+00  (-0.5156949E+00)
 number of electron     559.9999895 magnetization 
 augmentation part      240.6676019 magnetization 

 Broyden mixing:
  rms(total) = 0.26020E+01    rms(broyden)= 0.26017E+01
  rms(prec ) = 0.30455E+01
  weight for this iteration     100.00

 eigenvalues of (default mixing * dielectric matrix)
  average eigenvalue GAMMA=   0.2909
  0.7847  0.1360  0.1360  0.1069

 Free energy of the ion-electron system (eV)
  ---------------------------------------------------
  alpha Z        PSCENC =        75.25431677
  Ewald energy   TEWEN  =    137228.94455843
  -Hartree energ DENC   =   -181162.20336615
  -exchange      EXHF   =         0.00000000
  -V(xc)+E(xc)   XCENC  =     -1697.84829604
  PAW double counting   =     45784.48994373   -42274.86761976
  entropy T*S    EENTRO =        -0.15106093
  eigenvalues    EBANDS =     -3222.48175244
  atomic energy  EATOM  =     45086.50549395
  Solvation  Ediel_sol  =         0.00000000
  ---------------------------------------------------
  free energy    TOTEN  =      -182.35778244 eV

  energy without entropy =     -182.20672151  energy(sigma->0) =     -182.32001721


--------------------------------------------------------------------------------------------------------




--------------------------------------- Iteration      1(  10)  ---------------------------------------


    POTLOK:  cpu time   13.5316: real time   13.5337
    SETDIJ:  cpu time    0.1276: real time    0.1276
    EDDIAG:  cpu time   68.7254: real time   68.7265
  RMM-DIIS:  cpu time  191.2430: real time  191.2444
    ORTHCH:  cpu time   13.6284: real time   13.6283
       DOS:  cpu time    0.0016: real time    0.0016
    CHARGE:  cpu time   25.7478: real time   25.7475
    MIXING:  cpu time    0.5884: real time    0.5884
    --------------------------------------------
      LOOP:  cpu time  313.5937: real time  313.5979

 eigenvalue-minimisations  :   734
 total energy-change (2. order) : 0.2722826E+01  (-0.2722113E+00)
 number of electron     559.9999881 magnetization 
 augmentation part      241.1901697 magnetization 

 Broyden mixing:
  rms(total) = 0.23774E+01    rms(broyden)= 0.23770E+01
  rms(prec ) = 0.27272E+01
  weight for this iteration     100.00

 eigenvalues of (default mixing * dielectric matrix)
  average eigenvalue GAMMA=   0.2701
  0.8596  0.1479  0.1479  0.1153  0.0798

 Free energy of the ion-electron system (eV)
  ---------------------------------------------------
  alpha Z        PSCENC =        75.25431677
  Ewald energy   TEWEN  =    137228.94455843
  -Hartree energ DENC   =   -181189.19064554
  -exchange      EXHF   =         0.00000000
  -V(xc)+E(xc)   XCENC  =     -1697.76184987
  PAW double counting   =     45821.40861181   -42310.15671925
  entropy T*S    EENTRO =        -0.11772451
  eigenvalues    EBANDS =     -3194.52099820
  atomic energy  EATOM  =     45086.50549395
  Solvation  Ediel_sol  =         0.00000000
  ---------------------------------------------------
  free energy    TOTEN  =      -179.63495640 eV

  energy without entropy =     -179.51723190  energy(sigma->0) =     -179.60552528


--------------------------------------------------------------------------------------------------------




--------------------------------------- Iteration      1(  11)  ---------------------------------------


    POTLOK:  cpu time   13.5231: real time   13.5261
    SETDIJ:  cpu time    0.1224: real time    0.1224
    EDDIAG:  cpu time   68.8827: real time   68.8825
  RMM-DIIS:  cpu time  188.8808: real time  188.8806
    ORTHCH:  cpu time   13.6113: real time   13.6112
       DOS:  cpu time    0.0016: real time    0.0016
    CHARGE:  cpu time   25.8284: real time   25.8282
    MIXING:  cpu time    0.5921: real time    0.5921
    --------------------------------------------
      LOOP:  cpu time  311.4425: real time  311.4447

 eigenvalue-minimisations  :   724
 total energy-change (2. order) : 0.2682542E+01  (-0.1955169E+00)
 number of electron     559.9999899 magnetization 
 augmentation part      241.4757907 magnetization 

 Broyden mixing:
  rms(total) = 0.17412E+01    rms(broyden)= 0.17409E+01
  rms(prec ) = 0.20614E+01
  weight for this iteration     100.00

 eigenvalues of (default mixing * dielectric matrix)
  average eigenvalue GAMMA=   0.2510
  0.8961  0.1644  0.1644  0.1061  0.1061  0.0688

 Free energy of the ion-electron system (eV)
  ---------------------------------------------------
  alpha Z        PSCENC =        75.25431677
  Ewald energy   TEWEN  =    137228.94455843
  -Hartree energ DENC   =   -181207.48327714
  -exchange      EXHF   =         0.00000000
  -V(xc)+E(xc)   XCENC  =     -1697.63974792
  PAW double counting   =     45852.02337101   -42339.29367793
  entropy T*S    EENTRO =        -0.13110153
  eigenvalues    EBANDS =     -3175.13235053
  atomic energy  EATOM  =     45086.50549395
  Solvation  Ediel_sol  =         0.00000000
  ---------------------------------------------------
  free energy    TOTEN  =      -176.95241489 eV

  energy without entropy =     -176.82131336  energy(sigma->0) =     -176.91963951


--------------------------------------------------------------------------------------------------------




--------------------------------------- Iteration      1(  12)  ---------------------------------------


    POTLOK:  cpu time   13.5869: real time   13.5896
    SETDIJ:  cpu time    0.1256: real time    0.1256
    EDDIAG:  cpu time   68.9979: real time   68.9977
  RMM-DIIS:  cpu time  190.4544: real time  190.4674
    ORTHCH:  cpu time   13.8853: real time   13.8875
       DOS:  cpu time    0.0017: real time    0.0017
    CHARGE:  cpu time   26.6934: real time   26.6958
    MIXING:  cpu time    0.6727: real time    0.6727
    --------------------------------------------
      LOOP:  cpu time  314.4180: real time  314.4380

 eigenvalue-minimisations  :   728
 total energy-change (2. order) : 0.6016979E+00  (-0.8541096E-01)
 number of electron     559.9999909 magnetization 
 augmentation part      241.6469400 magnetization 

 Broyden mixing:
  rms(total) = 0.17861E+01    rms(broyden)= 0.17858E+01
  rms(prec ) = 0.21802E+01
  weight for this iteration     100.00

 eigenvalues of (default mixing * dielectric matrix)
  average eigenvalue GAMMA=   0.2412
  0.9238  0.2053  0.2053  0.1158  0.1158  0.0613  0.0613

 Free energy of the ion-electron system (eV)
  ---------------------------------------------------
  alpha Z        PSCENC =        75.25431677
  Ewald energy   TEWEN  =    137228.94455843
  -Hartree energ DENC   =   -181215.43733335
  -exchange      EXHF   =         0.00000000
  -V(xc)+E(xc)   XCENC  =     -1697.50314697
  PAW double counting   =     45869.91929587   -42356.22934954
  entropy T*S    EENTRO =        -0.04186580
  eigenvalues    EBANDS =     -3167.76268635
  atomic energy  EATOM  =     45086.50549395
  Solvation  Ediel_sol  =         0.00000000
  ---------------------------------------------------
  free energy    TOTEN  =      -176.35071698 eV

  energy without entropy =     -176.30885118  energy(sigma->0) =     -176.34025053


--------------------------------------------------------------------------------------------------------




--------------------------------------- Iteration      1(  13)  ---------------------------------------


    POTLOK:  cpu time   13.8879: real time   13.8930
    SETDIJ:  cpu time    0.1253: real time    0.1253
    EDDIAG:  cpu time   70.6983: real time   70.7044
  RMM-DIIS:  cpu time  190.4480: real time  190.4621
    ORTHCH:  cpu time   13.7590: real time   13.7589
       DOS:  cpu time    0.0017: real time    0.0017
    CHARGE:  cpu time   26.7497: real time   26.7495
    MIXING:  cpu time    0.7042: real time    0.7042
    --------------------------------------------
      LOOP:  cpu time  316.3740: real time  316.3990

 eigenvalue-minimisations  :   723
 total energy-change (2. order) : 0.7155538E+00  (-0.7168515E-01)
 number of electron     559.9999902 magnetization 
 augmentation part      241.7816430 magnetization 

 Broyden mixing:
  rms(total) = 0.17206E+01    rms(broyden)= 0.17204E+01
  rms(prec ) = 0.20066E+01
  weight for this iteration     100.00

 eigenvalues of (default mixing * dielectric matrix)
  average eigenvalue GAMMA=   0.2461
  0.9729  0.2828  0.2828  0.1159  0.1159  0.0764  0.0764  0.0457

 Free energy of the ion-electron system (eV)
  ---------------------------------------------------
  alpha Z        PSCENC =        75.25431677
  Ewald energy   TEWEN  =    137228.94455843
  -Hartree energ DENC   =   -181227.85700147
  -exchange      EXHF   =         0.00000000
  -V(xc)+E(xc)   XCENC  =     -1697.30616295
  PAW double counting   =     45890.08629816   -42375.28922061
  entropy T*S    EENTRO =         0.00922471
  eigenvalues    EBANDS =     -3155.98267022
  atomic energy  EATOM  =     45086.50549395
  Solvation  Ediel_sol  =         0.00000000
  ---------------------------------------------------
  free energy    TOTEN  =      -175.63516322 eV

  energy without entropy =     -175.64438793  energy(sigma->0) =     -175.63746940


--------------------------------------------------------------------------------------------------------




--------------------------------------- Iteration      1(  14)  ---------------------------------------


    POTLOK:  cpu time   13.8670: real time   13.8696
    SETDIJ:  cpu time    0.1240: real time    0.1240
    EDDIAG:  cpu time   70.6839: real time   70.6837
  RMM-DIIS:  cpu time  190.0402: real time  190.0401
    ORTHCH:  cpu time   13.6756: real time   13.6755
       DOS:  cpu time    0.0016: real time    0.0016
    CHARGE:  cpu time   26.3366: real time   26.3363
    MIXING:  cpu time    0.7672: real time    0.7672
    --------------------------------------------
      LOOP:  cpu time  315.4961: real time  315.4981

 eigenvalue-minimisations  :   718
 total energy-change (2. order) :-0.3883567E+00  (-0.8098144E-01)
 number of electron     559.9999872 magnetization 
 augmentation part      241.6847239 magnetization 

 Broyden mixing:
  rms(total) = 0.29359E+01    rms(broyden)= 0.29358E+01
  rms(prec ) = 0.33489E+01
  weight for this iteration     100.00

 eigenvalues of (default mixing * dielectric matrix)
  average eigenvalue GAMMA=   0.2473
  1.0487  0.3440  0.3440  0.1183  0.1183  0.0804  0.0804  0.0533  0.0383

 Free energy of the ion-electron system (eV)
  ---------------------------------------------------
  alpha Z        PSCENC =        75.25431677
  Ewald energy   TEWEN  =    137228.94455843
  -Hartree energ DENC   =   -181255.74662689
  -exchange      EXHF   =         0.00000000
  -V(xc)+E(xc)   XCENC  =     -1696.92267157
  PAW double counting   =     45925.26502168   -42408.50418602
  entropy T*S    EENTRO =         0.21135105
  eigenvalues    EBANDS =     -3131.03077731
  atomic energy  EATOM  =     45086.50549395
  Solvation  Ediel_sol  =         0.00000000
  ---------------------------------------------------
  free energy    TOTEN  =      -176.02351990 eV

  energy without entropy =     -176.23487096  energy(sigma->0) =     -176.07635766


--------------------------------------------------------------------------------------------------------




--------------------------------------- Iteration      1(  15)  ---------------------------------------


    POTLOK:  cpu time   13.8211: real time   13.8233
    SETDIJ:  cpu time    0.1265: real time    0.1265
    EDDIAG:  cpu time   70.3214: real time   70.3214
  RMM-DIIS:  cpu time  189.1641: real time  189.1639
    ORTHCH:  cpu time   13.6611: real time   13.6611
       DOS:  cpu time    0.0017: real time    0.0017
    CHARGE:  cpu time   26.2645: real time   26.2642
    MIXING:  cpu time    0.7955: real time    0.7955
    --------------------------------------------
      LOOP:  cpu time  314.1558: real time  314.1576

 eigenvalue-minimisations  :   712
 total energy-change (2. order) : 0.9209090E+00  (-0.1006026E+00)
 number of electron     559.9999907 magnetization 
 augmentation part      241.4171623 magnetization 

 Broyden mixing:
  rms(total) = 0.12285E+01    rms(broyden)= 0.12283E+01
  rms(prec ) = 0.13740E+01
  weight for this iteration     100.00

 eigenvalues of (default mixing * dielectric matrix)
  average eigenvalue GAMMA=   0.2743
  1.2364  0.6139  0.2449  0.1544  0.1544  0.0935  0.0764  0.0764  0.0553  0.0374

 Free energy of the ion-electron system (eV)
  ---------------------------------------------------
  alpha Z        PSCENC =        75.25431677
  Ewald energy   TEWEN  =    137228.94455843
  -Hartree energ DENC   =   -181285.75683996
  -exchange      EXHF   =         0.00000000
  -V(xc)+E(xc)   XCENC  =     -1696.48430030
  PAW double counting   =     45964.87798704   -42445.86911196
  entropy T*S    EENTRO =        -0.12501248
  eigenvalues    EBANDS =     -3102.44970240
  atomic energy  EATOM  =     45086.50549395
  Solvation  Ediel_sol  =         0.00000000
  ---------------------------------------------------
  free energy    TOTEN  =      -175.10261090 eV

  energy without entropy =     -174.97759842  energy(sigma->0) =     -175.07135778


--------------------------------------------------------------------------------------------------------




--------------------------------------- Iteration      1(  16)  ---------------------------------------


    POTLOK:  cpu time   13.5434: real time   13.5459
    SETDIJ:  cpu time    0.1259: real time    0.1259
    EDDIAG:  cpu time   70.3641: real time   70.3656
  RMM-DIIS:  cpu time  188.3491: real time  188.3503
    ORTHCH:  cpu time   13.5082: real time   13.5082
       DOS:  cpu time    0.0016: real time    0.0016
    CHARGE:  cpu time   26.1766: real time   26.1765
    MIXING:  cpu time    0.8114: real time    0.8114
    --------------------------------------------
      LOOP:  cpu time  312.8804: real time  312.8854

 eigenvalue-minimisations  :   708
 total energy-change (2. order) : 0.2877972E+00  (-0.1127249E+00)
 number of electron     559.9999905 magnetization 
 augmentation part      241.0649394 magnetization 

 Broyden mixing:
  rms(total) = 0.12423E+01    rms(broyden)= 0.12420E+01
  rms(prec ) = 0.14457E+01
  weight for this iteration     100.00

 eigenvalues of (default mixing * dielectric matrix)
  average eigenvalue GAMMA=   0.2808
  1.3317  0.7191  0.1997  0.1997  0.2023  0.0773  0.0773  0.0978  0.0878  0.0582
  0.0375

 Free energy of the ion-electron system (eV)
  ---------------------------------------------------
  alpha Z        PSCENC =        75.25431677
  Ewald energy   TEWEN  =    137228.94455843
  -Hartree energ DENC   =   -181337.00718713
  -exchange      EXHF   =         0.00000000
  -V(xc)+E(xc)   XCENC  =     -1695.76204232
  PAW double counting   =     46028.34576022   -42505.72207929
  entropy T*S    EENTRO =        -0.09510410
  eigenvalues    EBANDS =     -3055.27853027
  atomic energy  EATOM  =     45086.50549395
  Solvation  Ediel_sol  =         0.00000000
  ---------------------------------------------------
  free energy    TOTEN  =      -174.81481375 eV

  energy without entropy =     -174.71970964  energy(sigma->0) =     -174.79103772


--------------------------------------------------------------------------------------------------------




--------------------------------------- Iteration      1(  17)  ---------------------------------------


    POTLOK:  cpu time   13.6555: real time   13.6575
    SETDIJ:  cpu time    0.1276: real time    0.1276
    EDDIAG:  cpu time   70.3106: real time   70.3121
  RMM-DIIS:  cpu time  191.2849: real time  191.2866
    ORTHCH:  cpu time   13.4020: real time   13.4018
       DOS:  cpu time    0.0017: real time    0.0017
    CHARGE:  cpu time   26.5038: real time   26.5035
    MIXING:  cpu time    0.8659: real time    0.8659
    --------------------------------------------
      LOOP:  cpu time  316.1520: real time  316.1567

 eigenvalue-minimisations  :   719
 total energy-change (2. order) :-0.5310237E-01  (-0.5972127E-01)
 number of electron     559.9999900 magnetization 
 augmentation part      240.8973999 magnetization 

 Broyden mixing:
  rms(total) = 0.11479E+01    rms(broyden)= 0.11477E+01
  rms(prec ) = 0.13215E+01
  weight for this iteration     100.00

 eigenvalues of (default mixing * dielectric matrix)
  average eigenvalue GAMMA=   0.2979
  1.5357  0.8001  0.2704  0.2704  0.1440  0.1440  0.0781  0.0781  0.0850  0.0731
  0.0587  0.0375

 Free energy of the ion-electron system (eV)
  ---------------------------------------------------
  alpha Z        PSCENC =        75.25431677
  Ewald energy   TEWEN  =    137228.94455843
  -Hartree energ DENC   =   -181358.49667891
  -exchange      EXHF   =         0.00000000
  -V(xc)+E(xc)   XCENC  =     -1695.51561934
  PAW double counting   =     46049.53010140   -42525.53936589
  entropy T*S    EENTRO =        -0.10239051
  eigenvalues    EBANDS =     -3035.44833202
  atomic energy  EATOM  =     45086.50549395
  Solvation  Ediel_sol  =         0.00000000
  ---------------------------------------------------
  free energy    TOTEN  =      -174.86791612 eV

  energy without entropy =     -174.76552561  energy(sigma->0) =     -174.84231849


--------------------------------------------------------------------------------------------------------




--------------------------------------- Iteration      1(  18)  ---------------------------------------


    POTLOK:  cpu time   13.7616: real time   13.7642
    SETDIJ:  cpu time    0.1249: real time    0.1249
    EDDIAG:  cpu time   70.8992: real time   70.8989
  RMM-DIIS:  cpu time  190.4831: real time  190.4855
    ORTHCH:  cpu time   13.4478: real time   13.4477
       DOS:  cpu time    0.0016: real time    0.0016
    CHARGE:  cpu time   26.2379: real time   26.2378
    MIXING:  cpu time    0.9540: real time    0.9540
    --------------------------------------------
      LOOP:  cpu time  315.9100: real time  315.9147

 eigenvalue-minimisations  :   717
 total energy-change (2. order) : 0.7942771E-02  (-0.5534823E-01)
 number of electron     559.9999917 magnetization 
 augmentation part      241.0111606 magnetization 

 Broyden mixing:
  rms(total) = 0.12887E+01    rms(broyden)= 0.12884E+01
  rms(prec ) = 0.15350E+01
  weight for this iteration     100.00

 eigenvalues of (default mixing * dielectric matrix)
  average eigenvalue GAMMA=   0.3055
  1.6341  0.9133  0.3182  0.3182  0.1446  0.1446  0.0951  0.0951  0.0762  0.0762
  0.0589  0.0589  0.0375

 Free energy of the ion-electron system (eV)
  ---------------------------------------------------
  alpha Z        PSCENC =        75.25431677
  Ewald energy   TEWEN  =    137228.94455843
  -Hartree energ DENC   =   -181375.13638676
  -exchange      EXHF   =         0.00000000
  -V(xc)+E(xc)   XCENC  =     -1695.24151899
  PAW double counting   =     46070.60065792   -42545.09022586
  entropy T*S    EENTRO =         0.01222676
  eigenvalues    EBANDS =     -3020.70909557
  atomic energy  EATOM  =     45086.50549395
  Solvation  Ediel_sol  =         0.00000000
  ---------------------------------------------------
  free energy    TOTEN  =      -174.85997335 eV

  energy without entropy =     -174.87220011  energy(sigma->0) =     -174.86303004


--------------------------------------------------------------------------------------------------------




--------------------------------------- Iteration      1(  19)  ---------------------------------------


    POTLOK:  cpu time   13.6075: real time   13.6107
    SETDIJ:  cpu time    0.1246: real time    0.1246
    EDDIAG:  cpu time   69.7685: real time   69.7692
  RMM-DIIS:  cpu time  189.4328: real time  189.4342
    ORTHCH:  cpu time   13.5117: real time   13.5116
       DOS:  cpu time    0.0017: real time    0.0017
    CHARGE:  cpu time   26.1408: real time   26.1406
    MIXING:  cpu time    1.0593: real time    1.0593
    --------------------------------------------
      LOOP:  cpu time  313.6470: real time  313.6518

 eigenvalue-minimisations  :   712
 total energy-change (2. order) : 0.3064898E+00  (-0.3930739E-01)
 number of electron     559.9999900 magnetization 
 augmentation part      241.0758280 magnetization 

 Broyden mixing:
  rms(total) = 0.11109E+01    rms(broyden)= 0.11107E+01
  rms(prec ) = 0.12817E+01
  weight for this iteration     100.00

 eigenvalues of (default mixing * dielectric matrix)
  average eigenvalue GAMMA=   0.3104
  1.7253  0.9909  0.3603  0.3603  0.1603  0.1603  0.0769  0.0769  0.0970  0.0970
  0.0918  0.0375  0.0558  0.0558

 Free energy of the ion-electron system (eV)
  ---------------------------------------------------
  alpha Z        PSCENC =        75.25431677
  Ewald energy   TEWEN  =    137228.94455843
  -Hartree energ DENC   =   -181392.22228195
  -exchange      EXHF   =         0.00000000
  -V(xc)+E(xc)   XCENC  =     -1695.08984096
  PAW double counting   =     46080.71463513   -42554.24244211
  entropy T*S    EENTRO =         0.02454169
  eigenvalues    EBANDS =     -3004.44246451
  atomic energy  EATOM  =     45086.50549395
  Solvation  Ediel_sol  =         0.00000000
  ---------------------------------------------------
  free energy    TOTEN  =      -174.55348355 eV

  energy without entropy =     -174.57802524  energy(sigma->0) =     -174.55961897


--------------------------------------------------------------------------------------------------------




--------------------------------------- Iteration      1(  20)  ---------------------------------------


    POTLOK:  cpu time   13.5005: real time   13.5010
    SETDIJ:  cpu time    0.1243: real time    0.1243
    EDDIAG:  cpu time   70.4312: real time   70.4318
  RMM-DIIS:  cpu time  188.7676: real time  188.7747
    ORTHCH:  cpu time   13.6067: real time   13.6066
       DOS:  cpu time    0.0017: real time    0.0017
    CHARGE:  cpu time   26.0188: real time   26.0185
    MIXING:  cpu time    1.0996: real time    1.0996
    --------------------------------------------
      LOOP:  cpu time  313.5504: real time  313.5582

 eigenvalue-minimisations  :   709
 total energy-change (2. order) : 0.3044599E+00  (-0.3032690E-01)
 number of electron     559.9999909 magnetization 
 augmentation part      241.1481375 magnetization 

 Broyden mixing:
  rms(total) = 0.84589E+00    rms(broyden)= 0.84573E+00
  rms(prec ) = 0.97577E+00
  weight for this iteration     100.00

 eigenvalues of (default mixing * dielectric matrix)
  average eigenvalue GAMMA=   0.3177
  1.8141  1.0808  0.4004  0.4004  0.1845  0.1845  0.1180  0.1180  0.0773  0.0773
  0.0813  0.0813  0.0375  0.0552  0.0552

 Free energy of the ion-electron system (eV)
  ---------------------------------------------------
  alpha Z        PSCENC =        75.25431677
  Ewald energy   TEWEN  =    137228.94455843
  -Hartree energ DENC   =   -181404.71003893
  -exchange      EXHF   =         0.00000000
  -V(xc)+E(xc)   XCENC  =     -1695.00737387
  PAW double counting   =     46084.82737952   -42557.71933822
  entropy T*S    EENTRO =        -0.00719418
  eigenvalues    EBANDS =     -2992.33682715
  atomic energy  EATOM  =     45086.50549395
  Solvation  Ediel_sol  =         0.00000000
  ---------------------------------------------------
  free energy    TOTEN  =      -174.24902368 eV

  energy without entropy =     -174.24182949  energy(sigma->0) =     -174.24722513


--------------------------------------------------------------------------------------------------------




--------------------------------------- Iteration      1(  21)  ---------------------------------------


    POTLOK:  cpu time   13.7156: real time   13.7163
    SETDIJ:  cpu time    0.1208: real time    0.1208
    EDDIAG:  cpu time   69.3893: real time   69.3902
  RMM-DIIS:  cpu time  188.7540: real time  188.7545
    ORTHCH:  cpu time   13.6827: real time   13.6827
       DOS:  cpu time    0.0017: real time    0.0017
    CHARGE:  cpu time   26.0365: real time   26.0363
    MIXING:  cpu time    1.1426: real time    1.1426
    --------------------------------------------
      LOOP:  cpu time  312.8433: real time  312.8452

 eigenvalue-minimisations  :   710
 total energy-change (2. order) : 0.8461285E-01  (-0.2510067E-01)
 number of electron     559.9999906 magnetization 
 augmentation part      241.2068031 magnetization 

 Broyden mixing:
  rms(total) = 0.75462E+00    rms(broyden)= 0.75442E+00
  rms(prec ) = 0.87973E+00
  weight for this iteration     100.00

 eigenvalues of (default mixing * dielectric matrix)
  average eigenvalue GAMMA=   0.3314
  1.9796  1.2101  0.4258  0.4258  0.2056  0.2056  0.1452  0.1452  0.0773  0.0773
  0.0934  0.0934  0.0708  0.0375  0.0580  0.0527

 Free energy of the ion-electron system (eV)
  ---------------------------------------------------
  alpha Z        PSCENC =        75.25431677
  Ewald energy   TEWEN  =    137228.94455843
  -Hartree energ DENC   =   -181418.80766229
  -exchange      EXHF   =         0.00000000
  -V(xc)+E(xc)   XCENC  =     -1694.88965995
  PAW double counting   =     46087.00659964   -42559.25661802
  entropy T*S    EENTRO =        -0.07146245
  eigenvalues    EBANDS =     -2978.84997691
  atomic energy  EATOM  =     45086.50549395
  Solvation  Ediel_sol  =         0.00000000
  ---------------------------------------------------
  free energy    TOTEN  =      -174.16441083 eV

  energy without entropy =     -174.09294838  energy(sigma->0) =     -174.14654522


--------------------------------------------------------------------------------------------------------




--------------------------------------- Iteration      1(  22)  ---------------------------------------


    POTLOK:  cpu time   13.7125: real time   13.7134
    SETDIJ:  cpu time    0.1241: real time    0.1241
    EDDIAG:  cpu time   69.4980: real time   69.4981
  RMM-DIIS:  cpu time  189.1686: real time  189.1694
    ORTHCH:  cpu time   13.7582: real time   13.7581
       DOS:  cpu time    0.0017: real time    0.0017
    CHARGE:  cpu time   26.0148: real time   26.0146
    MIXING:  cpu time    1.2665: real time    1.2665
    --------------------------------------------
      LOOP:  cpu time  313.5444: real time  313.5459

 eigenvalue-minimisations  :   710
 total energy-change (2. order) : 0.9273172E-01  (-0.2328580E-01)
 number of electron     559.9999911 magnetization 
 augmentation part      241.1669430 magnetization 

 Broyden mixing:
  rms(total) = 0.66911E+00    rms(broyden)= 0.66893E+00
  rms(prec ) = 0.76044E+00
  weight for this iteration     100.00

 eigenvalues of (default mixing * dielectric matrix)
  average eigenvalue GAMMA=   0.3403
  2.1323  1.1958  0.6009  0.3604  0.3604  0.1629  0.1629  0.1390  0.1119  0.0772
  0.0772  0.0939  0.0939  0.0375  0.0674  0.0586  0.0523

 Free energy of the ion-electron system (eV)
  ---------------------------------------------------
  alpha Z        PSCENC =        75.25431677
  Ewald energy   TEWEN  =    137228.94455843
  -Hartree energ DENC   =   -181444.05058387
  -exchange      EXHF   =         0.00000000
  -V(xc)+E(xc)   XCENC  =     -1694.62998270
  PAW double counting   =     46092.21150680   -42563.32912575
  entropy T*S    EENTRO =        -0.10942355
  eigenvalues    EBANDS =     -2954.86843917
  atomic energy  EATOM  =     45086.50549395
  Solvation  Ediel_sol  =         0.00000000
  ---------------------------------------------------
  free energy    TOTEN  =      -174.07167911 eV

  energy without entropy =     -173.96225555  energy(sigma->0) =     -174.04432322


--------------------------------------------------------------------------------------------------------




--------------------------------------- Iteration      1(  23)  ---------------------------------------


    POTLOK:  cpu time   13.5795: real time   13.5804
    SETDIJ:  cpu time    0.1215: real time    0.1215
    EDDIAG:  cpu time   69.3509: real time   69.3525
  RMM-DIIS:  cpu time  188.6628: real time  188.6636
    ORTHCH:  cpu time   13.7071: real time   13.7069
       DOS:  cpu time    0.0017: real time    0.0017
    CHARGE:  cpu time   25.9169: real time   25.9166
    MIXING:  cpu time    1.3152: real time    1.3152
    --------------------------------------------
      LOOP:  cpu time  312.6554: real time  312.6585

 eigenvalue-minimisations  :   708
 total energy-change (2. order) : 0.1792320E+00  (-0.1654804E-01)
 number of electron     559.9999910 magnetization 
 augmentation part      241.1903016 magnetization 

 Broyden mixing:
  rms(total) = 0.46707E+00    rms(broyden)= 0.46690E+00
  rms(prec ) = 0.53540E+00
  weight for this iteration     100.00

 eigenvalues of (default mixing * dielectric matrix)
  average eigenvalue GAMMA=   0.3467
  2.1952  1.2526  0.7561  0.3699  0.3699  0.1718  0.1718  0.1739  0.0771  0.0771
[...]
 -0.006  -0.012   0.004   0.004   0.005  -0.006  -0.012   0.004
 -0.011  -0.020   0.006   0.007   0.009  -0.010  -0.020   0.006
 -0.015  -0.005   0.013   0.000   0.022  -0.014  -0.005   0.012
  0.000  -0.023  -0.006  -0.015  -0.000   0.000  -0.022  -0.006
 -0.022   0.000   0.009  -0.005  -0.016  -0.022   0.000   0.008
 -0.017  -0.006   0.015   0.000   0.027  -0.017  -0.006   0.015
  0.000  -0.027  -0.007  -0.018   0.000   0.000  -0.027  -0.007
 -0.027   0.000   0.010  -0.006  -0.019  -0.026   0.000   0.010
 total augmentation occupancy for first ion, spin component:           1
  1.537  -0.031   0.005   0.017   0.024   0.075  -0.008  -0.002   0.035  -0.010   0.092  -0.031   0.012   0.002   0.002  -0.019
 -0.031   1.402   0.029   0.071  -0.000  -0.007   0.071   0.011  -0.015  -0.008   0.217  -0.065   0.019   0.002   0.003  -0.006
  0.005   0.029   1.543   0.001   0.002  -0.002   0.012   0.073  -0.012   0.017  -0.053   0.018  -0.003  -0.007  -0.005   0.016
  0.017   0.071   0.001   1.339   0.045   0.033  -0.014  -0.012   0.091  -0.023  -0.081   0.021  -0.001  -0.009  -0.004   0.001
  0.024  -0.000   0.002   0.045   1.441  -0.010  -0.008   0.016  -0.022   0.067  -0.094   0.031  -0.002  -0.010  -0.010   0.026
  0.075  -0.007  -0.002   0.033  -0.010   0.217   0.018  -0.002  -0.045   0.004  -0.048   0.002   0.017  -0.010   0.034  -0.004
 -0.008   0.071   0.012  -0.014  -0.008   0.018   0.262  -0.023  -0.003   0.006  -0.109   0.007  -0.001   0.051  -0.010  -0.000
 -0.002   0.011   0.073  -0.012   0.016  -0.002  -0.023   0.214   0.014  -0.020   0.028  -0.001  -0.012   0.009  -0.018   0.003
  0.035  -0.015  -0.012   0.091  -0.022  -0.045  -0.003   0.014   0.260   0.007   0.043  -0.004  -0.009   0.036   0.004   0.000
 -0.010  -0.008   0.017  -0.023   0.067   0.004   0.006  -0.020   0.007   0.258   0.046  -0.003  -0.038   0.002   0.049   0.007
  0.092   0.217  -0.053  -0.081  -0.094  -0.048  -0.109   0.028   0.043   0.046   0.949  -0.141   0.084   0.014   0.064  -0.013
 -0.031  -0.065   0.018   0.021   0.031   0.002   0.007  -0.001  -0.004  -0.003  -0.141   0.023  -0.014  -0.003  -0.010   0.003
  0.012   0.019  -0.003  -0.001  -0.002   0.017  -0.001  -0.012  -0.009  -0.038   0.084  -0.014   0.029  -0.008  -0.004  -0.003
  0.002   0.002  -0.007  -0.009  -0.010  -0.010   0.051   0.009   0.036   0.002   0.014  -0.003  -0.008   0.036   0.004   0.000
  0.002   0.003  -0.005  -0.004  -0.010   0.034  -0.010  -0.018   0.004   0.049   0.064  -0.010  -0.004   0.004   0.035  -0.000
 -0.019  -0.006   0.016   0.001   0.026  -0.004  -0.000   0.003   0.000   0.007  -0.013   0.003  -0.003   0.000  -0.000   0.001
  0.001  -0.028  -0.007  -0.018   0.001   0.001  -0.008  -0.001  -0.006  -0.000  -0.003   0.001   0.000  -0.003  -0.000   0.000
 -0.028   0.001   0.012  -0.005  -0.019  -0.006   0.001   0.003  -0.001  -0.007  -0.008   0.001  -0.000  -0.000  -0.003   0.000


------------------------ aborting loop because EDIFF is reached ----------------------------------------


    CHARGE:  cpu time   25.1347: real time   25.1347
    FORLOC:  cpu time    6.7415: real time    6.7415
    FORNL :  cpu time   64.6832: real time   64.6829
    STRESS:  cpu time  200.2482: real time  200.2477
    FORCOR:  cpu time   22.0596: real time   22.0626
    FORHAR:  cpu time    9.6272: real time    9.6272
    MIXING:  cpu time    3.5846: real time    3.5846
    OFIELD:  cpu time    0.0000: real time    0.0000

  FORCE on cell =-STRESS in cart. coord.  units (eV):
  Direction    XX          YY          ZZ          XY          YZ          ZX
  --------------------------------------------------------------------------------------
  Alpha Z    75.25432    75.25432    75.25432
  Ewald   48962.77746 43520.99954 44745.06201  -482.29405  -291.10950  1655.41431
  Hartree 63568.98990 58440.45488 59594.35951  -447.17497  -269.15522  1513.26446
  E(xc)   -2903.06874 -2904.74585 -2904.39039    -0.09879    -0.05779     0.82696
  Local  ************************************   926.58232   558.71742 -3156.33117
  n-local  -891.19451  -881.90038  -883.30371     0.71124     0.51721    -4.34856
  augment  4103.12743  4104.28401  4103.90928     0.12832     0.05200    -0.59105
  Kinetic  7793.39779  7809.39710  7805.97000     1.47541     0.69355    -7.72493
  Fock        0.00000     0.00000     0.00000     0.00000     0.00000     0.00000
  -------------------------------------------------------------------------------------
  Total    -112.81574  -113.84949  -113.60214    -0.67052    -0.34234     0.51003
  in kB      -6.69447    -6.75582    -6.74114    -0.03979    -0.02031     0.03027
  external pressure =       -6.73 kB  Pullay stress =        0.00 kB


 VOLUME and BASIS-vectors are now :
 -----------------------------------------------------------------------------
  energy-cutoff  :      400.00
  volume of cell :    27000.00
      direct lattice vectors                 reciprocal lattice vectors
    30.000000000  0.000000000  0.000000000     0.033333333  0.000000000  0.000000000
     0.000000000 30.000000000  0.000000000     0.000000000  0.033333333  0.000000000
     0.000000000  0.000000000 30.000000000     0.000000000  0.000000000  0.033333333

  length of vectors
    30.000000000 30.000000000 30.000000000     0.033333333  0.033333333  0.033333333


 FORCES acting on ions
    electron-ion (+dipol)            ewald-force                    non-local-force                 convergence-correction
 -----------------------------------------------------------------------------------------------
   0.383E+03 0.980E+03 0.413E+03   -.381E+03 -.977E+03 -.413E+03   -.149E+01 -.182E+01 -.223E+00   0.212E-02 0.222E-02 -.116E-01
   -.973E+03 -.394E+03 0.415E+03   0.970E+03 0.392E+03 -.414E+03   0.182E+01 0.149E+01 -.213E+00   -.158E-01 -.297E-03 -.638E-02
   -.400E+03 0.975E+03 0.415E+03   0.398E+03 -.972E+03 -.414E+03   0.149E+01 -.182E+01 -.226E+00   0.174E-01 0.130E-01 -.114E-01
   0.857E+03 -.414E+03 0.364E+03   -.854E+03 0.412E+03 -.363E+03   -.187E+01 0.113E+01 -.218E+00   0.782E-02 0.138E-01 -.610E-02
   -.117E+02 0.593E+03 0.965E+03   0.117E+02 -.592E+03 -.961E+03   -.160E-03 -.313E+00 -.234E+01   0.150E-01 0.156E-01 -.937E-02
   -.417E+01 0.588E+03 -.968E+03   0.415E+01 -.587E+03 0.964E+03   0.105E-01 -.309E+00 0.235E+01   0.331E-02 0.309E-02 0.865E-02
   -.522E+01 0.114E+04 -.277E+01   0.521E+01 -.113E+04 0.278E+01   -.203E-03 -.311E+01 -.326E-02   0.634E-02 -.789E-02 -.182E-03
   0.111E+04 0.193E+02 -.675E+02   -.110E+04 -.194E+02 0.676E+02   -.302E+01 0.412E-01 -.912E-01   -.679E-02 0.568E-02 -.215E-02
   -.113E+04 0.568E+00 -.192E+01   0.113E+04 -.575E+00 0.194E+01   0.310E+01 0.428E-04 -.788E-02   -.984E-02 0.631E-02 -.150E-01
   -.779E+01 -.114E+04 -.403E+01   0.778E+01 0.113E+04 0.404E+01   -.227E-02 0.311E+01 -.370E-02   0.639E-02 -.125E-01 -.729E-02
   -.582E+03 0.580E+03 0.812E+03   0.580E+03 -.578E+03 -.809E+03   0.155E+01 -.156E+01 -.220E+01   0.589E-02 0.198E-01 0.200E-02
   -.580E+03 0.579E+03 -.814E+03   0.577E+03 -.577E+03 0.811E+03   0.155E+01 -.156E+01 0.220E+01   0.743E-02 0.134E-02 0.258E-02
   0.535E+03 -.597E+03 0.819E+03   -.533E+03 0.595E+03 -.816E+03   -.157E+01 0.154E+01 -.218E+01   0.160E-01 0.892E-02 0.107E-02
   0.572E+03 -.580E+03 -.821E+03   -.569E+03 0.578E+03 0.818E+03   -.156E+01 0.155E+01 0.219E+01   0.943E-02 0.900E-02 -.696E-03
   0.555E+03 0.598E+03 0.815E+03   -.553E+03 -.596E+03 -.812E+03   -.156E+01 -.155E+01 -.220E+01   0.262E-02 0.316E-02 -.123E-01
   0.573E+03 0.582E+03 -.819E+03   -.570E+03 -.579E+03 0.816E+03   -.156E+01 -.155E+01 0.219E+01   -.264E-02 -.314E-02 0.102E-01
   -.584E+03 -.579E+03 0.812E+03   0.581E+03 0.577E+03 -.809E+03   0.155E+01 0.156E+01 -.220E+01   -.537E-02 -.910E-02 0.138E-01
   -.580E+03 -.578E+03 -.814E+03   0.578E+03 0.576E+03 0.811E+03   0.156E+01 0.155E+01 0.220E+01   -.459E-02 0.724E-02 -.829E-02
   0.388E+03 0.976E+03 -.421E+03   -.386E+03 -.973E+03 0.421E+03   -.150E+01 -.181E+01 0.212E+00   -.273E-02 -.411E-02 0.695E-02
   -.972E+03 -.394E+03 -.418E+03   0.969E+03 0.392E+03 0.418E+03   0.182E+01 0.150E+01 0.226E+00   -.369E-02 0.867E-02 -.126E-01
   -.330E+03 0.324E+03 0.451E+03   0.330E+03 -.324E+03 -.451E+03   -.381E+00 0.371E+00 0.520E+00   0.192E-01 0.257E-01 -.117E-01
   0.918E+03 0.441E+03 0.392E+03   -.915E+03 -.439E+03 -.391E+03   -.186E+01 -.131E+01 -.218E+00   -.164E-02 0.173E-02 -.763E-02
   -.402E+03 -.974E+03 0.414E+03   0.400E+03 0.971E+03 -.414E+03   0.149E+01 0.181E+01 -.226E+00   -.767E-03 -.145E-01 0.884E-03
   -.397E+03 0.973E+03 -.419E+03   0.395E+03 -.970E+03 0.418E+03   0.150E+01 -.181E+01 0.221E+00   0.121E-01 0.125E-04 0.183E-02
   0.959E+03 -.396E+03 -.439E+03   -.956E+03 0.393E+03 0.439E+03   -.182E+01 0.150E+01 0.244E+00   0.332E-02 0.139E-01 0.527E-03
   -.973E+03 0.395E+03 0.415E+03   0.970E+03 -.393E+03 -.414E+03   0.182E+01 -.149E+01 -.214E+00   -.772E-02 0.165E-01 -.732E-02
   0.376E+03 -.981E+03 0.412E+03   -.374E+03 0.978E+03 -.411E+03   -.149E+01 0.183E+01 -.221E+00   0.171E-01 -.370E-02 0.853E-03
   0.297E+03 0.331E+03 0.447E+03   -.298E+03 -.331E+03 -.448E+03   0.388E+00 0.358E+00 0.520E+00   0.188E-01 0.182E-01 -.103E-01
   -.916E+01 0.643E+03 -.470E+01   0.915E+01 -.644E+03 0.471E+01   -.686E-02 0.735E+00 -.152E-02   0.150E-01 0.166E-01 -.769E-02
   -.592E+03 0.915E+00 0.964E+03   0.591E+03 -.923E+00 -.960E+03   0.307E+00 -.164E-02 -.235E+01   -.890E-03 0.111E-01 0.140E-01
   -.588E+03 0.462E+00 -.966E+03   0.587E+03 -.476E+00 0.963E+03   0.312E+00 0.231E-02 0.234E+01   0.113E-02 0.105E-01 -.322E-02
   0.530E+03 0.132E+02 0.974E+03   -.529E+03 -.133E+02 -.971E+03   -.359E+00 0.314E-01 -.228E+01   0.127E-01 0.107E-01 -.718E-02
   0.579E+03 0.148E+01 -.974E+03   -.579E+03 -.149E+01 0.970E+03   -.315E+00 -.988E-03 0.234E+01   0.535E-02 0.865E-02 0.651E-02
   0.745E+03 0.773E+03 -.116E+02   -.743E+03 -.771E+03 0.116E+02   -.113E+01 -.116E+01 0.122E-01   -.381E-02 0.351E-03 -.179E-02
   -.764E+03 -.761E+03 -.256E+01   0.762E+03 0.759E+03 0.258E+01   0.115E+01 0.114E+01 0.404E-02   -.894E-02 -.227E-02 -.151E-01
   -.763E+03 0.762E+03 -.220E+01   0.761E+03 -.760E+03 0.221E+01   0.114E+01 -.114E+01 0.234E-02   0.123E-01 0.150E-01 -.136E-01
   0.737E+03 -.771E+03 -.189E+02   -.735E+03 0.769E+03 0.188E+02   -.113E+01 0.119E+01 0.381E-01   0.183E-01 0.124E-01 -.596E-02
   -.178E+02 0.255E+01 0.107E+04   0.178E+02 -.257E+01 -.107E+04   0.133E-01 -.182E-02 -.161E+01   0.209E-01 0.142E-01 0.543E-02
   -.507E+01 0.781E+00 -.107E+04   0.507E+01 -.796E+00 0.107E+04   0.293E-02 0.264E-03 0.161E+01   0.536E-02 0.149E-01 0.366E-03
   0.961E+03 0.402E+03 -.435E+03   -.958E+03 -.400E+03 0.434E+03   -.181E+01 -.151E+01 0.240E+00   -.437E-02 0.381E-05 0.387E-02
   -.399E+03 -.973E+03 -.420E+03   0.396E+03 0.970E+03 0.419E+03   0.150E+01 0.181E+01 0.218E+00   -.661E-03 -.367E-02 -.113E-01
   -.326E+03 0.322E+03 -.457E+03   0.326E+03 -.323E+03 0.457E+03   -.372E+00 0.362E+00 -.521E+00   0.944E-02 0.154E-01 -.867E-02
   0.291E+03 -.323E+03 0.446E+03   -.291E+03 0.324E+03 -.446E+03   0.481E+00 -.365E+00 0.502E+00   0.268E-01 0.185E-01 -.432E-02
   0.311E+03 0.325E+03 -.462E+03   -.311E+03 -.325E+03 0.462E+03   0.361E+00 0.378E+00 -.542E+00   0.805E-02 0.124E-01 0.757E-03
   -.972E+03 0.395E+03 -.418E+03   0.969E+03 -.393E+03 0.418E+03   0.182E+01 -.150E+01 0.226E+00   0.412E-02 0.658E-02 -.111E-01
   0.386E+03 -.975E+03 -.423E+03   -.383E+03 0.972E+03 0.423E+03   -.151E+01 0.181E+01 0.206E+00   0.141E-01 -.521E-03 -.883E-02
   -.331E+03 -.321E+03 0.451E+03   0.332E+03 0.322E+03 -.451E+03   -.389E+00 -.369E+00 0.521E+00   0.110E-01 0.858E-02 -.632E-02
   0.611E+03 0.641E+01 -.222E+02   -.612E+03 -.639E+01 0.222E+02   0.714E+00 -.323E-01 0.182E-01   0.138E-01 0.158E-01 -.498E-02
   -.643E+03 0.782E+00 -.268E+01   0.644E+03 -.797E+00 0.271E+01   -.726E+00 -.394E-03 -.720E-02   0.149E-02 0.150E-01 -.236E-01
   -.161E+02 -.591E+03 0.965E+03   0.161E+02 0.590E+03 -.962E+03   0.906E-02 0.313E+00 -.234E+01   0.137E-01 -.899E-03 0.128E-01
   -.497E+01 -.587E+03 -.969E+03   0.496E+01 0.586E+03 0.965E+03   0.148E-02 0.303E+00 0.235E+01   0.647E-02 0.571E-02 -.777E-02
   -.132E+02 0.190E+01 -.662E+01   0.131E+02 -.192E+01 0.663E+01   0.239E-02 0.197E-03 0.111E-02   0.194E-01 0.248E-01 -.150E-01
   0.309E+03 -.321E+03 -.463E+03   -.310E+03 0.322E+03 0.464E+03   0.376E+00 -.367E+00 -.527E+00   0.171E-01 0.178E-01 -.649E-02
   -.326E+03 -.321E+03 -.457E+03   0.327E+03 0.321E+03 0.458E+03   -.368E+00 -.366E+00 -.520E+00   0.775E-03 0.169E-01 -.137E-01
   -.121E+02 -.641E+03 -.610E+01   0.121E+02 0.642E+03 0.611E+01   -.816E-02 -.733E+00 0.212E-02   0.138E-01 0.665E-02 -.127E-01
   0.134E+03 -.204E+02 0.718E+02   -.108E+03 0.170E+02 -.596E+02   -.229E+02 0.326E+01 -.108E+02   -.213E-02 0.210E-02 -.273E-02
   0.572E+03 -.864E+02 0.287E+03   -.628E+03 0.942E+02 -.314E+03   0.544E+02 -.743E+01 0.258E+02   -.215E-02 0.236E-02 -.267E-02
 -----------------------------------------------------------------------------------------------
   -.318E+02 0.390E+01 -.148E+02   0.568E-12 -.144E-11 -.148E-11   0.315E+02 -.431E+01 0.150E+02   0.337E+00 0.414E+00 -.242E+00
 
 
 POSITION                                       TOTAL-FORCE (eV/Angst)
 -----------------------------------------------------------------------------------
     13.37281      9.84801     12.50759         0.702611      1.107761      0.290531
     20.15199     16.62719     12.50759        -1.111995     -0.702329      0.287805
     16.62719      9.84801     12.50759        -0.702493      1.107799      0.292090
      9.84801     16.62719     12.50759         0.554353     -0.767683      0.033875
     15.00000     11.47521     10.20639        -0.000940      0.414250      1.281327
     15.00000     11.47521     19.79360        -0.006833      0.413782     -1.284133
     15.00000      8.28283     15.00000         0.000158      1.518036      0.002871
      8.28283     15.00000     15.00000         1.514648     -0.017811      0.032006
     21.71717     15.00000     15.00000        -1.516179     -0.000460      0.002132
     15.00000     21.71717     15.00000         0.001453     -1.518685      0.002847
     18.35858     11.64142     10.25025        -0.755509      0.759019      1.073350
     18.35858     11.64142     19.74975        -0.757397      0.755933     -1.073027
     11.64142     18.35858     10.25025         0.780697     -0.753250      1.072551
     11.64142     18.35858     19.74975         0.760793     -0.755485     -1.072488
     11.64142     11.64142     10.25025         0.757060      0.759437      1.078054
     11.64142     11.64142     19.74975         0.763010      0.753516     -1.072657
     18.35858     18.35858     10.25025        -0.754270     -0.760950      1.075265
     18.35858     18.35858     19.74975        -0.759815     -0.754484     -1.073405
     13.37281      9.84801     17.49241         0.707154      1.107834     -0.287611
     20.15199     16.62719     17.49241        -1.108537     -0.706194     -0.293043
     16.73751     13.26249     12.54279         0.116126     -0.111613     -0.158691
      9.84801     13.37281     12.50759         1.120434      0.654388      0.294875
     16.62719     20.15199     12.50759        -0.703638     -1.108932      0.292638
     16.62719      9.84801     17.49241        -0.707380      1.107821     -0.293055
      9.84801     16.62719     17.49241         1.105847     -0.705446     -0.288549
     20.15199     13.37281     12.50759        -1.113528      0.702978      0.289282
     13.37281     20.15199     12.50759         0.702388     -1.109209      0.289607
     13.26249     13.26249     12.54279        -0.111662     -0.112832     -0.155997
     15.00000     11.52498     15.00000        -0.001269     -0.229940      0.000620
     18.52479     15.00000     10.20639        -0.411517      0.000910      1.281266
     18.52479     15.00000     19.79360        -0.413010     -0.000753     -1.281902
     11.47521     15.00000     10.20640         0.457340     -0.018509      1.258983
     11.47521     15.00000     19.79360         0.413415      0.000492     -1.281987
     11.49535     11.49535     15.00000         0.825838      0.832558     -0.008978
     18.50465     18.50465     15.00000        -0.829458     -0.827978     -0.000034
     18.50465     11.49535     15.00000        -0.828444      0.828674      0.000350
     11.49535     18.50465     15.00000         0.834724     -0.846893     -0.015697
     15.00000     15.00000     10.04368        -0.008189     -0.001649      1.178034
     15.00000     15.00000     19.95633         0.000480     -0.000227     -1.176307
      9.84801     13.37281     17.49241         1.102532      0.708969     -0.297522
     16.62719     20.15199     17.49241        -0.707282     -1.108951     -0.290864
     16.73751     13.26249     17.45721         0.115557     -0.111763      0.157499
     13.26249     16.73751     12.54279        -0.147310      0.118086     -0.146395
     13.26249     13.26249     17.45721        -0.105645     -0.120397      0.164319
     20.15199     13.37281     17.49241        -1.108277      0.705143     -0.292521
     13.37281     20.15199     17.49241         0.715269     -1.107010     -0.283025
     16.73751     16.73751     12.54279         0.123574      0.112854     -0.161591
     11.52498     15.00000     15.00000        -0.205485      0.003835      0.015477
     18.47502     15.00000     15.00000         0.227689     -0.000797      0.003960
     15.00000     18.52480     10.20639        -0.005258     -0.414417      1.281605
     15.00000     18.52480     19.79360        -0.002377     -0.412254     -1.285629
     15.00000     15.00000     15.00000        -0.007270     -0.000868     -0.005136
     13.26249     16.73751     17.45721        -0.114068      0.114027      0.154741
     16.73751     16.73751     17.45721         0.113914      0.113577      0.159318
     15.00000     18.47502     15.00000        -0.005653      0.230121     -0.000902
      7.30915     16.04605     11.34946         2.868989     -0.155154      1.363287
      6.29772     16.18362     10.86938        -2.375364      0.311123     -1.129416
 -----------------------------------------------------------------------------------
    total drift:                                0.001118      0.008255      0.001984


--------------------------------------------------------------------------------------------------------



  FREE ENERGIE OF THE ION-ELECTRON SYSTEM (eV)
  ---------------------------------------------------
  free  energy   TOTEN  =      -173.72726732 eV

  energy  without entropy=     -173.61266074  energy(sigma->0) =     -173.69861567
 


--------------------------------------------------------------------------------------------------------


    POTLOK:  cpu time   13.9989: real time   13.9989


--------------------------------------------------------------------------------------------------------


     LOOP+:  cpu time18341.6533: real time18342.5232
    4ORBIT:  cpu time    0.0000: real time    0.0000

 total amount of memory used by VASP MPI-rank0  5486941. kBytes
=======================================================================

   base      :      30000. kBytes
   nonlr-proj:      17126. kBytes
   fftplans  :     924480. kBytes
   grid      :    1872000. kBytes
   one-center:        886. kBytes
   wavefun   :    2642449. kBytes
 
  
  
 General timing and accounting informations for this job:
 ========================================================
  
                  Total CPU time used (sec):    18412.953
                            User time (sec):    17392.528
                          System time (sec):     1020.426
                         Elapsed time (sec):    18413.861
  
                   Maximum memory used (kb):     7179184.
                   Average memory used (kb):           0.
  
                          Minor page faults:    823547984
                          Major page faults:            0
                 Voluntary context switches:          543
