 vasp.5.4.4.18Apr17-6-g9f103f2a35 (build Sep 03 2018 23:53:05) complex          
  
 executed on             LinuxIFC date 2021.11.25  16:48:02
 running on    1 total cores
 distrk:  each k-point on    1 cores,    1 groups
 distr:  one band on NCORES_PER_BAND=   1 cores,    1 groups


--------------------------------------------------------------------------------------------------------


 INCAR:
 POTCAR:    PAW_PBE Pd 04Jan2005                  
 POTCAR:    PAW_PBE C 08Apr2002                   
 POTCAR:    PAW_PBE O 08Apr2002                   
 POTCAR:    PAW_PBE Pd 04Jan2005                  
   VRHFIN =Pd : s1 d9                                                           
   LEXCH  = PE                                                                  
   EATOM  =   809.7530 eV,   59.5152 Ry                                         
                                                                                
   TITEL  = PAW_PBE Pd 04Jan2005                                                
   LULTRA =        F    use ultrasoft PP ?                                      
   IUNSCR =        1    unscreen: 0-lin 1-nonlin 2-no                           
   RPACOR =    2.000    partial core radius                                     
   POMASS =  106.420; ZVAL   =   10.000    mass and valenz                      
   RCORE  =    2.600    outmost cutoff radius                                   
   RWIGS  =    2.710; RWIGS  =    1.434    wigner-seitz radius (au A)           
   ENMAX  =  250.925; ENMIN  =  188.194 eV                                      
   ICORE  =        3    local potential                                         
   LCOR   =        T    correct aug charges                                     
   LPAW   =        T    paw PP                                                  
   EAUG   =  416.230                                                            
   DEXC   =    0.000                                                            
   RMAX   =    2.653    core radius for proj-oper                               
   RAUG   =    1.300    factor for augmentation sphere                          
   RDEP   =    2.734    radius for radial grids                                 
   RDEPT  =    2.103    core radius for aug-charge                              
                                                                                
   Atomic configuration                                                         
   12 entries                                                                   
     n  l   j            E        occ.                                          
     1  0  0.50    -24164.6631   2.0000                                         
     2  0  0.50     -3530.9218   2.0000                                         
     2  1  1.50     -3165.6822   6.0000                                         
     3  0  0.50      -639.4577   2.0000                                         
     3  1  1.50      -519.4532   6.0000                                         
     3  2  2.50      -328.9757  10.0000                                         
     4  0  0.50       -88.7014   2.0000                                         
     4  1  1.50       -54.4540   6.0000                                         
     4  2  2.50        -6.6878   9.0000                                         
     5  0  0.50        -4.3543   1.0000                                         
     5  1  0.50        -1.3606   0.0000                                         
     4  3  2.50        -1.3606   0.0000                                         
   Description                                                                  
     l       E           TYP  RCUT    TYP  RCUT                                 
     2     -6.6878251     23  2.400                                             
     2     -8.0484077     23  2.400                                             
     0     -4.3542939     23  2.400                                             
     0      4.3406793     23  2.400                                             
     1     -4.0817478     23  2.600                                             
     1     15.8380318     23  2.600                                             
     3     -4.0817478     23  2.400                                             
  local pseudopotential read in
  partial core-charges read in
  partial kinetic energy density read in
  atomic valenz-charges read in
  non local Contribution for L=           2  read in
    real space projection operators read in
  non local Contribution for L=           2  read in
    real space projection operators read in
  non local Contribution for L=           0  read in
    real space projection operators read in
  non local Contribution for L=           0  read in
    real space projection operators read in
  non local Contribution for L=           1  read in
    real space projection operators read in
  non local Contribution for L=           1  read in
    real space projection operators read in
    PAW grid and wavefunctions read in
 
   number of l-projection  operators is LMAX  =           6
   number of lm-projection operators is LMMAX =          18
 
 POTCAR:    PAW_PBE C 08Apr2002                   
   VRHFIN =C: s2p2                                                              
   LEXCH  = PE                                                                  
   EATOM  =   147.1560 eV,   10.8157 Ry                                         
                                                                                
   TITEL  = PAW_PBE C 08Apr2002                                                 
   LULTRA =        F    use ultrasoft PP ?                                      
   IUNSCR =        1    unscreen: 0-lin 1-nonlin 2-no                           
   RPACOR =    1.200    partial core radius                                     
   POMASS =   12.011; ZVAL   =    4.000    mass and valenz                      
   RCORE  =    1.500    outmost cutoff radius                                   
   RWIGS  =    1.630; RWIGS  =    0.863    wigner-seitz radius (au A)           
   ENMAX  =  400.000; ENMIN  =  300.000 eV                                      
   ICORE  =        2    local potential                                         
   LCOR   =        T    correct aug charges                                     
   LPAW   =        T    paw PP                                                  
   EAUG   =  644.873                                                            
   DEXC   =    0.000                                                            
   RMAX   =    1.529    core radius for proj-oper                               
   RAUG   =    1.300    factor for augmentation sphere                          
   RDEP   =    1.501    radius for radial grids                                 
   RDEPT  =    1.300    core radius for aug-charge                              
                                                                                
   Atomic configuration                                                         
    4 entries                                                                   
     n  l   j            E        occ.                                          
     1  0  0.50      -273.3789   2.0000                                         
     2  0  0.50       -13.7508   2.0000                                         
     2  1  0.50        -5.2854   2.0000                                         
     3  2  1.50        -5.4423   0.0000                                         
   Description                                                                  
     l       E           TYP  RCUT    TYP  RCUT                                 
     0    -13.7508458     23  1.200                                             
     0     -8.2022199     23  1.200                                             
     1     -5.2854383     23  1.500                                             
     1     34.0145650     23  1.500                                             
     2     -5.4423304      7  1.500                                             
  local pseudopotential read in
  partial core-charges read in
  partial kinetic energy density read in
  atomic valenz-charges read in
  non local Contribution for L=           0  read in
    real space projection operators read in
  non local Contribution for L=           0  read in
    real space projection operators read in
  non local Contribution for L=           1  read in
    real space projection operators read in
  non local Contribution for L=           1  read in
    real space projection operators read in
    PAW grid and wavefunctions read in
 
   number of l-projection  operators is LMAX  =           4
   number of lm-projection operators is LMMAX =           8
 
 POTCAR:    PAW_PBE O 08Apr2002                   
   VRHFIN =O: s2p4                                                              
   LEXCH  = PE                                                                  
   EATOM  =   432.3788 eV,   31.7789 Ry                                         
                                                                                
   TITEL  = PAW_PBE O 08Apr2002                                                 
   LULTRA =        F    use ultrasoft PP ?                                      
   IUNSCR =        1    unscreen: 0-lin 1-nonlin 2-no                           
   RPACOR =    1.200    partial core radius                                     
   POMASS =   16.000; ZVAL   =    6.000    mass and valenz                      
   RCORE  =    1.520    outmost cutoff radius                                   
   RWIGS  =    1.550; RWIGS  =    0.820    wigner-seitz radius (au A)           
   ENMAX  =  400.000; ENMIN  =  300.000 eV                                      
   ICORE  =        2    local potential                                         
   LCOR   =        T    correct aug charges                                     
   LPAW   =        T    paw PP                                                  
   EAUG   =  605.392                                                            
   DEXC   =    0.000                                                            
   RMAX   =    1.553    core radius for proj-oper                               
   RAUG   =    1.300    factor for augmentation sphere                          
   RDEP   =    1.550    radius for radial grids                                 
   RDEPT  =    1.329    core radius for aug-charge                              
                                                                                
   Atomic configuration                                                         
    4 entries                                                                   
     n  l   j            E        occ.                                          
     1  0  0.50      -514.6923   2.0000                                         
     2  0  0.50       -23.9615   2.0000                                         
     2  1  0.50        -9.0305   4.0000                                         
     3  2  1.50        -9.5241   0.0000                                         
   Description                                                                  
     l       E           TYP  RCUT    TYP  RCUT                                 
     0    -23.9615318     23  1.200                                             
     0     -9.5240782     23  1.200                                             
     1     -9.0304911     23  1.520                                             
     1      8.1634956     23  1.520                                             
     2     -9.5240782      7  1.500                                             
  local pseudopotential read in
  partial core-charges read in
  partial kinetic energy density read in
  kinetic energy density of atom read in
  atomic valenz-charges read in
  non local Contribution for L=           0  read in
    real space projection operators read in
  non local Contribution for L=           0  read in
    real space projection operators read in
  non local Contribution for L=           1  read in
    real space projection operators read in
  non local Contribution for L=           1  read in
    real space projection operators read in
    PAW grid and wavefunctions read in
 
   number of l-projection  operators is LMAX  =           4
   number of lm-projection operators is LMMAX =           8
 
 Optimization of the real space projectors (new method)

 maximal supplied QI-value         = 14.36
 optimisation between [QCUT,QGAM] = [ 10.20, 20.39] = [ 29.12,116.47] Ry 
 Optimized for a Real-space Cutoff    1.51 Angstroem

   l    n(q)    QCUT    max X(q) W(low)/X(q) W(high)/X(q)  e(spline) 
   2      8    10.197    59.108    0.26E-03    0.14E-03    0.96E-07
   2      8    10.197    58.101    0.27E-03    0.14E-03    0.98E-07
   0      9    10.197   102.235    0.54E-04    0.60E-05    0.72E-07
   0      9    10.197    58.388    0.52E-04    0.60E-05    0.68E-07
   1      9    10.197    22.191    0.18E-03    0.25E-03    0.79E-07
   1      9    10.197    15.590    0.15E-03    0.21E-03    0.69E-07
 Optimization of the real space projectors (new method)

 maximal supplied QI-value         = 25.13
 optimisation between [QCUT,QGAM] = [ 10.05, 20.36] = [ 28.30,116.06] Ry 
 Optimized for a Real-space Cutoff    1.30 Angstroem

   l    n(q)    QCUT    max X(q) W(low)/X(q) W(high)/X(q)  e(spline) 
   0      8    10.053   115.676    0.49E-03    0.72E-03    0.18E-06
   0      8    10.053    87.132    0.49E-03    0.71E-03    0.18E-06
   1      7    10.053     4.429    0.32E-03    0.31E-03    0.18E-06
   1      7    10.053     2.733    0.23E-03    0.19E-03    0.20E-06
 Optimization of the real space projectors (new method)

 maximal supplied QI-value         = 24.76
 optimisation between [QCUT,QGAM] = [ 10.15, 20.30] = [ 28.85,115.39] Ry 
 Optimized for a Real-space Cutoff    1.38 Angstroem

   l    n(q)    QCUT    max X(q) W(low)/X(q) W(high)/X(q)  e(spline) 
   0      8    10.150    20.381    0.22E-03    0.32E-03    0.29E-06
   0      8    10.150    15.268    0.23E-03    0.35E-03    0.30E-06
   1      8    10.150     5.964    0.46E-03    0.53E-03    0.21E-06
   1      8    10.150     5.382    0.38E-03    0.45E-03    0.19E-06

 ----------------------------------------------------------------------------- 
|                                                                             |
|  ADVICE TO THIS USER RUNNING 'VASP/VAMP'   (HEAR YOUR MASTER'S VOICE ...):  |
|                                                                             |
|      You enforced a specific xc-type in the INCAR file,                     |
|      a different type was found on the POTCAR file                          |
|          I HOPE YOU KNOW, WHAT YOU ARE  DOING                               |
|                                                                             |
 ----------------------------------------------------------------------------- 

  PAW_PBE Pd 04Jan2005                  :
 energy of atom  1       EATOM= -809.7530
 kinetic energy error for atom=    0.0091 (will be added to EATOM!!)
  PAW_PBE C 08Apr2002                   :
 energy of atom  2       EATOM= -147.1560
 kinetic energy error for atom=    0.0288 (will be added to EATOM!!)
  PAW_PBE O 08Apr2002                   :
 energy of atom  3       EATOM= -432.3788
 kinetic energy error for atom=    0.1156 (will be added to EATOM!!)
 
 
 POSCAR: Pd55PES                                 
  positions in cartesian coordinates
  No initial velocities read in
 exchange correlation table for  LEXCH =        9
   RHO(1)=    0.500       N(1)  =     2000
   RHO(2)=  100.500       N(2)  =     4000
 


--------------------------------------------------------------------------------------------------------


 ion  position               nearest neighbor table
   1  0.446  0.328  0.417-   3 3.25   5 3.25   7 3.36  15 3.36  29 3.42  28 3.42
   2  0.672  0.554  0.417-  26 3.25  30 3.25  17 3.36   9 3.36  47 3.42  49 3.42
   3  0.554  0.328  0.417-   1 3.25   5 3.25   7 3.36  11 3.36  29 3.42  21 3.42
   4  0.328  0.554  0.417-  32 3.25  22 3.25  13 3.36   8 3.36  43 3.42  48 3.42
   5  0.500  0.383  0.340-   1 3.25   3 3.25  11 3.36  15 3.36  21 3.42  28 3.42
   6  0.500  0.383  0.660-  24 3.25  19 3.25  16 3.36  12 3.36  42 3.42  44 3.42
   7  0.500  0.276  0.500-  29 3.24   3 3.36   1 3.36  19 3.36  24 3.36
   8  0.276  0.500  0.500-  48 3.24  22 3.36  40 3.36   4 3.36  25 3.36
   9  0.724  0.500  0.500-  49 3.24  26 3.36  45 3.36   2 3.36  20 3.36
  10  0.500  0.724  0.500-  55 3.24  27 3.36  23 3.36  46 3.36  41 3.36
  11  0.612  0.388  0.342-  21 3.24   5 3.36   3 3.36  30 3.36  26 3.36
  12  0.612  0.388  0.658-  42 3.24  24 3.36  45 3.36   6 3.36  31 3.36
  13  0.388  0.612  0.342-  43 3.24  32 3.36  50 3.36   4 3.36  27 3.36
  14  0.388  0.612  0.658-  53 3.24  25 3.36  33 3.36  51 3.36  46 3.36
  15  0.388  0.388  0.342-  28 3.24   5 3.36   1 3.36  32 3.36  22 3.36
  16  0.388  0.388  0.658-  44 3.24  19 3.36  40 3.36   6 3.36  33 3.36
  17  0.612  0.612  0.342-  47 3.24  30 3.36  50 3.36   2 3.36  23 3.36
  18  0.612  0.612  0.658-  54 3.24  31 3.36  20 3.36  51 3.36  41 3.36
  19  0.446  0.328  0.583-   6 3.25  24 3.25  16 3.36   7 3.36  44 3.42  29 3.42
  20  0.672  0.554  0.583-  31 3.25  45 3.25  18 3.36   9 3.36  54 3.42  49 3.42
  21  0.558  0.442  0.418-  11 3.24   5 3.42   3 3.42  30 3.42  26 3.42
  22  0.328  0.446  0.417-   4 3.25  32 3.25   8 3.36  15 3.36  48 3.42  28 3.42
  23  0.554  0.672  0.417-  27 3.25  50 3.25  10 3.36  17 3.36  55 3.42  47 3.42
  24  0.554  0.328  0.583-   6 3.25  19 3.25  12 3.36   7 3.36  42 3.42  29 3.42
  25  0.328  0.554  0.583-  33 3.25  40 3.25  14 3.36   8 3.36  53 3.42  48 3.42
  26  0.672  0.446  0.417-   2 3.25  30 3.25   9 3.36  11 3.36  49 3.42  21 3.42
  27  0.446  0.672  0.417-  23 3.25  50 3.25  10 3.36  13 3.36  55 3.42  43 3.42
  28  0.442  0.442  0.418-  15 3.24   5 3.42   1 3.42  32 3.42  22 3.42
  29  0.500  0.384  0.500-   7 3.24   3 3.42   1 3.42  24 3.42  19 3.42
  30  0.617  0.500  0.340-   2 3.25  26 3.25  17 3.36  11 3.36  47 3.42  21 3.42
  31  0.617  0.500  0.660-  20 3.25  45 3.25  18 3.36  12 3.36  54 3.42  42 3.42
  32  0.383  0.500  0.340-   4 3.25  22 3.25  13 3.36  15 3.36  43 3.42  28 3.42
  33  0.383  0.500  0.660-  25 3.25  40 3.25  14 3.36  16 3.36  53 3.42  44 3.42
  34  0.383  0.383  0.500-
  35  0.617  0.617  0.500-
  36  0.617  0.383  0.500-
  37  0.383  0.617  0.500-
  38  0.500  0.500  0.335-
  39  0.500  0.500  0.665-  56 2.12
  40  0.328  0.446  0.583-  33 3.25  25 3.25  16 3.36   8 3.36  44 3.42  48 3.42
  41  0.554  0.672  0.583-  46 3.25  51 3.25  10 3.36  18 3.36  54 3.42  55 3.42
  42  0.558  0.442  0.582-  12 3.24   6 3.42  24 3.42  31 3.42  45 3.42
  43  0.442  0.558  0.418-  13 3.24   4 3.42  32 3.42  27 3.42  50 3.42
  44  0.442  0.442  0.582-  16 3.24   6 3.42  19 3.42  33 3.42  40 3.42
  45  0.672  0.446  0.583-  20 3.25  31 3.25   9 3.36  12 3.36  49 3.42  42 3.42
  46  0.446  0.672  0.583-  41 3.25  51 3.25  10 3.36  14 3.36  53 3.42  55 3.42
  47  0.558  0.558  0.418-  17 3.24   2 3.42  30 3.42  23 3.42  50 3.42
  48  0.384  0.500  0.500-   8 3.24   4 3.42  22 3.42  25 3.42  40 3.42
  49  0.616  0.500  0.500-   9 3.24   2 3.42  26 3.42  20 3.42  45 3.42
  50  0.500  0.617  0.340-  27 3.25  23 3.25  13 3.36  17 3.36  43 3.42  47 3.42
  51  0.500  0.617  0.660-  41 3.25  46 3.25  14 3.36  18 3.36  53 3.42  54 3.42
  52  0.500  0.500  0.500-
  53  0.442  0.558  0.582-  14 3.24  25 3.42  33 3.42  51 3.42  46 3.42
  54  0.558  0.558  0.582-  18 3.24  31 3.42  20 3.42  51 3.42  41 3.42
  55  0.500  0.616  0.500-  10 3.24  23 3.42  27 3.42  41 3.42  46 3.42
  56  0.493  0.510  0.735-  57 1.13  39 2.12
  57  0.491  0.511  0.772-  56 1.13
 
  LATTYP: Found a simple cubic cell.
 ALAT       =    30.0000000000
  
  Lattice vectors:
  
 A1 = (  30.0000000000,   0.0000000000,   0.0000000000)
 A2 = (   0.0000000000,  30.0000000000,   0.0000000000)
 A3 = (   0.0000000000,   0.0000000000,  30.0000000000)


Analysis of symmetry for initial positions (statically):
=====================================================================
 Subroutine PRICEL returns:
 Original cell was already a primitive cell.
 

 Routine SETGRP: Setting up the symmetry group for a 
 simple cubic supercell.


 Subroutine GETGRP returns: Found  1 space group operations
 (whereof  1 operations were pure point group operations)
 out of a pool of 48 trial point group operations.


The static configuration has the point symmetry C_1 .


Analysis of symmetry for dynamics (positions and initial velocities):
=====================================================================
 Subroutine PRICEL returns:
 Original cell was already a primitive cell.
 

 Routine SETGRP: Setting up the symmetry group for a 
 simple cubic supercell.


 Subroutine GETGRP returns: Found  1 space group operations
 (whereof  1 operations were pure point group operations)
 out of a pool of 48 trial point group operations.


The dynamic configuration has the point symmetry C_1 .


Analysis of constrained symmetry for selective dynamics:
=====================================================================
 Subroutine PRICEL returns:
 Original cell was already a primitive cell.
 

 Routine SETGRP: Setting up the symmetry group for a 
 simple cubic supercell.


 Subroutine GETGRP returns: Found  1 space group operations
 (whereof  1 operations were pure point group operations)
 out of a pool of 48 trial point group operations.


The constrained configuration has the point symmetry C_1 .


 Subroutine INISYM returns: Found  1 space group operations
 (whereof  1 operations are pure point group operations),
 and found     1 'primitive' translations

 
 
 KPOINTS: K-points                                

Automatic generation of k-mesh.
Space group operators:
 irot       det(A)        alpha          n_x          n_y          n_z        tau_x        tau_y        tau_z
    1     1.000000     0.000000     1.000000     0.000000     0.000000     0.000000     0.000000     0.000000
 
 Subroutine IBZKPT returns following result:
 ===========================================
 
 Found      1 irreducible k-points:
 
 Following reciprocal coordinates:
            Coordinates               Weight
  0.000000  0.000000  0.000000      1.000000
 
 Following cartesian coordinates:
            Coordinates               Weight
  0.000000  0.000000  0.000000      1.000000
 


--------------------------------------------------------------------------------------------------------




 Dimension of arrays:
   k-points           NKPTS =      1   k-points in BZ     NKDIM =      1   number of bands    NBANDS=    336
   number of dos      NEDOS =    301   number of ions     NIONS =     57
   non local maximal  LDIM  =      6   non local SUM 2l+1 LMDIM =     18
   total plane-waves  NPLWV = ******
   max r-space proj   IRMAX =   1847   max aug-charges    IRDMAX=   6262
   dimension x,y,z NGX =   150 NGY =  150 NGZ =  150
   dimension x,y,z NGXF=   300 NGYF=  300 NGZF=  300
   support grid    NGXF=   300 NGYF=  300 NGZF=  300
   ions per type =              55   1   1
   NGX,Y,Z   is equivalent  to a cutoff of   8.31,  8.31,  8.31 a.u.
   NGXF,Y,Z  is equivalent  to a cutoff of  16.62, 16.62, 16.62 a.u.

 SYSTEM =  6_Pd100_top_free_z(O)                   
 POSCAR =  Pd55PES                                 

 Startparameter for this run:
   NWRITE =      2    write-flag & timer
   PREC   = normal    normal or accurate (medium, high low for compatibility)
   ISTART =      0    job   : 0-new  1-cont  2-samecut
   ICHARG =      2    charge: 1-file 2-atom 10-const
   ISPIN  =      1    spin polarized calculation?
   LNONCOLLINEAR =      F non collinear calculations
   LSORBIT =      F    spin-orbit coupling
   INIWAV =      1    electr: 0-lowe 1-rand  2-diag
   LASPH  =      F    aspherical Exc in radial PAW
   METAGGA=      F    non-selfconsistent MetaGGA calc.

 Electronic Relaxation 1
   ENCUT  =  400.0 eV  29.40 Ry    5.42 a.u.  48.92 48.92 48.92*2*pi/ulx,y,z
   ENINI  =  400.0     initial cutoff
   ENAUG  =  644.9 eV  augmentation charge cutoff
   NELM   =    100;   NELMIN=  6; NELMDL= -5     # of ELM steps 
   EDIFF  = 0.1E-03   stopping-criterion for ELM
   LREAL  =      T    real-space projection
   NLSPLINE    = F    spline interpolate recip. space projectors
   LCOMPAT=      F    compatible to vasp.4.4
   GGA_COMPAT  = T    GGA compatible to vasp.4.4-vasp.4.6
   LMAXPAW     = -100 max onsite density
   LMAXMIX     =    2 max onsite mixed and CHGCAR
   VOSKOWN=      0    Vosko Wilk Nusair interpolation
   ROPT   =   -0.00050  -0.00050  -0.00050
 Ionic relaxation
   EDIFFG = -.5E-01   stopping-criterion for IOM
   NSW    =      0    number of steps for IOM
   NBLOCK =      1;   KBLOCK =      1    inner block; outer block 
   IBRION =     -1    ionic relax: 0-MD 1-quasi-New 2-CG
   NFREE  =      1    steps in history (QN), initial steepest desc. (CG)
   ISIF   =      2    stress and relaxation
   IWAVPR =     10    prediction:  0-non 1-charg 2-wave 3-comb
   ISYM   =      2    0-nonsym 1-usesym 2-fastsym
   LCORR  =      T    Harris-Foulkes like correction to forces

   POTIM  = 0.5000    time-step for ionic-motion
   TEIN   =    0.0    initial temperature
   TEBEG  =    0.0;   TEEND  =   0.0 temperature during run
   SMASS  =  -3.00    Nose mass-parameter (am)
   estimated Nose-frequenzy (Omega)   =  0.10E-29 period in steps =****** mass=  -0.206E-25a.u.
   SCALEE = 1.0000    scale energy and forces
   NPACO  =    256;   APACO  = 16.0  distance and # of slots for P.C.
   PSTRESS=    0.0 pullay stress

  Mass of Ions in am
   POMASS = 106.42 12.01 16.00
  Ionic Valenz
   ZVAL   =  10.00  4.00  6.00
  Atomic Wigner-Seitz radii
   RWIGS  =  -1.00 -1.00 -1.00
  virtual crystal weights 
   VCA    =   1.00  1.00  1.00
   NELECT =     560.0000    total number of electrons
   NUPDOWN=      -1.0000    fix difference up-down

 DOS related values:
   EMIN   =  10.00;   EMAX   =-10.00  energy-range for DOS
   EFERMI =   0.00
   ISMEAR =     2;   SIGMA  =   0.20  broadening in eV -4-tet -1-fermi 0-gaus

 Electronic relaxation 2 (details)
   IALGO  =     68    algorithm
   LDIAG  =      T    sub-space diagonalisation (order eigenvalues)
   LSUBROT=      F    optimize rotation matrix (better conditioning)
   TURBO    =      0    0=normal 1=particle mesh
   IRESTART =      0    0=no restart 2=restart with 2 vectors
   NREBOOT  =      0    no. of reboots
   NMIN     =      0    reboot dimension
   EREF     =   0.00    reference energy to select bands
   IMIX   =      4    mixing-type and parameters
     AMIX     =   0.40;   BMIX     =  1.00
     AMIX_MAG =   1.60;   BMIX_MAG =  1.00
     AMIN     =   0.10
     WC   =   100.;   INIMIX=   1;  MIXPRE=   1;  MAXMIX= -45

 Intra band minimization:
   WEIMIN = 0.0000     energy-eigenvalue tresh-hold
   EBREAK =  0.74E-07  absolut break condition
   DEPER  =   0.30     relativ break condition  

   TIME   =   0.40     timestep for ELM

  volume/ion in A,a.u.               =     473.68      3196.58
  Fermi-wavevector in a.u.,A,eV,Ry     =   0.449797  0.849992  2.752691  0.202317
  Thomas-Fermi vector in A             =   1.430086
 
 Write flags
   LWAVE        =      F    write WAVECAR
   LDOWNSAMPLE  =      F    k-point downsampling of WAVECAR
   LCHARG       =      F    write CHGCAR
   LVTOT        =      F    write LOCPOT, total local potential
   LVHAR        =      F    write LOCPOT, Hartree potential only
   LELF         =      F    write electronic localiz. function (ELF)
   LORBIT       =      0    0 simple, 1 ext, 2 COOP (PROOUT), +10 PAW based schemes


 Dipole corrections
   LMONO  =      F    monopole corrections only (constant potential shift)
   LDIPOL =      F    correct potential (dipole corrections)
   IDIPOL =      0    1-x, 2-y, 3-z, 4-all directions 
   EPSILON=  1.0000000 bulk dielectric constant

 Exchange correlation treatment:
   GGA     =    RP    GGA type
   LEXCH   =     9    internal setting for exchange type
   VOSKOWN=      0    Vosko Wilk Nusair interpolation
   LHFCALC =     F    Hartree Fock is set to
   LHFONE  =     F    Hartree Fock one center treatment
   AEXX    =    0.0000 exact exchange contribution

 Linear response parameters
   LEPSILON=     F    determine dielectric tensor
   LRPA    =     F    only Hartree local field effects (RPA)
   LNABLA  =     F    use nabla operator in PAW spheres
   LVEL    =     F    velocity operator in full k-point grid
   LINTERFAST=   F  fast interpolation
   KINTER  =     0    interpolate to denser k-point grid
   CSHIFT  =0.1000    complex shift for real part using Kramers Kronig
   OMEGAMAX=  -1.0    maximum frequency
   DEG_THRESHOLD= 0.2000000E-02 threshold for treating states as degnerate
   RTIME   =   -0.100 relaxation time in fs
  (WPLASMAI=    0.000 imaginary part of plasma frequency in eV, 0.658/RTIME)
   DFIELD  = 0.0000000 0.0000000 0.0000000 field for delta impulse in time
 
 Orbital magnetization related:
   ORBITALMAG=     F  switch on orbital magnetization
   LCHIMAG   =     F  perturbation theory with respect to B field
   DQ        =  0.001000  dq finite difference perturbation B field
   LLRAUG    =     F  two centre corrections for induced B field



--------------------------------------------------------------------------------------------------------


 Static calculation
 charge density and potential will be updated during run
 non-spin polarized calculation
 RMM-DIIS sequential band-by-band and
  variant of blocked Davidson during initial phase
 perform sub-space diagonalisation
    before iterative eigenvector-optimisation
 modified Broyden-mixing scheme, WC =      100.0
 initial mixing is a Kerker type mixing with AMIX =  0.4000 and BMIX =      1.0000
 Hartree-type preconditioning will be used
 using additional bands           56
 real space projection scheme for non local part
 use partial core corrections
 calculate Harris-corrections to forces 
   (improved forces if not selfconsistent)
 use gradient corrections 
 use of overlap-Matrix (Vanderbilt PP)
 Methfessel and Paxton  Order N= 2 SIGMA  =   0.20


--------------------------------------------------------------------------------------------------------


  energy-cutoff  :      400.00
  volume of cell :    27000.00
      direct lattice vectors                 reciprocal lattice vectors
    30.000000000  0.000000000  0.000000000     0.033333333  0.000000000  0.000000000
     0.000000000 30.000000000  0.000000000     0.000000000  0.033333333  0.000000000
     0.000000000  0.000000000 30.000000000     0.000000000  0.000000000  0.033333333

  length of vectors
    30.000000000 30.000000000 30.000000000     0.033333333  0.033333333  0.033333333


 
 k-points in units of 2pi/SCALE and weight: K-points                                
   0.00000000  0.00000000  0.00000000       1.000
 
 k-points in reciprocal lattice and weights: K-points                                
   0.00000000  0.00000000  0.00000000       1.000
 
 position of ions in fractional coordinates (direct lattice) 
   0.44576020  0.32826710  0.41691983
   0.67173288  0.55423978  0.41691983
   0.55423980  0.32826710  0.41691983
   0.32826712  0.55423978  0.41691983
   0.50000000  0.38250690  0.34021317
   0.50000000  0.38250690  0.65978680
   0.50000000  0.27609440  0.50000000
   0.27609443  0.49999998  0.50000000
   0.72390557  0.49999998  0.50000000
   0.50000000  0.72390555  0.50000000
   0.61195280  0.38804720  0.34167483
   0.61195280  0.38804720  0.65832513
   0.38804722  0.61195278  0.34167483
   0.38804722  0.61195278  0.65832513
   0.38804720  0.38804720  0.34167483
   0.38804720  0.38804720  0.65832513
   0.61195278  0.61195278  0.34167483
   0.61195278  0.61195278  0.65832513
   0.44576020  0.32826710  0.58308023
   0.67173288  0.55423978  0.58308023
   0.55791699  0.44208301  0.41809300
   0.32826705  0.44576024  0.41691983
   0.55423973  0.67173293  0.41691983
   0.55423980  0.32826710  0.58308023
   0.32826712  0.55423978  0.58308023
   0.67173295  0.44576024  0.41691983
   0.44576027  0.67173293  0.41691983
   0.44208301  0.44208301  0.41809300
   0.50000000  0.38416601  0.50000000
   0.61749315  0.50000005  0.34021317
   0.61749315  0.50000005  0.65978680
   0.38250685  0.50000005  0.34021317
   0.38250685  0.50000005  0.65978680
   0.38317830  0.38317830  0.50000000
   0.61682172  0.61682172  0.50000000
   0.61682170  0.38317830  0.50000000
   0.38317828  0.61682172  0.50000000
   0.50000000  0.50000000  0.33478917
   0.50000000  0.50000000  0.66521087
   0.32826705  0.44576024  0.58308023
   0.55423973  0.67173293  0.58308023
   0.55791699  0.44208301  0.58190703
   0.44208298  0.55791702  0.41809300
   0.44208301  0.44208301  0.58190703
   0.67173295  0.44576024  0.58308023
   0.44576027  0.67173293  0.58308023
   0.55791702  0.55791702  0.41809300
   0.38416599  0.50000002  0.50000000
   0.61583401  0.50000002  0.50000000
   0.50000000  0.61749319  0.34021317
   0.50000000  0.61749319  0.65978680
   0.50000000  0.50000000  0.50000000
   0.44208298  0.55791702  0.58190703
   0.55791702  0.55791702  0.58190703
   0.50000000  0.61583404  0.50000000
   0.49258640  0.50951193  0.73488883
   0.49140123  0.51103257  0.77243937
 
 position of ions in cartesian coordinates  (Angst):
  13.37280588  9.84801292 12.50759500
  20.15198637 16.62719342 12.50759500
  16.62719412  9.84801292 12.50759500
   9.84801363 16.62719342 12.50759500
  15.00000000 11.47520705 10.20639500
  15.00000000 11.47520705 19.79360400
  15.00000000  8.28283206 15.00000000
   8.28283277 14.99999929 15.00000000
  21.71716723 14.99999929 15.00000000
  15.00000000 21.71716652 14.99999999
  18.35858397 11.64141603 10.25024500
  18.35858397 11.64141603 19.74975399
  11.64141674 18.35858326 10.25024500
  11.64141674 18.35858326 19.74975400
  11.64141603 11.64141603 10.25024500
  11.64141603 11.64141603 19.74975400
  18.35858326 18.35858326 10.25024500
  18.35858326 18.35858326 19.74975400
  13.37280588  9.84801291 17.49240700
  20.15198638 16.62719341 17.49240700
  16.73750985 13.26249015 12.54279000
   9.84801151 13.37280729 12.50759500
  16.62719200 20.15198779 12.50759500
  16.62719412  9.84801292 17.49240700
   9.84801363 16.62719342 17.49240700
  20.15198849 13.37280729 12.50759500
  13.37280800 20.15198779 12.50759500
  13.26249015 13.26249015 12.54279000
  15.00000000 11.52498029 15.00000000
  18.52479437 15.00000140 10.20639500
  18.52479437 15.00000141 19.79360400
  11.47520562 15.00000141 10.20639501
  11.47520563 15.00000141 19.79360400
  11.49534898 11.49534898 15.00000000
  18.50465172 18.50465172 15.00000000
  18.50465102 11.49534898 15.00000000
  11.49534828 18.50465172 15.00000000
  15.00000000 15.00000000 10.04367500
  15.00000000 15.00000000 19.95632599
   9.84801151 13.37280729 17.49240700
  16.62719200 20.15198779 17.49240700
  16.73750985 13.26249015 17.45721100
  13.26248944 16.73751056 12.54279001
  13.26249015 13.26249015 17.45721100
  20.15198849 13.37280729 17.49240699
  13.37280800 20.15198779 17.49240700
  16.73751056 16.73751056 12.54279000
  11.52497959 15.00000071 15.00000000
  18.47502041 15.00000071 15.00000000
  14.99999999 18.52479579 10.20639500
  15.00000000 18.52479578 19.79360400
  15.00000000 15.00000000 15.00000000
  13.26248944 16.73751057 17.45721101
  16.73751056 16.73751057 17.45721100
  15.00000000 18.47502112 15.00000000
  14.77759200 15.28535800 22.04666500
  14.74203700 15.33097700 23.17318100
 


--------------------------------------------------------------------------------------------------------


 k-point  1 :   0.0000 0.0000 0.0000  plane waves:  490521

 maximum and minimum number of plane-waves per node :    490521   490521

 maximum number of plane-waves:    490521
 maximum index in each direction: 
   IXMAX=   48   IYMAX=   48   IZMAX=   48
   IXMIN=  -48   IYMIN=  -48   IZMIN=  -48


 serial   3D FFT for wavefunctions
 parallel 3D FFT for charge:
    minimum data exchange during FFTs selected (reduces bandwidth)


 total amount of memory used by VASP MPI-rank0  5486941. kBytes
=======================================================================

   base      :      30000. kBytes
   nonlr-proj:      17126. kBytes
   fftplans  :     924480. kBytes
   grid      :    1872000. kBytes
   one-center:        886. kBytes
   wavefun   :    2642449. kBytes
 
     INWAV:  cpu time    0.0001: real time    0.0003
 Broyden mixing: mesh for mixing (old mesh)
   NGX = 97   NGY = 97   NGZ = 97
  (NGX  =300   NGY  =300   NGZ  =300)
  gives a total of 912673 points

 initial charge density was supplied:
 charge density of overlapping atoms calculated
 number of electron     560.0000000 magnetization 
 keeping initial charge density in first step


--------------------------------------------------------------------------------------------------------


 Maximum index for non-local projection operator         1763
 Maximum index for augmentation-charges         5898 (set IRDMAX)


--------------------------------------------------------------------------------------------------------


 First call to EWALD:  gamma=   0.059
 Maximum number of real-space cells 3x 3x 3
 Maximum number of reciprocal cells 3x 3x 3

    FEWALD:  cpu time    0.0153: real time    0.0153


--------------------------------------- Iteration      1(   1)  ---------------------------------------


    POTLOK:  cpu time   13.9377: real time   13.9417
    SETDIJ:  cpu time    0.1170: real time    0.1170
     EDDAV:  cpu time  359.4640: real time  359.5262
       DOS:  cpu time    0.0013: real time    0.0013
    --------------------------------------------
      LOOP:  cpu time  373.5200: real time  373.5862

 eigenvalue-minimisations  :   688
 total energy-change (2. order) : 0.4386862E+04  (-0.1004863E+05)
 number of electron     560.0000000 magnetization 
 augmentation part      560.0000000 magnetization 

 Free energy of the ion-electron system (eV)
  ---------------------------------------------------
  alpha Z        PSCENC =        75.25431677
  Ewald energy   TEWEN  =    138411.29712980
  -Hartree energ DENC   =   -181775.42408543
  -exchange      EXHF   =         0.00000000
  -V(xc)+E(xc)   XCENC  =     -1703.45764465
  PAW double counting   =     44873.02882129   -41398.84523641
  entropy T*S    EENTRO =         0.00347701
  eigenvalues    EBANDS =       818.50017973
  atomic energy  EATOM  =     45086.50549395
  Solvation  Ediel_sol  =         0.00000000
  ---------------------------------------------------
  free energy    TOTEN  =      4386.86245207 eV

  energy without entropy =     4386.85897506  energy(sigma->0) =     4386.86158281


--------------------------------------------------------------------------------------------------------




--------------------------------------- Iteration      1(   2)  ---------------------------------------


     EDDAV:  cpu time  571.4899: real time  571.4957
       DOS:  cpu time    0.0012: real time    0.0012
    --------------------------------------------
      LOOP:  cpu time  571.4912: real time  571.4969

 eigenvalue-minimisations  :  1208
 total energy-change (2. order) :-0.2356935E+04  (-0.2115619E+04)
 number of electron     560.0000000 magnetization 
 augmentation part      560.0000000 magnetization 

 Free energy of the ion-electron system (eV)
  ---------------------------------------------------
  alpha Z        PSCENC =        75.25431677
  Ewald energy   TEWEN  =    138411.29712980
  -Hartree energ DENC   =   -181775.42408543
  -exchange      EXHF   =         0.00000000
  -V(xc)+E(xc)   XCENC  =     -1703.45764465
  PAW double counting   =     44873.02882129   -41398.84523641
  entropy T*S    EENTRO =         0.00883957
  eigenvalues    EBANDS =     -1538.44011308
  atomic energy  EATOM  =     45086.50549395
  Solvation  Ediel_sol  =         0.00000000
  ---------------------------------------------------
  free energy    TOTEN  =      2029.92752182 eV

  energy without entropy =     2029.91868224  energy(sigma->0) =     2029.92531192


--------------------------------------------------------------------------------------------------------




--------------------------------------- Iteration      1(   3)  ---------------------------------------


     EDDAV:  cpu time  486.7110: real time  486.7173
       DOS:  cpu time    0.0011: real time    0.0011
    --------------------------------------------
      LOOP:  cpu time  486.7121: real time  486.7184

 eigenvalue-minimisations  :  1008
 total energy-change (2. order) :-0.1790567E+04  (-0.1682259E+04)
 number of electron     560.0000000 magnetization 
 augmentation part      560.0000000 magnetization 

 Free energy of the ion-electron system (eV)
  ---------------------------------------------------
  alpha Z        PSCENC =        75.25431677
  Ewald energy   TEWEN  =    138411.29712980
  -Hartree energ DENC   =   -181775.42408543
  -exchange      EXHF   =         0.00000000
  -V(xc)+E(xc)   XCENC  =     -1703.45764465
  PAW double counting   =     44873.02882129   -41398.84523641
  entropy T*S    EENTRO =         0.01938795
  eigenvalues    EBANDS =     -3329.01800675
  atomic energy  EATOM  =     45086.50549395
  Solvation  Ediel_sol  =         0.00000000
  ---------------------------------------------------
  free energy    TOTEN  =       239.36017652 eV

  energy without entropy =      239.34078858  energy(sigma->0) =      239.35532954


--------------------------------------------------------------------------------------------------------




--------------------------------------- Iteration      1(   4)  ---------------------------------------


     EDDAV:  cpu time  416.8748: real time  416.8769
       DOS:  cpu time    0.0011: real time    0.0011
    --------------------------------------------
      LOOP:  cpu time  416.8760: real time  416.8780

 eigenvalue-minimisations  :   832
 total energy-change (2. order) :-0.3733332E+03  (-0.3181181E+03)
 number of electron     560.0000000 magnetization 
 augmentation part      560.0000000 magnetization 

 Free energy of the ion-electron system (eV)
  ---------------------------------------------------
  alpha Z        PSCENC =        75.25431677
  Ewald energy   TEWEN  =    138411.29712980
  -Hartree energ DENC   =   -181775.42408543
  -exchange      EXHF   =         0.00000000
  -V(xc)+E(xc)   XCENC  =     -1703.45764465
  PAW double counting   =     44873.02882129   -41398.84523641
  entropy T*S    EENTRO =        -0.02812915
  eigenvalues    EBANDS =     -3702.30364621
  atomic energy  EATOM  =     45086.50549395
  Solvation  Ediel_sol  =         0.00000000
  ---------------------------------------------------
  free energy    TOTEN  =      -133.97298003 eV

  energy without entropy =     -133.94485089  energy(sigma->0) =     -133.96594775


--------------------------------------------------------------------------------------------------------




--------------------------------------- Iteration      1(   5)  ---------------------------------------


     EDDAV:  cpu time  505.8194: real time  505.8229
       DOS:  cpu time    0.0014: real time    0.0014
    CHARGE:  cpu time   25.5075: real time   25.5075
    MIXING:  cpu time    0.4314: real time    0.4314
    --------------------------------------------
      LOOP:  cpu time  531.7597: real time  531.7631

 eigenvalue-minimisations  :  1056
 total energy-change (2. order) :-0.4553210E+02  (-0.3712396E+02)
 number of electron     559.9999847 magnetization 
 augmentation part      245.1091269 magnetization 

 Broyden mixing:
  rms(total) = 0.14751E+01    rms(broyden)= 0.14742E+01
  rms(prec ) = 0.15800E+01
  weight for this iteration     100.00

 Free energy of the ion-electron system (eV)
  ---------------------------------------------------
  alpha Z        PSCENC =        75.25431677
  Ewald energy   TEWEN  =    138411.29712980
  -Hartree energ DENC   =   -181775.42408543
  -exchange      EXHF   =         0.00000000
  -V(xc)+E(xc)   XCENC  =     -1703.45764465
  PAW double counting   =     44873.02882129   -41398.84523641
  entropy T*S    EENTRO =         0.48735651
  eigenvalues    EBANDS =     -3748.35123659
  atomic energy  EATOM  =     45086.50549395
  Solvation  Ediel_sol  =         0.00000000
  ---------------------------------------------------
  free energy    TOTEN  =      -179.50508476 eV

  energy without entropy =     -179.99244127  energy(sigma->0) =     -179.62692389


--------------------------------------------------------------------------------------------------------




--------------------------------------- Iteration      1(   6)  ---------------------------------------


    POTLOK:  cpu time   12.4682: real time   12.4689
    SETDIJ:  cpu time    0.1182: real time    0.1182
    EDDIAG:  cpu time   65.8618: real time   65.8620
  RMM-DIIS:  cpu time  202.9199: real time  202.9217
    ORTHCH:  cpu time   13.0334: real time   13.0334
       DOS:  cpu time    0.0014: real time    0.0014
    CHARGE:  cpu time   25.5562: real time   25.5563
    MIXING:  cpu time    0.4497: real time    0.4497
    --------------------------------------------
      LOOP:  cpu time  320.4088: real time  320.4117

 eigenvalue-minimisations  :   729
 total energy-change (2. order) :-0.8209449E+00  (-0.6055235E+01)
 number of electron     559.9999852 magnetization 
 augmentation part      240.4779467 magnetization 

 Broyden mixing:
  rms(total) = 0.23181E+01    rms(broyden)= 0.23179E+01
  rms(prec ) = 0.26818E+01
  weight for this iteration     100.00

 eigenvalues of (default mixing * dielectric matrix)
  average eigenvalue GAMMA=   0.3289
  0.3289

 Free energy of the ion-electron system (eV)
  ---------------------------------------------------
  alpha Z        PSCENC =        75.25431677
  Ewald energy   TEWEN  =    138411.29712980
  -Hartree energ DENC   =   -182172.25592277
  -exchange      EXHF   =         0.00000000
  -V(xc)+E(xc)   XCENC  =     -1697.16773574
  PAW double counting   =     45628.14520866   -42127.24606298
  entropy T*S    EENTRO =        -0.27022748
  eigenvalues    EBANDS =     -3384.58822990
  atomic energy  EATOM  =     45086.50549395
  Solvation  Ediel_sol  =         0.00000000
  ---------------------------------------------------
  free energy    TOTEN  =      -180.32602968 eV

  energy without entropy =     -180.05580221  energy(sigma->0) =     -180.25847281


--------------------------------------------------------------------------------------------------------




--------------------------------------- Iteration      1(   7)  ---------------------------------------


    POTLOK:  cpu time   12.6507: real time   12.6515
    SETDIJ:  cpu time    0.1222: real time    0.1222
    EDDIAG:  cpu time   66.3057: real time   66.3085
  RMM-DIIS:  cpu time  236.4474: real time  236.4500
    ORTHCH:  cpu time   13.1993: real time   13.1993
       DOS:  cpu time    0.0015: real time    0.0015
    CHARGE:  cpu time   25.3708: real time   25.3707
    MIXING:  cpu time    0.4813: real time    0.4813
    --------------------------------------------
      LOOP:  cpu time  354.5789: real time  354.5850

 eigenvalue-minimisations  :   848
 total energy-change (2. order) :-0.1849011E+01  (-0.2003514E+01)
 number of electron     559.9999822 magnetization 
 augmentation part      240.3893710 magnetization 

 Broyden mixing:
  rms(total) = 0.22192E+01    rms(broyden)= 0.22189E+01
  rms(prec ) = 0.27200E+01
  weight for this iteration     100.00

 eigenvalues of (default mixing * dielectric matrix)
  average eigenvalue GAMMA=   0.3064
  0.4592  0.1536

 Free energy of the ion-electron system (eV)
  ---------------------------------------------------
  alpha Z        PSCENC =        75.25431677
  Ewald energy   TEWEN  =    138411.29712980
  -Hartree energ DENC   =   -182260.22280842
  -exchange      EXHF   =         0.00000000
  -V(xc)+E(xc)   XCENC  =     -1697.41065289
  PAW double counting   =     45691.95408518   -42188.62073224
  entropy T*S    EENTRO =        -0.13560057
  eigenvalues    EBANDS =     -3300.79627209
  atomic energy  EATOM  =     45086.50549395
  Solvation  Ediel_sol  =         0.00000000
  ---------------------------------------------------
  free energy    TOTEN  =      -182.17504052 eV

  energy without entropy =     -182.03943996  energy(sigma->0) =     -182.14114038


--------------------------------------------------------------------------------------------------------




--------------------------------------- Iteration      1(   8)  ---------------------------------------


    POTLOK:  cpu time   12.7666: real time   12.7674
    SETDIJ:  cpu time    0.1189: real time    0.1189
    EDDIAG:  cpu time   66.3456: real time   66.3458
  RMM-DIIS:  cpu time  225.3152: real time  225.3170
    ORTHCH:  cpu time   13.2208: real time   13.2208
       DOS:  cpu time    0.0014: real time    0.0014
    CHARGE:  cpu time   25.1688: real time   25.1688
    MIXING:  cpu time    0.5092: real time    0.5092
    --------------------------------------------
      LOOP:  cpu time  343.4463: real time  343.4491

 eigenvalue-minimisations  :   811
 total energy-change (2. order) :-0.1341153E+01  (-0.6470906E+00)
 number of electron     559.9999846 magnetization 
 augmentation part      240.1381316 magnetization 

 Broyden mixing:
  rms(total) = 0.26609E+01    rms(broyden)= 0.26606E+01
  rms(prec ) = 0.31387E+01
  weight for this iteration     100.00

 eigenvalues of (default mixing * dielectric matrix)
  average eigenvalue GAMMA=   0.2879
  0.5954  0.1473  0.1209

 Free energy of the ion-electron system (eV)
  ---------------------------------------------------
  alpha Z        PSCENC =        75.25431677
  Ewald energy   TEWEN  =    138411.29712980
  -Hartree energ DENC   =   -182303.32526707
  -exchange      EXHF   =         0.00000000
  -V(xc)+E(xc)   XCENC  =     -1697.44553314
  PAW double counting   =     45745.67692179   -42240.15923208
  entropy T*S    EENTRO =        -0.10690452
  eigenvalues    EBANDS =     -3261.21311863
  atomic energy  EATOM  =     45086.50549395
  Solvation  Ediel_sol  =         0.00000000
  ---------------------------------------------------
  free energy    TOTEN  =      -183.51619312 eV

  energy without entropy =     -183.40928860  energy(sigma->0) =     -183.48946699


--------------------------------------------------------------------------------------------------------




--------------------------------------- Iteration      1(   9)  ---------------------------------------


    POTLOK:  cpu time   12.8692: real time   12.8702
    SETDIJ:  cpu time    0.1208: real time    0.1208
    EDDIAG:  cpu time   66.4277: real time   66.4279
  RMM-DIIS:  cpu time  202.1478: real time  202.1506
    ORTHCH:  cpu time   13.3024: real time   13.3025
       DOS:  cpu time    0.0015: real time    0.0015
    CHARGE:  cpu time   25.2600: real time   25.2600
    MIXING:  cpu time    0.5374: real time    0.5374
    --------------------------------------------
      LOOP:  cpu time  320.6669: real time  320.6709

 eigenvalue-minimisations  :   729
 total energy-change (2. order) : 0.1990717E+01  (-0.5104864E+00)
 number of electron     559.9999845 magnetization 
 augmentation part      241.0122103 magnetization 

 Broyden mixing:
  rms(total) = 0.23334E+01    rms(broyden)= 0.23331E+01
  rms(prec ) = 0.27167E+01
  weight for this iteration     100.00

 eigenvalues of (default mixing * dielectric matrix)
  average eigenvalue GAMMA=   0.2780
  0.6960  0.1585  0.1585  0.0990

 Free energy of the ion-electron system (eV)
  ---------------------------------------------------
  alpha Z        PSCENC =        75.25431677
  Ewald energy   TEWEN  =    138411.29712980
  -Hartree energ DENC   =   -182315.60488082
  -exchange      EXHF   =         0.00000000
  -V(xc)+E(xc)   XCENC  =     -1697.41737248
  PAW double counting   =     45797.36953095   -42289.72937839
  entropy T*S    EENTRO =        -0.06008907
  eigenvalues    EBANDS =     -3249.14022634
  atomic energy  EATOM  =     45086.50549395
  Solvation  Ediel_sol  =         0.00000000
  ---------------------------------------------------
  free energy    TOTEN  =      -181.52547563 eV

  energy without entropy =     -181.46538656  energy(sigma->0) =     -181.51045336


--------------------------------------------------------------------------------------------------------




--------------------------------------- Iteration      1(  10)  ---------------------------------------


    POTLOK:  cpu time   12.7771: real time   12.7778
    SETDIJ:  cpu time    0.1201: real time    0.1201
    EDDIAG:  cpu time   66.3481: real time   66.3483
  RMM-DIIS:  cpu time  202.4419: real time  202.4436
    ORTHCH:  cpu time   13.2285: real time   13.2285
       DOS:  cpu time    0.0015: real time    0.0015
    CHARGE:  cpu time   25.2307: real time   25.2307
    MIXING:  cpu time    0.5517: real time    0.5517
    --------------------------------------------
      LOOP:  cpu time  320.6996: real time  320.7023

 eigenvalue-minimisations  :   733
 total energy-change (2. order) : 0.1466833E+01  (-0.3156232E+00)
 number of electron     559.9999846 magnetization 
 augmentation part      241.2841163 magnetization 

 Broyden mixing:
  rms(total) = 0.23130E+01    rms(broyden)= 0.23127E+01
  rms(prec ) = 0.27678E+01
  weight for this iteration     100.00

 eigenvalues of (default mixing * dielectric matrix)
  average eigenvalue GAMMA=   0.2602
  0.7622  0.1748  0.1748  0.1063  0.0830

 Free energy of the ion-electron system (eV)
  ---------------------------------------------------
  alpha Z        PSCENC =        75.25431677
  Ewald energy   TEWEN  =    138411.29712980
  -Hartree energ DENC   =   -182342.59901427
  -exchange      EXHF   =         0.00000000
  -V(xc)+E(xc)   XCENC  =     -1697.27353746
  PAW double counting   =     45842.55771910   -42333.08739675
  entropy T*S    EENTRO =        -0.05188807
  eigenvalues    EBANDS =     -3222.66146561
  atomic energy  EATOM  =     45086.50549395
  Solvation  Ediel_sol  =         0.00000000
  ---------------------------------------------------
  free energy    TOTEN  =      -180.05864254 eV

  energy without entropy =     -180.00675447  energy(sigma->0) =     -180.04567052


--------------------------------------------------------------------------------------------------------




--------------------------------------- Iteration      1(  11)  ---------------------------------------


    POTLOK:  cpu time   12.8167: real time   12.8175
    SETDIJ:  cpu time    0.1207: real time    0.1206
    EDDIAG:  cpu time   66.6586: real time   66.6598
  RMM-DIIS:  cpu time  203.1211: real time  203.1239
    ORTHCH:  cpu time   13.4915: real time   13.4916
       DOS:  cpu time    0.0015: real time    0.0015
    CHARGE:  cpu time   25.0244: real time   25.0246
    MIXING:  cpu time    0.5711: real time    0.5711
    --------------------------------------------
      LOOP:  cpu time  321.8055: real time  321.8106

 eigenvalue-minimisations  :   738
 total energy-change (2. order) : 0.1159425E+01  (-0.1845563E+00)
 number of electron     559.9999860 magnetization 
 augmentation part      241.4329377 magnetization 

 Broyden mixing:
  rms(total) = 0.20252E+01    rms(broyden)= 0.20248E+01
  rms(prec ) = 0.24024E+01
  weight for this iteration     100.00

 eigenvalues of (default mixing * dielectric matrix)
  average eigenvalue GAMMA=   0.2503
  0.8345  0.1917  0.1917  0.1271  0.0834  0.0734

 Free energy of the ion-electron system (eV)
  ---------------------------------------------------
  alpha Z        PSCENC =        75.25431677
  Ewald energy   TEWEN  =    138411.29712980
  -Hartree energ DENC   =   -182361.02685872
  -exchange      EXHF   =         0.00000000
  -V(xc)+E(xc)   XCENC  =     -1697.13878852
  PAW double counting   =     45873.92129984   -42363.06537636
  entropy T*S    EENTRO =        -0.07054164
  eigenvalues    EBANDS =     -3204.57589229
  atomic energy  EATOM  =     45086.50549395
  Solvation  Ediel_sol  =         0.00000000
  ---------------------------------------------------
  free energy    TOTEN  =      -178.89921718 eV

  energy without entropy =     -178.82867554  energy(sigma->0) =     -178.88158177


--------------------------------------------------------------------------------------------------------




--------------------------------------- Iteration      1(  12)  ---------------------------------------


    POTLOK:  cpu time   12.9309: real time   12.9317
    SETDIJ:  cpu time    0.1211: real time    0.1211
    EDDIAG:  cpu time   66.6838: real time   66.6844
  RMM-DIIS:  cpu time  199.6005: real time  199.6104
    ORTHCH:  cpu time   13.4577: real time   13.4577
       DOS:  cpu time    0.0015: real time    0.0015
    CHARGE:  cpu time   25.2464: real time   25.2463
    MIXING:  cpu time    0.6160: real time    0.6159
    --------------------------------------------
      LOOP:  cpu time  318.6577: real time  318.6691

 eigenvalue-minimisations  :   725
 total energy-change (2. order) : 0.1377578E+01  (-0.1584772E+00)
 number of electron     559.9999860 magnetization 
 augmentation part      241.5839310 magnetization 

 Broyden mixing:
  rms(total) = 0.15596E+01    rms(broyden)= 0.15593E+01
  rms(prec ) = 0.18356E+01
  weight for this iteration     100.00

 eigenvalues of (default mixing * dielectric matrix)
  average eigenvalue GAMMA=   0.2506
  0.9132  0.2277  0.2277  0.1070  0.1070  0.1091  0.0624

 Free energy of the ion-electron system (eV)
  ---------------------------------------------------
  alpha Z        PSCENC =        75.25431677
  Ewald energy   TEWEN  =    138411.29712980
  -Hartree energ DENC   =   -182379.86886889
  -exchange      EXHF   =         0.00000000
  -V(xc)+E(xc)   XCENC  =     -1696.92851631
  PAW double counting   =     45907.11637603   -42394.79613358
  entropy T*S    EENTRO =        -0.04841834
  eigenvalues    EBANDS =     -3186.05301883
  atomic energy  EATOM  =     45086.50549395
  Solvation  Ediel_sol  =         0.00000000
  ---------------------------------------------------
  free energy    TOTEN  =      -177.52163939 eV

  energy without entropy =     -177.47322105  energy(sigma->0) =     -177.50953481


--------------------------------------------------------------------------------------------------------




--------------------------------------- Iteration      1(  13)  ---------------------------------------


    POTLOK:  cpu time   12.8630: real time   12.8638
    SETDIJ:  cpu time    0.1207: real time    0.1207
    EDDIAG:  cpu time   66.6831: real time   66.6834
  RMM-DIIS:  cpu time  200.0963: real time  200.1066
    ORTHCH:  cpu time   13.4294: real time   13.4293
       DOS:  cpu time    0.0014: real time    0.0014
    CHARGE:  cpu time   25.0112: real time   25.0111
    MIXING:  cpu time    0.6556: real time    0.6556
    --------------------------------------------
      LOOP:  cpu time  318.8608: real time  318.8720

 eigenvalue-minimisations  :   720
 total energy-change (2. order) : 0.6907561E+00  (-0.1307609E+00)
 number of electron     559.9999845 magnetization 
 augmentation part      241.6258864 magnetization 

 Broyden mixing:
  rms(total) = 0.14202E+01    rms(broyden)= 0.14199E+01
  rms(prec ) = 0.17305E+01
  weight for this iteration     100.00

 eigenvalues of (default mixing * dielectric matrix)
  average eigenvalue GAMMA=   0.2574
  0.9886  0.2812  0.2812  0.1415  0.1415  0.0847  0.0847  0.0559

 Free energy of the ion-electron system (eV)
  ---------------------------------------------------
  alpha Z        PSCENC =        75.25431677
  Ewald energy   TEWEN  =    138411.29712980
  -Hartree energ DENC   =   -182402.94927269
  -exchange      EXHF   =         0.00000000
  -V(xc)+E(xc)   XCENC  =     -1696.65372741
  PAW double counting   =     45944.08787521   -42430.00484676
  entropy T*S    EENTRO =        -0.10294150
  eigenvalues    EBANDS =     -3164.26491063
  atomic energy  EATOM  =     45086.50549395
  Solvation  Ediel_sol  =         0.00000000
  ---------------------------------------------------
  free energy    TOTEN  =      -176.83088326 eV

  energy without entropy =     -176.72794176  energy(sigma->0) =     -176.80514788


--------------------------------------------------------------------------------------------------------




--------------------------------------- Iteration      1(  14)  ---------------------------------------


    POTLOK:  cpu time   12.8361: real time   12.8370
    SETDIJ:  cpu time    0.1206: real time    0.1206
    EDDIAG:  cpu time   66.7447: real time   66.7470
  RMM-DIIS:  cpu time  200.0163: real time  200.0178
    ORTHCH:  cpu time   13.4722: real time   13.4722
       DOS:  cpu time    0.0016: real time    0.0016
    CHARGE:  cpu time   25.1075: real time   25.1074
    MIXING:  cpu time    0.7109: real time    0.7109
    --------------------------------------------
      LOOP:  cpu time  319.0100: real time  319.0146

 eigenvalue-minimisations  :   723
 total energy-change (2. order) :-0.9174506E-02  (-0.9933675E-01)
 number of electron     559.9999857 magnetization 
 augmentation part      241.5517125 magnetization 

 Broyden mixing:
  rms(total) = 0.16596E+01    rms(broyden)= 0.16593E+01
  rms(prec ) = 0.19859E+01
  weight for this iteration     100.00

 eigenvalues of (default mixing * dielectric matrix)
  average eigenvalue GAMMA=   0.2811
  1.1978  0.4116  0.3031  0.1487  0.1487  0.0998  0.0998  0.0644  0.0564

 Free energy of the ion-electron system (eV)
  ---------------------------------------------------
  alpha Z        PSCENC =        75.25431677
  Ewald energy   TEWEN  =    138411.29712980
  -Hartree energ DENC   =   -182425.98466543
  -exchange      EXHF   =         0.00000000
  -V(xc)+E(xc)   XCENC  =     -1696.34733552
  PAW double counting   =     45980.28761348   -42464.39264576
  entropy T*S    EENTRO =        -0.02618241
  eigenvalues    EBANDS =     -3143.43378265
  atomic energy  EATOM  =     45086.50549395
  Solvation  Ediel_sol  =         0.00000000
  ---------------------------------------------------
  free energy    TOTEN  =      -176.84005777 eV

  energy without entropy =     -176.81387536  energy(sigma->0) =     -176.83351216


--------------------------------------------------------------------------------------------------------




--------------------------------------- Iteration      1(  15)  ---------------------------------------


    POTLOK:  cpu time   12.8565: real time   12.8573
    SETDIJ:  cpu time    0.1214: real time    0.1214
    EDDIAG:  cpu time   67.0471: real time   67.0478
  RMM-DIIS:  cpu time  196.7460: real time  196.7498
    ORTHCH:  cpu time   13.5707: real time   13.5708
       DOS:  cpu time    0.0014: real time    0.0014
    CHARGE:  cpu time   25.2251: real time   25.2253
    MIXING:  cpu time    0.7469: real time    0.7469
    --------------------------------------------
      LOOP:  cpu time  316.3151: real time  316.3207

 eigenvalue-minimisations  :   708
 total energy-change (2. order) : 0.3066432E+00  (-0.1333403E+00)
 number of electron     559.9999832 magnetization 
 augmentation part      241.4248251 magnetization 

 Broyden mixing:
  rms(total) = 0.20037E+01    rms(broyden)= 0.20035E+01
  rms(prec ) = 0.22807E+01
  weight for this iteration     100.00

 eigenvalues of (default mixing * dielectric matrix)
  average eigenvalue GAMMA=   0.2881
  1.3480  0.5642  0.2292  0.1732  0.1732  0.0950  0.0950  0.0738  0.0738  0.0550

 Free energy of the ion-electron system (eV)
  ---------------------------------------------------
  alpha Z        PSCENC =        75.25431677
  Ewald energy   TEWEN  =    138411.29712980
  -Hartree energ DENC   =   -182476.52280214
  -exchange      EXHF   =         0.00000000
  -V(xc)+E(xc)   XCENC  =     -1695.64788249
  PAW double counting   =     46053.94142844   -42534.36761698
  entropy T*S    EENTRO =         0.06838500
  eigenvalues    EBANDS =     -3097.06186690
  atomic energy  EATOM  =     45086.50549395
  Solvation  Ediel_sol  =         0.00000000
  ---------------------------------------------------
  free energy    TOTEN  =      -176.53341456 eV

  energy without entropy =     -176.60179956  energy(sigma->0) =     -176.55051081


--------------------------------------------------------------------------------------------------------




--------------------------------------- Iteration      1(  16)  ---------------------------------------


    POTLOK:  cpu time   12.9047: real time   12.9055
    SETDIJ:  cpu time    0.1208: real time    0.1208
    EDDIAG:  cpu time   66.7406: real time   66.7412
  RMM-DIIS:  cpu time  195.2159: real time  195.2186
    ORTHCH:  cpu time   13.4221: real time   13.4223
       DOS:  cpu time    0.0015: real time    0.0015
    CHARGE:  cpu time   25.1855: real time   25.1858
    MIXING:  cpu time    0.8142: real time    0.8142
    --------------------------------------------
      LOOP:  cpu time  314.4053: real time  314.4098

 eigenvalue-minimisations  :   708
 total energy-change (2. order) : 0.7391614E+00  (-0.1000492E+00)
 number of electron     559.9999827 magnetization 
 augmentation part      241.2429585 magnetization 

 Broyden mixing:
  rms(total) = 0.10527E+01    rms(broyden)= 0.10523E+01
  rms(prec ) = 0.11955E+01
  weight for this iteration     100.00

 eigenvalues of (default mixing * dielectric matrix)
  average eigenvalue GAMMA=   0.2990
  1.4752  0.6841  0.2251  0.2251  0.1375  0.1375  0.1014  0.1014  0.0753  0.0707
  0.0553

 Free energy of the ion-electron system (eV)
  ---------------------------------------------------
  alpha Z        PSCENC =        75.25431677
  Ewald energy   TEWEN  =    138411.29712980
  -Hartree energ DENC   =   -182505.41927312
  -exchange      EXHF   =         0.00000000
  -V(xc)+E(xc)   XCENC  =     -1695.24587927
  PAW double counting   =     46094.45229816   -42572.83004868
  entropy T*S    EENTRO =        -0.00134812
  eigenvalues    EBANDS =     -3069.80694268
  atomic energy  EATOM  =     45086.50549395
  Solvation  Ediel_sol  =         0.00000000
  ---------------------------------------------------
  free energy    TOTEN  =      -175.79425320 eV

  energy without entropy =     -175.79290508  energy(sigma->0) =     -175.79391617


--------------------------------------------------------------------------------------------------------




--------------------------------------- Iteration      1(  17)  ---------------------------------------


    POTLOK:  cpu time   12.6949: real time   12.6958
    SETDIJ:  cpu time    0.1213: real time    0.1213
    EDDIAG:  cpu time   66.4849: real time   66.4866
  RMM-DIIS:  cpu time  196.0297: real time  196.0317
    ORTHCH:  cpu time   13.3317: real time   13.3317
       DOS:  cpu time    0.0015: real time    0.0015
    CHARGE:  cpu time   25.2085: real time   25.2085
    MIXING:  cpu time    0.8299: real time    0.8299
    --------------------------------------------
      LOOP:  cpu time  314.7024: real time  314.7070

 eigenvalue-minimisations  :   708
 total energy-change (2. order) : 0.2501974E+00  (-0.6816641E-01)
 number of electron     559.9999854 magnetization 
 augmentation part      241.1869338 magnetization 

 Broyden mixing:
  rms(total) = 0.97029E+00    rms(broyden)= 0.97005E+00
  rms(prec ) = 0.11202E+01
  weight for this iteration     100.00

 eigenvalues of (default mixing * dielectric matrix)
  average eigenvalue GAMMA=   0.3142
  1.5736  0.8099  0.2966  0.2966  0.1520  0.1520  0.0995  0.0995  0.0853  0.0853
  0.0641  0.0555

 Free energy of the ion-electron system (eV)
  ---------------------------------------------------
  alpha Z        PSCENC =        75.25431677
  Ewald energy   TEWEN  =    138411.29712980
  -Hartree energ DENC   =   -182532.10945023
  -exchange      EXHF   =         0.00000000
  -V(xc)+E(xc)   XCENC  =     -1694.89275935
  PAW double counting   =     46126.63248740   -42603.20093558
  entropy T*S    EENTRO =        -0.01401589
  eigenvalues    EBANDS =     -3045.01632266
  atomic energy  EATOM  =     45086.50549395
  Solvation  Ediel_sol  =         0.00000000
  ---------------------------------------------------
  free energy    TOTEN  =      -175.54405579 eV

  energy without entropy =     -175.53003990  energy(sigma->0) =     -175.54055182


--------------------------------------------------------------------------------------------------------




--------------------------------------- Iteration      1(  18)  ---------------------------------------


    POTLOK:  cpu time   12.7579: real time   12.7586
    SETDIJ:  cpu time    0.1207: real time    0.1207
    EDDIAG:  cpu time   66.4491: real time   66.4504
  RMM-DIIS:  cpu time  194.5285: real time  194.5310
    ORTHCH:  cpu time   13.3725: real time   13.3725
       DOS:  cpu time    0.0014: real time    0.0014
    CHARGE:  cpu time   25.2895: real time   25.2895
    MIXING:  cpu time    0.8842: real time    0.8842
    --------------------------------------------
      LOOP:  cpu time  313.4039: real time  313.4083

 eigenvalue-minimisations  :   710
 total energy-change (2. order) :-0.1339026E+00  (-0.4238513E-01)
 number of electron     559.9999863 magnetization 
 augmentation part      241.0615419 magnetization 

 Broyden mixing:
  rms(total) = 0.11373E+01    rms(broyden)= 0.11372E+01
  rms(prec ) = 0.13094E+01
  weight for this iteration     100.00

 eigenvalues of (default mixing * dielectric matrix)
  average eigenvalue GAMMA=   0.3265
  1.6344  1.0167  0.3458  0.3458  0.1638  0.1638  0.1002  0.1002  0.0865  0.0865
  0.0835  0.0558  0.0610

 Free energy of the ion-electron system (eV)
  ---------------------------------------------------
  alpha Z        PSCENC =        75.25431677
  Ewald energy   TEWEN  =    138411.29712980
  -Hartree energ DENC   =   -182557.44025882
  -exchange      EXHF   =         0.00000000
  -V(xc)+E(xc)   XCENC  =     -1694.61531909
  PAW double counting   =     46147.63824600   -42622.72643648
  entropy T*S    EENTRO =        -0.00218004
  eigenvalues    EBANDS =     -3021.58895045
  atomic energy  EATOM  =     45086.50549395
  Solvation  Ediel_sol  =         0.00000000
  ---------------------------------------------------
  free energy    TOTEN  =      -175.67795837 eV

  energy without entropy =     -175.67577832  energy(sigma->0) =     -175.67741335


--------------------------------------------------------------------------------------------------------




--------------------------------------- Iteration      1(  19)  ---------------------------------------


    POTLOK:  cpu time   12.8117: real time   12.8124
    SETDIJ:  cpu time    0.1209: real time    0.1209
    EDDIAG:  cpu time   66.5828: real time   66.5842
  RMM-DIIS:  cpu time  197.6100: real time  197.6122
    ORTHCH:  cpu time   13.6063: real time   13.6063
       DOS:  cpu time    0.0015: real time    0.0015
    CHARGE:  cpu time   25.1339: real time   25.1341
    MIXING:  cpu time    0.9711: real time    0.9711
    --------------------------------------------
      LOOP:  cpu time  316.8383: real time  316.8428

 eigenvalue-minimisations  :   718
 total energy-change (2. order) :-0.4088328E-02  (-0.3791798E-01)
 number of electron     559.9999855 magnetization 
 augmentation part      240.9887543 magnetization 

 Broyden mixing:
  rms(total) = 0.97424E+00    rms(broyden)= 0.97407E+00
  rms(prec ) = 0.11530E+01
  weight for this iteration     100.00

 eigenvalues of (default mixing * dielectric matrix)
  average eigenvalue GAMMA=   0.3299
  1.7250  1.1099  0.3703  0.3703  0.1781  0.1781  0.1010  0.1010  0.1085  0.1085
  0.0770  0.0770  0.0564  0.0576

 Free energy of the ion-electron system (eV)
  ---------------------------------------------------
  alpha Z        PSCENC =        75.25431677
  Ewald energy   TEWEN  =    138411.29712980
  -Hartree energ DENC   =   -182581.11164885
  -exchange      EXHF   =         0.00000000
  -V(xc)+E(xc)   XCENC  =     -1694.36147284
  PAW double counting   =     46160.68867941   -42634.49522010
  entropy T*S    EENTRO =        -0.03011468
  eigenvalues    EBANDS =     -2999.42921016
  atomic energy  EATOM  =     45086.50549395
  Solvation  Ediel_sol  =         0.00000000
  ---------------------------------------------------
  free energy    TOTEN  =      -175.68204669 eV

  energy without entropy =     -175.65193202  energy(sigma->0) =     -175.67451802


--------------------------------------------------------------------------------------------------------




--------------------------------------- Iteration      1(  20)  ---------------------------------------


    POTLOK:  cpu time   12.8709: real time   12.8718
    SETDIJ:  cpu time    0.1212: real time    0.1212
    EDDIAG:  cpu time   66.8127: real time   66.8136
  RMM-DIIS:  cpu time  193.7743: real time  193.7779
    ORTHCH:  cpu time   13.4467: real time   13.4467
       DOS:  cpu time    0.0015: real time    0.0015
    CHARGE:  cpu time   25.0075: real time   25.0075
    MIXING:  cpu time    1.0143: real time    1.0143
    --------------------------------------------
      LOOP:  cpu time  313.0490: real time  313.0546

 eigenvalue-minimisations  :   704
 total energy-change (2. order) : 0.2519762E+00  (-0.2932406E-01)
 number of electron     559.9999858 magnetization 
 augmentation part      241.0743229 magnetization 

 Broyden mixing:
  rms(total) = 0.84984E+00    rms(broyden)= 0.84966E+00
  rms(prec ) = 0.10103E+01
  weight for this iteration     100.00

 eigenvalues of (default mixing * dielectric matrix)
  average eigenvalue GAMMA=   0.3289
  1.7303  1.2562  0.4045  0.3173  0.1978  0.1978  0.1380  0.1380  0.1001  0.1001
  0.0840  0.0840  0.0697  0.0554  0.0597

 Free energy of the ion-electron system (eV)
  ---------------------------------------------------
  alpha Z        PSCENC =        75.25431677
  Ewald energy   TEWEN  =    138411.29712980
  -Hartree energ DENC   =   -182594.74891376
  -exchange      EXHF   =         0.00000000
  -V(xc)+E(xc)   XCENC  =     -1694.19645553
  PAW double counting   =     46165.80045196   -42638.77097864
  entropy T*S    EENTRO =        -0.01037288
  eigenvalues    EBANDS =     -2986.56074219
  atomic energy  EATOM  =     45086.50549395
  Solvation  Ediel_sol  =         0.00000000
  ---------------------------------------------------
  free energy    TOTEN  =      -175.43007052 eV

  energy without entropy =     -175.41969764  energy(sigma->0) =     -175.42747730


--------------------------------------------------------------------------------------------------------




--------------------------------------- Iteration      1(  21)  ---------------------------------------


    POTLOK:  cpu time   12.8970: real time   12.8979
    SETDIJ:  cpu time    0.1210: real time    0.1210
    EDDIAG:  cpu time   66.9783: real time   66.9789
  RMM-DIIS:  cpu time  193.7099: real time  193.7153
    ORTHCH:  cpu time   13.5692: real time   13.5693
       DOS:  cpu time    0.0015: real time    0.0015
    CHARGE:  cpu time   25.1077: real time   25.1077
    MIXING:  cpu time    1.0801: real time    1.0801
    --------------------------------------------
      LOOP:  cpu time  313.4647: real time  313.4717

 eigenvalue-minimisations  :   703
 total energy-change (2. order) : 0.1653322E+00  (-0.2234653E-01)
 number of electron     559.9999852 magnetization 
 augmentation part      241.1072887 magnetization 

 Broyden mixing:
  rms(total) = 0.73022E+00    rms(broyden)= 0.73007E+00
  rms(prec ) = 0.85378E+00
  weight for this iteration     100.00

 eigenvalues of (default mixing * dielectric matrix)
  average eigenvalue GAMMA=   0.3472
  1.8717  1.3316  0.6202  0.3079  0.3079  0.1642  0.1642  0.1231  0.1231  0.1001
  0.1001  0.0812  0.0812  0.0641  0.0555  0.0587

 Free energy of the ion-electron system (eV)
  ---------------------------------------------------
  alpha Z        PSCENC =        75.25431677
  Ewald energy   TEWEN  =    138411.29712980
  -Hartree energ DENC   =   -182608.78450126
  -exchange      EXHF   =         0.00000000
  -V(xc)+E(xc)   XCENC  =     -1694.06664102
  PAW double counting   =     46166.08178814   -42638.45992235
  entropy T*S    EENTRO =        -0.07047588
  eigenvalues    EBANDS =     -2973.02192644
  atomic energy  EATOM  =     45086.50549395
  Solvation  Ediel_sol  =         0.00000000
  ---------------------------------------------------
  free energy    TOTEN  =      -175.26473828 eV

  energy without entropy =     -175.19426240  energy(sigma->0) =     -175.24711931


--------------------------------------------------------------------------------------------------------




--------------------------------------- Iteration      1(  22)  ---------------------------------------


    POTLOK:  cpu time   12.8308: real time   12.8317
    SETDIJ:  cpu time    0.1211: real time    0.1211
    EDDIAG:  cpu time   66.8621: real time   66.8633
  RMM-DIIS:  cpu time  190.4901: real time  190.4928
    ORTHCH:  cpu time   13.5837: real time   13.5838
       DOS:  cpu time    0.0015: real time    0.0015
    CHARGE:  cpu time   25.1275: real time   25.1274
    MIXING:  cpu time    1.1127: real time    1.1127
    --------------------------------------------
      LOOP:  cpu time  310.1294: real time  310.1342

 eigenvalue-minimisations  :   699
 total energy-change (2. order) : 0.1712391E+00  (-0.2313345E-01)
 number of electron     559.9999844 magnetization 
 augmentation part      241.1471292 magnetization 

 Broyden mixing:
  rms(total) = 0.62273E+00    rms(broyden)= 0.62258E+00
  rms(prec ) = 0.71844E+00
  weight for this iteration     100.00

 eigenvalues of (default mixing * dielectric matrix)
  average eigenvalue GAMMA=   0.3548
  2.0213  1.3929  0.6927  0.3263  0.3263  0.1709  0.1709  0.1565  0.1177  0.1177
  0.1006  0.1006  0.0798  0.0798  0.0629  0.0554  0.0588

 Free energy of the ion-electron system (eV)
  ---------------------------------------------------
  alpha Z        PSCENC =        75.25431677
  Ewald energy   TEWEN  =    138411.29712980
  -Hartree energ DENC   =   -182625.49795927
  -exchange      EXHF   =         0.00000000
  -V(xc)+E(xc)   XCENC  =     -1693.85326087
  PAW double counting   =     46167.80908135   -42639.33141129
  entropy T*S    EENTRO =        -0.07738804
  eigenvalues    EBANDS =     -2957.19950158
  atomic energy  EATOM  =     45086.50549395
  Solvation  Ediel_sol  =         0.00000000
  ---------------------------------------------------
  free energy    TOTEN  =      -175.09349918 eV

  energy without entropy =     -175.01611114  energy(sigma->0) =     -175.07415217


--------------------------------------------------------------------------------------------------------




--------------------------------------- Iteration      1(  23)  ---------------------------------------


    POTLOK:  cpu time   12.8888: real time   12.8893
    SETDIJ:  cpu time    0.1214: real time    0.1214
    EDDIAG:  cpu time   67.0983: real time   67.0989
  RMM-DIIS:  cpu time  193.6807: real time  193.6827
    ORTHCH:  cpu time   13.6429: real time   13.6430
       DOS:  cpu time    0.0015: real time    0.0015
    CHARGE:  cpu time   25.0286: real time   25.0288
    MIXING:  cpu time    1.2076: real time    1.2076
    --------------------------------------------
      LOOP:  cpu time  313.6698: real time  313.6733

 eigenvalue-minimisations  :   707
 total energy-change (2. order) : 0.2425889E-01  (-0.1668486E-01)
 number of electron     559.9999853 magnetization 
 augmentation part      241.0902520 magnetization 

 Broyden mixing:
  rms(total) = 0.65773E+00    rms(broyden)= 0.65760E+00
  rms(prec ) = 0.77132E+00
  weight for this iteration     100.00

 eigenvalues of (default mixing * dielectric matrix)
  average eigenvalue GAMMA=   0.3541
  2.1398  1.4428  0.6651  0.3320  0.3320  0.2394  0.1764  0.1764  0.1228  0.1228
[...]
 -0.007  -0.012   0.004   0.004   0.006  -0.006  -0.012   0.004
 -0.011  -0.021   0.006   0.007   0.009  -0.011  -0.020   0.006
 -0.014  -0.005   0.013   0.000   0.022  -0.014  -0.005   0.012
  0.000  -0.023  -0.006  -0.015  -0.000   0.000  -0.022  -0.006
 -0.022   0.000   0.009  -0.005  -0.016  -0.021   0.000   0.008
 -0.017  -0.006   0.015   0.000   0.027  -0.017  -0.006   0.015
  0.000  -0.027  -0.007  -0.018  -0.000   0.000  -0.027  -0.007
 -0.027   0.000   0.010  -0.006  -0.019  -0.026   0.000   0.010
 total augmentation occupancy for first ion, spin component:           1
  1.535  -0.028   0.005   0.017   0.024   0.076  -0.009  -0.002   0.036  -0.010   0.092  -0.031   0.012   0.001   0.002  -0.019
 -0.028   1.399   0.029   0.070  -0.002  -0.008   0.072   0.011  -0.014  -0.007   0.225  -0.068   0.018   0.003   0.003  -0.006
  0.005   0.029   1.541   0.002   0.001  -0.002   0.013   0.074  -0.012   0.017  -0.052   0.018  -0.003  -0.007  -0.005   0.016
  0.017   0.070   0.002   1.335   0.043   0.033  -0.013  -0.012   0.092  -0.022  -0.078   0.020  -0.002  -0.008  -0.003   0.001
  0.024  -0.002   0.001   0.043   1.438  -0.010  -0.008   0.016  -0.022   0.068  -0.095   0.031  -0.003  -0.009  -0.010   0.026
  0.076  -0.008  -0.002   0.033  -0.010   0.217   0.019  -0.002  -0.045   0.004  -0.048   0.002   0.017  -0.010   0.035  -0.004
 -0.009   0.072   0.013  -0.013  -0.008   0.019   0.263  -0.023  -0.003   0.005  -0.110   0.007  -0.001   0.051  -0.010  -0.000
 -0.002   0.011   0.074  -0.012   0.016  -0.002  -0.023   0.215   0.014  -0.020   0.028  -0.001  -0.012   0.009  -0.018   0.003
  0.036  -0.014  -0.012   0.092  -0.022  -0.045  -0.003   0.014   0.261   0.007   0.043  -0.004  -0.009   0.036   0.004   0.000
 -0.010  -0.007   0.017  -0.022   0.068   0.004   0.005  -0.020   0.007   0.259   0.046  -0.002  -0.038   0.002   0.049   0.007
  0.092   0.225  -0.052  -0.078  -0.095  -0.048  -0.110   0.028   0.043   0.046   0.952  -0.141   0.084   0.014   0.064  -0.013
 -0.031  -0.068   0.018   0.020   0.031   0.002   0.007  -0.001  -0.004  -0.002  -0.141   0.023  -0.014  -0.003  -0.010   0.003
  0.012   0.018  -0.003  -0.002  -0.003   0.017  -0.001  -0.012  -0.009  -0.038   0.084  -0.014   0.029  -0.008  -0.004  -0.003
  0.001   0.003  -0.007  -0.008  -0.009  -0.010   0.051   0.009   0.036   0.002   0.014  -0.003  -0.008   0.035   0.004   0.000
  0.002   0.003  -0.005  -0.003  -0.010   0.035  -0.010  -0.018   0.004   0.049   0.064  -0.010  -0.004   0.004   0.034  -0.000
 -0.019  -0.006   0.016   0.001   0.026  -0.004  -0.000   0.003   0.000   0.007  -0.013   0.003  -0.003   0.000  -0.000   0.001
  0.001  -0.028  -0.007  -0.018   0.001   0.001  -0.008  -0.001  -0.006  -0.000  -0.004   0.001   0.000  -0.003  -0.000   0.000
 -0.028   0.001   0.012  -0.005  -0.019  -0.006   0.001   0.003  -0.001  -0.007  -0.008   0.001  -0.000  -0.000  -0.003   0.000


------------------------ aborting loop because EDIFF is reached ----------------------------------------


    CHARGE:  cpu time   24.8344: real time   24.8343
    FORLOC:  cpu time    6.7640: real time    6.7640
    FORNL :  cpu time   64.7352: real time   64.7362
    STRESS:  cpu time  197.7269: real time  197.7290
    FORCOR:  cpu time   22.1144: real time   22.1196
    FORHAR:  cpu time    9.5427: real time    9.5430
    MIXING:  cpu time    3.5983: real time    3.5985
    OFIELD:  cpu time    0.0000: real time    0.0000

  FORCE on cell =-STRESS in cart. coord.  units (eV):
  Direction    XX          YY          ZZ          XY          YZ          ZX
  --------------------------------------------------------------------------------------
  Alpha Z    75.25432    75.25432    75.25432
  Ewald   44164.31727 44169.49300 50077.38101    -6.17071   172.18910  -134.32680
  Hartree 59096.43709 59100.42577 64581.40465    -4.57311   148.16744  -115.51260
  E(xc)   -2905.58565 -2905.57028 -2902.38734    -0.02672     0.27540    -0.21524
  Local  ************************************    10.42850  -316.85139   247.10579
  n-local  -880.41590  -880.45916  -892.47679     0.10222    -0.86114     0.66756
  augment  4105.62003  4105.58885  4099.92683     0.06441    -0.58205     0.45801
  Kinetic  7816.19440  7816.06930  7779.59070     0.25364    -2.85425     2.22854
  Fock        0.00000     0.00000     0.00000     0.00000     0.00000     0.00000
  -------------------------------------------------------------------------------------
  Total    -113.23886  -113.27273  -114.14214     0.07823    -0.51689     0.40526
  in kB      -6.71958    -6.72159    -6.77318     0.00464    -0.03067     0.02405
  external pressure =       -6.74 kB  Pullay stress =        0.00 kB


 VOLUME and BASIS-vectors are now :
 -----------------------------------------------------------------------------
  energy-cutoff  :      400.00
  volume of cell :    27000.00
      direct lattice vectors                 reciprocal lattice vectors
    30.000000000  0.000000000  0.000000000     0.033333333  0.000000000  0.000000000
     0.000000000 30.000000000  0.000000000     0.000000000  0.033333333  0.000000000
     0.000000000  0.000000000 30.000000000     0.000000000  0.000000000  0.033333333

  length of vectors
    30.000000000 30.000000000 30.000000000     0.033333333  0.033333333  0.033333333


 FORCES acting on ions
    electron-ion (+dipol)            ewald-force                    non-local-force                 convergence-correction
 -----------------------------------------------------------------------------------------------
   0.395E+03 0.974E+03 0.422E+03   -.392E+03 -.971E+03 -.422E+03   -.150E+01 -.183E+01 -.208E+00   -.281E-02 -.206E-02 0.452E-02
   -.974E+03 -.395E+03 0.422E+03   0.971E+03 0.392E+03 -.422E+03   0.183E+01 0.150E+01 -.207E+00   -.191E-03 0.266E-02 0.289E-02
   -.395E+03 0.974E+03 0.422E+03   0.393E+03 -.971E+03 -.422E+03   0.150E+01 -.183E+01 -.212E+00   0.761E-02 -.169E-02 0.218E-02
   0.974E+03 -.395E+03 0.423E+03   -.971E+03 0.393E+03 -.422E+03   -.183E+01 0.150E+01 -.201E+00   0.347E-02 0.724E-02 0.313E-02
   -.160E+00 0.588E+03 0.967E+03   0.155E+00 -.587E+03 -.964E+03   0.376E-03 -.297E+00 -.237E+01   0.444E-02 0.243E-02 -.523E-02
   -.307E+01 0.634E+03 -.928E+03   0.307E+01 -.634E+03 0.924E+03   -.515E-02 -.171E+00 0.241E+01   0.388E-02 0.594E-02 0.733E-03
   -.282E+00 0.114E+04 0.814E+01   0.279E+00 -.113E+04 -.813E+01   -.417E-03 -.310E+01 -.152E-01   0.227E-02 -.288E-02 0.667E-02
   0.114E+04 0.398E+00 0.918E+01   -.114E+04 -.401E+00 -.915E+01   -.310E+01 0.209E-03 -.244E-01   0.334E-02 0.313E-02 0.177E-02
   -.114E+04 0.364E+00 0.826E+01   0.113E+04 -.363E+00 -.824E+01   0.310E+01 0.495E-03 -.164E-01   0.810E-03 -.340E-03 0.609E-02
   -.316E+00 -.114E+04 0.933E+01   0.317E+00 0.114E+04 -.929E+01   -.146E-03 0.310E+01 -.256E-01   -.165E-02 -.713E-02 -.126E-02
   -.579E+03 0.579E+03 0.815E+03   0.577E+03 -.577E+03 -.812E+03   0.156E+01 -.156E+01 -.220E+01   0.634E-02 -.166E-03 -.279E-02
   -.601E+03 0.602E+03 -.792E+03   0.599E+03 -.600E+03 0.789E+03   0.155E+01 -.155E+01 0.222E+01   -.302E-03 0.496E-02 0.275E-03
   0.579E+03 -.579E+03 0.815E+03   -.577E+03 0.577E+03 -.812E+03   -.156E+01 0.155E+01 -.220E+01   0.318E-02 0.636E-02 0.515E-02
   0.607E+03 -.607E+03 -.784E+03   -.605E+03 0.605E+03 0.780E+03   -.153E+01 0.153E+01 0.222E+01   0.243E-02 -.320E-02 -.206E-02
   0.579E+03 0.580E+03 0.815E+03   -.577E+03 -.577E+03 -.812E+03   -.155E+01 -.156E+01 -.220E+01   -.623E-02 0.875E-03 -.377E-02
   0.602E+03 0.606E+03 -.789E+03   -.599E+03 -.604E+03 0.786E+03   -.154E+01 -.154E+01 0.222E+01   0.165E-02 0.724E-02 0.777E-03
   -.580E+03 -.579E+03 0.815E+03   0.577E+03 0.577E+03 -.812E+03   0.156E+01 0.155E+01 -.220E+01   -.505E-02 0.535E-02 0.515E-03
   -.607E+03 -.602E+03 -.788E+03   0.604E+03 0.600E+03 0.785E+03   0.154E+01 0.154E+01 0.222E+01   -.243E-02 -.308E-02 -.281E-02
   0.398E+03 0.986E+03 -.400E+03   -.396E+03 -.983E+03 0.400E+03   -.152E+01 -.183E+01 0.209E+00   0.756E-03 0.428E-02 0.418E-02
   -.987E+03 -.398E+03 -.400E+03   0.984E+03 0.395E+03 0.399E+03   0.183E+01 0.153E+01 0.211E+00   -.452E-02 -.227E-03 0.525E-02
   -.323E+03 0.323E+03 0.462E+03   0.323E+03 -.323E+03 -.463E+03   -.364E+00 0.365E+00 0.517E+00   0.244E-02 0.514E-02 0.381E-02
   0.974E+03 0.395E+03 0.423E+03   -.971E+03 -.393E+03 -.422E+03   -.183E+01 -.150E+01 -.205E+00   -.293E-02 0.474E-02 0.572E-02
   -.395E+03 -.974E+03 0.423E+03   0.393E+03 0.971E+03 -.422E+03   0.150E+01 0.183E+01 -.204E+00   -.839E-02 0.114E-02 0.472E-02
   -.399E+03 0.986E+03 -.401E+03   0.397E+03 -.983E+03 0.400E+03   0.152E+01 -.183E+01 0.203E+00   0.332E-02 0.464E-02 0.649E-02
   0.987E+03 -.398E+03 -.397E+03   -.985E+03 0.396E+03 0.397E+03   -.183E+01 0.153E+01 0.216E+00   0.737E-02 0.176E-03 0.221E-02
   -.974E+03 0.395E+03 0.422E+03   0.971E+03 -.393E+03 -.422E+03   0.183E+01 -.150E+01 -.212E+00   0.272E-02 -.265E-02 0.638E-03
   0.395E+03 -.974E+03 0.423E+03   -.393E+03 0.971E+03 -.422E+03   -.150E+01 0.183E+01 -.200E+00   0.105E-02 -.191E-02 0.234E-02
   0.322E+03 0.323E+03 0.462E+03   -.323E+03 -.323E+03 -.463E+03   0.362E+00 0.362E+00 0.522E+00   -.174E-02 0.111E-01 0.901E-02
   -.521E+00 0.646E+03 0.157E+02   0.520E+00 -.647E+03 -.156E+02   0.470E-03 0.728E+00 -.252E-01   0.843E-03 0.703E-02 0.116E-01
   -.588E+03 0.200E+00 0.967E+03   0.587E+03 -.199E+00 -.964E+03   0.298E+00 -.517E-03 -.237E+01   -.867E-04 -.475E-04 -.268E-02
   -.635E+03 0.406E+01 -.926E+03   0.634E+03 -.407E+01 0.923E+03   0.162E+00 0.694E-02 0.240E+01   -.232E-02 -.101E-02 -.132E-02
   0.588E+03 0.197E+00 0.968E+03   -.587E+03 -.206E+00 -.964E+03   -.300E+00 -.549E-03 -.236E+01   -.101E-02 0.106E-01 0.125E-02
   0.641E+03 0.521E+01 -.916E+03   -.641E+03 -.522E+01 0.912E+03   -.934E-01 0.951E-02 0.237E+01   0.386E-02 0.295E-02 -.737E-03
   0.765E+03 0.766E+03 0.124E+02   -.763E+03 -.764E+03 -.124E+02   -.113E+01 -.113E+01 0.123E-01   -.299E-02 0.560E-02 0.791E-02
   -.766E+03 -.765E+03 0.126E+02   0.764E+03 0.763E+03 -.127E+02   0.113E+01 0.113E+01 0.853E-02   -.710E-02 0.435E-02 0.584E-02
   -.765E+03 0.765E+03 0.116E+02   0.763E+03 -.764E+03 -.116E+02   0.113E+01 -.113E+01 0.252E-01   0.257E-02 0.157E-02 0.772E-02
   0.765E+03 -.765E+03 0.136E+02   -.764E+03 0.763E+03 -.136E+02   -.114E+01 0.114E+01 -.537E-02   0.673E-02 0.922E-03 -.781E-03
   -.179E+00 0.220E+00 0.107E+04   0.173E+00 -.222E+00 -.107E+04   0.376E-02 -.488E-02 -.163E+01   -.139E-03 0.977E-02 -.526E-03
   -.205E+02 0.264E+02 -.853E+03   0.199E+02 -.255E+02 0.858E+03   0.437E+00 -.560E+00 -.368E+01   -.291E-03 0.141E-02 -.334E-02
   0.986E+03 0.400E+03 -.398E+03   -.984E+03 -.398E+03 0.398E+03   -.183E+01 -.153E+01 0.205E+00   0.529E-02 0.481E-02 0.296E-02
   -.400E+03 -.987E+03 -.398E+03   0.398E+03 0.984E+03 0.397E+03   0.153E+01 0.183E+01 0.207E+00   -.313E-02 -.320E-02 -.279E-02
   -.334E+03 0.334E+03 -.418E+03   0.334E+03 -.335E+03 0.419E+03   -.235E+00 0.238E+00 -.592E+00   0.143E-03 0.489E-02 0.801E-02
   0.322E+03 -.322E+03 0.463E+03   -.323E+03 0.323E+03 -.463E+03   0.359E+00 -.359E+00 0.529E+00   -.357E-03 0.124E-01 0.596E-02
   0.331E+03 0.335E+03 -.415E+03   -.332E+03 -.336E+03 0.416E+03   0.265E+00 0.286E+00 -.518E+00   0.704E-03 0.925E-02 0.377E-02
   -.986E+03 0.399E+03 -.401E+03   0.983E+03 -.397E+03 0.400E+03   0.183E+01 -.153E+01 0.202E+00   -.365E-02 0.145E-02 0.747E-02
   0.399E+03 -.987E+03 -.397E+03   -.396E+03 0.985E+03 0.397E+03   -.153E+01 0.183E+01 0.215E+00   0.252E-02 -.362E-02 -.356E-02
   -.323E+03 -.322E+03 0.462E+03   0.323E+03 0.323E+03 -.463E+03   -.361E+00 -.361E+00 0.524E+00   -.859E-02 0.866E-02 0.567E-02
   0.645E+03 0.720E+00 0.171E+02   -.646E+03 -.727E+00 -.171E+02   0.726E+00 -.879E-03 -.430E-01   0.385E-02 0.668E-02 0.614E-02
   -.646E+03 0.671E+00 0.158E+02   0.647E+03 -.674E+00 -.158E+02   -.728E+00 -.646E-03 -.275E-01   -.343E-02 0.301E-02 0.101E-01
   -.156E+00 -.588E+03 0.968E+03   0.161E+00 0.587E+03 -.964E+03   0.429E-03 0.301E+00 -.236E+01   -.624E-02 0.583E-02 0.581E-02
   -.422E+01 -.642E+03 -.914E+03   0.423E+01 0.642E+03 0.910E+03   -.778E-02 0.825E-01 0.237E+01   -.405E-03 -.254E-02 -.503E-02
   -.729E+00 0.931E+00 0.224E+02   0.734E+00 -.942E+00 -.224E+02   -.704E-03 0.904E-03 -.285E-01   -.395E-02 0.925E-02 0.943E-02
   0.333E+03 -.332E+03 -.411E+03   -.333E+03 0.333E+03 0.412E+03   0.317E+00 -.314E+00 -.435E+00   0.178E-02 0.166E-03 -.188E-03
   -.335E+03 -.331E+03 -.414E+03   0.336E+03 0.332E+03 0.415E+03   -.295E+00 -.275E+00 -.498E+00   -.361E-02 0.144E-02 0.210E-02
   -.570E+00 -.645E+03 0.173E+02   0.572E+00 0.646E+03 -.173E+02   0.710E-03 -.725E+00 -.452E-01   -.313E-02 0.297E-02 0.174E-02
   0.978E+01 -.125E+02 -.258E+03   -.886E+01 0.113E+02 0.233E+03   -.518E+00 0.671E+00 0.195E+02   -.952E-04 0.122E-03 -.198E-02
   0.219E+02 -.281E+02 -.758E+03   -.239E+02 0.306E+02 0.823E+03   0.186E+01 -.238E+01 -.612E+02   0.153E-04 0.189E-03 -.285E-02
 -----------------------------------------------------------------------------------------------
   -.189E+01 0.227E+01 0.469E+02   0.117E-11 -.103E-11 0.000E+00   0.190E+01 -.242E+01 -.470E+02   -.139E-02 0.157E+00 0.139E+00
 
 
 POSITION                                       TOTAL-FORCE (eV/Angst)
 -----------------------------------------------------------------------------------
     13.37281      9.84801     12.50759         0.699160      1.107414      0.289677
     20.15199     16.62719     12.50759        -1.107912     -0.699640      0.289414
     16.62719      9.84801     12.50759        -0.699205      1.108098      0.290312
      9.84801     16.62719     12.50759         1.108736     -0.699652      0.288408
     15.00000     11.47521     10.20639        -0.000543      0.403458      1.281006
     15.00000     11.47521     19.79360         0.001986      0.381025     -1.331697
     15.00000      8.28283     15.00000        -0.000792      1.510279      0.005938
      8.28283     15.00000     15.00000         1.508631      0.000782      0.008569
     21.71717     15.00000     15.00000        -1.510393      0.000643      0.006298
     15.00000     21.71717     15.00000        -0.000942     -1.508887      0.008971
     18.35858     11.64142     10.25025        -0.753273      0.753184      1.074245
     18.35858     11.64142     19.74975        -0.749746      0.749333     -1.073639
     11.64142     18.35858     10.25025         0.753518     -0.753560      1.073617
     11.64142     18.35858     19.74975         0.742538     -0.743223     -1.075970
     11.64142     11.64142     10.25025         0.752193      0.753798      1.073797
     11.64142     11.64142     19.74975         0.747614      0.746050     -1.074548
     18.35858     18.35858     10.25025        -0.754200     -0.752561      1.073664
     18.35858     18.35858     19.74975        -0.745488     -0.747276     -1.074936
     13.37281      9.84801     17.49241         0.699765      1.104115     -0.291152
     20.15199     16.62719     17.49241        -1.104224     -0.700265     -0.291728
     16.73751     13.26249     12.54279         0.113406     -0.113677     -0.152397
      9.84801     13.37281     12.50759         1.109220      0.698534      0.288828
     16.62719     20.15199     12.50759        -0.699138     -1.109734      0.288494
     16.62719      9.84801     17.49241        -0.701352      1.105466     -0.288768
      9.84801     16.62719     17.49241         1.102002     -0.701413     -0.293634
     20.15199     13.37281     12.50759        -1.108774      0.698875      0.290175
     13.37281     20.15199     12.50759         0.699463     -1.109522      0.288228
     13.26249     13.26249     12.54279        -0.113523     -0.113718     -0.152774
     15.00000     11.52498     15.00000         0.000087     -0.213292     -0.000224
     18.52479     15.00000     10.20639        -0.404027      0.000317      1.281187
     18.52479     15.00000     19.79360        -0.380550     -0.003035     -1.332591
     11.47521     15.00000     10.20640         0.404903      0.000488      1.280801
     11.47521     15.00000     19.79360         0.377085     -0.003553     -1.333599
     11.49535     11.49535     15.00000         0.818349      0.816553     -0.017798
     18.50465     18.50465     15.00000        -0.817647     -0.819400     -0.016381
     18.50465     11.49535     15.00000        -0.815500      0.814944     -0.021758
     11.49535     18.50465     15.00000         0.821033     -0.821540     -0.010853
     15.00000     15.00000     10.04368        -0.002253      0.002589      1.185549
     15.00000     15.00000     19.95633        -0.212951      0.272517      1.203803
      9.84801     13.37281     17.49241         1.104800      0.702704     -0.289923
     16.62719     20.15199     17.49241        -0.703142     -1.104703     -0.290569
     16.73751     13.26249     17.45721         0.088946     -0.091142      0.164080
     13.26249     16.73751     12.54279        -0.113628      0.113299     -0.153319
     13.26249     13.26249     17.45721        -0.108290     -0.121752      0.143296
     20.15199     13.37281     17.49241        -1.105970      0.701457     -0.288604
     13.37281     20.15199     17.49241         0.701516     -1.102359     -0.293563
     16.73751     16.73751     12.54279         0.113420      0.113131     -0.152978
     11.52498     15.00000     15.00000        -0.214006     -0.000361     -0.001529
     18.47502     15.00000     15.00000         0.213057     -0.000505     -0.000438
     15.00000     18.52480     10.20639        -0.000721     -0.405371      1.281116
     15.00000     18.52480     19.79360         0.002441     -0.377923     -1.332395
     15.00000     15.00000     15.00000         0.000231     -0.000683      0.012461
     13.26249     16.73751     17.45721        -0.136456      0.134654      0.127534
     16.73751     16.73751     17.45721         0.126817      0.113751      0.139039
     15.00000     18.47502     15.00000        -0.000063      0.213751     -0.001637
     14.77759     15.28536     22.04667         0.399789     -0.504035     -5.712189
     14.74204     15.33098     23.17318        -0.145996      0.201574      3.613080
 -----------------------------------------------------------------------------------
    total drift:                                0.009608      0.008934      0.011090


--------------------------------------------------------------------------------------------------------



  FREE ENERGIE OF THE ION-ELECTRON SYSTEM (eV)
  ---------------------------------------------------
  free  energy   TOTEN  =      -174.82182224 eV

  energy  without entropy=     -174.76398468  energy(sigma->0) =     -174.80736285
 


--------------------------------------------------------------------------------------------------------


    POTLOK:  cpu time   13.7720: real time   13.7748


--------------------------------------------------------------------------------------------------------


     LOOP+:  cpu time18375.7242: real time18376.1615
    4ORBIT:  cpu time    0.0000: real time    0.0000

 total amount of memory used by VASP MPI-rank0  5486941. kBytes
=======================================================================

   base      :      30000. kBytes
   nonlr-proj:      17126. kBytes
   fftplans  :     924480. kBytes
   grid      :    1872000. kBytes
   one-center:        886. kBytes
   wavefun   :    2642449. kBytes
 
  
  
 General timing and accounting informations for this job:
 ========================================================
  
                  Total CPU time used (sec):    18448.408
                            User time (sec):    17474.990
                          System time (sec):      973.418
                         Elapsed time (sec):    18449.143
  
                   Maximum memory used (kb):     7177524.
                   Average memory used (kb):           0.
  
                          Minor page faults:    816544310
                          Major page faults:          131
                 Voluntary context switches:          646
