 running on    1 total cores
 distrk:  each k-point on    1 cores,    1 groups
 distr:  one band on    1 cores,    1 groups
 using from now: INCAR     
 vasp.5.4.4.18Apr17-6-g9f103f2a35 (build Sep 03 2018 23:53:05) complex          
  
 POSCAR found type information on POSCAR  Pd C  O 
 POSCAR found :  3 types and      57 ions
 scaLAPACK will be used

 ----------------------------------------------------------------------------- 
|                                                                             |
|  ADVICE TO THIS USER RUNNING 'VASP/VAMP'   (HEAR YOUR MASTER'S VOICE ...):  |
|                                                                             |
|      You enforced a specific xc-type in the INCAR file,                     |
|      a different type was found on the POTCAR file                          |
|          I HOPE YOU KNOW, WHAT YOU ARE  DOING                               |
|                                                                             |
 ----------------------------------------------------------------------------- 

 LDA part: xc-table for Pade appr. of Perdew
 POSCAR, INCAR and KPOINTS ok, starting setup
 FFT: planning ...
 WAVECAR not read
 entering main loop
       N       E                     dE             d eps       ncg     rms          rms(c)
DAV:   1     0.438803184394E+04    0.43880E+04   -0.10052E+05   688   0.815E+02
DAV:   2     0.202896061702E+04   -0.23591E+04   -0.21193E+04  1208   0.105E+02
DAV:   3     0.237696779853E+03   -0.17913E+04   -0.16805E+04  1016   0.919E+01
DAV:   4    -0.133112314867E+03   -0.37081E+03   -0.31238E+03   824   0.436E+01
DAV:   5    -0.179863032819E+03   -0.46751E+02   -0.38344E+02  1056   0.146E+01    0.154E+01
RMM:   6    -0.180846245179E+03   -0.98321E+00   -0.62081E+01   732   0.917E+00    0.269E+01
RMM:   7    -0.182561911522E+03   -0.17157E+01   -0.20028E+01   881   0.411E+00    0.218E+01
RMM:   8    -0.184837204101E+03   -0.22753E+01   -0.77490E+00   776   0.370E+00    0.258E+01
RMM:   9    -0.182740433516E+03    0.20968E+01   -0.54154E+00   735   0.326E+00    0.254E+01
RMM:  10    -0.181325806645E+03    0.14146E+01   -0.33768E+00   740   0.257E+00    0.235E+01
RMM:  11    -0.178881732440E+03    0.24441E+01   -0.25837E+00   723   0.234E+00    0.171E+01
RMM:  12    -0.177943968542E+03    0.93776E+00   -0.21866E+00   715   0.221E+00    0.157E+01
RMM:  13    -0.177777196566E+03    0.16677E+00   -0.15995E+00   723   0.188E+00    0.167E+01
RMM:  14    -0.177946383114E+03   -0.16919E+00   -0.14450E+00   715   0.179E+00    0.212E+01
RMM:  15    -0.176917659336E+03    0.10287E+01   -0.10749E+00   719   0.153E+00    0.165E+01
RMM:  16    -0.176335189383E+03    0.58247E+00   -0.95742E-01   704   0.147E+00    0.141E+01
RMM:  17    -0.175894221410E+03    0.44097E+00   -0.54933E-01   711   0.110E+00    0.101E+01
RMM:  18    -0.175839491964E+03    0.54729E-01   -0.43124E-01   704   0.960E-01    0.103E+01
RMM:  19    -0.175949647400E+03   -0.11016E+00   -0.37103E-01   712   0.915E-01    0.130E+01
RMM:  20    -0.175588880801E+03    0.36077E+00   -0.23862E-01   705   0.745E-01    0.759E+00
RMM:  21    -0.175437040348E+03    0.15184E+00   -0.17707E-01   700   0.646E-01    0.669E+00
RMM:  22    -0.175414440793E+03    0.22600E-01   -0.16957E-01   699   0.619E-01    0.681E+00
RMM:  23    -0.175360881094E+03    0.53560E-01   -0.17376E-01   699   0.636E-01    0.584E+00
RMM:  24    -0.175347658594E+03    0.13223E-01   -0.15289E-01   697   0.607E-01    0.647E+00
RMM:  25    -0.175288960376E+03    0.58698E-01   -0.11422E-01   696   0.539E-01    0.550E+00
RMM:  26    -0.175207260227E+03    0.81700E-01   -0.95205E-02   698   0.491E-01    0.415E+00
RMM:  27    -0.175174414186E+03    0.32846E-01   -0.69854E-02   696   0.422E-01    0.363E+00
RMM:  28    -0.175140655634E+03    0.33759E-01   -0.45171E-02   697   0.338E-01    0.286E+00
RMM:  29    -0.175119134691E+03    0.21521E-01   -0.22937E-02   699   0.250E-01    0.229E+00
RMM:  30    -0.175104217974E+03    0.14917E-01   -0.15450E-02   695   0.203E-01    0.157E+00
RMM:  31    -0.175094499794E+03    0.97182E-02   -0.96989E-03   698   0.161E-01    0.129E+00
RMM:  32    -0.175091185872E+03    0.33139E-02   -0.62347E-03   694   0.125E-01    0.111E+00
RMM:  33    -0.175086573617E+03    0.46123E-02   -0.50630E-03   694   0.115E-01    0.827E-01
RMM:  34    -0.175085825122E+03    0.74849E-03   -0.35251E-03   693   0.957E-02    0.804E-01
RMM:  35    -0.175085886101E+03   -0.60979E-04   -0.27447E-03   690   0.850E-02    0.818E-01
RMM:  36    -0.175084789295E+03    0.10968E-02   -0.21862E-03   686   0.768E-02    0.462E-01
RMM:  37    -0.175086181434E+03   -0.13921E-02   -0.15484E-03   687   0.639E-02    0.491E-01
RMM:  38    -0.175087908154E+03   -0.17267E-02   -0.11824E-03   682   0.567E-02    0.323E-01
RMM:  39    -0.175088853870E+03   -0.94572E-03   -0.64179E-04   659   0.423E-02    0.224E-01
RMM:  40    -0.175091747530E+03   -0.28937E-02   -0.66093E-04   649   0.400E-02    0.301E-01
RMM:  41    -0.175094521893E+03   -0.27744E-02   -0.60234E-04   605   0.364E-02    0.167E-01
RMM:  42    -0.175096544936E+03   -0.20230E-02   -0.37868E-04   486   0.291E-02    0.160E-01
RMM:  43    -0.175100936817E+03   -0.43919E-02   -0.77337E-04   609   0.344E-02    0.171E-01
RMM:  44    -0.175102515002E+03   -0.15782E-02   -0.34528E-04   465   0.239E-02    0.106E-01
RMM:  45    -0.175104147250E+03   -0.16322E-02   -0.24313E-04   430   0.198E-02    0.122E-01
RMM:  46    -0.175105884069E+03   -0.17368E-02   -0.23279E-04   423   0.193E-02    0.913E-02
RMM:  47    -0.175106705345E+03   -0.82128E-03   -0.12947E-04   415   0.147E-02    0.666E-02
RMM:  48    -0.175108143398E+03   -0.14381E-02   -0.12666E-04   408   0.134E-02    0.716E-02
RMM:  49    -0.175108726973E+03   -0.58358E-03   -0.71730E-05   415   0.102E-02    0.357E-02
RMM:  50    -0.175109412446E+03   -0.68547E-03   -0.47384E-05   407   0.822E-03    0.461E-02
RMM:  51    -0.175110051083E+03   -0.63864E-03   -0.34497E-05   398   0.713E-03    0.323E-02
RMM:  52    -0.175110538489E+03   -0.48741E-03   -0.20178E-05   332   0.557E-03    0.275E-02
RMM:  53    -0.175111110306E+03   -0.57182E-03   -0.19007E-05   333   0.542E-03    0.188E-02
RMM:  54    -0.175111478932E+03   -0.36863E-03   -0.85730E-06   228   0.434E-03    0.191E-02
RMM:  55    -0.175111824854E+03   -0.34592E-03   -0.93647E-06   211   0.428E-03    0.137E-02
RMM:  56    -0.175112050054E+03   -0.22520E-03   -0.65783E-06   179   0.403E-03    0.154E-02
RMM:  57    -0.175112385928E+03   -0.33587E-03   -0.13072E-05   229   0.450E-03    0.107E-02
RMM:  58    -0.175112550897E+03   -0.16497E-03   -0.10748E-05   204   0.400E-03    0.976E-03
RMM:  59    -0.175112723820E+03   -0.17292E-03   -0.87133E-06   173   0.384E-03    0.695E-03
RMM:  60    -0.175112801491E+03   -0.77671E-04   -0.61189E-06   152   0.354E-03
   1 F= -.17511280E+03 E0= -.17508895E+03  d E =-.954098E-01
================================= SLURM INFO ===================================
Command: run-cluster -n 1 -m 10000 -j 0163_vasp --same-node /opt/VASP/vasp
Exit code: 0
Job name: 0163_vasp
Job time: 0 days 5h:7m:15s
MPI task count: 1
Working dir: /home/pashkov/pyFitIt/pyfitit/data/random_pd_co_new/sample/0163
Job was running on nodes: h5
Task per node: 1
       JobID     MaxRSS  MaxDiskRead MaxDiskWrite    Elapsed    JobName 
------------ ---------- ------------ ------------ ---------- ---------- 
105527                                              05:07:16  0163_vasp 
105527.batch                                        05:07:16      batch 
