 vasp.5.4.4.18Apr17-6-g9f103f2a35 (build Sep 03 2018 23:53:05) complex          
  
 executed on             LinuxIFC date 2021.11.30  19:33:35
 running on    1 total cores
 distrk:  each k-point on    1 cores,    1 groups
 distr:  one band on NCORES_PER_BAND=   1 cores,    1 groups


--------------------------------------------------------------------------------------------------------


 INCAR:
 POTCAR:    PAW_PBE Pd 04Jan2005                  
 POTCAR:    PAW_PBE C 08Apr2002                   
 POTCAR:    PAW_PBE O 08Apr2002                   
 POTCAR:    PAW_PBE Pd 04Jan2005                  
   VRHFIN =Pd : s1 d9                                                           
   LEXCH  = PE                                                                  
   EATOM  =   809.7530 eV,   59.5152 Ry                                         
                                                                                
   TITEL  = PAW_PBE Pd 04Jan2005                                                
   LULTRA =        F    use ultrasoft PP ?                                      
   IUNSCR =        1    unscreen: 0-lin 1-nonlin 2-no                           
   RPACOR =    2.000    partial core radius                                     
   POMASS =  106.420; ZVAL   =   10.000    mass and valenz                      
   RCORE  =    2.600    outmost cutoff radius                                   
   RWIGS  =    2.710; RWIGS  =    1.434    wigner-seitz radius (au A)           
   ENMAX  =  250.925; ENMIN  =  188.194 eV                                      
   ICORE  =        3    local potential                                         
   LCOR   =        T    correct aug charges                                     
   LPAW   =        T    paw PP                                                  
   EAUG   =  416.230                                                            
   DEXC   =    0.000                                                            
   RMAX   =    2.653    core radius for proj-oper                               
   RAUG   =    1.300    factor for augmentation sphere                          
   RDEP   =    2.734    radius for radial grids                                 
   RDEPT  =    2.103    core radius for aug-charge                              
                                                                                
   Atomic configuration                                                         
   12 entries                                                                   
     n  l   j            E        occ.                                          
     1  0  0.50    -24164.6631   2.0000                                         
     2  0  0.50     -3530.9218   2.0000                                         
     2  1  1.50     -3165.6822   6.0000                                         
     3  0  0.50      -639.4577   2.0000                                         
     3  1  1.50      -519.4532   6.0000                                         
     3  2  2.50      -328.9757  10.0000                                         
     4  0  0.50       -88.7014   2.0000                                         
     4  1  1.50       -54.4540   6.0000                                         
     4  2  2.50        -6.6878   9.0000                                         
     5  0  0.50        -4.3543   1.0000                                         
     5  1  0.50        -1.3606   0.0000                                         
     4  3  2.50        -1.3606   0.0000                                         
   Description                                                                  
     l       E           TYP  RCUT    TYP  RCUT                                 
     2     -6.6878251     23  2.400                                             
     2     -8.0484077     23  2.400                                             
     0     -4.3542939     23  2.400                                             
     0      4.3406793     23  2.400                                             
     1     -4.0817478     23  2.600                                             
     1     15.8380318     23  2.600                                             
     3     -4.0817478     23  2.400                                             
  local pseudopotential read in
  partial core-charges read in
  partial kinetic energy density read in
  atomic valenz-charges read in
  non local Contribution for L=           2  read in
    real space projection operators read in
  non local Contribution for L=           2  read in
    real space projection operators read in
  non local Contribution for L=           0  read in
    real space projection operators read in
  non local Contribution for L=           0  read in
    real space projection operators read in
  non local Contribution for L=           1  read in
    real space projection operators read in
  non local Contribution for L=           1  read in
    real space projection operators read in
    PAW grid and wavefunctions read in
 
   number of l-projection  operators is LMAX  =           6
   number of lm-projection operators is LMMAX =          18
 
 POTCAR:    PAW_PBE C 08Apr2002                   
   VRHFIN =C: s2p2                                                              
   LEXCH  = PE                                                                  
   EATOM  =   147.1560 eV,   10.8157 Ry                                         
                                                                                
   TITEL  = PAW_PBE C 08Apr2002                                                 
   LULTRA =        F    use ultrasoft PP ?                                      
   IUNSCR =        1    unscreen: 0-lin 1-nonlin 2-no                           
   RPACOR =    1.200    partial core radius                                     
   POMASS =   12.011; ZVAL   =    4.000    mass and valenz                      
   RCORE  =    1.500    outmost cutoff radius                                   
   RWIGS  =    1.630; RWIGS  =    0.863    wigner-seitz radius (au A)           
   ENMAX  =  400.000; ENMIN  =  300.000 eV                                      
   ICORE  =        2    local potential                                         
   LCOR   =        T    correct aug charges                                     
   LPAW   =        T    paw PP                                                  
   EAUG   =  644.873                                                            
   DEXC   =    0.000                                                            
   RMAX   =    1.529    core radius for proj-oper                               
   RAUG   =    1.300    factor for augmentation sphere                          
   RDEP   =    1.501    radius for radial grids                                 
   RDEPT  =    1.300    core radius for aug-charge                              
                                                                                
   Atomic configuration                                                         
    4 entries                                                                   
     n  l   j            E        occ.                                          
     1  0  0.50      -273.3789   2.0000                                         
     2  0  0.50       -13.7508   2.0000                                         
     2  1  0.50        -5.2854   2.0000                                         
     3  2  1.50        -5.4423   0.0000                                         
   Description                                                                  
     l       E           TYP  RCUT    TYP  RCUT                                 
     0    -13.7508458     23  1.200                                             
     0     -8.2022199     23  1.200                                             
     1     -5.2854383     23  1.500                                             
     1     34.0145650     23  1.500                                             
     2     -5.4423304      7  1.500                                             
  local pseudopotential read in
  partial core-charges read in
  partial kinetic energy density read in
  atomic valenz-charges read in
  non local Contribution for L=           0  read in
    real space projection operators read in
  non local Contribution for L=           0  read in
    real space projection operators read in
  non local Contribution for L=           1  read in
    real space projection operators read in
  non local Contribution for L=           1  read in
    real space projection operators read in
    PAW grid and wavefunctions read in
 
   number of l-projection  operators is LMAX  =           4
   number of lm-projection operators is LMMAX =           8
 
 POTCAR:    PAW_PBE O 08Apr2002                   
   VRHFIN =O: s2p4                                                              
   LEXCH  = PE                                                                  
   EATOM  =   432.3788 eV,   31.7789 Ry                                         
                                                                                
   TITEL  = PAW_PBE O 08Apr2002                                                 
   LULTRA =        F    use ultrasoft PP ?                                      
   IUNSCR =        1    unscreen: 0-lin 1-nonlin 2-no                           
   RPACOR =    1.200    partial core radius                                     
   POMASS =   16.000; ZVAL   =    6.000    mass and valenz                      
   RCORE  =    1.520    outmost cutoff radius                                   
   RWIGS  =    1.550; RWIGS  =    0.820    wigner-seitz radius (au A)           
   ENMAX  =  400.000; ENMIN  =  300.000 eV                                      
   ICORE  =        2    local potential                                         
   LCOR   =        T    correct aug charges                                     
   LPAW   =        T    paw PP                                                  
   EAUG   =  605.392                                                            
   DEXC   =    0.000                                                            
   RMAX   =    1.553    core radius for proj-oper                               
   RAUG   =    1.300    factor for augmentation sphere                          
   RDEP   =    1.550    radius for radial grids                                 
   RDEPT  =    1.329    core radius for aug-charge                              
                                                                                
   Atomic configuration                                                         
    4 entries                                                                   
     n  l   j            E        occ.                                          
     1  0  0.50      -514.6923   2.0000                                         
     2  0  0.50       -23.9615   2.0000                                         
     2  1  0.50        -9.0305   4.0000                                         
     3  2  1.50        -9.5241   0.0000                                         
   Description                                                                  
     l       E           TYP  RCUT    TYP  RCUT                                 
     0    -23.9615318     23  1.200                                             
     0     -9.5240782     23  1.200                                             
     1     -9.0304911     23  1.520                                             
     1      8.1634956     23  1.520                                             
     2     -9.5240782      7  1.500                                             
  local pseudopotential read in
  partial core-charges read in
  partial kinetic energy density read in
  kinetic energy density of atom read in
  atomic valenz-charges read in
  non local Contribution for L=           0  read in
    real space projection operators read in
  non local Contribution for L=           0  read in
    real space projection operators read in
  non local Contribution for L=           1  read in
    real space projection operators read in
  non local Contribution for L=           1  read in
    real space projection operators read in
    PAW grid and wavefunctions read in
 
   number of l-projection  operators is LMAX  =           4
   number of lm-projection operators is LMMAX =           8
 
 Optimization of the real space projectors (new method)

 maximal supplied QI-value         = 14.36
 optimisation between [QCUT,QGAM] = [ 10.20, 20.39] = [ 29.12,116.47] Ry 
 Optimized for a Real-space Cutoff    1.51 Angstroem

   l    n(q)    QCUT    max X(q) W(low)/X(q) W(high)/X(q)  e(spline) 
   2      8    10.197    59.108    0.26E-03    0.14E-03    0.96E-07
   2      8    10.197    58.101    0.27E-03    0.14E-03    0.98E-07
   0      9    10.197   102.235    0.54E-04    0.60E-05    0.72E-07
   0      9    10.197    58.388    0.52E-04    0.60E-05    0.68E-07
   1      9    10.197    22.191    0.18E-03    0.25E-03    0.79E-07
   1      9    10.197    15.590    0.15E-03    0.21E-03    0.69E-07
 Optimization of the real space projectors (new method)

 maximal supplied QI-value         = 25.13
 optimisation between [QCUT,QGAM] = [ 10.05, 20.36] = [ 28.30,116.06] Ry 
 Optimized for a Real-space Cutoff    1.30 Angstroem

   l    n(q)    QCUT    max X(q) W(low)/X(q) W(high)/X(q)  e(spline) 
   0      8    10.053   115.676    0.49E-03    0.72E-03    0.18E-06
   0      8    10.053    87.132    0.49E-03    0.71E-03    0.18E-06
   1      7    10.053     4.429    0.32E-03    0.31E-03    0.18E-06
   1      7    10.053     2.733    0.23E-03    0.19E-03    0.20E-06
 Optimization of the real space projectors (new method)

 maximal supplied QI-value         = 24.76
 optimisation between [QCUT,QGAM] = [ 10.15, 20.30] = [ 28.85,115.39] Ry 
 Optimized for a Real-space Cutoff    1.38 Angstroem

   l    n(q)    QCUT    max X(q) W(low)/X(q) W(high)/X(q)  e(spline) 
   0      8    10.150    20.381    0.22E-03    0.32E-03    0.29E-06
   0      8    10.150    15.268    0.23E-03    0.35E-03    0.30E-06
   1      8    10.150     5.964    0.46E-03    0.53E-03    0.21E-06
   1      8    10.150     5.382    0.38E-03    0.45E-03    0.19E-06

 ----------------------------------------------------------------------------- 
|                                                                             |
|  ADVICE TO THIS USER RUNNING 'VASP/VAMP'   (HEAR YOUR MASTER'S VOICE ...):  |
|                                                                             |
|      You enforced a specific xc-type in the INCAR file,                     |
|      a different type was found on the POTCAR file                          |
|          I HOPE YOU KNOW, WHAT YOU ARE  DOING                               |
|                                                                             |
 ----------------------------------------------------------------------------- 

  PAW_PBE Pd 04Jan2005                  :
 energy of atom  1       EATOM= -809.7530
 kinetic energy error for atom=    0.0091 (will be added to EATOM!!)
  PAW_PBE C 08Apr2002                   :
 energy of atom  2       EATOM= -147.1560
 kinetic energy error for atom=    0.0288 (will be added to EATOM!!)
  PAW_PBE O 08Apr2002                   :
 energy of atom  3       EATOM= -432.3788
 kinetic energy error for atom=    0.1156 (will be added to EATOM!!)
 
 
 POSCAR: Pd55PES                                 
  positions in cartesian coordinates
  No initial velocities read in
 exchange correlation table for  LEXCH =        9
   RHO(1)=    0.500       N(1)  =     2000
   RHO(2)=  100.500       N(2)  =     4000
 


--------------------------------------------------------------------------------------------------------


 ion  position               nearest neighbor table
   1  0.446  0.328  0.417-   3 3.25   5 3.25   7 3.36  15 3.36  29 3.42  28 3.42
   2  0.672  0.554  0.417-  26 3.25  30 3.25  17 3.36   9 3.36  47 3.42  49 3.42
   3  0.554  0.328  0.417-   1 3.25   5 3.25   7 3.36  11 3.36  29 3.42  21 3.42
   4  0.328  0.554  0.417-  32 3.25  22 3.25  13 3.36   8 3.36  43 3.42  48 3.42
   5  0.500  0.383  0.340-   1 3.25   3 3.25  11 3.36  15 3.36  21 3.42  28 3.42
   6  0.500  0.383  0.660-  24 3.25  19 3.25  16 3.36  12 3.36  42 3.42  44 3.42
   7  0.500  0.276  0.500-  29 3.24   3 3.36   1 3.36  19 3.36  24 3.36
   8  0.276  0.500  0.500-  48 3.24  22 3.36  40 3.36   4 3.36  25 3.36
   9  0.724  0.500  0.500-  49 3.24  26 3.36  45 3.36   2 3.36  20 3.36
  10  0.500  0.724  0.500-  55 3.24  27 3.36  23 3.36  46 3.36  41 3.36
  11  0.612  0.388  0.342-  21 3.24   5 3.36   3 3.36  30 3.36  26 3.36
  12  0.612  0.388  0.658-  42 3.24  24 3.36  45 3.36   6 3.36  31 3.36
  13  0.388  0.612  0.342-  43 3.24  32 3.36  50 3.36   4 3.36  27 3.36
  14  0.388  0.612  0.658-  53 3.24  25 3.36  33 3.36  51 3.36  46 3.36
  15  0.388  0.388  0.342-  28 3.24   5 3.36   1 3.36  32 3.36  22 3.36
  16  0.388  0.388  0.658-  44 3.24  19 3.36  40 3.36   6 3.36  33 3.36
  17  0.612  0.612  0.342-  47 3.24  30 3.36  50 3.36   2 3.36  23 3.36
  18  0.612  0.612  0.658-  54 3.24  31 3.36  20 3.36  51 3.36  41 3.36
  19  0.446  0.328  0.583-   6 3.25  24 3.25  16 3.36   7 3.36  44 3.42  29 3.42
  20  0.672  0.554  0.583-  56 2.68  31 3.25  45 3.25  18 3.36   9 3.36  54 3.42  49 3.42
  21  0.558  0.442  0.418-  11 3.24   5 3.42   3 3.42  30 3.42  26 3.42
  22  0.328  0.446  0.417-   4 3.25  32 3.25   8 3.36  15 3.36  48 3.42  28 3.42
  23  0.554  0.672  0.417-  27 3.25  50 3.25  10 3.36  17 3.36  55 3.42  47 3.42
  24  0.554  0.328  0.583-   6 3.25  19 3.25  12 3.36   7 3.36  42 3.42  29 3.42
  25  0.328  0.554  0.583-  33 3.25  40 3.25  14 3.36   8 3.36  53 3.42  48 3.42
  26  0.672  0.446  0.417-   2 3.25  30 3.25   9 3.36  11 3.36  49 3.42  21 3.42
  27  0.446  0.672  0.417-  23 3.25  50 3.25  10 3.36  13 3.36  55 3.42  43 3.42
  28  0.442  0.442  0.418-  15 3.24   5 3.42   1 3.42  32 3.42  22 3.42
  29  0.500  0.384  0.500-   7 3.24   3 3.42   1 3.42  24 3.42  19 3.42
  30  0.617  0.500  0.340-   2 3.25  26 3.25  17 3.36  11 3.36  47 3.42  21 3.42
  31  0.617  0.500  0.660-  56 2.08  20 3.25  45 3.25  18 3.36  12 3.36  54 3.42  42 3.42
  32  0.383  0.500  0.340-   4 3.25  22 3.25  13 3.36  15 3.36  43 3.42  28 3.42
  33  0.383  0.500  0.660-  25 3.25  40 3.25  14 3.36  16 3.36  53 3.42  44 3.42
  34  0.383  0.383  0.500-
  35  0.617  0.617  0.500-
  36  0.617  0.383  0.500-
  37  0.383  0.617  0.500-
  38  0.500  0.500  0.335-
  39  0.500  0.500  0.665-
  40  0.328  0.446  0.583-  33 3.25  25 3.25  16 3.36   8 3.36  44 3.42  48 3.42
  41  0.554  0.672  0.583-  46 3.25  51 3.25  10 3.36  18 3.36  54 3.42  55 3.42
  42  0.558  0.442  0.582-  12 3.24   6 3.42  24 3.42  31 3.42  45 3.42
  43  0.442  0.558  0.418-  13 3.24   4 3.42  32 3.42  27 3.42  50 3.42
  44  0.442  0.442  0.582-  16 3.24   6 3.42  19 3.42  33 3.42  40 3.42
  45  0.672  0.446  0.583-  56 1.96  20 3.25  31 3.25   9 3.36  12 3.36  49 3.42  42 3.42
  46  0.446  0.672  0.583-  41 3.25  51 3.25  10 3.36  14 3.36  53 3.42  55 3.42
  47  0.558  0.558  0.418-  17 3.24   2 3.42  30 3.42  23 3.42  50 3.42
  48  0.384  0.500  0.500-   8 3.24   4 3.42  22 3.42  25 3.42  40 3.42
  49  0.616  0.500  0.500-   9 3.24   2 3.42  26 3.42  20 3.42  45 3.42
  50  0.500  0.617  0.340-  27 3.25  23 3.25  13 3.36  17 3.36  43 3.42  47 3.42
  51  0.500  0.617  0.660-  41 3.25  46 3.25  14 3.36  18 3.36  53 3.42  54 3.42
  52  0.500  0.500  0.500-
  53  0.442  0.558  0.582-  14 3.24  25 3.42  33 3.42  51 3.42  46 3.42
  54  0.558  0.558  0.582-  18 3.24  31 3.42  20 3.42  51 3.42  41 3.42
  55  0.500  0.616  0.500-  10 3.24  23 3.42  27 3.42  41 3.42  46 3.42
  56  0.681  0.483  0.636-  57 1.13  45 1.96  31 2.08  20 2.68
  57  0.710  0.480  0.659-  56 1.13
 
  LATTYP: Found a simple cubic cell.
 ALAT       =    30.0000000000
  
  Lattice vectors:
  
 A1 = (  30.0000000000,   0.0000000000,   0.0000000000)
 A2 = (   0.0000000000,  30.0000000000,   0.0000000000)
 A3 = (   0.0000000000,   0.0000000000,  30.0000000000)


Analysis of symmetry for initial positions (statically):
=====================================================================
 Subroutine PRICEL returns:
 Original cell was already a primitive cell.
 

 Routine SETGRP: Setting up the symmetry group for a 
 simple cubic supercell.


 Subroutine GETGRP returns: Found  1 space group operations
 (whereof  1 operations were pure point group operations)
 out of a pool of 48 trial point group operations.


The static configuration has the point symmetry C_1 .


Analysis of symmetry for dynamics (positions and initial velocities):
=====================================================================
 Subroutine PRICEL returns:
 Original cell was already a primitive cell.
 

 Routine SETGRP: Setting up the symmetry group for a 
 simple cubic supercell.


 Subroutine GETGRP returns: Found  1 space group operations
 (whereof  1 operations were pure point group operations)
 out of a pool of 48 trial point group operations.


The dynamic configuration has the point symmetry C_1 .


Analysis of constrained symmetry for selective dynamics:
=====================================================================
 Subroutine PRICEL returns:
 Original cell was already a primitive cell.
 

 Routine SETGRP: Setting up the symmetry group for a 
 simple cubic supercell.


 Subroutine GETGRP returns: Found  1 space group operations
 (whereof  1 operations were pure point group operations)
 out of a pool of 48 trial point group operations.


The constrained configuration has the point symmetry C_1 .


 Subroutine INISYM returns: Found  1 space group operations
 (whereof  1 operations are pure point group operations),
 and found     1 'primitive' translations

 
 
 KPOINTS: K-points                                

Automatic generation of k-mesh.
Space group operators:
 irot       det(A)        alpha          n_x          n_y          n_z        tau_x        tau_y        tau_z
    1     1.000000     0.000000     1.000000     0.000000     0.000000     0.000000     0.000000     0.000000
 
 Subroutine IBZKPT returns following result:
 ===========================================
 
 Found      1 irreducible k-points:
 
 Following reciprocal coordinates:
            Coordinates               Weight
  0.000000  0.000000  0.000000      1.000000
 
 Following cartesian coordinates:
            Coordinates               Weight
  0.000000  0.000000  0.000000      1.000000
 


--------------------------------------------------------------------------------------------------------




 Dimension of arrays:
   k-points           NKPTS =      1   k-points in BZ     NKDIM =      1   number of bands    NBANDS=    336
   number of dos      NEDOS =    301   number of ions     NIONS =     57
   non local maximal  LDIM  =      6   non local SUM 2l+1 LMDIM =     18
   total plane-waves  NPLWV = ******
   max r-space proj   IRMAX =   1847   max aug-charges    IRDMAX=   6262
   dimension x,y,z NGX =   150 NGY =  150 NGZ =  150
   dimension x,y,z NGXF=   300 NGYF=  300 NGZF=  300
   support grid    NGXF=   300 NGYF=  300 NGZF=  300
   ions per type =              55   1   1
   NGX,Y,Z   is equivalent  to a cutoff of   8.31,  8.31,  8.31 a.u.
   NGXF,Y,Z  is equivalent  to a cutoff of  16.62, 16.62, 16.62 a.u.

 SYSTEM =  6_Pd100_top_free_z(O)                   
 POSCAR =  Pd55PES                                 

 Startparameter for this run:
   NWRITE =      2    write-flag & timer
   PREC   = normal    normal or accurate (medium, high low for compatibility)
   ISTART =      0    job   : 0-new  1-cont  2-samecut
   ICHARG =      2    charge: 1-file 2-atom 10-const
   ISPIN  =      1    spin polarized calculation?
   LNONCOLLINEAR =      F non collinear calculations
   LSORBIT =      F    spin-orbit coupling
   INIWAV =      1    electr: 0-lowe 1-rand  2-diag
   LASPH  =      F    aspherical Exc in radial PAW
   METAGGA=      F    non-selfconsistent MetaGGA calc.

 Electronic Relaxation 1
   ENCUT  =  400.0 eV  29.40 Ry    5.42 a.u.  48.92 48.92 48.92*2*pi/ulx,y,z
   ENINI  =  400.0     initial cutoff
   ENAUG  =  644.9 eV  augmentation charge cutoff
   NELM   =    100;   NELMIN=  6; NELMDL= -5     # of ELM steps 
   EDIFF  = 0.1E-03   stopping-criterion for ELM
   LREAL  =      T    real-space projection
   NLSPLINE    = F    spline interpolate recip. space projectors
   LCOMPAT=      F    compatible to vasp.4.4
   GGA_COMPAT  = T    GGA compatible to vasp.4.4-vasp.4.6
   LMAXPAW     = -100 max onsite density
   LMAXMIX     =    2 max onsite mixed and CHGCAR
   VOSKOWN=      0    Vosko Wilk Nusair interpolation
   ROPT   =   -0.00050  -0.00050  -0.00050
 Ionic relaxation
   EDIFFG = -.5E-01   stopping-criterion for IOM
   NSW    =      0    number of steps for IOM
   NBLOCK =      1;   KBLOCK =      1    inner block; outer block 
   IBRION =     -1    ionic relax: 0-MD 1-quasi-New 2-CG
   NFREE  =      1    steps in history (QN), initial steepest desc. (CG)
   ISIF   =      2    stress and relaxation
   IWAVPR =     10    prediction:  0-non 1-charg 2-wave 3-comb
   ISYM   =      2    0-nonsym 1-usesym 2-fastsym
   LCORR  =      T    Harris-Foulkes like correction to forces

   POTIM  = 0.5000    time-step for ionic-motion
   TEIN   =    0.0    initial temperature
   TEBEG  =    0.0;   TEEND  =   0.0 temperature during run
   SMASS  =  -3.00    Nose mass-parameter (am)
   estimated Nose-frequenzy (Omega)   =  0.10E-29 period in steps =****** mass=  -0.206E-25a.u.
   SCALEE = 1.0000    scale energy and forces
   NPACO  =    256;   APACO  = 16.0  distance and # of slots for P.C.
   PSTRESS=    0.0 pullay stress

  Mass of Ions in am
   POMASS = 106.42 12.01 16.00
  Ionic Valenz
   ZVAL   =  10.00  4.00  6.00
  Atomic Wigner-Seitz radii
   RWIGS  =  -1.00 -1.00 -1.00
  virtual crystal weights 
   VCA    =   1.00  1.00  1.00
   NELECT =     560.0000    total number of electrons
   NUPDOWN=      -1.0000    fix difference up-down

 DOS related values:
   EMIN   =  10.00;   EMAX   =-10.00  energy-range for DOS
   EFERMI =   0.00
   ISMEAR =     2;   SIGMA  =   0.20  broadening in eV -4-tet -1-fermi 0-gaus

 Electronic relaxation 2 (details)
   IALGO  =     68    algorithm
   LDIAG  =      T    sub-space diagonalisation (order eigenvalues)
   LSUBROT=      F    optimize rotation matrix (better conditioning)
   TURBO    =      0    0=normal 1=particle mesh
   IRESTART =      0    0=no restart 2=restart with 2 vectors
   NREBOOT  =      0    no. of reboots
   NMIN     =      0    reboot dimension
   EREF     =   0.00    reference energy to select bands
   IMIX   =      4    mixing-type and parameters
     AMIX     =   0.40;   BMIX     =  1.00
     AMIX_MAG =   1.60;   BMIX_MAG =  1.00
     AMIN     =   0.10
     WC   =   100.;   INIMIX=   1;  MIXPRE=   1;  MAXMIX= -45

 Intra band minimization:
   WEIMIN = 0.0000     energy-eigenvalue tresh-hold
   EBREAK =  0.74E-07  absolut break condition
   DEPER  =   0.30     relativ break condition  

   TIME   =   0.40     timestep for ELM

  volume/ion in A,a.u.               =     473.68      3196.58
  Fermi-wavevector in a.u.,A,eV,Ry     =   0.449797  0.849992  2.752691  0.202317
  Thomas-Fermi vector in A             =   1.430086
 
 Write flags
   LWAVE        =      F    write WAVECAR
   LDOWNSAMPLE  =      F    k-point downsampling of WAVECAR
   LCHARG       =      F    write CHGCAR
   LVTOT        =      F    write LOCPOT, total local potential
   LVHAR        =      F    write LOCPOT, Hartree potential only
   LELF         =      F    write electronic localiz. function (ELF)
   LORBIT       =      0    0 simple, 1 ext, 2 COOP (PROOUT), +10 PAW based schemes


 Dipole corrections
   LMONO  =      F    monopole corrections only (constant potential shift)
   LDIPOL =      F    correct potential (dipole corrections)
   IDIPOL =      0    1-x, 2-y, 3-z, 4-all directions 
   EPSILON=  1.0000000 bulk dielectric constant

 Exchange correlation treatment:
   GGA     =    RP    GGA type
   LEXCH   =     9    internal setting for exchange type
   VOSKOWN=      0    Vosko Wilk Nusair interpolation
   LHFCALC =     F    Hartree Fock is set to
   LHFONE  =     F    Hartree Fock one center treatment
   AEXX    =    0.0000 exact exchange contribution

 Linear response parameters
   LEPSILON=     F    determine dielectric tensor
   LRPA    =     F    only Hartree local field effects (RPA)
   LNABLA  =     F    use nabla operator in PAW spheres
   LVEL    =     F    velocity operator in full k-point grid
   LINTERFAST=   F  fast interpolation
   KINTER  =     0    interpolate to denser k-point grid
   CSHIFT  =0.1000    complex shift for real part using Kramers Kronig
   OMEGAMAX=  -1.0    maximum frequency
   DEG_THRESHOLD= 0.2000000E-02 threshold for treating states as degnerate
   RTIME   =   -0.100 relaxation time in fs
  (WPLASMAI=    0.000 imaginary part of plasma frequency in eV, 0.658/RTIME)
   DFIELD  = 0.0000000 0.0000000 0.0000000 field for delta impulse in time
 
 Orbital magnetization related:
   ORBITALMAG=     F  switch on orbital magnetization
   LCHIMAG   =     F  perturbation theory with respect to B field
   DQ        =  0.001000  dq finite difference perturbation B field
   LLRAUG    =     F  two centre corrections for induced B field



--------------------------------------------------------------------------------------------------------


 Static calculation
 charge density and potential will be updated during run
 non-spin polarized calculation
 RMM-DIIS sequential band-by-band and
  variant of blocked Davidson during initial phase
 perform sub-space diagonalisation
    before iterative eigenvector-optimisation
 modified Broyden-mixing scheme, WC =      100.0
 initial mixing is a Kerker type mixing with AMIX =  0.4000 and BMIX =      1.0000
 Hartree-type preconditioning will be used
 using additional bands           56
 real space projection scheme for non local part
 use partial core corrections
 calculate Harris-corrections to forces 
   (improved forces if not selfconsistent)
 use gradient corrections 
 use of overlap-Matrix (Vanderbilt PP)
 Methfessel and Paxton  Order N= 2 SIGMA  =   0.20


--------------------------------------------------------------------------------------------------------


  energy-cutoff  :      400.00
  volume of cell :    27000.00
      direct lattice vectors                 reciprocal lattice vectors
    30.000000000  0.000000000  0.000000000     0.033333333  0.000000000  0.000000000
     0.000000000 30.000000000  0.000000000     0.000000000  0.033333333  0.000000000
     0.000000000  0.000000000 30.000000000     0.000000000  0.000000000  0.033333333

  length of vectors
    30.000000000 30.000000000 30.000000000     0.033333333  0.033333333  0.033333333


 
 k-points in units of 2pi/SCALE and weight: K-points                                
   0.00000000  0.00000000  0.00000000       1.000
 
 k-points in reciprocal lattice and weights: K-points                                
   0.00000000  0.00000000  0.00000000       1.000
 
 position of ions in fractional coordinates (direct lattice) 
   0.44576020  0.32826710  0.41691983
   0.67173288  0.55423978  0.41691983
   0.55423980  0.32826710  0.41691983
   0.32826712  0.55423978  0.41691983
   0.50000000  0.38250690  0.34021317
   0.50000000  0.38250690  0.65978680
   0.50000000  0.27609440  0.50000000
   0.27609443  0.49999998  0.50000000
   0.72390557  0.49999998  0.50000000
   0.50000000  0.72390555  0.50000000
   0.61195280  0.38804720  0.34167483
   0.61195280  0.38804720  0.65832513
   0.38804722  0.61195278  0.34167483
   0.38804722  0.61195278  0.65832513
   0.38804720  0.38804720  0.34167483
   0.38804720  0.38804720  0.65832513
   0.61195278  0.61195278  0.34167483
   0.61195278  0.61195278  0.65832513
   0.44576020  0.32826710  0.58308023
   0.67173288  0.55423978  0.58308023
   0.55791699  0.44208301  0.41809300
   0.32826705  0.44576024  0.41691983
   0.55423973  0.67173293  0.41691983
   0.55423980  0.32826710  0.58308023
   0.32826712  0.55423978  0.58308023
   0.67173295  0.44576024  0.41691983
   0.44576027  0.67173293  0.41691983
   0.44208301  0.44208301  0.41809300
   0.50000000  0.38416601  0.50000000
   0.61749315  0.50000005  0.34021317
   0.61749315  0.50000005  0.65978680
   0.38250685  0.50000005  0.34021317
   0.38250685  0.50000005  0.65978680
   0.38317830  0.38317830  0.50000000
   0.61682172  0.61682172  0.50000000
   0.61682170  0.38317830  0.50000000
   0.38317828  0.61682172  0.50000000
   0.50000000  0.50000000  0.33478917
   0.50000000  0.50000000  0.66521087
   0.32826705  0.44576024  0.58308023
   0.55423973  0.67173293  0.58308023
   0.55791699  0.44208301  0.58190703
   0.44208298  0.55791702  0.41809300
   0.44208301  0.44208301  0.58190703
   0.67173295  0.44576024  0.58308023
   0.44576027  0.67173293  0.58308023
   0.55791702  0.55791702  0.41809300
   0.38416599  0.50000002  0.50000000
   0.61583401  0.50000002  0.50000000
   0.50000000  0.61749319  0.34021317
   0.50000000  0.61749319  0.65978680
   0.50000000  0.50000000  0.50000000
   0.44208298  0.55791702  0.58190703
   0.55791702  0.55791702  0.58190703
   0.50000000  0.61583404  0.50000000
   0.68052657  0.48293520  0.63614740
   0.71046127  0.48010557  0.65872320
 
 position of ions in cartesian coordinates  (Angst):
  13.37280588  9.84801292 12.50759500
  20.15198637 16.62719342 12.50759500
  16.62719412  9.84801292 12.50759500
   9.84801363 16.62719342 12.50759500
  15.00000000 11.47520705 10.20639500
  15.00000000 11.47520705 19.79360400
  15.00000000  8.28283206 15.00000000
   8.28283277 14.99999929 15.00000000
  21.71716723 14.99999929 15.00000000
  15.00000000 21.71716652 14.99999999
  18.35858397 11.64141603 10.25024500
  18.35858397 11.64141603 19.74975399
  11.64141674 18.35858326 10.25024500
  11.64141674 18.35858326 19.74975400
  11.64141603 11.64141603 10.25024500
  11.64141603 11.64141603 19.74975400
  18.35858326 18.35858326 10.25024500
  18.35858326 18.35858326 19.74975400
  13.37280588  9.84801291 17.49240700
  20.15198638 16.62719341 17.49240700
  16.73750985 13.26249015 12.54279000
   9.84801151 13.37280729 12.50759500
  16.62719200 20.15198779 12.50759500
  16.62719412  9.84801292 17.49240700
   9.84801363 16.62719342 17.49240700
  20.15198849 13.37280729 12.50759500
  13.37280800 20.15198779 12.50759500
  13.26249015 13.26249015 12.54279000
  15.00000000 11.52498029 15.00000000
  18.52479437 15.00000140 10.20639500
  18.52479437 15.00000141 19.79360400
  11.47520562 15.00000141 10.20639501
  11.47520563 15.00000141 19.79360400
  11.49534898 11.49534898 15.00000000
  18.50465172 18.50465172 15.00000000
  18.50465102 11.49534898 15.00000000
  11.49534828 18.50465172 15.00000000
  15.00000000 15.00000000 10.04367500
  15.00000000 15.00000000 19.95632599
   9.84801151 13.37280729 17.49240700
  16.62719200 20.15198779 17.49240700
  16.73750985 13.26249015 17.45721100
  13.26248944 16.73751056 12.54279001
  13.26249015 13.26249015 17.45721100
  20.15198849 13.37280729 17.49240699
  13.37280800 20.15198779 17.49240700
  16.73751056 16.73751056 12.54279000
  11.52497959 15.00000071 15.00000000
  18.47502041 15.00000071 15.00000000
  14.99999999 18.52479579 10.20639500
  15.00000000 18.52479578 19.79360400
  15.00000000 15.00000000 15.00000000
  13.26248944 16.73751057 17.45721101
  16.73751056 16.73751057 17.45721100
  15.00000000 18.47502112 15.00000000
  20.41579700 14.48805600 19.08442200
  21.31383800 14.40316700 19.76169600
 


--------------------------------------------------------------------------------------------------------


 k-point  1 :   0.0000 0.0000 0.0000  plane waves:  490521

 maximum and minimum number of plane-waves per node :    490521   490521

 maximum number of plane-waves:    490521
 maximum index in each direction: 
   IXMAX=   48   IYMAX=   48   IZMAX=   48
   IXMIN=  -48   IYMIN=  -48   IZMIN=  -48


 serial   3D FFT for wavefunctions
 parallel 3D FFT for charge:
    minimum data exchange during FFTs selected (reduces bandwidth)


 total amount of memory used by VASP MPI-rank0  5486941. kBytes
=======================================================================

   base      :      30000. kBytes
   nonlr-proj:      17126. kBytes
   fftplans  :     924480. kBytes
   grid      :    1872000. kBytes
   one-center:        886. kBytes
   wavefun   :    2642449. kBytes
 
     INWAV:  cpu time    0.0001: real time    0.0005
 Broyden mixing: mesh for mixing (old mesh)
   NGX = 97   NGY = 97   NGZ = 97
  (NGX  =300   NGY  =300   NGZ  =300)
  gives a total of 912673 points

 initial charge density was supplied:
 charge density of overlapping atoms calculated
 number of electron     560.0000000 magnetization 
 keeping initial charge density in first step


--------------------------------------------------------------------------------------------------------


 Maximum index for non-local projection operator         1763
 Maximum index for augmentation-charges         5898 (set IRDMAX)


--------------------------------------------------------------------------------------------------------


 First call to EWALD:  gamma=   0.059
 Maximum number of real-space cells 3x 3x 3
 Maximum number of reciprocal cells 3x 3x 3

    FEWALD:  cpu time    0.0126: real time    0.0126


--------------------------------------- Iteration      1(   1)  ---------------------------------------


    POTLOK:  cpu time   11.3491: real time   11.3526
    SETDIJ:  cpu time    0.0989: real time    0.0989
     EDDAV:  cpu time  306.6956: real time  306.7251
       DOS:  cpu time    0.0011: real time    0.0011
    --------------------------------------------
      LOOP:  cpu time  318.1447: real time  318.1777

 eigenvalue-minimisations  :   688
 total energy-change (2. order) : 0.4397703E+04  (-0.1005141E+05)
 number of electron     560.0000000 magnetization 
 augmentation part      560.0000000 magnetization 

 Free energy of the ion-electron system (eV)
  ---------------------------------------------------
  alpha Z        PSCENC =        75.25431677
  Ewald energy   TEWEN  =    139051.39896402
  -Hartree energ DENC   =   -182405.21551232
  -exchange      EXHF   =         0.00000000
  -V(xc)+E(xc)   XCENC  =     -1702.04128306
  PAW double counting   =     44873.02882129   -41398.84523641
  entropy T*S    EENTRO =        -0.00375119
  eigenvalues    EBANDS =       817.62134192
  atomic energy  EATOM  =     45086.50549395
  Solvation  Ediel_sol  =         0.00000000
  ---------------------------------------------------
  free energy    TOTEN  =      4397.70315496 eV

  energy without entropy =     4397.70690616  energy(sigma->0) =     4397.70409276


--------------------------------------------------------------------------------------------------------




--------------------------------------- Iteration      1(   2)  ---------------------------------------


     EDDAV:  cpu time  500.1222: real time  500.1326
       DOS:  cpu time    0.0011: real time    0.0011
    --------------------------------------------
      LOOP:  cpu time  500.1233: real time  500.1337

 eigenvalue-minimisations  :  1224
 total energy-change (2. order) :-0.2382588E+04  (-0.2144468E+04)
 number of electron     560.0000000 magnetization 
 augmentation part      560.0000000 magnetization 

 Free energy of the ion-electron system (eV)
  ---------------------------------------------------
  alpha Z        PSCENC =        75.25431677
  Ewald energy   TEWEN  =    139051.39896402
  -Hartree energ DENC   =   -182405.21551232
  -exchange      EXHF   =         0.00000000
  -V(xc)+E(xc)   XCENC  =     -1702.04128306
  PAW double counting   =     44873.02882129   -41398.84523641
  entropy T*S    EENTRO =         0.00802591
  eigenvalues    EBANDS =     -1564.97870933
  atomic energy  EATOM  =     45086.50549395
  Solvation  Ediel_sol  =         0.00000000
  ---------------------------------------------------
  free energy    TOTEN  =      2015.11488082 eV

  energy without entropy =     2015.10685491  energy(sigma->0) =     2015.11287434


--------------------------------------------------------------------------------------------------------




--------------------------------------- Iteration      1(   3)  ---------------------------------------


     EDDAV:  cpu time  427.4154: real time  427.4583
       DOS:  cpu time    0.0009: real time    0.0009
    --------------------------------------------
      LOOP:  cpu time  427.4163: real time  427.4592

 eigenvalue-minimisations  :  1008
 total energy-change (2. order) :-0.1787442E+04  (-0.1680714E+04)
 number of electron     560.0000000 magnetization 
 augmentation part      560.0000000 magnetization 

 Free energy of the ion-electron system (eV)
  ---------------------------------------------------
  alpha Z        PSCENC =        75.25431677
  Ewald energy   TEWEN  =    139051.39896402
  -Hartree energ DENC   =   -182405.21551232
  -exchange      EXHF   =         0.00000000
  -V(xc)+E(xc)   XCENC  =     -1702.04128306
  PAW double counting   =     44873.02882129   -41398.84523641
  entropy T*S    EENTRO =        -0.02693560
  eigenvalues    EBANDS =     -3352.38547037
  atomic energy  EATOM  =     45086.50549395
  Solvation  Ediel_sol  =         0.00000000
  ---------------------------------------------------
  free energy    TOTEN  =       227.67315827 eV

  energy without entropy =      227.70009387  energy(sigma->0) =      227.67989217


--------------------------------------------------------------------------------------------------------




--------------------------------------- Iteration      1(   4)  ---------------------------------------


     EDDAV:  cpu time  354.1907: real time  354.2376
       DOS:  cpu time    0.0010: real time    0.0010
    --------------------------------------------
      LOOP:  cpu time  354.1917: real time  354.2385

 eigenvalue-minimisations  :   824
 total energy-change (2. order) :-0.3635678E+03  (-0.3054650E+03)
 number of electron     560.0000000 magnetization 
 augmentation part      560.0000000 magnetization 

 Free energy of the ion-electron system (eV)
  ---------------------------------------------------
  alpha Z        PSCENC =        75.25431677
  Ewald energy   TEWEN  =    139051.39896402
  -Hartree energ DENC   =   -182405.21551232
  -exchange      EXHF   =         0.00000000
  -V(xc)+E(xc)   XCENC  =     -1702.04128306
  PAW double counting   =     44873.02882129   -41398.84523641
  entropy T*S    EENTRO =        -0.00101326
  eigenvalues    EBANDS =     -3715.97915023
  atomic energy  EATOM  =     45086.50549395
  Solvation  Ediel_sol  =         0.00000000
  ---------------------------------------------------
  free energy    TOTEN  =      -135.89459925 eV

  energy without entropy =     -135.89358599  energy(sigma->0) =     -135.89434594


--------------------------------------------------------------------------------------------------------




--------------------------------------- Iteration      1(   5)  ---------------------------------------


     EDDAV:  cpu time  434.0796: real time  434.1071
       DOS:  cpu time    0.0012: real time    0.0012
    CHARGE:  cpu time   21.7801: real time   21.7801
    MIXING:  cpu time    0.3808: real time    0.3808
    --------------------------------------------
      LOOP:  cpu time  456.2417: real time  456.2692

 eigenvalue-minimisations  :  1048
 total energy-change (2. order) :-0.4540650E+02  (-0.3714624E+02)
 number of electron     559.9999884 magnetization 
 augmentation part      245.0929101 magnetization 

 Broyden mixing:
  rms(total) = 0.16136E+01    rms(broyden)= 0.16127E+01
  rms(prec ) = 0.17222E+01
  weight for this iteration     100.00

 Free energy of the ion-electron system (eV)
  ---------------------------------------------------
  alpha Z        PSCENC =        75.25431677
  Ewald energy   TEWEN  =    139051.39896402
  -Hartree energ DENC   =   -182405.21551232
  -exchange      EXHF   =         0.00000000
  -V(xc)+E(xc)   XCENC  =     -1702.04128306
  PAW double counting   =     44873.02882129   -41398.84523641
  entropy T*S    EENTRO =         0.47044221
  eigenvalues    EBANDS =     -3761.85710835
  atomic energy  EATOM  =     45086.50549395
  Solvation  Ediel_sol  =         0.00000000
  ---------------------------------------------------
  free energy    TOTEN  =      -181.30110190 eV

  energy without entropy =     -181.77154411  energy(sigma->0) =     -181.41871245


--------------------------------------------------------------------------------------------------------




--------------------------------------- Iteration      1(   6)  ---------------------------------------


    POTLOK:  cpu time   10.6067: real time   10.6090
    SETDIJ:  cpu time    0.1007: real time    0.1007
    EDDIAG:  cpu time   57.6096: real time   57.6102
  RMM-DIIS:  cpu time  156.7713: real time  156.7729
    ORTHCH:  cpu time   11.1625: real time   11.1625
       DOS:  cpu time    0.0012: real time    0.0012
    CHARGE:  cpu time   21.6475: real time   21.6476
    MIXING:  cpu time    0.3909: real time    0.3909
    --------------------------------------------
      LOOP:  cpu time  258.2904: real time  258.2950

 eigenvalue-minimisations  :   718
 total energy-change (2. order) : 0.7429412E+00  (-0.6196523E+01)
 number of electron     559.9999897 magnetization 
 augmentation part      240.6074239 magnetization 

 Broyden mixing:
  rms(total) = 0.23903E+01    rms(broyden)= 0.23901E+01
  rms(prec ) = 0.27531E+01
  weight for this iteration     100.00

 eigenvalues of (default mixing * dielectric matrix)
  average eigenvalue GAMMA=   0.3465
  0.3465

 Free energy of the ion-electron system (eV)
  ---------------------------------------------------
  alpha Z        PSCENC =        75.25431677
  Ewald energy   TEWEN  =    139051.39896402
  -Hartree energ DENC   =   -182816.32536973
  -exchange      EXHF   =         0.00000000
  -V(xc)+E(xc)   XCENC  =     -1695.48265189
  PAW double counting   =     45672.33209877   -42171.67071756
  entropy T*S    EENTRO =        -0.13103077
  eigenvalues    EBANDS =     -3382.43926424
  atomic energy  EATOM  =     45086.50549395
  Solvation  Ediel_sol  =         0.00000000
  ---------------------------------------------------
  free energy    TOTEN  =      -180.55816066 eV

  energy without entropy =     -180.42712989  energy(sigma->0) =     -180.52540297


--------------------------------------------------------------------------------------------------------




--------------------------------------- Iteration      1(   7)  ---------------------------------------


    POTLOK:  cpu time   10.6743: real time   10.6767
    SETDIJ:  cpu time    0.1009: real time    0.1009
    EDDIAG:  cpu time   57.5419: real time   57.5425
  RMM-DIIS:  cpu time  185.9281: real time  185.9304
    ORTHCH:  cpu time   11.1684: real time   11.1684
       DOS:  cpu time    0.0012: real time    0.0012
    CHARGE:  cpu time   21.6879: real time   21.6879
    MIXING:  cpu time    0.4088: real time    0.4088
    --------------------------------------------
      LOOP:  cpu time  287.5114: real time  287.5167

 eigenvalue-minimisations  :   856
 total energy-change (2. order) :-0.4228841E+01  (-0.2173909E+01)
 number of electron     559.9999869 magnetization 
 augmentation part      240.0409541 magnetization 

 Broyden mixing:
  rms(total) = 0.25146E+01    rms(broyden)= 0.25144E+01
  rms(prec ) = 0.30938E+01
  weight for this iteration     100.00

 eigenvalues of (default mixing * dielectric matrix)
  average eigenvalue GAMMA=   0.3142
  0.4750  0.1534

 Free energy of the ion-electron system (eV)
  ---------------------------------------------------
  alpha Z        PSCENC =        75.25431677
  Ewald energy   TEWEN  =    139051.39896402
  -Hartree energ DENC   =   -182900.98034979
  -exchange      EXHF   =         0.00000000
  -V(xc)+E(xc)   XCENC  =     -1695.73786648
  PAW double counting   =     45751.93703326   -42248.64883652
  entropy T*S    EENTRO =        -0.05832746
  eigenvalues    EBANDS =     -3304.45742906
  atomic energy  EATOM  =     45086.50549395
  Solvation  Ediel_sol  =         0.00000000
  ---------------------------------------------------
  free energy    TOTEN  =      -184.78700129 eV

  energy without entropy =     -184.72867383  energy(sigma->0) =     -184.77241943


--------------------------------------------------------------------------------------------------------




--------------------------------------- Iteration      1(   8)  ---------------------------------------


    POTLOK:  cpu time   10.5060: real time   10.5095
    SETDIJ:  cpu time    0.1013: real time    0.1013
    EDDIAG:  cpu time   57.3560: real time   57.3566
  RMM-DIIS:  cpu time  172.0323: real time  172.0351
    ORTHCH:  cpu time   11.1631: real time   11.1631
       DOS:  cpu time    0.0012: real time    0.0012
    CHARGE:  cpu time   21.6348: real time   21.6348
    MIXING:  cpu time    0.4305: real time    0.4305
    --------------------------------------------
      LOOP:  cpu time  273.2252: real time  273.2321

 eigenvalue-minimisations  :   788
 total energy-change (2. order) :-0.6873711E+00  (-0.7779204E+00)
 number of electron     559.9999874 magnetization 
 augmentation part      239.8917297 magnetization 

 Broyden mixing:
  rms(total) = 0.23560E+01    rms(broyden)= 0.23556E+01
  rms(prec ) = 0.27237E+01
  weight for this iteration     100.00

 eigenvalues of (default mixing * dielectric matrix)
  average eigenvalue GAMMA=   0.3175
  0.6478  0.1524  0.1524

 Free energy of the ion-electron system (eV)
  ---------------------------------------------------
  alpha Z        PSCENC =        75.25431677
  Ewald energy   TEWEN  =    139051.39896402
  -Hartree energ DENC   =   -182937.72452583
  -exchange      EXHF   =         0.00000000
  -V(xc)+E(xc)   XCENC  =     -1695.88132279
  PAW double counting   =     45812.07958273   -42306.88926857
  entropy T*S    EENTRO =        -0.31906708
  eigenvalues    EBANDS =     -3269.89854564
  atomic energy  EATOM  =     45086.50549395
  Solvation  Ediel_sol  =         0.00000000
  ---------------------------------------------------
  free energy    TOTEN  =      -185.47437243 eV

  energy without entropy =     -185.15530535  energy(sigma->0) =     -185.39460566


--------------------------------------------------------------------------------------------------------




--------------------------------------- Iteration      1(   9)  ---------------------------------------


    POTLOK:  cpu time   10.7042: real time   10.7078
    SETDIJ:  cpu time    0.1022: real time    0.1022
    EDDIAG:  cpu time   57.2055: real time   57.2083
  RMM-DIIS:  cpu time  159.1951: real time  159.1985
    ORTHCH:  cpu time   11.1765: real time   11.1765
       DOS:  cpu time    0.0012: real time    0.0012
    CHARGE:  cpu time   21.6410: real time   21.6411
    MIXING:  cpu time    0.4546: real time    0.4546
    --------------------------------------------
      LOOP:  cpu time  260.4804: real time  260.4903

 eigenvalue-minimisations  :   728
 total energy-change (2. order) : 0.3230565E+01  (-0.6123668E+00)
 number of electron     559.9999854 magnetization 
 augmentation part      241.2830724 magnetization 

 Broyden mixing:
  rms(total) = 0.24933E+01    rms(broyden)= 0.24930E+01
  rms(prec ) = 0.28680E+01
  weight for this iteration     100.00

 eigenvalues of (default mixing * dielectric matrix)
  average eigenvalue GAMMA=   0.2933
  0.7230  0.1703  0.1703  0.1097

 Free energy of the ion-electron system (eV)
  ---------------------------------------------------
  alpha Z        PSCENC =        75.25431677
  Ewald energy   TEWEN  =    139051.39896402
  -Hartree energ DENC   =   -182947.18656020
  -exchange      EXHF   =         0.00000000
  -V(xc)+E(xc)   XCENC  =     -1695.97037677
  PAW double counting   =     45885.05787967   -42377.59548965
  entropy T*S    EENTRO =        -0.09141887
  eigenvalues    EBANDS =     -3259.61661650
  atomic energy  EATOM  =     45086.50549395
  Solvation  Ediel_sol  =         0.00000000
  ---------------------------------------------------
  free energy    TOTEN  =      -182.24380757 eV

  energy without entropy =     -182.15238870  energy(sigma->0) =     -182.22095285


--------------------------------------------------------------------------------------------------------




--------------------------------------- Iteration      1(  10)  ---------------------------------------


    POTLOK:  cpu time   10.6497: real time   10.6527
    SETDIJ:  cpu time    0.1025: real time    0.1025
    EDDIAG:  cpu time   57.3368: real time   57.3374
  RMM-DIIS:  cpu time  160.4399: real time  160.4433
    ORTHCH:  cpu time   11.1599: real time   11.1599
       DOS:  cpu time    0.0012: real time    0.0012
    CHARGE:  cpu time   21.6200: real time   21.6202
    MIXING:  cpu time    0.4864: real time    0.4864
    --------------------------------------------
      LOOP:  cpu time  261.7965: real time  261.8037

 eigenvalue-minimisations  :   734
 total energy-change (2. order) : 0.2166814E+01  (-0.3026459E+00)
 number of electron     559.9999887 magnetization 
 augmentation part      241.5376868 magnetization 

 Broyden mixing:
  rms(total) = 0.22278E+01    rms(broyden)= 0.22274E+01
  rms(prec ) = 0.25772E+01
  weight for this iteration     100.00

 eigenvalues of (default mixing * dielectric matrix)
  average eigenvalue GAMMA=   0.2774
  0.8029  0.1715  0.1715  0.1625  0.0786

 Free energy of the ion-electron system (eV)
  ---------------------------------------------------
  alpha Z        PSCENC =        75.25431677
  Ewald energy   TEWEN  =    139051.39896402
  -Hartree energ DENC   =   -182974.61023593
  -exchange      EXHF   =         0.00000000
  -V(xc)+E(xc)   XCENC  =     -1695.83850701
  PAW double counting   =     45928.35453984   -42419.43436040
  entropy T*S    EENTRO =        -0.12128988
  eigenvalues    EBANDS =     -3231.58591504
  atomic energy  EATOM  =     45086.50549395
  Solvation  Ediel_sol  =         0.00000000
  ---------------------------------------------------
  free energy    TOTEN  =      -180.07699366 eV

  energy without entropy =     -179.95570379  energy(sigma->0) =     -180.04667120


--------------------------------------------------------------------------------------------------------




--------------------------------------- Iteration      1(  11)  ---------------------------------------


    POTLOK:  cpu time   10.6354: real time   10.6393
    SETDIJ:  cpu time    0.1005: real time    0.1005
    EDDIAG:  cpu time   57.0705: real time   57.0723
  RMM-DIIS:  cpu time  157.9343: real time  157.9373
    ORTHCH:  cpu time   11.1657: real time   11.1658
       DOS:  cpu time    0.0011: real time    0.0011
    CHARGE:  cpu time   21.5990: real time   21.5992
    MIXING:  cpu time    0.5127: real time    0.5127
    --------------------------------------------
      LOOP:  cpu time  259.0193: real time  259.0282

 eigenvalue-minimisations  :   723
 total energy-change (2. order) : 0.1348404E+01  (-0.2348472E+00)
 number of electron     559.9999891 magnetization 
 augmentation part      241.6364340 magnetization 

 Broyden mixing:
  rms(total) = 0.15810E+01    rms(broyden)= 0.15807E+01
  rms(prec ) = 0.18545E+01
  weight for this iteration     100.00

 eigenvalues of (default mixing * dielectric matrix)
  average eigenvalue GAMMA=   0.2789
  0.8934  0.2307  0.2307  0.1152  0.1152  0.0881

 Free energy of the ion-electron system (eV)
  ---------------------------------------------------
  alpha Z        PSCENC =        75.25431677
  Ewald energy   TEWEN  =    139051.39896402
  -Hartree energ DENC   =   -182995.90807027
  -exchange      EXHF   =         0.00000000
  -V(xc)+E(xc)   XCENC  =     -1695.64501727
  PAW double counting   =     45970.38051287   -42459.90189664
  entropy T*S    EENTRO =        -0.00951090
  eigenvalues    EBANDS =     -3210.80338228
  atomic energy  EATOM  =     45086.50549395
  Solvation  Ediel_sol  =         0.00000000
  ---------------------------------------------------
  free energy    TOTEN  =      -178.72858974 eV

  energy without entropy =     -178.71907884  energy(sigma->0) =     -178.72621201


--------------------------------------------------------------------------------------------------------




--------------------------------------- Iteration      1(  12)  ---------------------------------------


    POTLOK:  cpu time   10.6668: real time   10.6693
    SETDIJ:  cpu time    0.1012: real time    0.1012
    EDDIAG:  cpu time   57.2931: real time   57.2939
  RMM-DIIS:  cpu time  156.6799: real time  156.6827
    ORTHCH:  cpu time   11.1580: real time   11.1580
       DOS:  cpu time    0.0012: real time    0.0012
    CHARGE:  cpu time   21.6089: real time   21.6089
    MIXING:  cpu time    0.5388: real time    0.5388
    --------------------------------------------
      LOOP:  cpu time  258.0479: real time  258.0542

 eigenvalue-minimisations  :   717
 total energy-change (2. order) :-0.1961482E+00  (-0.1677031E+00)
 number of electron     559.9999860 magnetization 
 augmentation part      241.4619369 magnetization 

 Broyden mixing:
  rms(total) = 0.19476E+01    rms(broyden)= 0.19473E+01
  rms(prec ) = 0.23618E+01
  weight for this iteration     100.00

 eigenvalues of (default mixing * dielectric matrix)
  average eigenvalue GAMMA=   0.2816
  0.9806  0.2910  0.2910  0.1117  0.1117  0.1195  0.0654

 Free energy of the ion-electron system (eV)
  ---------------------------------------------------
  alpha Z        PSCENC =        75.25431677
  Ewald energy   TEWEN  =    139051.39896402
  -Hartree energ DENC   =   -183022.49623270
  -exchange      EXHF   =         0.00000000
  -V(xc)+E(xc)   XCENC  =     -1695.34435481
  PAW double counting   =     46017.42606778   -42505.01341013
  entropy T*S    EENTRO =        -0.10096121
  eigenvalues    EBANDS =     -3186.55462159
  atomic energy  EATOM  =     45086.50549395
  Solvation  Ediel_sol  =         0.00000000
  ---------------------------------------------------
  free energy    TOTEN  =      -178.92473791 eV

  energy without entropy =     -178.82377670  energy(sigma->0) =     -178.89949760


--------------------------------------------------------------------------------------------------------




--------------------------------------- Iteration      1(  13)  ---------------------------------------


    POTLOK:  cpu time   10.5166: real time   10.5192
    SETDIJ:  cpu time    0.1031: real time    0.1031
    EDDIAG:  cpu time   57.2715: real time   57.2730
  RMM-DIIS:  cpu time  159.3013: real time  159.3050
    ORTHCH:  cpu time   11.1899: real time   11.1900
       DOS:  cpu time    0.0012: real time    0.0012
    CHARGE:  cpu time   21.6571: real time   21.6571
    MIXING:  cpu time    0.5712: real time    0.5712
    --------------------------------------------
      LOOP:  cpu time  260.6120: real time  260.6199

 eigenvalue-minimisations  :   729
 total energy-change (2. order) :-0.4275215E+00  (-0.1261981E+00)
 number of electron     559.9999873 magnetization 
 augmentation part      241.4031648 magnetization 

 Broyden mixing:
  rms(total) = 0.31281E+01    rms(broyden)= 0.31279E+01
  rms(prec ) = 0.35954E+01
  weight for this iteration     100.00

 eigenvalues of (default mixing * dielectric matrix)
  average eigenvalue GAMMA=   0.2776
  1.0770  0.3364  0.3364  0.1303  0.1115  0.1115  0.0662  0.0517

 Free energy of the ion-electron system (eV)
  ---------------------------------------------------
  alpha Z        PSCENC =        75.25431677
  Ewald energy   TEWEN  =    139051.39896402
  -Hartree energ DENC   =   -183051.09924283
  -exchange      EXHF   =         0.00000000
  -V(xc)+E(xc)   XCENC  =     -1695.00712323
  PAW double counting   =     46063.80918040   -42549.41889809
  entropy T*S    EENTRO =         0.02274436
  eigenvalues    EBANDS =     -3160.81769472
  atomic energy  EATOM  =     45086.50549395
  Solvation  Ediel_sol  =         0.00000000
  ---------------------------------------------------
  free energy    TOTEN  =      -179.35225936 eV

  energy without entropy =     -179.37500372  energy(sigma->0) =     -179.35794545


--------------------------------------------------------------------------------------------------------




--------------------------------------- Iteration      1(  14)  ---------------------------------------


    POTLOK:  cpu time   10.5148: real time   10.5183
    SETDIJ:  cpu time    0.1009: real time    0.1009
    EDDIAG:  cpu time   57.4826: real time   57.4834
  RMM-DIIS:  cpu time  158.9471: real time  158.9506
    ORTHCH:  cpu time   11.4461: real time   11.4462
       DOS:  cpu time    0.0013: real time    0.0013
    CHARGE:  cpu time   22.1892: real time   22.1895
    MIXING:  cpu time    0.6115: real time    0.6115
    --------------------------------------------
      LOOP:  cpu time  261.2933: real time  261.3017

 eigenvalue-minimisations  :   711
 total energy-change (2. order) : 0.1037065E+01  (-0.1532870E+00)
 number of electron     559.9999871 magnetization 
 augmentation part      241.1071539 magnetization 

 Broyden mixing:
  rms(total) = 0.16620E+01    rms(broyden)= 0.16617E+01
  rms(prec ) = 0.19167E+01
  weight for this iteration     100.00

 eigenvalues of (default mixing * dielectric matrix)
  average eigenvalue GAMMA=   0.2817
  1.2110  0.3686  0.3686  0.1332  0.1332  0.1010  0.1010  0.0594  0.0594

 Free energy of the ion-electron system (eV)
  ---------------------------------------------------
  alpha Z        PSCENC =        75.25431677
  Ewald energy   TEWEN  =    139051.39896402
  -Hartree energ DENC   =   -183080.92858034
  -exchange      EXHF   =         0.00000000
  -V(xc)+E(xc)   XCENC  =     -1694.62594467
  PAW double counting   =     46114.12921881   -42597.63927282
  entropy T*S    EENTRO =        -0.17736216
  eigenvalues    EBANDS =     -3132.23202784
  atomic energy  EATOM  =     45086.50549395
  Solvation  Ediel_sol  =         0.00000000
  ---------------------------------------------------
  free energy    TOTEN  =      -178.31519427 eV

  energy without entropy =     -178.13783211  energy(sigma->0) =     -178.27085373


--------------------------------------------------------------------------------------------------------




--------------------------------------- Iteration      1(  15)  ---------------------------------------


    POTLOK:  cpu time   11.1113: real time   11.1152
    SETDIJ:  cpu time    0.1042: real time    0.1042
    EDDIAG:  cpu time   57.5239: real time   57.5248
  RMM-DIIS:  cpu time  158.6967: real time  158.7007
    ORTHCH:  cpu time   11.4649: real time   11.4650
       DOS:  cpu time    0.0012: real time    0.0012
    CHARGE:  cpu time   21.9982: real time   21.9984
    MIXING:  cpu time    0.6487: real time    0.6487
    --------------------------------------------
      LOOP:  cpu time  261.5491: real time  261.5582

 eigenvalue-minimisations  :   717
 total energy-change (2. order) : 0.5281125E+00  (-0.1222996E+00)
 number of electron     559.9999889 magnetization 
 augmentation part      241.0659438 magnetization 

 Broyden mixing:
  rms(total) = 0.16730E+01    rms(broyden)= 0.16728E+01
  rms(prec ) = 0.19982E+01
  weight for this iteration     100.00

 eigenvalues of (default mixing * dielectric matrix)
  average eigenvalue GAMMA=   0.2814
  1.3009  0.5074  0.2899  0.1608  0.1608  0.0926  0.0926  0.0852  0.0699  0.0545

 Free energy of the ion-electron system (eV)
  ---------------------------------------------------
  alpha Z        PSCENC =        75.25431677
  Ewald energy   TEWEN  =    139051.39896402
  -Hartree energ DENC   =   -183108.67308296
  -exchange      EXHF   =         0.00000000
  -V(xc)+E(xc)   XCENC  =     -1694.20110226
  PAW double counting   =     46166.04442919   -42647.36919161
  entropy T*S    EENTRO =        -0.12692820
  eigenvalues    EBANDS =     -3106.61998068
  atomic energy  EATOM  =     45086.50549395
  Solvation  Ediel_sol  =         0.00000000
  ---------------------------------------------------
  free energy    TOTEN  =      -177.78708177 eV

  energy without entropy =     -177.66015357  energy(sigma->0) =     -177.75534972


--------------------------------------------------------------------------------------------------------




--------------------------------------- Iteration      1(  16)  ---------------------------------------


    POTLOK:  cpu time   10.6715: real time   10.6752
    SETDIJ:  cpu time    0.1019: real time    0.1019
    EDDIAG:  cpu time   57.1985: real time   57.2003
  RMM-DIIS:  cpu time  160.1146: real time  160.1194
    ORTHCH:  cpu time   11.2272: real time   11.2273
       DOS:  cpu time    0.0012: real time    0.0012
    CHARGE:  cpu time   21.8085: real time   21.8088
    MIXING:  cpu time    0.6833: real time    0.6838
    --------------------------------------------
      LOOP:  cpu time  261.8067: real time  261.8179

 eigenvalue-minimisations  :   717
 total energy-change (2. order) :-0.8050095E-01  (-0.8146283E-01)
 number of electron     559.9999892 magnetization 
 augmentation part      241.0123627 magnetization 

 Broyden mixing:
  rms(total) = 0.21062E+01    rms(broyden)= 0.21060E+01
  rms(prec ) = 0.25655E+01
  weight for this iteration     100.00

 eigenvalues of (default mixing * dielectric matrix)
  average eigenvalue GAMMA=   0.2761
  1.3490  0.5648  0.2666  0.1990  0.1990  0.1013  0.1013  0.0780  0.0651  0.0651
  0.0481

 Free energy of the ion-electron system (eV)
  ---------------------------------------------------
  alpha Z        PSCENC =        75.25431677
  Ewald energy   TEWEN  =    139051.39896402
  -Hartree energ DENC   =   -183129.94744282
  -exchange      EXHF   =         0.00000000
  -V(xc)+E(xc)   XCENC  =     -1693.90542752
  PAW double counting   =     46200.29061280   -42680.09371756
  entropy T*S    EENTRO =        -0.00891261
  eigenvalues    EBANDS =     -3087.36146975
  atomic energy  EATOM  =     45086.50549395
  Solvation  Ediel_sol  =         0.00000000
  ---------------------------------------------------
  free energy    TOTEN  =      -177.86758272 eV

  energy without entropy =     -177.85867011  energy(sigma->0) =     -177.86535457


--------------------------------------------------------------------------------------------------------




--------------------------------------- Iteration      1(  17)  ---------------------------------------


    POTLOK:  cpu time   10.6355: real time   10.6391
    SETDIJ:  cpu time    0.1024: real time    0.1024
    EDDIAG:  cpu time   57.0180: real time   57.0189
  RMM-DIIS:  cpu time  159.3990: real time  159.4038
    ORTHCH:  cpu time   11.1800: real time   11.1799
       DOS:  cpu time    0.0013: real time    0.0013
    CHARGE:  cpu time   21.7329: real time   21.7328
    MIXING:  cpu time    0.7282: real time    0.7282
    --------------------------------------------
      LOOP:  cpu time  260.7972: real time  260.8064

 eigenvalue-minimisations  :   712
 total energy-change (2. order) : 0.9061336E+00  (-0.5824692E-01)
 number of electron     559.9999883 magnetization 
 augmentation part      241.1273848 magnetization 

 Broyden mixing:
  rms(total) = 0.18452E+01    rms(broyden)= 0.18450E+01
  rms(prec ) = 0.21657E+01
  weight for this iteration     100.00

 eigenvalues of (default mixing * dielectric matrix)
  average eigenvalue GAMMA=   0.2737
  1.4189  0.6043  0.2457  0.2457  0.2338  0.1080  0.1080  0.0788  0.0788  0.0657
  0.0519  0.0453

 Free energy of the ion-electron system (eV)
  ---------------------------------------------------
  alpha Z        PSCENC =        75.25431677
  Ewald energy   TEWEN  =    139051.39896402
  -Hartree energ DENC   =   -183141.56990749
  -exchange      EXHF   =         0.00000000
  -V(xc)+E(xc)   XCENC  =     -1693.74582828
  PAW double counting   =     46218.54880051   -42697.51196099
  entropy T*S    EENTRO =         0.01989123
  eigenvalues    EBANDS =     -3075.86121881
  atomic energy  EATOM  =     45086.50549395
  Solvation  Ediel_sol  =         0.00000000
  ---------------------------------------------------
  free energy    TOTEN  =      -176.96144908 eV

  energy without entropy =     -176.98134031  energy(sigma->0) =     -176.96642189


--------------------------------------------------------------------------------------------------------




--------------------------------------- Iteration      1(  18)  ---------------------------------------


    POTLOK:  cpu time   10.7320: real time   10.7357
    SETDIJ:  cpu time    0.1022: real time    0.1022
    EDDIAG:  cpu time   57.0353: real time   57.0364
  RMM-DIIS:  cpu time  154.3371: real time  154.3398
    ORTHCH:  cpu time   11.4384: real time   11.4384
       DOS:  cpu time    0.0012: real time    0.0012
    CHARGE:  cpu time   22.1904: real time   22.1904
    MIXING:  cpu time    0.7924: real time    0.7924
    --------------------------------------------
      LOOP:  cpu time  256.6291: real time  256.6365

 eigenvalue-minimisations  :   699
 total energy-change (2. order) : 0.6040074E+00  (-0.5862248E-01)
 number of electron     559.9999878 magnetization 
 augmentation part      241.1652937 magnetization 

 Broyden mixing:
  rms(total) = 0.83333E+00    rms(broyden)= 0.83300E+00
  rms(prec ) = 0.94115E+00
  weight for this iteration     100.00

 eigenvalues of (default mixing * dielectric matrix)
  average eigenvalue GAMMA=   0.2866
  1.5044  0.6984  0.3358  0.3358  0.1594  0.1594  0.1068  0.1068  0.0762  0.0762
  0.0679  0.0550  0.0431

 Free energy of the ion-electron system (eV)
  ---------------------------------------------------
  alpha Z        PSCENC =        75.25431677
  Ewald energy   TEWEN  =    139051.39896402
  -Hartree energ DENC   =   -183152.56076830
  -exchange      EXHF   =         0.00000000
  -V(xc)+E(xc)   XCENC  =     -1693.59660356
  PAW double counting   =     46235.73338999   -42713.87386008
  entropy T*S    EENTRO =        -0.04555006
  eigenvalues    EBANDS =     -3065.17282447
  atomic energy  EATOM  =     45086.50549395
  Solvation  Ediel_sol  =         0.00000000
  ---------------------------------------------------
  free energy    TOTEN  =      -176.35744171 eV

  energy without entropy =     -176.31189166  energy(sigma->0) =     -176.34605420


--------------------------------------------------------------------------------------------------------




--------------------------------------- Iteration      1(  19)  ---------------------------------------


    POTLOK:  cpu time   11.1604: real time   11.1636
    SETDIJ:  cpu time    0.1031: real time    0.1031
    EDDIAG:  cpu time   57.9697: real time   57.9703
  RMM-DIIS:  cpu time  156.5685: real time  156.5702
    ORTHCH:  cpu time   11.2455: real time   11.2455
       DOS:  cpu time    0.0013: real time    0.0013
    CHARGE:  cpu time   21.8597: real time   21.8597
    MIXING:  cpu time    0.8171: real time    0.8172
    --------------------------------------------
      LOOP:  cpu time  259.7254: real time  259.7309

 eigenvalue-minimisations  :   708
 total energy-change (2. order) :-0.1905803E+00  (-0.4449494E-01)
 number of electron     559.9999899 magnetization 
 augmentation part      241.2760145 magnetization 

 Broyden mixing:
  rms(total) = 0.14141E+01    rms(broyden)= 0.14140E+01
  rms(prec ) = 0.16418E+01
  weight for this iteration     100.00

 eigenvalues of (default mixing * dielectric matrix)
  average eigenvalue GAMMA=   0.2949
  1.5188  0.9290  0.3689  0.3689  0.1649  0.1649  0.1077  0.1077  0.0783  0.0783
  0.0835  0.0577  0.0577  0.0423

 Free energy of the ion-electron system (eV)
  ---------------------------------------------------
  alpha Z        PSCENC =        75.25431677
  Ewald energy   TEWEN  =    139051.39896402
  -Hartree energ DENC   =   -183167.67028093
  -exchange      EXHF   =         0.00000000
  -V(xc)+E(xc)   XCENC  =     -1693.39500952
  PAW double counting   =     46253.84455263   -42730.84021115
  entropy T*S    EENTRO =         0.01248673
  eigenvalues    EBANDS =     -3051.65833451
  atomic energy  EATOM  =     45086.50549395
  Solvation  Ediel_sol  =         0.00000000
  ---------------------------------------------------
  free energy    TOTEN  =      -176.54802201 eV

  energy without entropy =     -176.56050874  energy(sigma->0) =     -176.55114369


--------------------------------------------------------------------------------------------------------




--------------------------------------- Iteration      1(  20)  ---------------------------------------


    POTLOK:  cpu time   10.7481: real time   10.7511
    SETDIJ:  cpu time    0.1019: real time    0.1019
    EDDIAG:  cpu time   57.7577: real time   57.7580
  RMM-DIIS:  cpu time  158.1094: real time  158.1085
    ORTHCH:  cpu time   11.4593: real time   11.4594
       DOS:  cpu time    0.0012: real time    0.0012
    CHARGE:  cpu time   22.2504: real time   22.2505
    MIXING:  cpu time    0.8893: real time    0.8893
    --------------------------------------------
      LOOP:  cpu time  261.3172: real time  261.3198

 eigenvalue-minimisations  :   713
 total energy-change (2. order) :-0.6848634E-02  (-0.4017811E-01)
 number of electron     559.9999890 magnetization 
 augmentation part      241.1981037 magnetization 

 Broyden mixing:
  rms(total) = 0.11740E+01    rms(broyden)= 0.11739E+01
  rms(prec ) = 0.13736E+01
  weight for this iteration     100.00

 eigenvalues of (default mixing * dielectric matrix)
  average eigenvalue GAMMA=   0.3040
  1.5703  1.0874  0.4015  0.4015  0.1873  0.1873  0.1088  0.1088  0.1151  0.0862
  0.0759  0.0759  0.0557  0.0557  0.0422

 Free energy of the ion-electron system (eV)
  ---------------------------------------------------
  alpha Z        PSCENC =        75.25431677
  Ewald energy   TEWEN  =    139051.39896402
  -Hartree energ DENC   =   -183187.17132017
  -exchange      EXHF   =         0.00000000
  -V(xc)+E(xc)   XCENC  =     -1693.20554526
  PAW double counting   =     46268.07836839   -42744.03341238
  entropy T*S    EENTRO =        -0.02653442
  eigenvalues    EBANDS =     -3033.35520154
  atomic energy  EATOM  =     45086.50549395
  Solvation  Ediel_sol  =         0.00000000
  ---------------------------------------------------
  free energy    TOTEN  =      -176.55487064 eV

  energy without entropy =     -176.52833622  energy(sigma->0) =     -176.54823704


--------------------------------------------------------------------------------------------------------




--------------------------------------- Iteration      1(  21)  ---------------------------------------


    POTLOK:  cpu time   11.0959: real time   11.0997
    SETDIJ:  cpu time    0.1016: real time    0.1016
    EDDIAG:  cpu time   57.9015: real time   57.9033
  RMM-DIIS:  cpu time  156.6042: real time  156.6078
    ORTHCH:  cpu time   11.1788: real time   11.1788
       DOS:  cpu time    0.0012: real time    0.0012
    CHARGE:  cpu time   21.7803: real time   21.7802
    MIXING:  cpu time    0.9144: real time    0.9144
    --------------------------------------------
      LOOP:  cpu time  259.5780: real time  259.5870

 eigenvalue-minimisations  :   703
 total energy-change (2. order) : 0.1856946E+00  (-0.3045343E-01)
 number of electron     559.9999886 magnetization 
 augmentation part      241.1665266 magnetization 

 Broyden mixing:
  rms(total) = 0.10212E+01    rms(broyden)= 0.10211E+01
  rms(prec ) = 0.12082E+01
  weight for this iteration     100.00

 eigenvalues of (default mixing * dielectric matrix)
  average eigenvalue GAMMA=   0.3030
  1.6488  1.0981  0.4313  0.4313  0.2019  0.2019  0.1306  0.1093  0.1093  0.0995
  0.0761  0.0761  0.0776  0.0566  0.0566  0.0423

 Free energy of the ion-electron system (eV)
  ---------------------------------------------------
  alpha Z        PSCENC =        75.25431677
  Ewald energy   TEWEN  =    139051.39896402
  -Hartree energ DENC   =   -183206.77959210
  -exchange      EXHF   =         0.00000000
  -V(xc)+E(xc)   XCENC  =     -1693.04184799
  PAW double counting   =     46279.23731029   -42754.30702838
  entropy T*S    EENTRO =        -0.08430277
  eigenvalues    EBANDS =     -3014.55248984
  atomic energy  EATOM  =     45086.50549395
  Solvation  Ediel_sol  =         0.00000000
  ---------------------------------------------------
  free energy    TOTEN  =      -176.36917604 eV

  energy without entropy =     -176.28487327  energy(sigma->0) =     -176.34810035


--------------------------------------------------------------------------------------------------------




--------------------------------------- Iteration      1(  22)  ---------------------------------------


    POTLOK:  cpu time   10.7441: real time   10.7478
    SETDIJ:  cpu time    0.1018: real time    0.1018
    EDDIAG:  cpu time   56.9607: real time   56.9606
  RMM-DIIS:  cpu time  154.6139: real time  154.6132
    ORTHCH:  cpu time   11.2331: real time   11.2330
       DOS:  cpu time    0.0013: real time    0.0013
    CHARGE:  cpu time   21.7833: real time   21.7830
    MIXING:  cpu time    0.9696: real time    0.9696
    --------------------------------------------
      LOOP:  cpu time  256.4077: real time  256.4102

 eigenvalue-minimisations  :   703
 total energy-change (2. order) : 0.2353515E+00  (-0.1929566E-01)
 number of electron     559.9999889 magnetization 
 augmentation part      241.1768341 magnetization 

 Broyden mixing:
  rms(total) = 0.70580E+00    rms(broyden)= 0.70568E+00
  rms(prec ) = 0.81375E+00
  weight for this iteration     100.00

 eigenvalues of (default mixing * dielectric matrix)
  average eigenvalue GAMMA=   0.3096
  1.8268  1.0800  0.4381  0.4381  0.3033  0.1833  0.1833  0.1087  0.1087  0.1081
  0.1081  0.0776  0.0776  0.0662  0.0564  0.0564  0.0423

 Free energy of the ion-electron system (eV)
  ---------------------------------------------------
  alpha Z        PSCENC =        75.25431677
  Ewald energy   TEWEN  =    139051.39896402
  -Hartree energ DENC   =   -183218.12094922
  -exchange      EXHF   =         0.00000000
  -V(xc)+E(xc)   XCENC  =     -1692.94346541
  PAW double counting   =     46284.61069991   -42759.14693518
  entropy T*S    EENTRO =        -0.12284443
  eigenvalues    EBANDS =     -3003.56910494
  atomic energy  EATOM  =     45086.50549395
  Solvation  Ediel_sol  =         0.00000000
  ---------------------------------------------------
  free energy    TOTEN  =      -176.13382453 eV

  energy without entropy =     -176.01098010  energy(sigma->0) =     -176.10311342


--------------------------------------------------------------------------------------------------------




--------------------------------------- Iteration      1(  23)  ---------------------------------------


    POTLOK:  cpu time   10.5939: real time   10.5964
    SETDIJ:  cpu time    0.1003: real time    0.1003
    EDDIAG:  cpu time   56.8825: real time   56.8824
  RMM-DIIS:  cpu time  155.1507: real time  155.1520
    ORTHCH:  cpu time   11.4648: real time   11.4648
       DOS:  cpu time    0.0013: real time    0.0013
    CHARGE:  cpu time   22.3126: real time   22.3125
    MIXING:  cpu time    1.0767: real time    1.0767
    --------------------------------------------
      LOOP:  cpu time  257.5828: real time  257.5863

 eigenvalue-minimisations  :   700
 total energy-change (2. order) : 0.1115160E+00  (-0.2156026E-01)
 number of electron     559.9999886 magnetization 
 augmentation part      241.2128258 magnetization 

 Broyden mixing:
  rms(total) = 0.75811E+00    rms(broyden)= 0.75796E+00
  rms(prec ) = 0.88707E+00
  weight for this iteration     100.00

 eigenvalues of (default mixing * dielectric matrix)
  average eigenvalue GAMMA=   0.3227
[...]
 -0.007  -0.012   0.003   0.004   0.006  -0.006  -0.012   0.003
 -0.011  -0.021   0.006   0.007   0.010  -0.011  -0.020   0.005
 -0.015  -0.004   0.012   0.000   0.022  -0.014  -0.004   0.012
  0.000  -0.022  -0.006  -0.016  -0.000   0.000  -0.022  -0.005
 -0.022   0.000   0.009  -0.005  -0.016  -0.021   0.000   0.009
 -0.018  -0.006   0.015   0.000   0.026  -0.017  -0.005   0.014
  0.000  -0.027  -0.007  -0.019   0.000   0.000  -0.026  -0.007
 -0.026   0.000   0.011  -0.006  -0.019  -0.026   0.000   0.010
 total augmentation occupancy for first ion, spin component:           1
  1.544  -0.031   0.005   0.016   0.022   0.073  -0.007  -0.002   0.036  -0.010   0.101  -0.034   0.012   0.002   0.004  -0.019
 -0.031   1.411   0.031   0.072  -0.003  -0.006   0.067   0.010  -0.015  -0.006   0.228  -0.068   0.019   0.001   0.004  -0.006
  0.005   0.031   1.549   0.002   0.003  -0.002   0.012   0.071  -0.013   0.017  -0.047   0.015  -0.003  -0.007  -0.006   0.016
  0.016   0.072   0.002   1.348   0.042   0.033  -0.014  -0.012   0.088  -0.022  -0.078   0.020  -0.001  -0.009  -0.003   0.001
  0.022  -0.003   0.003   0.042   1.444  -0.010  -0.007   0.016  -0.022   0.065  -0.099   0.032  -0.003  -0.009  -0.009   0.026
  0.073  -0.006  -0.002   0.033  -0.010   0.215   0.018  -0.002  -0.045   0.004  -0.049   0.002   0.017  -0.010   0.034  -0.004
 -0.007   0.067   0.012  -0.014  -0.007   0.018   0.261  -0.023  -0.003   0.005  -0.111   0.007  -0.001   0.051  -0.010  -0.000
 -0.002   0.010   0.071  -0.012   0.016  -0.002  -0.023   0.213   0.014  -0.019   0.028  -0.001  -0.012   0.009  -0.018   0.003
  0.036  -0.015  -0.013   0.088  -0.022  -0.045  -0.003   0.014   0.258   0.007   0.043  -0.004  -0.009   0.036   0.004   0.000
 -0.010  -0.006   0.017  -0.022   0.065   0.004   0.005  -0.019   0.007   0.255   0.047  -0.002  -0.038   0.002   0.049   0.007
  0.101   0.228  -0.047  -0.078  -0.099  -0.049  -0.111   0.028   0.043   0.047   0.961  -0.142   0.083   0.013   0.065  -0.013
 -0.034  -0.068   0.015   0.020   0.032   0.002   0.007  -0.001  -0.004  -0.002  -0.142   0.023  -0.014  -0.003  -0.010   0.003
  0.012   0.019  -0.003  -0.001  -0.003   0.017  -0.001  -0.012  -0.009  -0.038   0.083  -0.014   0.029  -0.008  -0.004  -0.003
  0.002   0.001  -0.007  -0.009  -0.009  -0.010   0.051   0.009   0.036   0.002   0.013  -0.003  -0.008   0.036   0.004   0.000
  0.004   0.004  -0.006  -0.003  -0.009   0.034  -0.010  -0.018   0.004   0.049   0.065  -0.010  -0.004   0.004   0.034  -0.000
 -0.019  -0.006   0.016   0.001   0.026  -0.004  -0.000   0.003   0.000   0.007  -0.013   0.003  -0.003   0.000  -0.000   0.001
  0.001  -0.028  -0.007  -0.019   0.001   0.001  -0.008  -0.001  -0.006  -0.000  -0.004   0.001   0.000  -0.003  -0.000   0.000
 -0.028   0.001   0.012  -0.005  -0.020  -0.006   0.001   0.003  -0.001  -0.007  -0.008   0.001  -0.000  -0.000  -0.003   0.000


------------------------ aborting loop because EDIFF is reached ----------------------------------------


    CHARGE:  cpu time   21.4997: real time   21.4993
    FORLOC:  cpu time    5.8420: real time    5.8420
    FORNL :  cpu time   56.0386: real time   56.0385
    STRESS:  cpu time  170.1275: real time  170.1247
    FORCOR:  cpu time   18.0069: real time   18.0066
    FORHAR:  cpu time    8.0720: real time    8.0718
    MIXING:  cpu time    2.8492: real time    2.8492
    OFIELD:  cpu time    0.0000: real time    0.0000

  FORCE on cell =-STRESS in cart. coord.  units (eV):
  Direction    XX          YY          ZZ          XY          YZ          ZX
  --------------------------------------------------------------------------------------
  Alpha Z    75.25432    75.25432    75.25432
  Ewald   48038.45838 44487.40262 46525.43221  -248.96867  -142.06453  1894.20326
  Hartree 62725.01254 59392.29954 61284.12098  -218.20404  -172.35684  1753.37162
  E(xc)   -2905.04216 -2906.33162 -2905.40926    -0.29582     0.45192     0.54393
  Local  ************************************   463.03607   320.32605 -3633.19083
  n-local  -883.10743  -882.25854  -881.74258     0.36654     3.03657    -1.91147
  augment  4102.44241  4105.52937  4102.38703     0.95092    -3.58695     0.00684
  Kinetic  7801.04819  7817.54139  7805.36054     3.35295    -5.78453    -8.08556
  Fock        0.00000     0.00000     0.00000     0.00000     0.00000     0.00000
  -------------------------------------------------------------------------------------
  Total    -108.49233  -113.75180  -110.36708     0.23796     0.02170     4.93780
  in kB      -6.43792    -6.75002    -6.54917     0.01412     0.00129     0.29301
  external pressure =       -6.58 kB  Pullay stress =        0.00 kB


 VOLUME and BASIS-vectors are now :
 -----------------------------------------------------------------------------
  energy-cutoff  :      400.00
  volume of cell :    27000.00
      direct lattice vectors                 reciprocal lattice vectors
    30.000000000  0.000000000  0.000000000     0.033333333  0.000000000  0.000000000
     0.000000000 30.000000000  0.000000000     0.000000000  0.033333333  0.000000000
     0.000000000  0.000000000 30.000000000     0.000000000  0.000000000  0.033333333

  length of vectors
    30.000000000 30.000000000 30.000000000     0.033333333  0.033333333  0.033333333


 FORCES acting on ions
    electron-ion (+dipol)            ewald-force                    non-local-force                 convergence-correction
 -----------------------------------------------------------------------------------------------
   0.400E+03 0.974E+03 0.421E+03   -.398E+03 -.971E+03 -.421E+03   -.151E+01 -.182E+01 -.204E+00   -.144E-02 0.748E-02 -.135E-02
   -.967E+03 -.401E+03 0.439E+03   0.965E+03 0.399E+03 -.439E+03   0.183E+01 0.151E+01 -.249E+00   -.960E-02 -.456E-02 -.237E-02
   -.387E+03 0.977E+03 0.426E+03   0.385E+03 -.974E+03 -.426E+03   0.154E+01 -.179E+01 -.167E+00   -.345E-02 0.112E-01 -.440E-02
   0.974E+03 -.395E+03 0.419E+03   -.971E+03 0.393E+03 -.419E+03   -.182E+01 0.150E+01 -.220E+00   0.282E-03 -.858E-02 -.404E-02
   0.489E+01 0.588E+03 0.970E+03   -.490E+01 -.587E+03 -.967E+03   0.482E-02 -.289E+00 -.235E+01   0.279E-02 0.415E-03 0.794E-02
   0.276E+02 0.600E+03 -.965E+03   -.276E+02 -.599E+03 0.961E+03   -.691E-02 -.331E+00 0.237E+01   0.800E-02 -.912E-02 -.573E-02
   0.834E+01 0.114E+04 0.641E+01   -.835E+01 -.114E+04 -.641E+01   0.834E-02 -.310E+01 0.691E-02   -.317E-02 0.552E-02 -.710E-02
   0.114E+04 -.315E+00 0.255E+01   -.113E+04 0.330E+00 -.253E+01   -.311E+01 0.580E-03 -.113E-01   -.224E-02 -.166E-01 -.495E-02
   -.114E+04 -.818E+01 0.649E+02   0.114E+04 0.817E+01 -.650E+02   0.317E+01 0.161E-01 0.823E-01   -.755E-02 -.226E-02 -.278E-02
   0.652E+01 -.114E+04 0.502E+01   -.654E+01 0.114E+04 -.504E+01   0.930E-02 0.310E+01 0.140E-01   0.669E-02 -.226E-02 -.822E-02
   -.574E+03 0.581E+03 0.822E+03   0.572E+03 -.579E+03 -.819E+03   0.157E+01 -.155E+01 -.219E+01   -.524E-02 0.349E-02 0.355E-02
   -.514E+03 0.649E+03 -.820E+03   0.511E+03 -.646E+03 0.816E+03   0.166E+01 -.143E+01 0.219E+01   0.666E-02 -.549E-03 -.717E-02
   0.581E+03 -.579E+03 0.815E+03   -.579E+03 0.577E+03 -.812E+03   -.157E+01 0.155E+01 -.220E+01   0.167E-01 0.931E-02 -.453E-02
   0.588E+03 -.582E+03 -.812E+03   -.586E+03 0.580E+03 0.809E+03   -.154E+01 0.156E+01 0.221E+01   0.219E-02 0.104E-01 0.876E-02
   0.581E+03 0.579E+03 0.815E+03   -.579E+03 -.577E+03 -.812E+03   -.156E+01 -.155E+01 -.220E+01   0.869E-02 -.780E-02 0.107E-01
   0.589E+03 0.581E+03 -.812E+03   -.587E+03 -.579E+03 0.809E+03   -.154E+01 -.155E+01 0.220E+01   -.674E-02 -.132E-01 -.453E-02
   -.574E+03 -.582E+03 0.821E+03   0.572E+03 0.580E+03 -.818E+03   0.157E+01 0.155E+01 -.219E+01   -.858E-02 -.464E-02 0.337E-02
   -.543E+03 -.630E+03 -.816E+03   0.541E+03 0.628E+03 0.812E+03   0.164E+01 0.154E+01 0.223E+01   0.462E-02 0.402E-02 -.229E-02
   0.406E+03 0.978E+03 -.412E+03   -.404E+03 -.975E+03 0.412E+03   -.151E+01 -.182E+01 0.218E+00   -.309E-02 -.634E-02 -.142E-01
   -.936E+03 -.507E+03 -.317E+03   0.933E+03 0.505E+03 0.317E+03   0.154E+01 0.140E+01 0.827E-01   -.374E-02 -.110E-02 -.126E-02
   -.310E+03 0.323E+03 0.469E+03   0.311E+03 -.324E+03 -.470E+03   -.375E+00 0.358E+00 0.499E+00   0.402E-02 -.195E-02 -.528E-02
   0.974E+03 0.394E+03 0.419E+03   -.971E+03 -.392E+03 -.419E+03   -.182E+01 -.150E+01 -.222E+00   0.691E-02 -.212E-01 0.271E-02
   -.388E+03 -.977E+03 0.424E+03   0.386E+03 0.974E+03 -.424E+03   0.153E+01 0.179E+01 -.179E+00   -.441E-02 -.860E-02 -.702E-02
   -.373E+03 0.992E+03 -.406E+03   0.371E+03 -.989E+03 0.406E+03   0.150E+01 -.185E+01 0.234E+00   0.543E-02 0.131E-02 -.103E-01
   0.977E+03 -.396E+03 -.414E+03   -.974E+03 0.393E+03 0.413E+03   -.181E+01 0.151E+01 0.210E+00   -.861E-02 -.572E-02 -.372E-02
   -.967E+03 0.398E+03 0.442E+03   0.964E+03 -.396E+03 -.441E+03   0.183E+01 -.150E+01 -.276E+00   -.127E-01 -.158E-02 -.551E-03
   0.399E+03 -.974E+03 0.421E+03   -.397E+03 0.971E+03 -.420E+03   -.152E+01 0.182E+01 -.213E+00   0.148E-01 0.238E-02 -.924E-02
   0.329E+03 0.322E+03 0.460E+03   -.329E+03 -.322E+03 -.461E+03   0.379E+00 0.358E+00 0.523E+00   0.567E-02 -.180E-01 -.277E-02
   0.156E+02 0.645E+03 0.119E+02   -.155E+02 -.646E+03 -.119E+02   -.233E-01 0.708E+00 -.286E-01   0.175E-02 -.411E-02 -.153E-01
   -.582E+03 -.848E+00 0.976E+03   0.581E+03 0.847E+00 -.972E+03   0.314E+00 0.273E-02 -.235E+01   -.597E-02 -.327E-02 0.660E-02
   -.358E+03 -.556E+02 -.101E+04   0.361E+03 0.547E+02 0.101E+04   -.301E+01 0.708E+00 0.276E+01   0.790E-02 0.310E-02 -.711E-02
   0.590E+03 -.298E+00 0.967E+03   -.589E+03 0.309E+00 -.964E+03   -.307E+00 0.106E-02 -.235E+01   0.927E-02 -.140E-01 0.118E-02
   0.599E+03 -.869E+00 -.964E+03   -.598E+03 0.881E+00 0.960E+03   -.238E+00 -.290E-02 0.235E+01   -.520E-02 -.847E-02 0.398E-02
   0.768E+03 0.762E+03 0.447E+01   -.766E+03 -.760E+03 -.446E+01   -.114E+01 -.115E+01 0.647E-02   0.911E-03 -.777E-02 -.145E-01
   -.747E+03 -.780E+03 0.224E+02   0.745E+03 0.778E+03 -.223E+02   0.115E+01 0.120E+01 -.377E-01   -.354E-02 -.489E-02 -.489E-02
   -.743E+03 0.780E+03 0.308E+02   0.741E+03 -.778E+03 -.307E+02   0.111E+01 -.128E+01 -.861E-01   -.157E-02 0.582E-02 -.591E-02
   0.767E+03 -.763E+03 0.403E+01   -.765E+03 0.761E+03 -.402E+01   -.114E+01 0.114E+01 -.149E-02   0.102E-01 0.767E-02 -.112E-01
   0.527E+01 -.526E+00 0.108E+04   -.528E+01 0.526E+00 -.107E+04   0.425E-03 0.139E-02 -.161E+01   0.130E-01 -.278E-02 0.646E-02
   0.386E+02 -.365E+01 -.107E+04   -.385E+02 0.368E+01 0.107E+04   -.114E+00 -.198E-01 0.168E+01   0.162E-01 0.147E-02 -.667E-03
   0.978E+03 0.395E+03 -.414E+03   -.975E+03 -.392E+03 0.413E+03   -.181E+01 -.151E+01 0.211E+00   -.529E-02 -.192E-01 -.121E-01
   -.379E+03 -.989E+03 -.409E+03   0.377E+03 0.986E+03 0.409E+03   0.149E+01 0.185E+01 0.218E+00   0.102E-01 -.391E-03 -.720E-03
   -.266E+03 0.336E+03 -.427E+03   0.266E+03 -.337E+03 0.427E+03   -.181E+00 0.474E+00 -.461E+00   0.170E-01 -.384E-02 -.148E-01
   0.328E+03 -.323E+03 0.460E+03   -.329E+03 0.323E+03 -.460E+03   0.382E+00 -.354E+00 0.521E+00   0.235E-01 0.524E-03 -.870E-02
   0.340E+03 0.324E+03 -.447E+03   -.340E+03 -.324E+03 0.448E+03   0.328E+00 0.367E+00 -.523E+00   0.124E-02 -.162E-01 -.179E-01
   -.900E+03 0.524E+03 -.196E+03   0.899E+03 -.519E+03 0.200E+03   0.416E+00 -.388E+01 -.379E+01   -.565E-02 -.653E-03 -.822E-02
   0.404E+03 -.978E+03 -.413E+03   -.402E+03 0.975E+03 0.412E+03   -.150E+01 0.182E+01 0.224E+00   0.148E-01 0.888E-02 -.415E-02
   -.311E+03 -.326E+03 0.468E+03   0.311E+03 0.326E+03 -.468E+03   -.373E+00 -.359E+00 0.514E+00   0.396E-02 -.229E-02 -.792E-02
   0.647E+03 -.629E+00 0.509E+01   -.648E+03 0.652E+00 -.508E+01   0.731E+00 -.317E-03 0.153E-01   0.321E-02 -.238E-01 -.139E-01
   -.612E+03 -.601E+01 0.475E+02   0.613E+03 0.599E+01 -.477E+02   -.744E+00 0.232E-01 0.106E+00   -.118E-02 -.677E-02 -.818E-02
   0.444E+01 -.589E+03 0.970E+03   -.444E+01 0.588E+03 -.966E+03   -.396E-02 0.295E+00 -.236E+01   0.994E-02 0.376E-03 0.319E-02
   0.213E+02 -.601E+03 -.965E+03   -.213E+02 0.600E+03 0.961E+03   -.340E-01 0.351E+00 0.236E+01   0.193E-01 0.836E-02 0.119E-02
   0.195E+02 -.188E+01 0.149E+02   -.195E+02 0.188E+01 -.148E+02   -.245E-01 0.640E-02 -.199E-01   0.173E-01 -.668E-02 -.172E-01
   0.338E+03 -.326E+03 -.448E+03   -.339E+03 0.326E+03 0.448E+03   0.347E+00 -.362E+00 -.520E+00   0.152E-01 0.248E-02 -.915E-02
   -.278E+03 -.344E+03 -.432E+03   0.278E+03 0.345E+03 0.433E+03   -.295E+00 -.434E+00 -.544E+00   0.164E-01 0.324E-02 -.609E-02
   0.129E+02 -.647E+03 0.987E+01   -.129E+02 0.647E+03 -.985E+01   -.285E-02 -.723E+00 -.933E-02   0.158E-01 0.425E-02 -.144E-01
   -.247E+03 0.493E+00 -.188E+03   0.231E+03 0.926E+00 0.176E+03   0.980E+01 -.856E+00 0.746E+01   -.433E-04 -.935E-05 -.189E-02
   -.713E+03 0.615E+02 -.541E+03   0.766E+03 -.664E+02 0.581E+03   -.470E+02 0.471E+01 -.356E+02   -.690E-03 0.178E-03 -.193E-02
 -----------------------------------------------------------------------------------------------
   0.415E+02 -.206E+01 0.319E+02   0.909E-12 -.129E-11 -.568E-12   -.418E+02 0.222E+01 -.316E+02   0.211E+00 -.157E+00 -.261E+00
 
 
 POSITION                                       TOTAL-FORCE (eV/Angst)
 -----------------------------------------------------------------------------------
     13.37281      9.84801     12.50759         0.711040      1.109042      0.284727
     20.15199     16.62719     12.50759        -1.103584     -0.708675      0.296624
     16.62719      9.84801     12.50759        -0.738286      1.107133      0.264763
      9.84801     16.62719     12.50759         1.107217     -0.707024      0.290359
     15.00000     11.47521     10.20639        -0.001189      0.405546      1.286042
     15.00000     11.47521     19.79360        -0.006729      0.404052     -1.287631
     15.00000      8.28283     15.00000        -0.003514      1.517250     -0.002877
      8.28283     15.00000     15.00000         1.519859     -0.000526      0.009070
     21.71717     15.00000     15.00000        -1.485560      0.007418     -0.069701
     15.00000     21.71717     15.00000        -0.002092     -1.519923     -0.006110
     18.35858     11.64142     10.25025        -0.761943      0.756526      1.071508
     18.35858     11.64142     19.74975        -0.776514      0.664196     -1.021975
     11.64142     18.35858     10.25025         0.764624     -0.750781      1.074128
     11.64142     18.35858     19.74975         0.752583     -0.758753     -1.076167
     11.64142     11.64142     10.25025         0.764241      0.751133      1.074796
     11.64142     11.64142     19.74975         0.752158      0.757083     -1.075167
     18.35858     18.35858     10.25025        -0.763009     -0.754658      1.072784
     18.35858     18.35858     19.74975        -0.785648     -0.695114     -1.060778
     13.37281      9.84801     17.49241         0.711162      1.110449     -0.288894
     20.15199     16.62719     17.49241        -0.997023     -0.894974     -0.087090
     16.73751     13.26249     12.54279         0.118525     -0.112229     -0.157239
      9.84801     13.37281     12.50759         1.108623      0.706069      0.290271
     16.62719     20.15199     12.50759        -0.726594     -1.109873      0.276722
     16.62719      9.84801     17.49241        -0.716120      1.104607     -0.290032
      9.84801     16.62719     17.49241         1.106899     -0.711163     -0.286684
     20.15199     13.37281     12.50759        -1.105023      0.707083      0.297329
     13.37281     20.15199     12.50759         0.712729     -1.106130      0.291180
     13.26249     13.26249     12.54279        -0.105678     -0.113671     -0.153062
     15.00000     11.52498     15.00000        -0.000326     -0.230911      0.000800
     18.52479     15.00000     10.20639        -0.414208     -0.001723      1.283458
     18.52479     15.00000     19.79360         0.273448     -0.146692     -1.525390
     11.47521     15.00000     10.20640         0.410888     -0.001188      1.282580
     11.47521     15.00000     19.79360         0.380227      0.001134     -1.303642
     11.49535     11.49535     15.00000         0.829983      0.829912     -0.000173
     18.50465     18.50465     15.00000        -0.841124     -0.820272     -0.013278
     18.50465     11.49535     15.00000        -0.857955      0.809810     -0.047988
     11.49535     18.50465     15.00000         0.828422     -0.828440      0.001677
     15.00000     15.00000     10.04368         0.001073     -0.001433      1.177798
     15.00000     15.00000     19.95633        -0.054871      0.010493     -1.184981
      9.84801     13.37281     17.49241         1.107391      0.711957     -0.287111
     16.62719     20.15199     17.49241        -0.699052     -1.112032     -0.284623
     16.73751     13.26249     17.45721         0.016427     -0.125587      0.098248
     13.26249     16.73751     12.54279        -0.108803      0.112018     -0.155320
     13.26249     13.26249     17.45721        -0.114403     -0.112639      0.157909
     20.15199     13.37281     17.49241        -1.157032      0.734295     -0.366107
     13.37281     20.15199     17.49241         0.703901     -1.110659     -0.291844
     16.73751     16.73751     12.54279         0.108410      0.119308     -0.162018
     11.52498     15.00000     15.00000        -0.224733     -0.000914      0.005021
     18.47502     15.00000     15.00000         0.189804     -0.001166     -0.054102
     15.00000     18.52480     10.20639         0.004998     -0.407696      1.285817
     15.00000     18.52480     19.79360         0.007947     -0.414361     -1.281055
     15.00000     15.00000     15.00000         0.004027      0.001666      0.002423
     13.26249     16.73751     17.45721        -0.109308      0.114331      0.161756
     16.73751     16.73751     17.45721         0.060529      0.129995      0.133106
     15.00000     18.47502     15.00000        -0.000942      0.233914     -0.006850
     20.41580     14.48806     19.08442        -6.402672      0.563065     -4.129874
     21.31384     14.40317     19.76170         6.006799     -0.220273      4.486868
 -----------------------------------------------------------------------------------
    total drift:                               -0.004705     -0.001869      0.005000


--------------------------------------------------------------------------------------------------------



  FREE ENERGIE OF THE ION-ELECTRON SYSTEM (eV)
  ---------------------------------------------------
  free  energy   TOTEN  =      -175.59866363 eV

  energy  without entropy=     -175.49911418  energy(sigma->0) =     -175.57377627
 


--------------------------------------------------------------------------------------------------------


    POTLOK:  cpu time   11.1688: real time   11.1694


--------------------------------------------------------------------------------------------------------


     LOOP+:  cpu time15570.3138: real time15570.8091
    4ORBIT:  cpu time    0.0000: real time    0.0000

 total amount of memory used by VASP MPI-rank0  5486941. kBytes
=======================================================================

   base      :      30000. kBytes
   nonlr-proj:      17126. kBytes
   fftplans  :     924480. kBytes
   grid      :    1872000. kBytes
   one-center:        886. kBytes
   wavefun   :    2642449. kBytes
 
  
  
 General timing and accounting informations for this job:
 ========================================================
  
                  Total CPU time used (sec):    15633.202
                            User time (sec):    14780.883
                          System time (sec):      852.319
                         Elapsed time (sec):    15633.734
  
                   Maximum memory used (kb):     7178364.
                   Average memory used (kb):           0.
  
                          Minor page faults:    828876025
                          Major page faults:            0
                 Voluntary context switches:          684
