   57   57    1    1
  0.4736842E+03  0.3000000E-08  0.3000000E-08  0.3000000E-08  0.5000000E-15
  1.000000000000000E-004
  CAR 
 6_Pd100_top_free_z(O)                   
    560      1    336
 
  0.0000000E+00  0.0000000E+00  0.0000000E+00  0.1000000E+01
    1      -28.496446   1.000000
    2      -13.773283   1.000000
    3      -12.191410   1.000000
    4      -11.346631   1.000000
    5      -10.701387   1.000000
    6       -7.018626   1.000000
    7       -6.685186   1.000000
    8       -6.602282   1.000000
    9       -6.172653   1.000000
   10       -6.138154   1.000000
   11       -6.130506   1.000000
   12       -6.078962   1.000000
   13       -5.891280   1.000000
   14       -5.849212   1.000000
   15       -5.830308   1.000000
   16       -5.796516   1.000000
   17       -5.753447   1.000000
   18       -5.739898   1.000000
   19       -5.717207   1.000000
   20       -5.678683   1.000000
   21       -5.676161   1.000000
   22       -5.669387   1.000000
   23       -5.645209   1.000000
   24       -5.617486   1.000000
   25       -5.602431   1.000000
   26       -5.594438   1.000000
   27       -5.586296   1.000000
   28       -5.584981   1.000000
   29       -5.563513   1.000000
   30       -5.549100   1.000000
   31       -5.547290   1.000000
   32       -5.525767   1.000000
   33       -5.524389   1.000000
   34       -5.520500   1.000000
   35       -5.514354   1.000000
   36       -5.505129   1.000000
   37       -5.500696   1.000000
   38       -5.496074   1.000000
   39       -5.490273   1.000000
   40       -5.485983   1.000000
   41       -5.478891   1.000000
   42       -5.471511   1.000000
   43       -5.467062   1.000000
   44       -5.458735   1.000000
   45       -5.456898   1.000000
   46       -5.452455   1.000000
   47       -5.446523   1.000000
   48       -5.440642   1.000000
   49       -5.431236   1.000000
   50       -5.427304   1.000000
   51       -5.415209   1.000000
   52       -5.410564   1.000000
   53       -5.403919   1.000000
   54       -5.392416   1.000000
   55       -5.389204   1.000000
   56       -5.382303   1.000000
   57       -5.378236   1.000000
   58       -5.370609   1.000000
   59       -5.361451   1.000000
   60       -5.359510   1.000000
   61       -5.343865   1.000000
   62       -5.324818   1.000000
   63       -5.306396   1.000000
   64       -5.304047   1.000000
   65       -5.301134   1.000000
   66       -5.298312   1.000000
   67       -5.295419   1.000000
   68       -5.291251   1.000000
   69       -5.278821   1.000000
   70       -5.275808   1.000000
   71       -5.253982   1.000000
   72       -5.248651   1.000000
   73       -5.237391   1.000000
   74       -5.205179   1.000000
   75       -5.179653   1.000000
   76       -5.176484   1.000000
   77       -5.170859   1.000000
   78       -5.167531   1.000000
   79       -5.166017   1.000000
   80       -5.165520   1.000000
   81       -5.162197   1.000000
   82       -5.142604   1.000000
   83       -5.137641   1.000000
   84       -5.133689   1.000000
   85       -5.132310   1.000000
   86       -5.123253   1.000000
   87       -5.106588   1.000000
   88       -5.105306   1.000000
   89       -5.093097   1.000000
   90       -5.089435   1.000000
   91       -5.084179   1.000000
   92       -5.073464   1.000000
   93       -5.059374   1.000000
   94       -5.053765   1.000000
   95       -5.040688   1.000000
   96       -5.037993   1.000000
   97       -5.035093   1.000000
   98       -5.033926   1.000000
   99       -5.033271   1.000000
  100       -5.024505   1.000000
  101       -5.018621   1.000000
  102       -5.012184   1.000000
  103       -5.007788   1.000000
  104       -5.006803   1.000000
  105       -5.001739   1.000000
  106       -4.994651   1.000000
  107       -4.991482   1.000000
  108       -4.990637   1.000000
  109       -4.983750   1.000000
  110       -4.982037   1.000000
  111       -4.973897   1.000000
  112       -4.968011   1.000000
  113       -4.961118   1.000000
  114       -4.957078   1.000000
  115       -4.952481   1.000000
  116       -4.944592   0.999999
  117       -4.942299   0.999999
  118       -4.939408   0.999999
  119       -4.933377   0.999999
  120       -4.916756   0.999999
  121       -4.911518   0.999998
  122       -4.909511   0.999998
  123       -4.901277   0.999998
  124       -4.899076   0.999997
  125       -4.896992   0.999997
  126       -4.889604   0.999997
  127       -4.887822   0.999996
  128       -4.873061   0.999994
  129       -4.864729   0.999992
  130       -4.856015   0.999990
  131       -4.847214   0.999987
  132       -4.840494   0.999984
  133       -4.832817   0.999979
  134       -4.821985   0.999972
  135       -4.820439   0.999970
  136       -4.817150   0.999967
  137       -4.812173   0.999962
  138       -4.808382   0.999958
  139       -4.800849   0.999948
  140       -4.788892   0.999928
  141       -4.779731   0.999909
  142       -4.760197   0.999849
  143       -4.759292   0.999845
  144       -4.744054   0.999775
  145       -4.739417   0.999749
  146       -4.731185   0.999696
  147       -4.722612   0.999630
  148       -4.721541   0.999621
  149       -4.719957   0.999607
  150       -4.702335   0.999424
  151       -4.695890   0.999341
  152       -4.690822   0.999270
  153       -4.687707   0.999223
  154       -4.681919   0.999129
  155       -4.668498   0.998876
  156       -4.664897   0.998800
  157       -4.661833   0.998732
  158       -4.658105   0.998645
  159       -4.657512   0.998631
  160       -4.653632   0.998536
  161       -4.647635   0.998380
  162       -4.645389   0.998319
  163       -4.644011   0.998281
  164       -4.636484   0.998061
  165       -4.634481   0.998000
  166       -4.629648   0.997848
  167       -4.628041   0.997796
  168       -4.624969   0.997695
  169       -4.622038   0.997596
  170       -4.619038   0.997493
  171       -4.614626   0.997337
  172       -4.609375   0.997148
  173       -4.599547   0.996783
  174       -4.590398   0.996439
  175       -4.583305   0.996176
  176       -4.581840   0.996122
  177       -4.579179   0.996027
  178       -4.575613   0.995901
  179       -4.575211   0.995888
  180       -4.569771   0.995706
  181       -4.566509   0.995604
  182       -4.554213   0.995279
  183       -4.549047   0.995179
  184       -4.544018   0.995110
  185       -4.540962   0.995082
  186       -4.537711   0.995067
  187       -4.535686   0.995065
  188       -4.533676   0.995069
  189       -4.529895   0.995096
  190       -4.528470   0.995112
  191       -4.510141   0.995695
  192       -4.506354   0.995916
  193       -4.503236   0.996128
  194       -4.498953   0.996465
  195       -4.491071   0.997238
  196       -4.486930   0.997729
  197       -4.479072   0.998833
  198       -4.475040   0.999493
  199       -4.474840   0.999527
  200       -4.466760   1.001057
  201       -4.463551   1.001742
  202       -4.453851   1.004091
  203       -4.452087   1.004564
  204       -4.448308   1.005624
  205       -4.446901   1.006036
  206       -4.444129   1.006873
  207       -4.439963   1.008198
  208       -4.434212   1.010154
  209       -4.431302   1.011200
  210       -4.424256   1.013880
  211       -4.420519   1.015383
  212       -4.406658   1.021387
  213       -4.403007   1.023062
  214       -4.401963   1.023547
  215       -4.397676   1.025560
  216       -4.393889   1.027363
  217       -4.389256   1.029587
  218       -4.388285   1.030055
  219       -4.386533   1.030899
  220       -4.385098   1.031590
  221       -4.376543   1.035674
  222       -4.371998   1.037791
  223       -4.347396   1.047596
  224       -4.345672   1.048118
  225       -4.340148   1.049582
  226       -4.335427   1.050555
  227       -4.329778   1.051329
  228       -4.322615   1.051613
  229       -4.320397   1.051526
  230       -4.318785   1.051406
  231       -4.316045   1.051090
  232       -4.315667   1.051035
  233       -4.311737   1.050291
  234       -4.311190   1.050162
  235       -4.309340   1.049678
  236       -4.306542   1.048801
  237       -4.305033   1.048255
  238       -4.302004   1.046994
  239       -4.300822   1.046442
  240       -4.297202   1.044531
  241       -4.289203   1.039069
  242       -4.286482   1.036800
  243       -4.284976   1.035451
  244       -4.282325   1.032909
  245       -4.277866   1.028143
  246       -4.275672   1.025565
  247       -4.271136   1.019732
  248       -4.267487   1.014536
  249       -4.266448   1.012972
  250       -4.259098   1.000821
  251       -4.253706   0.990659
  252       -4.251862   0.986935
  253       -4.250218   0.983509
  254       -4.239943   0.959758
  255       -4.238638   0.956450
  256       -4.235624   0.948561
  257       -4.233114   0.941721
  258       -4.232451   0.939875
  259       -4.228542   0.928635
  260       -4.227499   0.925536
  261       -4.225946   0.920844
  262       -4.221506   0.906919
  263       -4.219532   0.900487
  264       -4.218283   0.896339
  265       -4.217630   0.894147
  266       -4.207525   0.858211
  267       -4.206129   0.852952
  268       -4.203548   0.843051
  269       -4.201395   0.834614
  270       -4.199538   0.827208
  271       -4.197518   0.819020
  272       -4.186194   0.770678
  273       -4.180024   0.742732
  274       -4.176254   0.725148
  275       -4.171650   0.703196
  276       -4.169986   0.695138
  277       -4.163860   0.664977
  278       -4.156489   0.627765
  279       -4.155389   0.622143
  280       -4.151188   0.600503
  281       -4.146123   0.574141
  282       -4.139791   0.540887
  283       -4.131999   0.499722
  284       -4.116281   0.416987
  285       -4.113918   0.404696
  286       -4.110384   0.386434
  287       -4.102377   0.345697
  288       -4.092198   0.295575
  289       -3.974299  -0.039542
  290       -3.917955  -0.047977
  291       -3.895839  -0.039485
  292       -3.815938  -0.005666
  293       -3.802399  -0.002157
  294       -3.721904   0.004908
  295       -3.488127   0.000101
  296       -3.474718   0.000071
  297       -3.214516   0.000000
  298       -3.057381   0.000000
  299       -3.047550   0.000000
  300       -3.032522   0.000000
  301       -3.020343   0.000000
  302       -3.000249   0.000000
  303       -2.985135   0.000000
  304       -2.924683   0.000000
  305       -2.788227   0.000000
  306       -2.534185   0.000000
  307       -2.505022   0.000000
  308       -2.406263   0.000000
  309       -2.217957   0.000000
  310       -2.139484   0.000000
  311       -2.106979   0.000000
  312       -2.040192   0.000000
  313       -1.958381   0.000000
  314       -1.939339   0.000000
  315       -1.881904   0.000000
  316       -1.841129   0.000000
  317       -1.814161   0.000000
  318       -1.756696   0.000000
  319       -1.679040   0.000000
  320       -1.624814   0.000000
  321       -1.548144   0.000000
  322       -1.537442   0.000000
  323       -1.450582   0.000000
  324       -1.340206   0.000000
  325       -1.265058   0.000000
  326       -1.130984   0.000000
  327       -1.051598   0.000000
  328       -1.003382   0.000000
  329       -0.957441   0.000000
  330       -0.949423   0.000000
  331       -0.921020   0.000000
  332       -0.908063   0.000000
  333       -0.854622   0.000000
  334       -0.818696   0.000000
  335       -0.792724   0.000000
  336       -0.666138   0.000000
