  57  57   0   0
  0.4736842E+03  0.3000000E-08  0.3000000E-08  0.3000000E-08  0.5000000E-15
  1.000000000000000E-004
  CAR 
 6_Pd100_top_free_z(O)                   
      1.42577925    -31.07920384  301     -4.13123964      1.00000000
    -31.079  0.0000E+00  0.0000E+00
    -30.971  0.0000E+00  0.0000E+00
    -30.863  0.0000E+00  0.0000E+00
    -30.754  0.5039E-27  0.5460E-28
    -30.646  0.2662E-23  0.2885E-24
    -30.537  0.7694E-20  0.8339E-21
    -30.429  0.1213E-16  0.1315E-17
    -30.321  0.1039E-13  0.1127E-14
    -30.212  0.4818E-11  0.5231E-12
    -30.104  0.1198E-08  0.1303E-09
    -29.996  0.1581E-06  0.1726E-07
    -29.887  0.1089E-04  0.1197E-05
    -29.779  0.3797E-03  0.4233E-04
    -29.671  0.6305E-02  0.7255E-03
    -29.562  0.4211E-01  0.5288E-02
    -29.454  0.2711E-01  0.8225E-02
    -29.346 -0.5409E+00 -0.5039E-01
    -29.237 -0.2691E+00 -0.7954E-01
    -29.129  0.5337E+01  0.4987E+00
    -29.021  0.9987E+01  0.1581E+01
    -28.912  0.4710E+01  0.2091E+01
    -28.804 -0.4522E+00  0.2042E+01
    -28.696 -0.4728E+00  0.1991E+01
    -28.587  0.4116E-01  0.1995E+01
    -28.479  0.3763E-01  0.1999E+01
    -28.370  0.5156E-02  0.2000E+01
    -28.262  0.2909E-03  0.2000E+01
    -28.154  0.7871E-05  0.2000E+01
    -28.045  0.1082E-06  0.2000E+01
    -27.937  0.7777E-09  0.2000E+01
    -27.829  0.2972E-11  0.2000E+01
    -27.720  0.6148E-14  0.2000E+01
    -27.612  0.0000E+00  0.2000E+01
    -27.504  0.0000E+00  0.2000E+01
    -27.395  0.0000E+00  0.2000E+01
    -27.287  0.0000E+00  0.2000E+01
    -27.179  0.0000E+00  0.2000E+01
    -27.070  0.0000E+00  0.2000E+01
    -26.962  0.0000E+00  0.2000E+01
    -26.854  0.0000E+00  0.2000E+01
    -26.745  0.0000E+00  0.2000E+01
    -26.637  0.0000E+00  0.2000E+01
    -26.529  0.0000E+00  0.2000E+01
    -26.420  0.0000E+00  0.2000E+01
    -26.312  0.0000E+00  0.2000E+01
    -26.203  0.0000E+00  0.2000E+01
    -26.095  0.0000E+00  0.2000E+01
    -25.987  0.0000E+00  0.2000E+01
    -25.878  0.0000E+00  0.2000E+01
    -25.770  0.0000E+00  0.2000E+01
    -25.662  0.0000E+00  0.2000E+01
    -25.553  0.0000E+00  0.2000E+01
    -25.445  0.0000E+00  0.2000E+01
    -25.337  0.0000E+00  0.2000E+01
    -25.228  0.0000E+00  0.2000E+01
    -25.120  0.0000E+00  0.2000E+01
    -25.012  0.0000E+00  0.2000E+01
    -24.903  0.0000E+00  0.2000E+01
    -24.795  0.0000E+00  0.2000E+01
    -24.687  0.0000E+00  0.2000E+01
    -24.578  0.0000E+00  0.2000E+01
    -24.470  0.0000E+00  0.2000E+01
    -24.362  0.0000E+00  0.2000E+01
    -24.253  0.0000E+00  0.2000E+01
    -24.145  0.0000E+00  0.2000E+01
    -24.036  0.0000E+00  0.2000E+01
    -23.928  0.0000E+00  0.2000E+01
    -23.820  0.0000E+00  0.2000E+01
    -23.711  0.0000E+00  0.2000E+01
    -23.603  0.0000E+00  0.2000E+01
    -23.495  0.0000E+00  0.2000E+01
    -23.386  0.0000E+00  0.2000E+01
    -23.278  0.0000E+00  0.2000E+01
    -23.170  0.0000E+00  0.2000E+01
    -23.061  0.0000E+00  0.2000E+01
    -22.953  0.0000E+00  0.2000E+01
    -22.845  0.0000E+00  0.2000E+01
    -22.736  0.0000E+00  0.2000E+01
    -22.628  0.0000E+00  0.2000E+01
    -22.520  0.0000E+00  0.2000E+01
    -22.411  0.0000E+00  0.2000E+01
    -22.303  0.0000E+00  0.2000E+01
    -22.195  0.0000E+00  0.2000E+01
    -22.086  0.0000E+00  0.2000E+01
    -21.978  0.0000E+00  0.2000E+01
    -21.869  0.0000E+00  0.2000E+01
    -21.761  0.0000E+00  0.2000E+01
    -21.653  0.0000E+00  0.2000E+01
    -21.544  0.0000E+00  0.2000E+01
    -21.436  0.0000E+00  0.2000E+01
    -21.328  0.0000E+00  0.2000E+01
    -21.219  0.0000E+00  0.2000E+01
    -21.111  0.0000E+00  0.2000E+01
    -21.003  0.0000E+00  0.2000E+01
    -20.894  0.0000E+00  0.2000E+01
    -20.786  0.0000E+00  0.2000E+01
    -20.678  0.0000E+00  0.2000E+01
    -20.569  0.0000E+00  0.2000E+01
    -20.461  0.0000E+00  0.2000E+01
    -20.353  0.0000E+00  0.2000E+01
    -20.244  0.0000E+00  0.2000E+01
    -20.136  0.0000E+00  0.2000E+01
    -20.028  0.0000E+00  0.2000E+01
    -19.919  0.0000E+00  0.2000E+01
    -19.811  0.0000E+00  0.2000E+01
    -19.702  0.0000E+00  0.2000E+01
    -19.594  0.0000E+00  0.2000E+01
    -19.486  0.0000E+00  0.2000E+01
    -19.377  0.0000E+00  0.2000E+01
    -19.269  0.0000E+00  0.2000E+01
    -19.161  0.0000E+00  0.2000E+01
    -19.052  0.0000E+00  0.2000E+01
    -18.944  0.0000E+00  0.2000E+01
    -18.836  0.0000E+00  0.2000E+01
    -18.727  0.0000E+00  0.2000E+01
    -18.619  0.0000E+00  0.2000E+01
    -18.511  0.0000E+00  0.2000E+01
    -18.402  0.0000E+00  0.2000E+01
    -18.294  0.0000E+00  0.2000E+01
    -18.186  0.0000E+00  0.2000E+01
    -18.077  0.0000E+00  0.2000E+01
    -17.969  0.0000E+00  0.2000E+01
    -17.861  0.0000E+00  0.2000E+01
    -17.752  0.0000E+00  0.2000E+01
    -17.644  0.0000E+00  0.2000E+01
    -17.535  0.0000E+00  0.2000E+01
    -17.427  0.0000E+00  0.2000E+01
    -17.319  0.0000E+00  0.2000E+01
    -17.210  0.0000E+00  0.2000E+01
    -17.102  0.0000E+00  0.2000E+01
    -16.994  0.0000E+00  0.2000E+01
    -16.885  0.0000E+00  0.2000E+01
    -16.777  0.0000E+00  0.2000E+01
    -16.669  0.0000E+00  0.2000E+01
    -16.560  0.0000E+00  0.2000E+01
    -16.452  0.0000E+00  0.2000E+01
    -16.344  0.0000E+00  0.2000E+01
    -16.235  0.0000E+00  0.2000E+01
    -16.127  0.0000E+00  0.2000E+01
    -16.019  0.0000E+00  0.2000E+01
    -15.910  0.0000E+00  0.2000E+01
    -15.802  0.0000E+00  0.2000E+01
    -15.694  0.0000E+00  0.2000E+01
    -15.585  0.0000E+00  0.2000E+01
    -15.477  0.0000E+00  0.2000E+01
    -15.368  0.0000E+00  0.2000E+01
    -15.260  0.7187E-26  0.2000E+01
    -15.152  0.3164E-22  0.2000E+01
    -15.043  0.7614E-19  0.2000E+01
    -14.935  0.9983E-16  0.2000E+01
    -14.827  0.7102E-13  0.2000E+01
    -14.718  0.2732E-10  0.2000E+01
    -14.610  0.5614E-08  0.2000E+01
    -14.502  0.6099E-06  0.2000E+01
    -14.393  0.3433E-04  0.2000E+01
    -14.285  0.9650E-03  0.2000E+01
    -14.177  0.1251E-01  0.2001E+01
    -14.068  0.5772E-01  0.2008E+01
    -13.960 -0.6515E-01  0.2001E+01
    -13.852 -0.7561E+00  0.1919E+01
    -13.743  0.7947E+00  0.2005E+01
    -13.635  0.7542E+01  0.2822E+01
    -13.527  0.9270E+01  0.3826E+01
    -13.418  0.2545E+01  0.4102E+01
    -13.310 -0.7933E+00  0.4016E+01
    -13.201 -0.2391E+00  0.3990E+01
    -13.093  0.6360E-01  0.3997E+01
    -12.985  0.2309E-01  0.4000E+01
    -12.876  0.2348E-02  0.4000E+01
    -12.768  0.1051E-03  0.4000E+01
    -12.660  0.2307E-05  0.4000E+01
    -12.551  0.2600E-07  0.4000E+01
    -12.443  0.1258E-08  0.4000E+01
    -12.335  0.1596E-06  0.4000E+01
    -12.226  0.1210E-04  0.4000E+01
    -12.118  0.4672E-03  0.4000E+01
    -12.010  0.8707E-02  0.4001E+01
    -11.901  0.6803E-01  0.4008E+01
    -11.793  0.9910E-01  0.4019E+01
    -11.685 -0.8321E+00  0.3929E+01
    -11.576 -0.1138E+01  0.3806E+01
    -11.468  0.8381E+01  0.4714E+01
    -11.360  0.1982E+02  0.6861E+01
    -11.251  0.1172E+02  0.8131E+01
    -11.143 -0.1500E+00  0.8115E+01
    -11.034 -0.1193E+01  0.7986E+01
    -10.926  0.2265E-01  0.7988E+01
    -10.818  0.9181E-01  0.7998E+01
    -10.709  0.1493E-01  0.8000E+01
    -10.601  0.9537E-03  0.8000E+01
    -10.493  0.2884E-04  0.8000E+01
    -10.384  0.4406E-06  0.8000E+01
    -10.276  0.1098E-07  0.8000E+01
    -10.168  0.7827E-06  0.8000E+01
    -10.059  0.4238E-04  0.8000E+01
     -9.951  0.1143E-02  0.8000E+01
     -9.843  0.1410E-01  0.8002E+01
     -9.734  0.6002E-01  0.8008E+01
     -9.626 -0.9092E-01  0.7998E+01
     -9.518 -0.7827E+00  0.7913E+01
     -9.409  0.1069E+01  0.8029E+01
     -9.301  0.7917E+01  0.8887E+01
     -9.193  0.9017E+01  0.9864E+01
     -9.084  0.2178E+01  0.1010E+02
     -8.976 -0.8097E+00  0.1001E+02
     -8.867 -0.2011E+00  0.9991E+01
     -8.759  0.6405E-01  0.9998E+01
     -8.651  0.2079E-01  0.1000E+02
     -8.542  0.2005E-02  0.1000E+02
     -8.434  0.8597E-04  0.1000E+02
     -8.326  0.1815E-05  0.1000E+02
     -8.217  0.1971E-07  0.1000E+02
     -8.109  0.1126E-09  0.1000E+02
     -8.001  0.3443E-12  0.1000E+02
     -7.892  0.2671E-14  0.1000E+02
     -7.784  0.1409E-11  0.1000E+02
     -7.676  0.3991E-09  0.1000E+02
     -7.567  0.6018E-07  0.1000E+02
     -7.459  0.4756E-05  0.1000E+02
     -7.351  0.1919E-03  0.1000E+02
     -7.242  0.3750E-02  0.1000E+02
     -7.134  0.3113E-01  0.1000E+02
     -7.026  0.5535E-01  0.1001E+02
     -6.917 -0.3703E+00  0.9970E+01
     -6.809 -0.6512E+00  0.9899E+01
     -6.700  0.3790E+01  0.1031E+02
     -6.592  0.9945E+01  0.1139E+02
     -6.484  0.6377E+01  0.1208E+02
     -6.375 -0.1456E+01  0.1192E+02
     -6.267 -0.1358E+01  0.1177E+02
     -6.159  0.1594E+02  0.1350E+02
     -6.050  0.2871E+02  0.1661E+02
     -5.942  0.1291E+02  0.1801E+02
     -5.834  0.1244E+02  0.1936E+02
     -5.725  0.4521E+02  0.2426E+02
     -5.617  0.1112E+03  0.3630E+02
     -5.509  0.2325E+03  0.6150E+02
     -5.400  0.3092E+03  0.9500E+02
     -5.292  0.2541E+03  0.1225E+03
     -5.184  0.2046E+03  0.1447E+03
     -5.075  0.2705E+03  0.1740E+03
     -4.967  0.3605E+03  0.2131E+03
     -4.859  0.3418E+03  0.2501E+03
     -4.750  0.2903E+03  0.2816E+03
     -4.642  0.3571E+03  0.3202E+03
     -4.533  0.4299E+03  0.3668E+03
     -4.425  0.4229E+03  0.4126E+03
     -4.317  0.4881E+03  0.4655E+03
     -4.208  0.5622E+03  0.5264E+03
     -4.100  0.3911E+03  0.5688E+03
     -3.992  0.1116E+03  0.5809E+03
     -3.883  0.9507E+01  0.5819E+03
     -3.775  0.2914E+02  0.5851E+03
     -3.667  0.2328E+02  0.5876E+03
     -3.558  0.9734E+01  0.5887E+03
     -3.450  0.2476E+02  0.5914E+03
     -3.342  0.2265E+02  0.5938E+03
     -3.233 -0.9207E+00  0.5937E+03
     -3.125  0.5128E+01  0.5943E+03
     -3.017  0.5138E+02  0.5998E+03
     -2.908  0.6875E+02  0.6073E+03
     -2.800  0.2837E+02  0.6104E+03
     -2.692 -0.3364E+01  0.6100E+03
     -2.583  0.3856E+01  0.6104E+03
     -2.475  0.2660E+02  0.6133E+03
     -2.366  0.2873E+02  0.6164E+03
     -2.258  0.1360E+02  0.6179E+03
     -2.150  0.1863E+02  0.6199E+03
     -2.041  0.3715E+02  0.6239E+03
     -1.933  0.4229E+02  0.6285E+03
     -1.825  0.3801E+02  0.6326E+03
     -1.716  0.3519E+02  0.6364E+03
     -1.608  0.4158E+02  0.6409E+03
     -1.500  0.4329E+02  0.6456E+03
     -1.391  0.2872E+02  0.6487E+03
     -1.283  0.1560E+02  0.6504E+03
     -1.175  0.2045E+02  0.6527E+03
     -1.066  0.2836E+02  0.6557E+03
     -0.958  0.4695E+02  0.6608E+03
     -0.850  0.5795E+02  0.6671E+03
     -0.741  0.2796E+02  0.6701E+03
     -0.633  0.5089E+01  0.6707E+03
     -0.525  0.7430E+01  0.6715E+03
     -0.416  0.5277E+01  0.6720E+03
     -0.308 -0.4022E-01  0.6720E+03
     -0.199 -0.4902E+00  0.6720E+03
     -0.091  0.3158E-01  0.6720E+03
      0.017  0.4230E-01  0.6720E+03
      0.126  0.6309E-02  0.6720E+03
      0.234  0.3797E-03  0.6720E+03
      0.342  0.1089E-04  0.6720E+03
      0.451  0.1581E-06  0.6720E+03
      0.559  0.1198E-08  0.6720E+03
      0.667  0.4818E-11  0.6720E+03
      0.776  0.1025E-13  0.6720E+03
      0.884  0.0000E+00  0.6720E+03
      0.992  0.0000E+00  0.6720E+03
      1.101  0.0000E+00  0.6720E+03
      1.209  0.0000E+00  0.6720E+03
      1.317  0.0000E+00  0.6720E+03
      1.426  0.0000E+00  0.6720E+03
