<?xml version="1.0" encoding="ISO-8859-1"?>
<modeling>
 <generator>
  <i name="program" type="string">vasp </i>
  <i name="version" type="string">5.4.4.18Apr17-6-g9f103f2a35  </i>
  <i name="subversion" type="string">(build Sep 03 2018 23:53:05) complex            parallel </i>
  <i name="platform" type="string">LinuxIFC </i>
  <i name="date" type="string">2021 12 02 </i>
  <i name="time" type="string">02:25:16 </i>
 </generator>
 <incar>
  <i type="string" name="SYSTEM"> 6_Pd100_top_free_z(O)</i>
  <i type="int" name="ISTART">     0</i>
  <i type="string" name="PREC">normal   			! encut=max(enmax), ngx,y,z</i>
  <i type="string" name="ALGO"> Fast     			! Mix RMM-DIIS and Dav</i>
  <i type="logical" name="ADDGRID"> F  </i>
  <i type="int" name="ISPIN">     1</i>
  <i type="int" name="ICHARG">     2</i>
  <i type="int" name="NELM">   100</i>
  <i type="int" name="NELMIN">     6</i>
  <i type="int" name="IBRION">     2</i>
  <i name="EDIFF">      0.00010000</i>
  <i name="EDIFFG">     -0.05000000</i>
  <i type="int" name="NSW">     0</i>
  <i type="int" name="ISIF">     2</i>
  <i type="int" name="ISYM">     2</i>
  <i name="ENCUT">    400.00000000</i>
  <i type="string" name="LREAL"> Auto     			! Auto or A projection done</i>
  <i type="int" name="ISMEAR">     2</i>
  <i name="SIGMA">      0.20000000</i>
  <i type="logical" name="LWAVE"> F  </i>
  <i type="logical" name="LCHARG"> F  </i>
  <v type="int" name="KPOINT_BSE">    -1     0     0     0</v>
  <i type="int" name="MAXMEM"> 10000</i>
  <i type="int" name="NELM">   100</i>
  <i type="string" name="GGA"> RP         			! Revised PBE</i>
 </incar>
 <structure name="primitive_cell" >
  <crystal>
   <varray name="basis" >
    <v>      30.00000000       0.00000000       0.00000000 </v>
    <v>       0.00000000      30.00000000       0.00000000 </v>
    <v>       0.00000000       0.00000000      30.00000000 </v>
   </varray>
   <i name="volume">  27000.00000000 </i>
   <varray name="rec_basis" >
    <v>       0.03333333       0.00000000       0.00000000 </v>
    <v>       0.00000000       0.03333333       0.00000000 </v>
    <v>       0.00000000       0.00000000       0.03333333 </v>
   </varray>
  </crystal>
  <varray name="positions" >
   <v>       0.44576020       0.32826710       0.41691983 </v>
   <v>      -0.46204083       0.27728700       0.40226050 </v>
   <v>      -0.44576020       0.32826710       0.41691983 </v>
   <v>      -0.50000000       0.38250690       0.34021317 </v>
   <v>      -0.50000000       0.27609440      -0.50000000 </v>
   <v>       0.38804720       0.38804720       0.34167483 </v>
   <v>      -0.50000000       0.38416601      -0.50000000 </v>
   <v>       0.44208300       0.44208300       0.41809300 </v>
   <v>       0.38317830       0.38317830      -0.50000000 </v>
   <v>      -0.45624273       0.24326850       0.38733120 </v>
   <v>      -0.44208300       0.44208300       0.41809300 </v>
   <v>       0.44576020       0.32826710      -0.41691977 </v>
   <v>       0.32826705       0.44576024       0.41691983 </v>
   <v>      -0.38804720       0.38804720       0.34167483 </v>
   <v>      -0.38317830       0.38317830      -0.50000000 </v>
   <v>      -0.50000000      -0.50000000       0.33478917 </v>
   <v>      -0.50000000      -0.50000000      -0.50000000 </v>
   <v>      -0.44576020       0.32826710      -0.41691977 </v>
   <v>       0.38250685      -0.49999995       0.34021317 </v>
   <v>       0.44208300       0.44208300      -0.41809297 </v>
   <v>       0.38416599      -0.49999998      -0.50000000 </v>
   <v>      -0.44208300       0.44208300      -0.41809297 </v>
   <v>       0.44208298      -0.44208298       0.41809300 </v>
   <v>       0.32826705       0.44576024      -0.41691977 </v>
   <v>      -0.50000000       0.38250690      -0.34021320 </v>
   <v>       0.32826712      -0.44576022       0.41691983 </v>
   <v>      -0.38250685      -0.49999995       0.34021317 </v>
   <v>      -0.32826705       0.44576024       0.41691983 </v>
   <v>       0.27609443       0.49999998      -0.50000000 </v>
   <v>       0.38804720       0.38804720      -0.34167487 </v>
   <v>      -0.38416599      -0.49999998      -0.50000000 </v>
   <v>      -0.44208298      -0.44208298       0.41809300 </v>
   <v>       0.44208298      -0.44208298      -0.41809297 </v>
   <v>      -0.38804720       0.38804720      -0.34167487 </v>
   <v>       0.38804722      -0.38804722       0.34167483 </v>
   <v>       0.38250685      -0.49999995      -0.34021320 </v>
   <v>       0.32826712      -0.44576022      -0.41691977 </v>
   <v>      -0.32826705       0.44576024      -0.41691977 </v>
   <v>       0.50000000      -0.38250681       0.34021317 </v>
   <v>      -0.50000000      -0.38416596      -0.50000000 </v>
   <v>      -0.44208298      -0.44208298      -0.41809297 </v>
   <v>      -0.50000000      -0.50000000      -0.33478913 </v>
   <v>       0.38317828      -0.38317828      -0.50000000 </v>
   <v>      -0.32826712      -0.44576022       0.41691983 </v>
   <v>      -0.27609443       0.49999998      -0.50000000 </v>
   <v>      -0.38804722      -0.38804722       0.34167483 </v>
   <v>      -0.38250685      -0.49999995      -0.34021320 </v>
   <v>       0.44576027      -0.32826707       0.41691983 </v>
   <v>      -0.38317828      -0.38317828      -0.50000000 </v>
   <v>      -0.32826712      -0.44576022      -0.41691977 </v>
   <v>      -0.44576027      -0.32826707       0.41691983 </v>
   <v>       0.38804722      -0.38804722      -0.34167487 </v>
   <v>      -0.50000000      -0.38250681      -0.34021320 </v>
   <v>       0.44576027      -0.32826707      -0.41691977 </v>
   <v>      -0.44576027      -0.32826707      -0.41691977 </v>
   <v>      -0.50000000      -0.27609445       0.50000000 </v>
   <v>      -0.38804722      -0.38804722      -0.34167487 </v>
  </varray>
 </structure>
 <varray name="primitive_index" >
  <v type="int" >        1 </v>
  <v type="int" >       56 </v>
  <v type="int" >        3 </v>
  <v type="int" >        5 </v>
  <v type="int" >        7 </v>
  <v type="int" >       15 </v>
  <v type="int" >       29 </v>
  <v type="int" >       28 </v>
  <v type="int" >       34 </v>
  <v type="int" >       57 </v>
  <v type="int" >       21 </v>
  <v type="int" >       19 </v>
  <v type="int" >       22 </v>
  <v type="int" >       11 </v>
  <v type="int" >       36 </v>
  <v type="int" >       38 </v>
  <v type="int" >       52 </v>
  <v type="int" >       24 </v>
  <v type="int" >       32 </v>
  <v type="int" >       44 </v>
  <v type="int" >       48 </v>
  <v type="int" >       42 </v>
  <v type="int" >       43 </v>
  <v type="int" >       40 </v>
  <v type="int" >        6 </v>
  <v type="int" >        4 </v>
  <v type="int" >       30 </v>
  <v type="int" >       26 </v>
  <v type="int" >        8 </v>
  <v type="int" >       16 </v>
  <v type="int" >       49 </v>
  <v type="int" >       47 </v>
  <v type="int" >       53 </v>
  <v type="int" >       12 </v>
  <v type="int" >       13 </v>
  <v type="int" >       33 </v>
  <v type="int" >       25 </v>
  <v type="int" >       45 </v>
  <v type="int" >       50 </v>
  <v type="int" >       55 </v>
  <v type="int" >       54 </v>
  <v type="int" >       39 </v>
  <v type="int" >       37 </v>
  <v type="int" >        2 </v>
  <v type="int" >        9 </v>
  <v type="int" >       17 </v>
  <v type="int" >       31 </v>
  <v type="int" >       27 </v>
  <v type="int" >       35 </v>
  <v type="int" >       20 </v>
  <v type="int" >       23 </v>
  <v type="int" >       14 </v>
  <v type="int" >       51 </v>
  <v type="int" >       46 </v>
  <v type="int" >       41 </v>
  <v type="int" >       10 </v>
  <v type="int" >       18 </v>
 </varray>
 <kpoints>
  <generation param="Monkhorst-Pack">
   <v type="int" name="divisions">       1        1        1 </v>
   <v name="usershift">      0.00000000       0.00000000       0.00000000 </v>
   <v name="genvec1">      1.00000000       0.00000000       0.00000000 </v>
   <v name="genvec2">      0.00000000       1.00000000       0.00000000 </v>
   <v name="genvec3">      0.00000000       0.00000000       1.00000000 </v>
   <v name="shift">      0.00000000       0.00000000       0.00000000 </v>
  </generation>
  <varray name="kpointlist" >
   <v>       0.00000000       0.00000000       0.00000000 </v>
  </varray>
  <varray name="weights" >
   <v>       1.00000000 </v>
  </varray>
 </kpoints>
 <parameters>
  <separator name="general" >
   <i type="string" name="SYSTEM">6_Pd100_top_free_z(O)</i>
   <i type="logical" name="LCOMPAT"> F  </i>
  </separator>
  <separator name="electronic" >
   <i type="string" name="PREC">normal</i>
   <i name="ENMAX">    400.00000000</i>
   <i name="ENAUG">    644.87300000</i>
   <i name="EDIFF">      0.00010000</i>
   <i type="int" name="IALGO">    68</i>
   <i type="int" name="IWAVPR">    10</i>
   <i type="int" name="NBANDS">   336</i>
   <i name="NELECT">    560.00000000</i>
   <i type="int" name="TURBO">     0</i>
   <i type="int" name="IRESTART">     0</i>
   <i type="int" name="NREBOOT">     0</i>
   <i type="int" name="NMIN">     0</i>
   <i name="EREF">      0.00000000</i>
   <separator name="electronic smearing" >
    <i type="int" name="ISMEAR">     2</i>
    <i name="SIGMA">      0.20000000</i>
    <i name="KSPACING">      0.50000000</i>
    <i type="logical" name="KGAMMA"> T  </i>
   </separator>
   <separator name="electronic projectors" >
    <i type="logical" name="LREAL"> T  </i>
    <v name="ROPT">     -0.00050000     -0.00050000     -0.00050000</v>
    <i type="int" name="LMAXPAW">  -100</i>
    <i type="int" name="LMAXMIX">     2</i>
    <i type="logical" name="NLSPLINE"> F  </i>
   </separator>
   <separator name="electronic startup" >
    <i type="int" name="ISTART">     0</i>
    <i type="int" name="ICHARG">     2</i>
    <i type="int" name="INIWAV">     1</i>
   </separator>
   <separator name="electronic spin" >
    <i type="int" name="ISPIN">     1</i>
    <i type="logical" name="LNONCOLLINEAR"> F  </i>
    <v name="MAGMOM">      1.00000000      1.00000000      1.00000000      1.00000000      1.00000000      1.00000000      1.00000000      1.00000000      1.00000000      1.00000000      1.00000000      1.00000000      1.00000000      1.00000000      1.00000000      1.00000000      1.00000000      1.00000000      1.00000000      1.00000000
      1.00000000      1.00000000      1.00000000      1.00000000      1.00000000      1.00000000      1.00000000      1.00000000      1.00000000      1.00000000      1.00000000      1.00000000      1.00000000      1.00000000      1.00000000      1.00000000      1.00000000      1.00000000      1.00000000      1.00000000
      1.00000000      1.00000000      1.00000000      1.00000000      1.00000000      1.00000000      1.00000000      1.00000000      1.00000000      1.00000000      1.00000000      1.00000000      1.00000000      1.00000000      1.00000000      1.00000000      1.00000000</v>
    <i name="NUPDOWN">     -1.00000000</i>
    <i type="logical" name="LSORBIT"> F  </i>
    <v name="SAXIS">      0.00000000      0.00000000      1.00000000</v>
    <i type="logical" name="LSPIRAL"> F  </i>
    <v name="QSPIRAL">      0.00000000      0.00000000      0.00000000</v>
    <i type="logical" name="LZEROZ"> F  </i>
   </separator>
   <separator name="electronic exchange-correlation" >
    <i type="logical" name="LASPH"> F  </i>
    <i type="logical" name="LMETAGGA"> F  </i>
   </separator>
   <separator name="electronic convergence" >
    <i type="int" name="NELM">   100</i>
    <i type="int" name="NELMDL">    -5</i>
    <i type="int" name="NELMIN">     6</i>
    <i name="ENINI">    400.00000000</i>
    <separator name="electronic convergence detail" >
     <i type="logical" name="LDIAG"> T  </i>
     <i type="logical" name="LSUBROT"> F  </i>
     <i name="WEIMIN">      0.00000000</i>
     <i name="EBREAK">      0.00000007</i>
     <i name="DEPER">      0.30000000</i>
     <i type="int" name="NRMM">     4</i>
     <i name="TIME">      0.40000000</i>
    </separator>
   </separator>
   <separator name="electronic mixer" >
    <i name="AMIX">      0.40000000</i>
    <i name="BMIX">      1.00000000</i>
    <i name="AMIN">      0.10000000</i>
    <i name="AMIX_MAG">      1.60000000</i>
    <i name="BMIX_MAG">      1.00000000</i>
    <separator name="electronic mixer details" >
     <i type="int" name="IMIX">     4</i>
     <i type="logical" name="MIXFIRST"> F  </i>
     <i type="int" name="MAXMIX">   -45</i>
     <i name="WC">    100.00000000</i>
     <i type="int" name="INIMIX">     1</i>
     <i type="int" name="MIXPRE">     1</i>
     <i type="int" name="MREMOVE">     5</i>
    </separator>
   </separator>
   <separator name="electronic dipolcorrection" >
    <i type="logical" name="LDIPOL"> F  </i>
    <i type="logical" name="LMONO"> F  </i>
    <i type="int" name="IDIPOL">     0</i>
    <i name="EPSILON">      1.00000000</i>
    <v name="DIPOL">   -100.00000000   -100.00000000   -100.00000000</v>
    <i name="EFIELD">      0.00000000</i>
   </separator>
  </separator>
  <separator name="grids" >
   <i type="int" name="NGX">   150</i>
   <i type="int" name="NGY">   150</i>
   <i type="int" name="NGZ">   150</i>
   <i type="int" name="NGXF">   300</i>
   <i type="int" name="NGYF">   300</i>
   <i type="int" name="NGZF">   300</i>
   <i type="logical" name="ADDGRID"> F  </i>
  </separator>
  <separator name="ionic" >
   <i type="int" name="NSW">     0</i>
   <i type="int" name="IBRION">    -1</i>
   <i type="int" name="MDALGO">     0</i>
   <i type="int" name="ISIF">     2</i>
   <i name="PSTRESS">      0.00000000</i>
   <i name="EDIFFG">     -0.05000000</i>
   <i type="int" name="NFREE">     1</i>
   <i name="POTIM">      0.50000000</i>
   <i name="SMASS">     -3.00000000</i>
   <i name="SCALEE">      1.00000000</i>
  </separator>
  <separator name="ionic md" >
   <i name="TEBEG">      0.00010000</i>
   <i name="TEEND">      0.00010000</i>
   <i type="int" name="NBLOCK">     1</i>
   <i type="int" name="KBLOCK">     1</i>
   <i type="int" name="NPACO">   256</i>
   <i name="APACO">     16.00000000</i>
  </separator>
  <separator name="symmetry" >
   <i type="int" name="ISYM">     2</i>
   <i name="SYMPREC">      0.00001000</i>
  </separator>
  <separator name="dos" >
   <i type="int" name="LORBIT">     0</i>
   <v name="RWIGS">     -1.00000000     -1.00000000     -1.00000000</v>
   <i type="int" name="NEDOS">   301</i>
   <i name="EMIN">     10.00000000</i>
   <i name="EMAX">    -10.00000000</i>
   <i name="EFERMI">      0.00000000</i>
  </separator>
  <separator name="writing" >
   <i type="int" name="NWRITE">     2</i>
   <i type="logical" name="LWAVE"> F  </i>
   <i type="logical" name="LDOWNSAMPLE"> F  </i>
   <i type="logical" name="LCHARG"> F  </i>
   <i type="logical" name="LPARD"> F  </i>
   <i type="logical" name="LVTOT"> F  </i>
   <i type="logical" name="LVHAR"> F  </i>
   <i type="logical" name="LELF"> F  </i>
   <i type="logical" name="LOPTICS"> F  </i>
   <v name="STM">      0.00000000      0.00000000      0.00000000      0.00000000      0.00000000      0.00000000      0.00000000</v>
  </separator>
  <separator name="performance" >
   <i type="int" name="NPAR">     1</i>
   <i type="int" name="NSIM">     4</i>
   <i type="int" name="NBLK">    -1</i>
   <i type="logical" name="LPLANE"> T  </i>
   <i type="logical" name="LSCALAPACK"> T  </i>
   <i type="logical" name="LSCAAWARE"> F  </i>
   <i type="logical" name="LSCALU"> F  </i>
   <i type="logical" name="LASYNC"> F  </i>
   <i type="logical" name="LORBITALREAL"> F  </i>
  </separator>
  <separator name="miscellaneous" >
   <i type="int" name="IDIOT">     3</i>
   <i type="int" name="ISPECIAL">     0</i>
   <i type="logical" name="LMUSIC"> F  </i>
   <v name="POMASS">    106.42000000     12.01100000     16.00000000</v>
   <v name="DARWINR">      0.00000000      0.00000000      0.00000000</v>
   <v name="DARWINV">      1.00000000      1.00000000      1.00000000</v>
   <i type="logical" name="LCORR"> T  </i>
  </separator>
  <i type="logical" name="GGA_COMPAT"> T  </i>
  <i type="logical" name="LBERRY"> F  </i>
  <i type="int" name="ICORELEVEL">     0</i>
  <i type="logical" name="LDAU"> F  </i>
  <i type="int" name="I_CONSTRAINED_M">     0</i>
  <separator name="electronic exchange-correlation" >
   <i type="string" name="GGA">RP</i>
   <i type="int" name="VOSKOWN">     0</i>
   <i type="logical" name="LHFCALC"> F  </i>
   <i type="string" name="PRECFOCK"></i>
   <i type="logical" name="LSYMGRAD"> F  </i>
   <i type="logical" name="LHFONE"> F  </i>
   <i type="logical" name="LRHFCALC"> F  </i>
   <i type="logical" name="LTHOMAS"> F  </i>
   <i type="logical" name="LMODELHF"> F  </i>
   <i name="ENCUT4O">     -1.00000000</i>
   <i type="int" name="EXXOEP">     0</i>
   <i type="int" name="FOURORBIT">     0</i>
   <i name="AEXX">      0.00000000</i>
   <i name="HFALPHA">      0.00000000</i>
   <i name="MCALPHA">      0.00000000</i>
   <i name="ALDAX">      1.00000000</i>
   <i name="AGGAX">      1.00000000</i>
   <i name="ALDAC">      1.00000000</i>
   <i name="AGGAC">      1.00000000</i>
   <i type="int" name="NKREDX">     1</i>
   <i type="int" name="NKREDY">     1</i>
   <i type="int" name="NKREDZ">     1</i>
   <i type="logical" name="SHIFTRED"> F  </i>
   <i type="logical" name="ODDONLY"> F  </i>
   <i type="logical" name="EVENONLY"> F  </i>
   <i type="int" name="LMAXFOCK">     0</i>
   <i type="int" name="NMAXFOCKAE">     0</i>
   <i type="logical" name="LFOCKAEDFT"> F  </i>
   <i name="HFSCREEN">      0.00000000</i>
   <i name="HFSCREENC">      0.00000000</i>
   <i type="int" name="NBANDSGWLOW">     0</i>
  </separator>
  <separator name="vdW DFT" >
   <i type="logical" name="LUSE_VDW"> F  </i>
   <i name="Zab_VDW">     -0.84910000</i>
   <i name="PARAM1">      0.12340000</i>
   <i name="PARAM2">      1.00000000</i>
   <i name="PARAM3">      0.00000000</i>
  </separator>
  <separator name="model GW" >
   <i type="int" name="MODEL_GW">     0</i>
   <i name="MODEL_EPS0">    284.21052632</i>
   <i name="MODEL_ALPHA">      1.00000000</i>
  </separator>
  <separator name="linear response parameters" >
   <i type="logical" name="LEPSILON"> F  </i>
   <i type="logical" name="LRPA"> F  </i>
   <i type="logical" name="LNABLA"> F  </i>
   <i type="logical" name="LVEL"> F  </i>
   <i type="int" name="KINTER">     0</i>
   <i name="CSHIFT">      0.10000000</i>
   <i name="OMEGAMAX">     -1.00000000</i>
   <i name="DEG_THRESHOLD">      0.00200000</i>
   <i name="RTIME">     -0.10000000</i>
   <i name="WPLASMAI">      0.00000000</i>
   <v name="DFIELD">      0.00000000      0.00000000      0.00000000</v>
   <v name="WPLASMA">      0.00000000      0.00000000      0.00000000      0.00000000      0.00000000      0.00000000      0.00000000      0.00000000      0.00000000</v>
  </separator>
  <separator name="orbital magnetization" >
   <i type="logical" name="NUCIND"> F  </i>
   <v name="MAGPOS">      0.00000000      0.00000000      0.00000000</v>
   <i type="logical" name="LNICSALL"> T  </i>
   <i type="logical" name="ORBITALMAG"> F  </i>
   <i type="logical" name="LMAGBLOCH"> F  </i>
   <i type="logical" name="LCHIMAG"> F  </i>
   <i type="logical" name="LGAUGE"> T  </i>
   <i type="int" name="MAGATOM">     0</i>
   <v name="MAGDIPOL">      0.00000000      0.00000000      0.00000000</v>
   <v name="AVECCONST">      0.00000000      0.00000000      0.00000000</v>
  </separator>
  <separator name="response functions" >
   <i type="logical" name="LADDER"> F  </i>
   <i type="logical" name="LRPAFORCE"> F  </i>
   <i type="logical" name="LFXC"> F  </i>
   <i type="logical" name="LHARTREE"> T  </i>
   <i type="int" name="IBSE">     0</i>
   <v type="int" name="KPOINT">    -1     0     0     0</v>
   <i type="logical" name="LTCTE"> F  </i>
   <i type="logical" name="LTETE"> F  </i>
   <i type="logical" name="LTRIPLET"> F  </i>
   <i type="logical" name="LFXCEPS"> F  </i>
   <i type="logical" name="LFXHEG"> F  </i>
   <i type="int" name="NATURALO">     2</i>
   <i type="logical" name="L2ORDER"> F  </i>
   <i type="logical" name="LMP2LT"> F  </i>
   <i type="logical" name="LUSEW"> F  </i>
   <i name="ENCUTGW">     -2.00000000</i>
   <i name="ENCUTGWSOFT">     -2.00000000</i>
   <i name="ENCUTLF">     -1.00000000</i>
   <i type="int" name="LMAXMP2">    -1</i>
   <i name="SCISSOR">      0.00000000</i>
   <i type="int" name="NOMEGA">     0</i>
   <i type="int" name="NOMEGAR">     0</i>
   <i type="int" name="NBANDSGW">    -1</i>
   <i type="int" name="NBANDSO">    -1</i>
   <i type="int" name="NBANDSV">    -1</i>
   <i type="int" name="NELM">   100</i>
   <i type="int" name="NELMHF">     1</i>
   <i type="int" name="DIM">     3</i>
   <i type="int" name="ANTIRES">     0</i>
   <i name="OMEGAMAX">    -30.00000000</i>
   <i name="OMEGAMIN">    -30.00000000</i>
   <i name="OMEGATL">   -200.00000000</i>
   <i type="int" name="OMEGAGRID">   140</i>
   <i name="CSHIFT">     -0.10000000</i>
   <i type="logical" name="SELFENERGY"> F  </i>
   <i type="logical" name="LSPECTRAL"> F  </i>
   <i type="logical" name="LSPECTRALGW"> F  </i>
   <i type="logical" name="LSINGLES"> F  </i>
   <i type="logical" name="LFERMIGW"> F  </i>
   <i type="logical" name="ODDONLYGW"> F  </i>
   <i type="logical" name="EVENONLYGW"> F  </i>
   <i type="int" name="NKREDLFX">     1</i>
   <i type="int" name="NKREDLFY">     1</i>
   <i type="int" name="NKREDLFZ">     1</i>
   <i type="int" name="MAXMEM"> 10000</i>
   <i type="int" name="TELESCOPE">     0</i>
   <i type="int" name="TAUPAR">     1</i>
   <i type="int" name="OMEGAPAR">    -1</i>
   <i name="LAMBDA">      1.00000000</i>
  </separator>
  <separator name="External order field" >
   <i name="OFIELD_KAPPA">      0.00000000</i>
   <v name="OFIELD_K">      0.00000000      0.00000000      0.00000000</v>
   <i name="OFIELD_Q6_NEAR">      0.00000000</i>
   <i name="OFIELD_Q6_FAR">      0.00000000</i>
   <i name="OFIELD_A">      0.00000000</i>
  </separator>
 </parameters>
 <atominfo>
  <atoms>      57 </atoms>
  <types>       3 </types>
  <array name="atoms" >
   <dimension dim="1">ion</dimension>
   <field type="string">element</field>
   <field type="int">atomtype</field>
   <set>
    <rc><c>Pd</c><c>   1</c></rc>
    <rc><c>Pd</c><c>   1</c></rc>
    <rc><c>Pd</c><c>   1</c></rc>
    <rc><c>Pd</c><c>   1</c></rc>
    <rc><c>Pd</c><c>   1</c></rc>
    <rc><c>Pd</c><c>   1</c></rc>
    <rc><c>Pd</c><c>   1</c></rc>
    <rc><c>Pd</c><c>   1</c></rc>
    <rc><c>Pd</c><c>   1</c></rc>
    <rc><c>Pd</c><c>   1</c></rc>
    <rc><c>Pd</c><c>   1</c></rc>
    <rc><c>Pd</c><c>   1</c></rc>
    <rc><c>Pd</c><c>   1</c></rc>
    <rc><c>Pd</c><c>   1</c></rc>
    <rc><c>Pd</c><c>   1</c></rc>
    <rc><c>Pd</c><c>   1</c></rc>
    <rc><c>Pd</c><c>   1</c></rc>
    <rc><c>Pd</c><c>   1</c></rc>
    <rc><c>Pd</c><c>   1</c></rc>
    <rc><c>Pd</c><c>   1</c></rc>
    <rc><c>Pd</c><c>   1</c></rc>
    <rc><c>Pd</c><c>   1</c></rc>
    <rc><c>Pd</c><c>   1</c></rc>
    <rc><c>Pd</c><c>   1</c></rc>
    <rc><c>Pd</c><c>   1</c></rc>
    <rc><c>Pd</c><c>   1</c></rc>
    <rc><c>Pd</c><c>   1</c></rc>
    <rc><c>Pd</c><c>   1</c></rc>
    <rc><c>Pd</c><c>   1</c></rc>
    <rc><c>Pd</c><c>   1</c></rc>
    <rc><c>Pd</c><c>   1</c></rc>
    <rc><c>Pd</c><c>   1</c></rc>
    <rc><c>Pd</c><c>   1</c></rc>
    <rc><c>Pd</c><c>   1</c></rc>
    <rc><c>Pd</c><c>   1</c></rc>
    <rc><c>Pd</c><c>   1</c></rc>
    <rc><c>Pd</c><c>   1</c></rc>
    <rc><c>Pd</c><c>   1</c></rc>
    <rc><c>Pd</c><c>   1</c></rc>
    <rc><c>Pd</c><c>   1</c></rc>
    <rc><c>Pd</c><c>   1</c></rc>
    <rc><c>Pd</c><c>   1</c></rc>
    <rc><c>Pd</c><c>   1</c></rc>
    <rc><c>Pd</c><c>   1</c></rc>
    <rc><c>Pd</c><c>   1</c></rc>
    <rc><c>Pd</c><c>   1</c></rc>
    <rc><c>Pd</c><c>   1</c></rc>
    <rc><c>Pd</c><c>   1</c></rc>
    <rc><c>Pd</c><c>   1</c></rc>
    <rc><c>Pd</c><c>   1</c></rc>
    <rc><c>Pd</c><c>   1</c></rc>
    <rc><c>Pd</c><c>   1</c></rc>
    <rc><c>Pd</c><c>   1</c></rc>
    <rc><c>Pd</c><c>   1</c></rc>
    <rc><c>Pd</c><c>   1</c></rc>
    <rc><c>C </c><c>   2</c></rc>
    <rc><c>O </c><c>   3</c></rc>
   </set>
  </array>
  <array name="atomtypes" >
   <dimension dim="1">type</dimension>
   <field type="int">atomspertype</field>
   <field type="string">element</field>
   <field>mass</field>
   <field>valence</field>
   <field type="string">pseudopotential</field>
   <set>
    <rc><c>  55</c><c>Pd</c><c>    106.42000000</c><c>     10.00000000</c><c>  PAW_PBE Pd 04Jan2005                  </c></rc>
    <rc><c>   1</c><c>C </c><c>     12.01100000</c><c>      4.00000000</c><c>  PAW_PBE C 08Apr2002                   </c></rc>
    <rc><c>   1</c><c>O </c><c>     16.00000000</c><c>      6.00000000</c><c>  PAW_PBE O 08Apr2002                   </c></rc>
   </set>
  </array>
 </atominfo>
 <structure name="initialpos" >
  <crystal>
   <varray name="basis" >
    <v>      30.00000000       0.00000000       0.00000000 </v>
    <v>       0.00000000      30.00000000       0.00000000 </v>
    <v>       0.00000000       0.00000000      30.00000000 </v>
   </varray>
   <i name="volume">  27000.00000000 </i>
   <varray name="rec_basis" >
    <v>       0.03333333       0.00000000       0.00000000 </v>
    <v>       0.00000000       0.03333333       0.00000000 </v>
    <v>       0.00000000       0.00000000       0.03333333 </v>
   </varray>
  </crystal>
  <varray name="positions" >
   <v>       0.44576020       0.32826710       0.41691983 </v>
   <v>       0.67173288       0.55423978       0.41691983 </v>
   <v>       0.55423980       0.32826710       0.41691983 </v>
   <v>       0.32826712       0.55423978       0.41691983 </v>
   <v>       0.50000000       0.38250690       0.34021317 </v>
   <v>       0.50000000       0.38250690       0.65978680 </v>
   <v>       0.50000000       0.27609440       0.50000000 </v>
   <v>       0.27609443       0.49999998       0.50000000 </v>
   <v>       0.72390557       0.49999998       0.50000000 </v>
   <v>       0.50000000       0.72390555       0.50000000 </v>
   <v>       0.61195280       0.38804720       0.34167483 </v>
   <v>       0.61195280       0.38804720       0.65832513 </v>
   <v>       0.38804722       0.61195278       0.34167483 </v>
   <v>       0.38804722       0.61195278       0.65832513 </v>
   <v>       0.38804720       0.38804720       0.34167483 </v>
   <v>       0.38804720       0.38804720       0.65832513 </v>
   <v>       0.61195278       0.61195278       0.34167483 </v>
   <v>       0.61195278       0.61195278       0.65832513 </v>
   <v>       0.44576020       0.32826710       0.58308023 </v>
   <v>       0.67173288       0.55423978       0.58308023 </v>
   <v>       0.55791699       0.44208301       0.41809300 </v>
   <v>       0.32826705       0.44576024       0.41691983 </v>
   <v>       0.55423973       0.67173293       0.41691983 </v>
   <v>       0.55423980       0.32826710       0.58308023 </v>
   <v>       0.32826712       0.55423978       0.58308023 </v>
   <v>       0.67173295       0.44576024       0.41691983 </v>
   <v>       0.44576027       0.67173293       0.41691983 </v>
   <v>       0.44208301       0.44208301       0.41809300 </v>
   <v>       0.50000000       0.38416601       0.50000000 </v>
   <v>       0.61749315       0.50000005       0.34021317 </v>
   <v>       0.61749315       0.50000005       0.65978680 </v>
   <v>       0.38250685       0.50000005       0.34021317 </v>
   <v>       0.38250685       0.50000005       0.65978680 </v>
   <v>       0.38317830       0.38317830       0.50000000 </v>
   <v>       0.61682172       0.61682172       0.50000000 </v>
   <v>       0.61682170       0.38317830       0.50000000 </v>
   <v>       0.38317828       0.61682172       0.50000000 </v>
   <v>       0.50000000       0.50000000       0.33478917 </v>
   <v>       0.50000000       0.50000000       0.66521087 </v>
   <v>       0.32826705       0.44576024       0.58308023 </v>
   <v>       0.55423973       0.67173293       0.58308023 </v>
   <v>       0.55791699       0.44208301       0.58190703 </v>
   <v>       0.44208298       0.55791702       0.41809300 </v>
   <v>       0.44208301       0.44208301       0.58190703 </v>
   <v>       0.67173295       0.44576024       0.58308023 </v>
   <v>       0.44576027       0.67173293       0.58308023 </v>
   <v>       0.55791702       0.55791702       0.41809300 </v>
   <v>       0.38416599       0.50000002       0.50000000 </v>
   <v>       0.61583401       0.50000002       0.50000000 </v>
   <v>       0.50000000       0.61749319       0.34021317 </v>
   <v>       0.50000000       0.61749319       0.65978680 </v>
   <v>       0.50000000       0.50000000       0.50000000 </v>
   <v>       0.44208298       0.55791702       0.58190703 </v>
   <v>       0.55791702       0.55791702       0.58190703 </v>
   <v>       0.50000000       0.61583404       0.50000000 </v>
   <v>       0.53795917       0.27728700       0.40226050 </v>
   <v>       0.54375727       0.24326850       0.38733120 </v>
  </varray>
  <varray name="selective"  type="logical" >
   <v type="logical" >  F  F  F </v>
   <v type="logical" >  F  F  F </v>
   <v type="logical" >  F  F  F </v>
   <v type="logical" >  F  F  F </v>
   <v type="logical" >  F  F  F </v>
   <v type="logical" >  F  F  F </v>
   <v type="logical" >  F  F  F </v>
   <v type="logical" >  F  F  F </v>
   <v type="logical" >  F  F  F </v>
   <v type="logical" >  F  F  F </v>
   <v type="logical" >  F  F  F </v>
   <v type="logical" >  F  F  F </v>
   <v type="logical" >  F  F  F </v>
   <v type="logical" >  F  F  F </v>
   <v type="logical" >  F  F  F </v>
   <v type="logical" >  F  F  F </v>
   <v type="logical" >  F  F  F </v>
   <v type="logical" >  F  F  F </v>
   <v type="logical" >  F  F  F </v>
   <v type="logical" >  F  F  F </v>
   <v type="logical" >  F  F  F </v>
   <v type="logical" >  F  F  F </v>
   <v type="logical" >  F  F  F </v>
   <v type="logical" >  F  F  F </v>
   <v type="logical" >  F  F  F </v>
   <v type="logical" >  F  F  F </v>
   <v type="logical" >  F  F  F </v>
   <v type="logical" >  F  F  F </v>
   <v type="logical" >  F  F  F </v>
   <v type="logical" >  F  F  F </v>
   <v type="logical" >  F  F  F </v>
   <v type="logical" >  F  F  F </v>
   <v type="logical" >  F  F  F </v>
   <v type="logical" >  F  F  F </v>
   <v type="logical" >  F  F  F </v>
   <v type="logical" >  F  F  F </v>
   <v type="logical" >  F  F  F </v>
   <v type="logical" >  F  F  F </v>
   <v type="logical" >  F  F  F </v>
   <v type="logical" >  F  F  F </v>
   <v type="logical" >  F  F  F </v>
   <v type="logical" >  F  F  F </v>
   <v type="logical" >  F  F  F </v>
   <v type="logical" >  F  F  F </v>
   <v type="logical" >  F  F  F </v>
   <v type="logical" >  F  F  F </v>
   <v type="logical" >  F  F  F </v>
   <v type="logical" >  F  F  F </v>
   <v type="logical" >  F  F  F </v>
   <v type="logical" >  F  F  F </v>
   <v type="logical" >  F  F  F </v>
   <v type="logical" >  F  F  F </v>
   <v type="logical" >  F  F  F </v>
   <v type="logical" >  F  F  F </v>
   <v type="logical" >  F  F  F </v>
   <v type="logical" >  F  F  F </v>
   <v type="logical" >  F  F  F </v>
  </varray>
  <nose>
   <v>      -3.00000000       0.00000000       0.00010000       0.00010000 </v>
  </nose>
 </structure>
 <calculation>
  <scstep>
   <time name="dav">  351.06  351.12</time>
   <time name="total">  365.11  365.17</time>
   <energy>
    <i name="alphaZ">     75.25431677 </i>
    <i name="ewald"> 138420.12278641 </i>
    <i name="hartreedc">-181770.87471017 </i>
    <i name="XCdc">  -1702.35976888 </i>
    <i name="pawpsdc">  44873.02882129 </i>
    <i name="pawaedc"> -41398.84523641 </i>
    <i name="eentropy">      0.00382072 </i>
    <i name="bandstr">    817.08567736 </i>
    <i name="atom">  45086.50549395 </i>
    <i name="e_fr_energy">   4399.92120103 </i>
    <i name="e_wo_entrp">   4399.91738031 </i>
    <i name="e_0_energy">   4399.92024585 </i>
   </energy>
  </scstep>
  <scstep>
   <time name="dav">  562.91  562.90</time>
   <time name="total">  562.91  562.90</time>
   <energy>
    <i name="e_fr_energy">   2028.29338724 </i>
    <i name="e_wo_entrp">   2028.30463335 </i>
    <i name="e_0_energy">   2028.29619876 </i>
   </energy>
  </scstep>
  <scstep>
   <time name="dav">  476.26  476.25</time>
   <time name="total">  476.26  476.25</time>
   <energy>
    <i name="e_fr_energy">    239.83543306 </i>
    <i name="e_wo_entrp">    239.82956726 </i>
    <i name="e_0_energy">    239.83396661 </i>
   </energy>
  </scstep>
  <scstep>
   <time name="dav">  411.12  411.12</time>
   <time name="total">  411.12  411.12</time>
   <energy>
    <i name="e_fr_energy">   -132.85043891 </i>
    <i name="e_wo_entrp">   -132.85040857 </i>
    <i name="e_0_energy">   -132.85043132 </i>
   </energy>
  </scstep>
  <scstep>
   <time name="dav">  507.55  507.55</time>
   <time name="total">  533.24  533.24</time>
   <energy>
    <i name="e_fr_energy">   -180.24263952 </i>
    <i name="e_wo_entrp">   -180.71299977 </i>
    <i name="e_0_energy">   -180.36022958 </i>
   </energy>
  </scstep>
  <scstep>
   <time name="diag">   66.54   66.54</time>
   <time name="diis">  193.50  193.53</time>
   <time name="orth">   13.41   13.41</time>
   <time name="total">  312.90  312.92</time>
   <energy>
    <i name="e_fr_energy">   -179.47537941 </i>
    <i name="e_wo_entrp">   -179.20822487 </i>
    <i name="e_0_energy">   -179.40859077 </i>
   </energy>
  </scstep>
  <scstep>
   <time name="diag">   66.92   66.92</time>
   <time name="diis">  222.33  222.33</time>
   <time name="orth">   13.84   13.84</time>
   <time name="total">  342.25  342.26</time>
   <energy>
    <i name="e_fr_energy">   -182.67744948 </i>
    <i name="e_wo_entrp">   -182.55211335 </i>
    <i name="e_0_energy">   -182.64611545 </i>
   </energy>
  </scstep>
  <scstep>
   <time name="diag">   66.61   66.61</time>
   <time name="diis">  198.44  198.44</time>
   <time name="orth">   13.77   13.77</time>
   <time name="total">  318.08  318.08</time>
   <energy>
    <i name="e_fr_energy">   -185.97291300 </i>
    <i name="e_wo_entrp">   -185.94733594 </i>
    <i name="e_0_energy">   -185.96651874 </i>
   </energy>
  </scstep>
  <scstep>
   <time name="diag">   66.97   66.97</time>
   <time name="diis">  201.36  201.36</time>
   <time name="orth">   13.51   13.51</time>
   <time name="total">  321.61  321.61</time>
   <energy>
    <i name="e_fr_energy">   -184.05223679 </i>
    <i name="e_wo_entrp">   -183.93418709 </i>
    <i name="e_0_energy">   -184.02272436 </i>
   </energy>
  </scstep>
  <scstep>
   <time name="diag">   67.59   67.59</time>
   <time name="diis">  193.66  193.66</time>
   <time name="orth">   13.34   13.33</time>
   <time name="total">  314.22  314.22</time>
   <energy>
    <i name="e_fr_energy">   -181.49098108 </i>
    <i name="e_wo_entrp">   -181.28456401 </i>
    <i name="e_0_energy">   -181.43937682 </i>
   </energy>
  </scstep>
  <scstep>
   <time name="diag">   66.68   66.67</time>
   <time name="diis">  194.05  194.05</time>
   <time name="orth">   13.28   13.28</time>
   <time name="total">  313.68  313.68</time>
   <energy>
    <i name="e_fr_energy">   -179.51134823 </i>
    <i name="e_wo_entrp">   -179.49752009 </i>
    <i name="e_0_energy">   -179.50789119 </i>
   </energy>
  </scstep>
  <scstep>
   <time name="diag">   66.86   66.86</time>
   <time name="diis">  193.89  193.89</time>
   <time name="orth">   13.31   13.31</time>
   <time name="total">  313.43  313.43</time>
   <energy>
    <i name="e_fr_energy">   -178.07066856 </i>
    <i name="e_wo_entrp">   -177.99504923 </i>
    <i name="e_0_energy">   -178.05176373 </i>
   </energy>
  </scstep>
  <scstep>
   <time name="diag">   66.92   66.92</time>
   <time name="diis">  190.80  190.79</time>
   <time name="orth">   13.33   13.33</time>
   <time name="total">  310.47  310.47</time>
   <energy>
    <i name="e_fr_energy">   -177.93499395 </i>
    <i name="e_wo_entrp">   -177.85824655 </i>
    <i name="e_0_energy">   -177.91580710 </i>
   </energy>
  </scstep>
  <scstep>
   <time name="diag">   66.84   66.84</time>
   <time name="diis">  190.62  190.62</time>
   <time name="orth">   13.36   13.36</time>
   <time name="total">  310.23  310.23</time>
   <energy>
    <i name="e_fr_energy">   -177.54717945 </i>
    <i name="e_wo_entrp">   -177.54157339 </i>
    <i name="e_0_energy">   -177.54577794 </i>
   </energy>
  </scstep>
  <scstep>
   <time name="diag">   66.65   66.65</time>
   <time name="diis">  187.37  187.37</time>
   <time name="orth">   13.44   13.44</time>
   <time name="total">  306.88  306.88</time>
   <energy>
    <i name="e_fr_energy">   -177.16074010 </i>
    <i name="e_wo_entrp">   -177.30388200 </i>
    <i name="e_0_energy">   -177.19652557 </i>
   </energy>
  </scstep>
  <scstep>
   <time name="diag">   66.74   66.74</time>
   <time name="diis">  191.63  191.63</time>
   <time name="orth">   13.42   13.42</time>
   <time name="total">  311.09  311.09</time>
   <energy>
    <i name="e_fr_energy">   -176.28053060 </i>
    <i name="e_wo_entrp">   -176.26415320 </i>
    <i name="e_0_energy">   -176.27643625 </i>
   </energy>
  </scstep>
  <scstep>
   <time name="diag">   66.81   66.80</time>
   <time name="diis">  188.90  188.90</time>
   <time name="orth">   13.40   13.40</time>
   <time name="total">  308.53  308.53</time>
   <energy>
    <i name="e_fr_energy">   -175.62784441 </i>
    <i name="e_wo_entrp">   -175.55958008 </i>
    <i name="e_0_energy">   -175.61077833 </i>
   </energy>
  </scstep>
  <scstep>
   <time name="diag">   66.88   66.88</time>
   <time name="diis">  187.90  187.90</time>
   <time name="orth">   13.41   13.41</time>
   <time name="total">  307.74  307.74</time>
   <energy>
    <i name="e_fr_energy">   -175.34925661 </i>
    <i name="e_wo_entrp">   -175.31002717 </i>
    <i name="e_0_energy">   -175.33944925 </i>
   </energy>
  </scstep>
  <scstep>
   <time name="diag">   67.03   67.03</time>
   <time name="diis">  185.17  185.17</time>
   <time name="orth">   13.47   13.47</time>
   <time name="total">  305.23  305.23</time>
   <energy>
    <i name="e_fr_energy">   -175.14661409 </i>
    <i name="e_wo_entrp">   -175.06845205 </i>
    <i name="e_0_energy">   -175.12707358 </i>
   </energy>
  </scstep>
  <scstep>
   <time name="diag">   66.88   66.88</time>
   <time name="diis">  185.44  185.44</time>
   <time name="orth">   13.37   13.37</time>
   <time name="total">  305.27  305.27</time>
   <energy>
    <i name="e_fr_energy">   -174.96378861 </i>
    <i name="e_wo_entrp">   -174.85942082 </i>
    <i name="e_0_energy">   -174.93769666 </i>
   </energy>
  </scstep>
  <scstep>
   <time name="diag">   67.09   67.09</time>
   <time name="diis">  185.37  185.37</time>
   <time name="orth">   13.35   13.35</time>
   <time name="total">  305.48  305.48</time>
   <energy>
    <i name="e_fr_energy">   -174.85880932 </i>
    <i name="e_wo_entrp">   -174.75359250 </i>
    <i name="e_0_energy">   -174.83250511 </i>
   </energy>
  </scstep>
  <scstep>
   <time name="diag">   66.96   66.96</time>
   <time name="diis">  184.83  184.83</time>
   <time name="orth">   13.41   13.41</time>
   <time name="total">  304.92  304.91</time>
   <energy>
    <i name="e_fr_energy">   -174.91092642 </i>
    <i name="e_wo_entrp">   -174.83021652 </i>
    <i name="e_0_energy">   -174.89074895 </i>
   </energy>
  </scstep>
  <scstep>
   <time name="diag">   66.99   66.99</time>
   <time name="diis">  184.25  184.25</time>
   <time name="orth">   13.43   13.43</time>
   <time name="total">  304.48  304.47</time>
   <energy>
    <i name="e_fr_energy">   -174.89792468 </i>
    <i name="e_wo_entrp">   -174.78912829 </i>
    <i name="e_0_energy">   -174.87072559 </i>
   </energy>
  </scstep>
  <scstep>
   <time name="diag">   67.01   67.01</time>
   <time name="diis">  182.39  182.39</time>
   <time name="orth">   13.37   13.37</time>
   <time name="total">  302.66  302.65</time>
   <energy>
    <i name="e_fr_energy">   -174.79851433 </i>
    <i name="e_wo_entrp">   -174.72766256 </i>
    <i name="e_0_energy">   -174.78080139 </i>
   </energy>
  </scstep>
  <scstep>
   <time name="diag">   66.91   66.91</time>
   <time name="diis">  184.00  184.00</time>
   <time name="orth">   13.40   13.40</time>
   <time name="total">  304.31  304.31</time>
   <energy>
    <i name="e_fr_energy">   -174.78581847 </i>
    <i name="e_wo_entrp">   -174.72719952 </i>
    <i name="e_0_energy">   -174.77116373 </i>
   </energy>
  </scstep>
  <scstep>
   <time name="diag">   66.96   66.97</time>
   <time name="diis">  182.70  182.70</time>
   <time name="orth">   13.40   13.40</time>
   <time name="total">  303.09  303.10</time>
   <energy>
    <i name="e_fr_energy">   -174.73221742 </i>
    <i name="e_wo_entrp">   -174.67537231 </i>
    <i name="e_0_energy">   -174.71800614 </i>
   </energy>
  </scstep>
  <scstep>
   <time name="diag">   66.95   66.95</time>
   <time name="diis">  182.69  182.70</time>
   <time name="orth">   13.38   13.39</time>
   <time name="total">  303.15  303.16</time>
   <energy>
    <i name="e_fr_energy">   -174.67024553 </i>
    <i name="e_wo_entrp">   -174.57850210 </i>
    <i name="e_0_energy">   -174.64730968 </i>
   </energy>
  </scstep>
  <scstep>
   <time name="diag">   67.08   67.08</time>
   <time name="diis">  182.71  182.72</time>
   <time name="orth">   13.32   13.32</time>
   <time name="total">  303.43  303.44</time>
   <energy>
    <i name="e_fr_energy">   -174.64337706 </i>
    <i name="e_wo_entrp">   -174.54166012 </i>
    <i name="e_0_energy">   -174.61794782 </i>
   </energy>
  </scstep>
  <scstep>
   <time name="diag">   66.97   66.98</time>
   <time name="diis">  182.47  182.48</time>
   <time name="orth">   13.36   13.36</time>
   <time name="total">  303.24  303.25</time>
   <energy>
    <i name="e_fr_energy">   -174.58834396 </i>
    <i name="e_wo_entrp">   -174.46718884 </i>
    <i name="e_0_energy">   -174.55805518 </i>
   </energy>
  </scstep>
  <scstep>
   <time name="diag">   66.99   66.99</time>
   <time name="diis">  184.28  184.29</time>
   <time name="orth">   13.41   13.41</time>
   <time name="total">  305.28  305.28</time>
   <energy>
    <i name="e_fr_energy">   -174.58109278 </i>
    <i name="e_wo_entrp">   -174.45975170 </i>
    <i name="e_0_energy">   -174.55075751 </i>
   </energy>
  </scstep>
  <scstep>
   <time name="diag">   67.03   67.03</time>
   <time name="diis">  183.11  183.11</time>
   <time name="orth">   13.47   13.47</time>
   <time name="total">  304.23  304.23</time>
   <energy>
    <i name="e_fr_energy">   -174.57660454 </i>
    <i name="e_wo_entrp">   -174.46235936 </i>
    <i name="e_0_energy">   -174.54804325 </i>
   </energy>
  </scstep>
  <scstep>
   <time name="diag">   67.06   67.06</time>
   <time name="diis">  181.10  181.09</time>
   <time name="orth">   13.48   13.48</time>
   <time name="total">  302.46  302.46</time>
   <energy>
    <i name="e_fr_energy">   -174.56469634 </i>
    <i name="e_wo_entrp">   -174.44136017 </i>
    <i name="e_0_energy">   -174.53386230 </i>
   </energy>
  </scstep>
  <scstep>
   <time name="diag">   67.07   67.07</time>
   <time name="diis">  181.60  181.60</time>
   <time name="orth">   13.47   13.47</time>
   <time name="total">  303.11  303.11</time>
   <energy>
    <i name="e_fr_energy">   -174.56634139 </i>
    <i name="e_wo_entrp">   -174.45144594 </i>
    <i name="e_0_energy">   -174.53761753 </i>
   </energy>
  </scstep>
  <scstep>
   <time name="diag">   67.18   67.18</time>
   <time name="diis">  181.81  181.81</time>
   <time name="orth">   13.47   13.47</time>
   <time name="total">  303.53  303.53</time>
   <energy>
    <i name="e_fr_energy">   -174.56383710 </i>
    <i name="e_wo_entrp">   -174.45192818 </i>
    <i name="e_0_energy">   -174.53585987 </i>
   </energy>
  </scstep>
  <scstep>
   <time name="diag">   67.23   67.23</time>
   <time name="diis">  180.69  180.69</time>
   <time name="orth">   13.36   13.36</time>
   <time name="total">  302.45  302.45</time>
   <energy>
    <i name="e_fr_energy">   -174.56237043 </i>
    <i name="e_wo_entrp">   -174.44583998 </i>
    <i name="e_0_energy">   -174.53323782 </i>
   </energy>
  </scstep>
  <scstep>
   <time name="diag">   66.88   66.88</time>
   <time name="diis">  181.35  181.35</time>
   <time name="orth">   13.41   13.41</time>
   <time name="total">  302.80  302.80</time>
   <energy>
    <i name="e_fr_energy">   -174.56357955 </i>
    <i name="e_wo_entrp">   -174.44629726 </i>
    <i name="e_0_energy">   -174.53425898 </i>
   </energy>
  </scstep>
  <scstep>
   <time name="diag">   67.14   67.14</time>
   <time name="diis">  179.27  179.27</time>
   <time name="orth">   13.25   13.25</time>
   <time name="total">  300.83  300.82</time>
   <energy>
    <i name="e_fr_energy">   -174.56430420 </i>
    <i name="e_wo_entrp">   -174.44581220 </i>
    <i name="e_0_energy">   -174.53468120 </i>
   </energy>
  </scstep>
  <scstep>
   <time name="diag">   69.04   69.03</time>
   <time name="diis">  185.95  185.96</time>
   <time name="orth">   13.84   13.84</time>
   <time name="total">  311.78  311.79</time>
   <energy>
    <i name="e_fr_energy">   -174.56646505 </i>
    <i name="e_wo_entrp">   -174.44965087 </i>
    <i name="e_0_energy">   -174.53726151 </i>
   </energy>
  </scstep>
  <scstep>
   <time name="diag">   71.16   71.16</time>
   <time name="diis">  185.71  185.72</time>
   <time name="orth">   13.64   13.64</time>
   <time name="total">  314.56  314.57</time>
   <energy>
    <i name="e_fr_energy">   -174.56875485 </i>
    <i name="e_wo_entrp">   -174.45303084 </i>
    <i name="e_0_energy">   -174.53982385 </i>
   </energy>
  </scstep>
  <scstep>
   <time name="diag">   70.33   70.34</time>
   <time name="diis">  164.41  164.42</time>
   <time name="orth">   14.30   14.30</time>
   <time name="total">  293.59  293.61</time>
   <energy>
    <i name="e_fr_energy">   -174.57079653 </i>
    <i name="e_wo_entrp">   -174.45247241 </i>
    <i name="e_0_energy">   -174.54121550 </i>
   </energy>
  </scstep>
  <scstep>
   <time name="diag">   70.43   70.43</time>
   <time name="diis">  156.01  156.01</time>
   <time name="orth">   14.44   14.44</time>
   <time name="total">  285.77  285.80</time>
   <energy>
    <i name="e_fr_energy">   -174.57366515 </i>
    <i name="e_wo_entrp">   -174.45473915 </i>
    <i name="e_0_energy">   -174.54393365 </i>
   </energy>
  </scstep>
  <scstep>
   <time name="diag">   70.05   70.06</time>
   <time name="diis">  128.18  128.19</time>
   <time name="orth">   13.87   13.87</time>
   <time name="total">  256.78  256.80</time>
   <energy>
    <i name="e_fr_energy">   -174.57557618 </i>
    <i name="e_wo_entrp">   -174.45693964 </i>
    <i name="e_0_energy">   -174.54591704 </i>
   </energy>
  </scstep>
  <scstep>
   <time name="diag">   69.70   69.70</time>
   <time name="diis">  141.44  141.45</time>
   <time name="orth">   13.98   13.98</time>
   <time name="total">  269.83  269.84</time>
   <energy>
    <i name="e_fr_energy">   -174.57811009 </i>
    <i name="e_wo_entrp">   -174.45926792 </i>
    <i name="e_0_energy">   -174.54839955 </i>
   </energy>
  </scstep>
  <scstep>
   <time name="diag">   69.90   69.91</time>
   <time name="diis">  134.62  134.62</time>
   <time name="orth">   14.11   14.11</time>
   <time name="total">  262.56  262.57</time>
   <energy>
    <i name="e_fr_energy">   -174.58004851 </i>
    <i name="e_wo_entrp">   -174.46311354 </i>
    <i name="e_0_energy">   -174.55081477 </i>
   </energy>
  </scstep>
  <scstep>
   <time name="diag">   69.50   69.50</time>
   <time name="diis">  121.33  121.33</time>
   <time name="orth">   14.09   14.09</time>
   <time name="total">  249.26  249.26</time>
   <energy>
    <i name="e_fr_energy">   -174.58159027 </i>
    <i name="e_wo_entrp">   -174.46491703 </i>
    <i name="e_0_energy">   -174.55242196 </i>
   </energy>
  </scstep>
  <scstep>
   <time name="diag">   69.46   69.46</time>
   <time name="diis">  123.39  123.40</time>
   <time name="orth">   14.10   14.10</time>
   <time name="total">  251.09  251.09</time>
   <energy>
    <i name="e_fr_energy">   -174.58331305 </i>
    <i name="e_wo_entrp">   -174.46590765 </i>
    <i name="e_0_energy">   -174.55396170 </i>
   </energy>
  </scstep>
  <scstep>
   <time name="diag">   69.08   69.09</time>
   <time name="diis">  119.48  119.49</time>
   <time name="orth">   14.03   14.03</time>
   <time name="total">  247.37  247.38</time>
   <energy>
    <i name="e_fr_energy">   -174.58413837 </i>
    <i name="e_wo_entrp">   -174.46633524 </i>
    <i name="e_0_energy">   -174.55468759 </i>
   </energy>
  </scstep>
  <scstep>
   <time name="diag">   69.86   69.86</time>
   <time name="diis">  118.94  118.95</time>
   <time name="orth">   14.00   14.00</time>
   <time name="total">  247.63  247.64</time>
   <energy>
    <i name="e_fr_energy">   -174.58619414 </i>
    <i name="e_wo_entrp">   -174.46835280 </i>
    <i name="e_0_energy">   -174.55673381 </i>
   </energy>
  </scstep>
  <scstep>
   <time name="diag">   69.12   69.12</time>
   <time name="diis">  121.52  121.52</time>
   <time name="orth">   13.84   13.84</time>
   <time name="total">  250.91  250.91</time>
   <energy>
    <i name="e_fr_energy">   -174.58689248 </i>
    <i name="e_wo_entrp">   -174.46921608 </i>
    <i name="e_0_energy">   -174.55747338 </i>
   </energy>
  </scstep>
  <scstep>
   <time name="diag">   69.22   69.22</time>
   <time name="diis">  118.24  118.24</time>
   <time name="orth">   14.04   14.04</time>
   <time name="total">  247.05  247.06</time>
   <energy>
    <i name="e_fr_energy">   -174.58757633 </i>
    <i name="e_wo_entrp">   -174.47014974 </i>
    <i name="e_0_energy">   -174.55821968 </i>
   </energy>
  </scstep>
  <scstep>
   <time name="diag">   69.83   69.83</time>
   <time name="diis">  116.74  116.74</time>
   <time name="orth">   13.73   13.73</time>
   <time name="total">  244.12  244.12</time>
   <energy>
    <i name="e_fr_energy">   -174.58847757 </i>
    <i name="e_wo_entrp">   -174.47085664 </i>
    <i name="e_0_energy">   -174.55907234 </i>
   </energy>
  </scstep>
  <scstep>
   <time name="diag">   69.85   69.85</time>
   <time name="diis">  107.63  107.63</time>
   <time name="orth">   13.17   13.17</time>
   <time name="total">  234.54  234.55</time>
   <energy>
    <i name="e_fr_energy">   -174.58875978 </i>
    <i name="e_wo_entrp">   -174.47118359 </i>
    <i name="e_0_energy">   -174.55936573 </i>
   </energy>
  </scstep>
  <scstep>
   <time name="diag">   68.45   68.45</time>
   <time name="diis">  110.40  110.40</time>
   <time name="orth">   13.56   13.56</time>
   <time name="total">  236.85  236.85</time>
   <energy>
    <i name="e_fr_energy">   -174.58956358 </i>
    <i name="e_wo_entrp">   -174.47199103 </i>
    <i name="e_0_energy">   -174.56017044 </i>
   </energy>
  </scstep>
  <scstep>
   <time name="diag">   69.34   69.35</time>
   <time name="diis">   88.23   88.23</time>
   <time name="orth">   13.33   13.33</time>
   <time name="total">  215.70  215.70</time>
   <energy>
    <i name="e_fr_energy">   -174.58981385 </i>
    <i name="e_wo_entrp">   -174.47227838 </i>
    <i name="e_0_energy">   -174.56042999 </i>
   </energy>
  </scstep>
  <scstep>
   <time name="diag">   69.49   69.49</time>
   <time name="diis">  105.78  105.79</time>
   <time name="orth">   13.31   13.31</time>
   <time name="total">  232.37  232.38</time>
   <energy>
    <i name="e_fr_energy">   -174.59033306 </i>
    <i name="e_wo_entrp">   -174.47279875 </i>
    <i name="e_0_energy">   -174.56094948 </i>
   </energy>
  </scstep>
  <scstep>
   <time name="diag">   69.30   69.30</time>
   <time name="diis">   90.17   90.17</time>
   <time name="orth">   13.65   13.65</time>
   <time name="total">  217.08  217.08</time>
   <energy>
    <i name="e_fr_energy">   -174.59061896 </i>
    <i name="e_wo_entrp">   -174.47302411 </i>
    <i name="e_0_energy">   -174.56122025 </i>
   </energy>
  </scstep>
  <scstep>
   <time name="diag">   68.50   68.50</time>
   <time name="diis">   93.37   93.37</time>
   <time name="orth">   13.63   13.63</time>
   <time name="total">  219.38  219.38</time>
   <energy>
    <i name="e_fr_energy">   -174.59080311 </i>
    <i name="e_wo_entrp">   -174.47331006 </i>
    <i name="e_0_energy">   -174.56142985 </i>
   </energy>
  </scstep>
  <scstep>
   <time name="diag">   69.64   69.64</time>
   <time name="diis">   86.34   86.34</time>
   <time name="orth">   13.38   13.38</time>
   <time name="total">  213.13  213.14</time>
   <energy>
    <i name="e_fr_energy">   -174.59099477 </i>
    <i name="e_wo_entrp">   -174.47343440 </i>
    <i name="e_0_energy">   -174.56160468 </i>
   </energy>
  </scstep>
  <scstep>
   <time name="diag">   68.22   68.22</time>
   <time name="diis">   77.48   77.48</time>
   <time name="orth">   13.28   13.29</time>
   <time name="total">  172.84  172.85</time>
   <energy>
    <i name="alphaZ">     75.25431677 </i>
    <i name="ewald"> 138420.12278641 </i>
    <i name="hartreedc">-182756.80634281 </i>
    <i name="XCdc">  -1691.67793088 </i>
    <i name="pawpsdc">  46368.23051423 </i>
    <i name="pawaedc"> -42840.87902080 </i>
    <i name="eentropy">     -0.11751738 </i>
    <i name="bandstr">  -2835.22337252 </i>
    <i name="atom">  45086.50549395 </i>
    <i name="e_fr_energy">   -174.59107302 </i>
    <i name="e_wo_entrp">   -174.47355564 </i>
    <i name="e_0_energy">   -174.56169368 </i>
   </energy>
  </scstep>
  <structure>
   <crystal>
    <varray name="basis" >
     <v>      30.00000000       0.00000000       0.00000000 </v>
     <v>       0.00000000      30.00000000       0.00000000 </v>
     <v>       0.00000000       0.00000000      30.00000000 </v>
    </varray>
    <i name="volume">  27000.00000000 </i>
    <varray name="rec_basis" >
     <v>       0.03333333       0.00000000       0.00000000 </v>
     <v>       0.00000000       0.03333333       0.00000000 </v>
     <v>       0.00000000       0.00000000       0.03333333 </v>
    </varray>
   </crystal>
   <varray name="positions" >
    <v>       0.44576020       0.32826710       0.41691983 </v>
    <v>       0.67173288       0.55423978       0.41691983 </v>
    <v>       0.55423980       0.32826710       0.41691983 </v>
    <v>       0.32826712       0.55423978       0.41691983 </v>
    <v>       0.50000000       0.38250690       0.34021317 </v>
    <v>       0.50000000       0.38250690       0.65978680 </v>
    <v>       0.50000000       0.27609440       0.50000000 </v>
    <v>       0.27609443       0.49999998       0.50000000 </v>
    <v>       0.72390557       0.49999998       0.50000000 </v>
    <v>       0.50000000       0.72390555       0.50000000 </v>
    <v>       0.61195280       0.38804720       0.34167483 </v>
    <v>       0.61195280       0.38804720       0.65832513 </v>
    <v>       0.38804722       0.61195278       0.34167483 </v>
    <v>       0.38804722       0.61195278       0.65832513 </v>
    <v>       0.38804720       0.38804720       0.34167483 </v>
    <v>       0.38804720       0.38804720       0.65832513 </v>
    <v>       0.61195278       0.61195278       0.34167483 </v>
    <v>       0.61195278       0.61195278       0.65832513 </v>
    <v>       0.44576020       0.32826710       0.58308023 </v>
    <v>       0.67173288       0.55423978       0.58308023 </v>
    <v>       0.55791699       0.44208301       0.41809300 </v>
    <v>       0.32826705       0.44576024       0.41691983 </v>
    <v>       0.55423973       0.67173293       0.41691983 </v>
    <v>       0.55423980       0.32826710       0.58308023 </v>
    <v>       0.32826712       0.55423978       0.58308023 </v>
    <v>       0.67173295       0.44576024       0.41691983 </v>
    <v>       0.44576027       0.67173293       0.41691983 </v>
    <v>       0.44208301       0.44208301       0.41809300 </v>
    <v>       0.50000000       0.38416601       0.50000000 </v>
    <v>       0.61749315       0.50000005       0.34021317 </v>
    <v>       0.61749315       0.50000005       0.65978680 </v>
    <v>       0.38250685       0.50000005       0.34021317 </v>
    <v>       0.38250685       0.50000005       0.65978680 </v>
    <v>       0.38317830       0.38317830       0.50000000 </v>
    <v>       0.61682172       0.61682172       0.50000000 </v>
    <v>       0.61682170       0.38317830       0.50000000 </v>
    <v>       0.38317828       0.61682172       0.50000000 </v>
    <v>       0.50000000       0.50000000       0.33478917 </v>
    <v>       0.50000000       0.50000000       0.66521087 </v>
    <v>       0.32826705       0.44576024       0.58308023 </v>
    <v>       0.55423973       0.67173293       0.58308023 </v>
    <v>       0.55791699       0.44208301       0.58190703 </v>
    <v>       0.44208298       0.55791702       0.41809300 </v>
    <v>       0.44208301       0.44208301       0.58190703 </v>
    <v>       0.67173295       0.44576024       0.58308023 </v>
    <v>       0.44576027       0.67173293       0.58308023 </v>
    <v>       0.55791702       0.55791702       0.41809300 </v>
    <v>       0.38416599       0.50000002       0.50000000 </v>
    <v>       0.61583401       0.50000002       0.50000000 </v>
    <v>       0.50000000       0.61749319       0.34021317 </v>
    <v>       0.50000000       0.61749319       0.65978680 </v>
    <v>       0.50000000       0.50000000       0.50000000 </v>
    <v>       0.44208298       0.55791702       0.58190703 </v>
    <v>       0.55791702       0.55791702       0.58190703 </v>
    <v>       0.50000000       0.61583404       0.50000000 </v>
    <v>       0.53795917       0.27728700       0.40226050 </v>
    <v>       0.54375727       0.24326850       0.38733120 </v>
   </varray>
  </structure>
  <varray name="forces" >
   <v>       0.68263335       1.04804512       0.22894274 </v>
   <v>      -1.10727701      -0.70804086       0.29353693 </v>
   <v>       0.65956933       6.57076516       1.88813109 </v>
   <v>       1.10905083      -0.70108921       0.29450134 </v>
   <v>      -0.02772527       0.52557309       1.20834860 </v>
   <v>       0.00434849       0.39844738      -1.29255809 </v>
   <v>       0.05032979       1.46798972      -0.10566948 </v>
   <v>       1.52189530       0.00169485       0.00976970 </v>
   <v>      -1.51903026       0.00531268       0.00549280 </v>
   <v>       0.00105789      -1.51464682      -0.00362295 </v>
   <v>      -0.74161652       0.78723097       1.08600107 </v>
   <v>      -0.75827254       0.76262524      -1.07049812 </v>
   <v>       0.76250481      -0.75266274       1.07542809 </v>
   <v>       0.75391606      -0.76298813      -1.07321019 </v>
   <v>       0.76447438       0.75760776       1.10325218 </v>
   <v>       0.74554402       0.77261464      -1.06849520 </v>
   <v>      -0.76675852      -0.74705735       1.07971317 </v>
   <v>      -0.74997328      -0.76350968      -1.07226248 </v>
   <v>       0.70537872       1.11419568      -0.25425035 </v>
   <v>      -1.10873602      -0.71159608      -0.28492953 </v>
   <v>       0.14148071      -0.14464064      -0.12373113 </v>
   <v>       1.11019054       0.69982190       0.28797551 </v>
   <v>      -0.69847439      -1.11739459       0.27818099 </v>
   <v>      -0.70783126       1.11771170      -0.24920972 </v>
   <v>       1.10484355      -0.71503006      -0.29141691 </v>
   <v>      -1.11416492       0.70540163       0.28878979 </v>
   <v>       0.70115839      -1.12004716       0.28032928 </v>
   <v>      -0.10944773      -0.09997886      -0.15597420 </v>
   <v>      -0.01366569      -0.12541288       0.08239192 </v>
   <v>      -0.41002154      -0.00712002       1.27979661 </v>
   <v>      -0.40331147       0.00438916      -1.28825144 </v>
   <v>       0.41569826      -0.00500216       1.27904507 </v>
   <v>       0.40679763      -0.00518223      -1.28691650 </v>
   <v>       0.81461905       0.83741338      -0.00831181 </v>
   <v>      -0.82524667      -0.82800546       0.00211489 </v>
   <v>      -0.81562927       0.88276731       0.00216545 </v>
   <v>       0.82539065      -0.82875175      -0.00048036 </v>
   <v>      -0.00835945      -0.02218808       1.17337125 </v>
   <v>       0.00094201       0.00415109      -1.17559935 </v>
   <v>       1.10939496       0.72106015      -0.28060530 </v>
   <v>      -0.70588354      -1.11042000      -0.28891196 </v>
   <v>       0.10758547      -0.11869541       0.15558174 </v>
   <v>      -0.11020229       0.12228418      -0.15504808 </v>
   <v>      -0.12163884      -0.10291831       0.16338425 </v>
   <v>      -1.10410730       0.74303708      -0.26538424 </v>
   <v>       0.70792771      -1.10941906      -0.28627435 </v>
   <v>       0.11069098       0.15321742      -0.16641279 </v>
   <v>      -0.23097045      -0.00177129       0.00177737 </v>
   <v>       0.23192241      -0.01152683      -0.00563091 </v>
   <v>       0.00289309      -0.39651281       1.28839622 </v>
   <v>       0.00010620      -0.40959517      -1.28099162 </v>
   <v>      -0.00373660      -0.02234121      -0.01220925 </v>
   <v>      -0.11185203       0.11136022       0.15605511 </v>
   <v>       0.11353232       0.10785034       0.15108728 </v>
   <v>       0.00056279       0.22642474       0.00616745 </v>
   <v>      -1.61151391      -0.26714961       0.68419724 </v>
   <v>       0.21900710      -5.41829812      -2.28706885 </v>
  </varray>
  <varray name="stress" >
   <v>      -6.70776916       0.11217250       0.03287365 </v>
   <v>       0.11217249      -5.88386028       0.30231712 </v>
   <v>       0.03287365       0.30231713      -6.63324601 </v>
  </varray>
  <energy>
   <i name="e_fr_energy">   -174.59107302 </i>
   <i name="e_wo_entrp">   -174.56169368 </i>
   <i name="e_0_energy">     -0.11751738 </i>
  </energy>
  <time name="totalsc">18036.2718036.57</time>
  <eigenvalues>
   <array>
    <dimension dim="1">band</dimension>
    <dimension dim="2">kpoint</dimension>
    <dimension dim="3">spin</dimension>
    <field>eigene</field>
    <field>occ</field>
    <set>
     <set comment="spin 1">
      <set comment="kpoint 1">
       <r>  -28.1628    1.0000 </r>
       <r>  -13.7695    1.0000 </r>
       <r>  -11.4324    1.0000 </r>
       <r>  -10.9568    1.0000 </r>
       <r>  -10.8654    1.0000 </r>
       <r>   -7.1248    1.0000 </r>
       <r>   -7.0765    1.0000 </r>
       <r>   -6.6896    1.0000 </r>
       <r>   -6.3057    1.0000 </r>
       <r>   -6.1828    1.0000 </r>
       <r>   -6.1573    1.0000 </r>
       <r>   -6.1157    1.0000 </r>
       <r>   -6.1060    1.0000 </r>
       <r>   -5.9602    1.0000 </r>
       <r>   -5.8286    1.0000 </r>
       <r>   -5.8218    1.0000 </r>
       <r>   -5.7852    1.0000 </r>
       <r>   -5.7530    1.0000 </r>
       <r>   -5.7119    1.0000 </r>
       <r>   -5.7044    1.0000 </r>
       <r>   -5.6984    1.0000 </r>
       <r>   -5.6564    1.0000 </r>
       <r>   -5.6445    1.0000 </r>
       <r>   -5.6320    1.0000 </r>
       <r>   -5.6191    1.0000 </r>
       <r>   -5.6135    1.0000 </r>
       <r>   -5.6067    1.0000 </r>
       <r>   -5.5900    1.0000 </r>
       <r>   -5.5697    1.0000 </r>
       <r>   -5.5686    1.0000 </r>
       <r>   -5.5617    1.0000 </r>
       <r>   -5.5486    1.0000 </r>
       <r>   -5.5398    1.0000 </r>
       <r>   -5.5393    1.0000 </r>
       <r>   -5.5348    1.0000 </r>
       <r>   -5.5327    1.0000 </r>
       <r>   -5.5316    1.0000 </r>
       <r>   -5.5289    1.0000 </r>
       <r>   -5.5168    1.0000 </r>
       <r>   -5.5023    1.0000 </r>
       <r>   -5.4949    1.0000 </r>
       <r>   -5.4939    1.0000 </r>
       <r>   -5.4905    1.0000 </r>
       <r>   -5.4875    1.0000 </r>
       <r>   -5.4856    1.0000 </r>
       <r>   -5.4756    1.0000 </r>
       <r>   -5.4542    1.0000 </r>
       <r>   -5.4533    1.0000 </r>
       <r>   -5.4490    1.0000 </r>
       <r>   -5.4466    1.0000 </r>
       <r>   -5.4434    1.0000 </r>
       <r>   -5.4430    1.0000 </r>
       <r>   -5.4359    1.0000 </r>
       <r>   -5.4271    1.0000 </r>
       <r>   -5.4247    1.0000 </r>
       <r>   -5.4223    1.0000 </r>
       <r>   -5.4084    1.0000 </r>
       <r>   -5.3884    1.0000 </r>
       <r>   -5.3669    1.0000 </r>
       <r>   -5.3527    1.0000 </r>
       <r>   -5.3468    1.0000 </r>
       <r>   -5.3416    1.0000 </r>
       <r>   -5.3372    1.0000 </r>
       <r>   -5.3337    1.0000 </r>
       <r>   -5.3247    1.0000 </r>
       <r>   -5.3197    1.0000 </r>
       <r>   -5.3194    1.0000 </r>
       <r>   -5.3141    1.0000 </r>
       <r>   -5.3066    1.0000 </r>
       <r>   -5.2578    1.0000 </r>
       <r>   -5.2355    1.0000 </r>
       <r>   -5.2315    1.0000 </r>
       <r>   -5.2217    1.0000 </r>
       <r>   -5.2156    1.0000 </r>
       <r>   -5.2065    1.0000 </r>
       <r>   -5.2021    1.0000 </r>
       <r>   -5.1995    1.0000 </r>
       <r>   -5.1941    1.0000 </r>
       <r>   -5.1913    1.0000 </r>
       <r>   -5.1858    1.0000 </r>
       <r>   -5.1778    1.0000 </r>
       <r>   -5.1749    1.0000 </r>
       <r>   -5.1592    1.0000 </r>
       <r>   -5.1552    1.0000 </r>
       <r>   -5.1461    1.0000 </r>
       <r>   -5.1381    1.0000 </r>
       <r>   -5.1332    1.0000 </r>
       <r>   -5.1236    1.0000 </r>
       <r>   -5.1121    1.0000 </r>
       <r>   -5.1059    1.0000 </r>
       <r>   -5.0980    1.0000 </r>
       <r>   -5.0770    1.0000 </r>
       <r>   -5.0757    1.0000 </r>
       <r>   -5.0737    1.0000 </r>
       <r>   -5.0714    1.0000 </r>
       <r>   -5.0694    1.0000 </r>
       <r>   -5.0643    1.0000 </r>
       <r>   -5.0622    1.0000 </r>
       <r>   -5.0516    1.0000 </r>
       <r>   -5.0498    1.0000 </r>
       <r>   -5.0468    1.0000 </r>
       <r>   -5.0409    1.0000 </r>
       <r>   -5.0334    1.0000 </r>
       <r>   -5.0241    1.0000 </r>
       <r>   -5.0237    1.0000 </r>
       <r>   -5.0218    1.0000 </r>
       <r>   -5.0150    1.0000 </r>
       <r>   -5.0118    1.0000 </r>
       <r>   -5.0094    1.0000 </r>
       <r>   -4.9993    1.0000 </r>
       <r>   -4.9977    1.0000 </r>
       <r>   -4.9916    1.0000 </r>
       <r>   -4.9824    1.0000 </r>
       <r>   -4.9824    1.0000 </r>
       <r>   -4.9779    1.0000 </r>
       <r>   -4.9730    1.0000 </r>
       <r>   -4.9705    1.0000 </r>
       <r>   -4.9586    1.0000 </r>
       <r>   -4.9541    1.0000 </r>
       <r>   -4.9481    1.0000 </r>
       <r>   -4.9363    1.0000 </r>
       <r>   -4.9331    1.0000 </r>
       <r>   -4.9296    1.0000 </r>
       <r>   -4.9240    1.0000 </r>
       <r>   -4.9220    1.0000 </r>
       <r>   -4.9201    1.0000 </r>
       <r>   -4.9133    1.0000 </r>
       <r>   -4.8941    1.0000 </r>
       <r>   -4.8736    1.0000 </r>
       <r>   -4.8630    1.0000 </r>
       <r>   -4.8618    1.0000 </r>
       <r>   -4.8604    1.0000 </r>
       <r>   -4.8584    1.0000 </r>
       <r>   -4.8544    1.0000 </r>
       <r>   -4.8497    1.0000 </r>
       <r>   -4.8356    0.9999 </r>
       <r>   -4.8246    0.9999 </r>
       <r>   -4.8127    0.9999 </r>
       <r>   -4.8089    0.9999 </r>
       <r>   -4.7991    0.9999 </r>
       <r>   -4.7978    0.9998 </r>
       <r>   -4.7850    0.9998 </r>
       <r>   -4.7752    0.9997 </r>
       <r>   -4.7709    0.9997 </r>
       <r>   -4.7607    0.9996 </r>
       <r>   -4.7589    0.9996 </r>
       <r>   -4.7544    0.9996 </r>
       <r>   -4.7435    0.9995 </r>
       <r>   -4.7382    0.9994 </r>
       <r>   -4.7244    0.9992 </r>
       <r>   -4.7128    0.9990 </r>
       <r>   -4.7072    0.9989 </r>
       <r>   -4.7047    0.9988 </r>
       <r>   -4.7012    0.9988 </r>
       <r>   -4.6952    0.9986 </r>
       <r>   -4.6923    0.9986 </r>
       <r>   -4.6912    0.9985 </r>
       <r>   -4.6889    0.9985 </r>
       <r>   -4.6868    0.9984 </r>
       <r>   -4.6820    0.9983 </r>
       <r>   -4.6749    0.9981 </r>
       <r>   -4.6675    0.9979 </r>
       <r>   -4.6664    0.9978 </r>
       <r>   -4.6661    0.9978 </r>
       <r>   -4.6660    0.9978 </r>
       <r>   -4.6644    0.9978 </r>
       <r>   -4.6609    0.9976 </r>
       <r>   -4.6555    0.9974 </r>
       <r>   -4.6543    0.9974 </r>
       <r>   -4.6408    0.9969 </r>
       <r>   -4.6390    0.9968 </r>
       <r>   -4.6303    0.9965 </r>
       <r>   -4.6236    0.9963 </r>
       <r>   -4.6210    0.9962 </r>
       <r>   -4.6158    0.9960 </r>
       <r>   -4.6136    0.9959 </r>
       <r>   -4.6108    0.9958 </r>
       <r>   -4.6090    0.9958 </r>
       <r>   -4.6067    0.9957 </r>
       <r>   -4.5964    0.9954 </r>
       <r>   -4.5953    0.9954 </r>
       <r>   -4.5890    0.9952 </r>
       <r>   -4.5867    0.9952 </r>
       <r>   -4.5829    0.9951 </r>
       <r>   -4.5778    0.9951 </r>
       <r>   -4.5730    0.9951 </r>
       <r>   -4.5717    0.9951 </r>
       <r>   -4.5690    0.9951 </r>
       <r>   -4.5667    0.9951 </r>
       <r>   -4.5609    0.9952 </r>
       <r>   -4.5547    0.9954 </r>
       <r>   -4.5418    0.9961 </r>
       <r>   -4.5338    0.9967 </r>
       <r>   -4.5284    0.9973 </r>
       <r>   -4.5245    0.9977 </r>
       <r>   -4.5202    0.9983 </r>
       <r>   -4.5149    0.9991 </r>
       <r>   -4.5136    0.9993 </r>
       <r>   -4.4991    1.0022 </r>
       <r>   -4.4966    1.0028 </r>
       <r>   -4.4939    1.0035 </r>
       <r>   -4.4862    1.0056 </r>
       <r>   -4.4810    1.0071 </r>
       <r>   -4.4783    1.0080 </r>
       <r>   -4.4757    1.0089 </r>
       <r>   -4.4701    1.0108 </r>
       <r>   -4.4673    1.0119 </r>
       <r>   -4.4653    1.0126 </r>
       <r>   -4.4598    1.0148 </r>
       <r>   -4.4550    1.0167 </r>
       <r>   -4.4463    1.0206 </r>
       <r>   -4.4429    1.0221 </r>
       <r>   -4.4422    1.0224 </r>
       <r>   -4.4346    1.0260 </r>
       <r>   -4.4311    1.0276 </r>
       <r>   -4.4272    1.0295 </r>
       <r>   -4.4263    1.0299 </r>
       <r>   -4.4243    1.0309 </r>
       <r>   -4.4239    1.0311 </r>
       <r>   -4.4118    1.0368 </r>
       <r>   -4.3990    1.0425 </r>
       <r>   -4.3902    1.0459 </r>
       <r>   -4.3837    1.0480 </r>
       <r>   -4.3830    1.0482 </r>
       <r>   -4.3766    1.0499 </r>
       <r>   -4.3645    1.0515 </r>
       <r>   -4.3576    1.0515 </r>
       <r>   -4.3559    1.0513 </r>
       <r>   -4.3541    1.0511 </r>
       <r>   -4.3527    1.0509 </r>
       <r>   -4.3520    1.0508 </r>
       <r>   -4.3511    1.0506 </r>
       <r>   -4.3469    1.0496 </r>
       <r>   -4.3456    1.0492 </r>
       <r>   -4.3437    1.0486 </r>
       <r>   -4.3425    1.0481 </r>
       <r>   -4.3405    1.0473 </r>
       <r>   -4.3395    1.0469 </r>
       <r>   -4.3363    1.0453 </r>
       <r>   -4.3310    1.0420 </r>
       <r>   -4.3277    1.0396 </r>
       <r>   -4.3207    1.0335 </r>
       <r>   -4.3179    1.0307 </r>
       <r>   -4.3109    1.0224 </r>
       <r>   -4.3092    1.0201 </r>
       <r>   -4.3069    1.0170 </r>
       <r>   -4.3024    1.0102 </r>
       <r>   -4.3000    1.0062 </r>
       <r>   -4.2994    1.0053 </r>
       <r>   -4.2909    0.9896 </r>
       <r>   -4.2861    0.9794 </r>
       <r>   -4.2822    0.9707 </r>
       <r>   -4.2801    0.9657 </r>
       <r>   -4.2775    0.9592 </r>
       <r>   -4.2741    0.9505 </r>
       <r>   -4.2715    0.9435 </r>
       <r>   -4.2694    0.9377 </r>
       <r>   -4.2665    0.9294 </r>
       <r>   -4.2646    0.9236 </r>
       <r>   -4.2628    0.9182 </r>
       <r>   -4.2611    0.9127 </r>
       <r>   -4.2593    0.9071 </r>
       <r>   -4.2574    0.9010 </r>
       <r>   -4.2563    0.8974 </r>
       <r>   -4.2555    0.8945 </r>
       <r>   -4.2463    0.8619 </r>
       <r>   -4.2438    0.8526 </r>
       <r>   -4.2420    0.8458 </r>
       <r>   -4.2388    0.8331 </r>
       <r>   -4.2383    0.8311 </r>
       <r>   -4.2349    0.8173 </r>
       <r>   -4.2293    0.7939 </r>
       <r>   -4.2222    0.7630 </r>
       <r>   -4.2124    0.7177 </r>
       <r>   -4.2036    0.6751 </r>
       <r>   -4.2012    0.6629 </r>
       <r>   -4.1955    0.6340 </r>
       <r>   -4.1946    0.6295 </r>
       <r>   -4.1936    0.6243 </r>
       <r>   -4.1894    0.6027 </r>
       <r>   -4.1789    0.5479 </r>
       <r>   -4.1664    0.4822 </r>
       <r>   -4.1585    0.4406 </r>
       <r>   -4.1491    0.3917 </r>
       <r>   -4.1466    0.3787 </r>
       <r>   -4.1465    0.3780 </r>
       <r>   -4.1368    0.3290 </r>
       <r>   -4.1337    0.3138 </r>
       <r>   -4.1293    0.2923 </r>
       <r>   -3.9806   -0.0516 </r>
       <r>   -3.8739   -0.0125 </r>
       <r>   -3.8495   -0.0045 </r>
       <r>   -3.8327   -0.0006 </r>
       <r>   -3.7087    0.0035 </r>
       <r>   -3.5337    0.0001 </r>
       <r>   -3.5064    0.0001 </r>
       <r>   -3.3750    0.0000 </r>
       <r>   -3.0909    0.0000 </r>
       <r>   -3.0817    0.0000 </r>
       <r>   -3.0703    0.0000 </r>
       <r>   -3.0505    0.0000 </r>
       <r>   -3.0362    0.0000 </r>
       <r>   -2.9637    0.0000 </r>
       <r>   -2.9581    0.0000 </r>
       <r>   -2.7819    0.0000 </r>
       <r>   -2.5566    0.0000 </r>
       <r>   -2.5377    0.0000 </r>
       <r>   -2.5084    0.0000 </r>
       <r>   -2.3275    0.0000 </r>
       <r>   -2.1342    0.0000 </r>
       <r>   -2.1300    0.0000 </r>
       <r>   -2.0878    0.0000 </r>
       <r>   -2.0269    0.0000 </r>
       <r>   -1.9676    0.0000 </r>
       <r>   -1.9367    0.0000 </r>
       <r>   -1.8905    0.0000 </r>
       <r>   -1.7932    0.0000 </r>
       <r>   -1.7167    0.0000 </r>
       <r>   -1.6780    0.0000 </r>
       <r>   -1.6577    0.0000 </r>
       <r>   -1.6443    0.0000 </r>
       <r>   -1.5733    0.0000 </r>
       <r>   -1.5228    0.0000 </r>
       <r>   -1.3473    0.0000 </r>
       <r>   -1.2547    0.0000 </r>
       <r>   -1.1941    0.0000 </r>
       <r>   -1.0916    0.0000 </r>
       <r>   -1.0114    0.0000 </r>
       <r>   -0.9988    0.0000 </r>
       <r>   -0.9761    0.0000 </r>
       <r>   -0.9625    0.0000 </r>
       <r>   -0.9469    0.0000 </r>
       <r>   -0.9210    0.0000 </r>
       <r>   -0.8932    0.0000 </r>
       <r>   -0.8396    0.0000 </r>
       <r>   -0.6886    0.0000 </r>
      </set>
     </set>
    </set>
   </array>
  </eigenvalues>
  <separator name="orbital magnetization" >
   <v name="MAGDIPOLOUT">      0.00000000      0.00000000      0.00000000</v>
  </separator>
  <dos>
   <i name="efermi">     -4.16979942 </i>
   <total>
    <array>
     <dimension dim="1">gridpoints</dimension>
     <dimension dim="2">spin</dimension>
     <field>energy</field>
     <field>total</field>
     <field>integrated</field>
     <set>
      <set comment="spin 1">
       <r>   -30.1628     0.0000     0.0000 </r>
       <r>   -30.0579     0.0000     0.0000 </r>
       <r>   -29.9530     0.0000     0.0000 </r>
       <r>   -29.8481     0.0000     0.0000 </r>
       <r>   -29.7432     0.0000     0.0000 </r>
       <r>   -29.6383     0.0000     0.0000 </r>
       <r>   -29.5333     0.0000     0.0000 </r>
       <r>   -29.4284     0.0000     0.0000 </r>
       <r>   -29.3235     0.0000     0.0000 </r>
       <r>   -29.2186     0.0000     0.0000 </r>
       <r>   -29.1137     0.0000     0.0000 </r>
       <r>   -29.0088     0.0000     0.0000 </r>
       <r>   -28.9039     0.0001     0.0000 </r>
       <r>   -28.7989     0.0022     0.0002 </r>
       <r>   -28.6940     0.0212     0.0025 </r>
       <r>   -28.5891     0.0646     0.0092 </r>
       <r>   -28.4842    -0.1683    -0.0084 </r>
       <r>   -28.3793    -0.8205    -0.0945 </r>
       <r>   -28.2744     1.4979     0.0627 </r>
       <r>   -28.1695     8.2663     0.9299 </r>
       <r>   -28.0645     8.9388     1.8677 </r>
       <r>   -27.9596     2.2251     2.1012 </r>
       <r>   -27.8547    -0.8093     2.0163 </r>
       <r>   -27.7498    -0.2480     1.9902 </r>
       <r>   -27.6449     0.0633     1.9969 </r>
       <r>   -27.5400     0.0264     1.9997 </r>
       <r>   -27.4351     0.0031     2.0000 </r>
       <r>   -27.3301     0.0002     2.0000 </r>
       <r>   -27.2252     0.0000     2.0000 </r>
       <r>   -27.1203     0.0000     2.0000 </r>
       <r>   -27.0154     0.0000     2.0000 </r>
       <r>   -26.9105     0.0000     2.0000 </r>
       <r>   -26.8056     0.0000     2.0000 </r>
       <r>   -26.7007     0.0000     2.0000 </r>
       <r>   -26.5957     0.0000     2.0000 </r>
       <r>   -26.4908     0.0000     2.0000 </r>
       <r>   -26.3859     0.0000     2.0000 </r>
       <r>   -26.2810     0.0000     2.0000 </r>
       <r>   -26.1761     0.0000     2.0000 </r>
       <r>   -26.0712     0.0000     2.0000 </r>
       <r>   -25.9663     0.0000     2.0000 </r>
       <r>   -25.8613     0.0000     2.0000 </r>
       <r>   -25.7564     0.0000     2.0000 </r>
       <r>   -25.6515     0.0000     2.0000 </r>
       <r>   -25.5466     0.0000     2.0000 </r>
       <r>   -25.4417     0.0000     2.0000 </r>
       <r>   -25.3368     0.0000     2.0000 </r>
       <r>   -25.2319     0.0000     2.0000 </r>
       <r>   -25.1269     0.0000     2.0000 </r>
       <r>   -25.0220     0.0000     2.0000 </r>
       <r>   -24.9171     0.0000     2.0000 </r>
       <r>   -24.8122     0.0000     2.0000 </r>
       <r>   -24.7073     0.0000     2.0000 </r>
       <r>   -24.6024     0.0000     2.0000 </r>
       <r>   -24.4975     0.0000     2.0000 </r>
       <r>   -24.3925     0.0000     2.0000 </r>
       <r>   -24.2876     0.0000     2.0000 </r>
       <r>   -24.1827     0.0000     2.0000 </r>
       <r>   -24.0778     0.0000     2.0000 </r>
       <r>   -23.9729     0.0000     2.0000 </r>
       <r>   -23.8680     0.0000     2.0000 </r>
       <r>   -23.7631     0.0000     2.0000 </r>
       <r>   -23.6581     0.0000     2.0000 </r>
       <r>   -23.5532     0.0000     2.0000 </r>
       <r>   -23.4483     0.0000     2.0000 </r>
       <r>   -23.3434     0.0000     2.0000 </r>
       <r>   -23.2385     0.0000     2.0000 </r>
       <r>   -23.1336     0.0000     2.0000 </r>
       <r>   -23.0287     0.0000     2.0000 </r>
       <r>   -22.9237     0.0000     2.0000 </r>
       <r>   -22.8188     0.0000     2.0000 </r>
       <r>   -22.7139     0.0000     2.0000 </r>
       <r>   -22.6090     0.0000     2.0000 </r>
       <r>   -22.5041     0.0000     2.0000 </r>
       <r>   -22.3992     0.0000     2.0000 </r>
       <r>   -22.2943     0.0000     2.0000 </r>
       <r>   -22.1893     0.0000     2.0000 </r>
       <r>   -22.0844     0.0000     2.0000 </r>
       <r>   -21.9795     0.0000     2.0000 </r>
       <r>   -21.8746     0.0000     2.0000 </r>
       <r>   -21.7697     0.0000     2.0000 </r>
       <r>   -21.6648     0.0000     2.0000 </r>
       <r>   -21.5599     0.0000     2.0000 </r>
       <r>   -21.4550     0.0000     2.0000 </r>
       <r>   -21.3500     0.0000     2.0000 </r>
       <r>   -21.2451     0.0000     2.0000 </r>
       <r>   -21.1402     0.0000     2.0000 </r>
       <r>   -21.0353     0.0000     2.0000 </r>
       <r>   -20.9304     0.0000     2.0000 </r>
       <r>   -20.8255     0.0000     2.0000 </r>
       <r>   -20.7206     0.0000     2.0000 </r>
       <r>   -20.6156     0.0000     2.0000 </r>
       <r>   -20.5107     0.0000     2.0000 </r>
       <r>   -20.4058     0.0000     2.0000 </r>
       <r>   -20.3009     0.0000     2.0000 </r>
       <r>   -20.1960     0.0000     2.0000 </r>
       <r>   -20.0911     0.0000     2.0000 </r>
       <r>   -19.9862     0.0000     2.0000 </r>
       <r>   -19.8812     0.0000     2.0000 </r>
       <r>   -19.7763     0.0000     2.0000 </r>
       <r>   -19.6714     0.0000     2.0000 </r>
       <r>   -19.5665     0.0000     2.0000 </r>
       <r>   -19.4616     0.0000     2.0000 </r>
       <r>   -19.3567     0.0000     2.0000 </r>
       <r>   -19.2518     0.0000     2.0000 </r>
       <r>   -19.1468     0.0000     2.0000 </r>
       <r>   -19.0419     0.0000     2.0000 </r>
       <r>   -18.9370     0.0000     2.0000 </r>
       <r>   -18.8321     0.0000     2.0000 </r>
       <r>   -18.7272     0.0000     2.0000 </r>
       <r>   -18.6223     0.0000     2.0000 </r>
       <r>   -18.5174     0.0000     2.0000 </r>
       <r>   -18.4124     0.0000     2.0000 </r>
       <r>   -18.3075     0.0000     2.0000 </r>
       <r>   -18.2026     0.0000     2.0000 </r>
       <r>   -18.0977     0.0000     2.0000 </r>
       <r>   -17.9928     0.0000     2.0000 </r>
       <r>   -17.8879     0.0000     2.0000 </r>
       <r>   -17.7830     0.0000     2.0000 </r>
       <r>   -17.6780     0.0000     2.0000 </r>
       <r>   -17.5731     0.0000     2.0000 </r>
       <r>   -17.4682     0.0000     2.0000 </r>
       <r>   -17.3633     0.0000     2.0000 </r>
       <r>   -17.2584     0.0000     2.0000 </r>
       <r>   -17.1535     0.0000     2.0000 </r>
       <r>   -17.0486     0.0000     2.0000 </r>
       <r>   -16.9436     0.0000     2.0000 </r>
       <r>   -16.8387     0.0000     2.0000 </r>
       <r>   -16.7338     0.0000     2.0000 </r>
       <r>   -16.6289     0.0000     2.0000 </r>
       <r>   -16.5240     0.0000     2.0000 </r>
       <r>   -16.4191     0.0000     2.0000 </r>
       <r>   -16.3142     0.0000     2.0000 </r>
       <r>   -16.2092     0.0000     2.0000 </r>
       <r>   -16.1043     0.0000     2.0000 </r>
       <r>   -15.9994     0.0000     2.0000 </r>
       <r>   -15.8945     0.0000     2.0000 </r>
       <r>   -15.7896     0.0000     2.0000 </r>
       <r>   -15.6847     0.0000     2.0000 </r>
       <r>   -15.5798     0.0000     2.0000 </r>
       <r>   -15.4748     0.0000     2.0000 </r>
       <r>   -15.3699     0.0000     2.0000 </r>
       <r>   -15.2650     0.0000     2.0000 </r>
       <r>   -15.1601     0.0000     2.0000 </r>
       <r>   -15.0552     0.0000     2.0000 </r>
       <r>   -14.9503     0.0000     2.0000 </r>
       <r>   -14.8454     0.0000     2.0000 </r>
       <r>   -14.7404     0.0000     2.0000 </r>
       <r>   -14.6355     0.0000     2.0000 </r>
       <r>   -14.5306     0.0001     2.0000 </r>
       <r>   -14.4257     0.0013     2.0001 </r>
       <r>   -14.3208     0.0148     2.0017 </r>
       <r>   -14.2159     0.0601     2.0080 </r>
       <r>   -14.1110    -0.0716     2.0005 </r>
       <r>   -14.0060    -0.7544     1.9213 </r>
       <r>   -13.9011     0.5851     1.9827 </r>
       <r>   -13.7962     7.0387     2.7212 </r>
       <r>   -13.6913     9.6774     3.7365 </r>
       <r>   -13.5864     3.4832     4.1019 </r>
       <r>   -13.4815    -0.6746     4.0311 </r>
       <r>   -13.3766    -0.3889     3.9903 </r>
       <r>   -13.2716     0.0512     3.9957 </r>
       <r>   -13.1667     0.0355     3.9994 </r>
       <r>   -13.0618     0.0050     4.0000 </r>
       <r>   -12.9569     0.0003     4.0000 </r>
       <r>   -12.8520     0.0000     4.0000 </r>
       <r>   -12.7471     0.0000     4.0000 </r>
       <r>   -12.6422     0.0000     4.0000 </r>
       <r>   -12.5372     0.0000     4.0000 </r>
       <r>   -12.4323     0.0000     4.0000 </r>
       <r>   -12.3274     0.0000     4.0000 </r>
       <r>   -12.2225     0.0000     4.0000 </r>
       <r>   -12.1176     0.0006     4.0001 </r>
       <r>   -12.0127     0.0082     4.0009 </r>
       <r>   -11.9078     0.0469     4.0058 </r>
       <r>   -11.8028     0.0171     4.0076 </r>
       <r>   -11.6979    -0.5606     3.9488 </r>
       <r>   -11.5930    -0.3040     3.9169 </r>
       <r>   -11.4881     5.0570     4.4475 </r>
       <r>   -11.3832    10.1183     5.5090 </r>
       <r>   -11.2783     5.3892     6.0744 </r>
       <r>   -11.1734    -1.2178     5.9467 </r>
       <r>   -11.0684     0.0740     5.9544 </r>
       <r>   -10.9635    10.4938     7.0554 </r>
       <r>   -10.8586    17.9374     8.9373 </r>
       <r>   -10.7537    10.5009    10.0390 </r>
       <r>   -10.6488     0.6842    10.1107 </r>
       <r>   -10.5439    -1.0690     9.9986 </r>
       <r>   -10.4390    -0.1044     9.9876 </r>
       <r>   -10.3340     0.0910     9.9972 </r>
       <r>   -10.2291     0.0243     9.9997 </r>
       <r>   -10.1242     0.0024    10.0000 </r>
       <r>   -10.0193     0.0001    10.0000 </r>
       <r>    -9.9144     0.0000    10.0000 </r>
       <r>    -9.8095     0.0000    10.0000 </r>
       <r>    -9.7046     0.0000    10.0000 </r>
       <r>    -9.5996     0.0000    10.0000 </r>
       <r>    -9.4947     0.0000    10.0000 </r>
       <r>    -9.3898     0.0000    10.0000 </r>
       <r>    -9.2849     0.0000    10.0000 </r>
       <r>    -9.1800     0.0000    10.0000 </r>
       <r>    -9.0751     0.0000    10.0000 </r>
       <r>    -8.9702     0.0000    10.0000 </r>
       <r>    -8.8652     0.0000    10.0000 </r>
       <r>    -8.7603     0.0000    10.0000 </r>
       <r>    -8.6554     0.0000    10.0000 </r>
       <r>    -8.5505     0.0000    10.0000 </r>
       <r>    -8.4456     0.0000    10.0000 </r>
       <r>    -8.3407     0.0000    10.0000 </r>
       <r>    -8.2358     0.0000    10.0000 </r>
       <r>    -8.1308     0.0000    10.0000 </r>
       <r>    -8.0259     0.0000    10.0000 </r>
       <r>    -7.9210     0.0000    10.0000 </r>
       <r>    -7.8161     0.0006    10.0001 </r>
       <r>    -7.7112     0.0096    10.0011 </r>
       <r>    -7.6063     0.0655    10.0079 </r>
       <r>    -7.5014     0.0936    10.0178 </r>
       <r>    -7.3964    -0.6901     9.9454 </r>
       <r>    -7.2915    -1.2487     9.8144 </r>
       <r>    -7.1866     6.2127    10.4662 </r>
       <r>    -7.0817    18.3817    12.3947 </r>
       <r>    -6.9768    14.4000    13.9054 </r>
       <r>    -6.8719     1.5081    14.0636 </r>
       <r>    -6.7670     2.1385    14.2880 </r>
       <r>    -6.6620     9.5338    15.2882 </r>
       <r>    -6.5571     6.6466    15.9856 </r>
       <r>    -6.4522    -0.3139    15.9526 </r>
       <r>    -6.3473     2.7663    16.2428 </r>
       <r>    -6.2424    18.7690    18.2120 </r>
       <r>    -6.1375    37.5568    22.1522 </r>
       <r>    -6.0326    33.8365    25.7022 </r>
       <r>    -5.9276    17.6474    27.5536 </r>
       <r>    -5.8227    25.5482    30.2340 </r>
       <r>    -5.7178    62.5376    36.7951 </r>
       <r>    -5.6129   144.7264    51.9789 </r>
       <r>    -5.5080   258.6316    79.1130 </r>
       <r>    -5.4031   290.0083   109.5390 </r>
       <r>    -5.2982   226.8698   133.3409 </r>
       <r>    -5.1933   213.4591   155.7358 </r>
       <r>    -5.0883   293.9532   186.5756 </r>
       <r>    -4.9834   357.3781   224.0697 </r>
       <r>    -4.8785   319.2501   257.5635 </r>
       <r>    -4.7736   287.0907   287.6834 </r>
       <r>    -4.6687   366.2675   326.1101 </r>
       <r>    -4.5638   431.6683   371.3982 </r>
       <r>    -4.4589   426.2995   416.1231 </r>
       <r>    -4.3539   489.3870   467.4667 </r>
       <r>    -4.2490   555.4645   525.7428 </r>
       <r>    -4.1441   397.4107   567.4369 </r>
       <r>    -4.0392   124.7120   580.5209 </r>
       <r>    -3.9343     6.5551   581.2086 </r>
       <r>    -3.8294    21.6464   583.4797 </r>
       <r>    -3.7245    28.6405   586.4844 </r>
       <r>    -3.6195    16.4871   588.2142 </r>
       <r>    -3.5146    19.0657   590.2144 </r>
       <r>    -3.4097    21.8002   592.5016 </r>
       <r>    -3.3048     9.2914   593.4764 </r>
       <r>    -3.1999     4.1984   593.9169 </r>
       <r>    -3.0950    34.0121   597.4852 </r>
       <r>    -2.9901    60.4527   603.8276 </r>
       <r>    -2.8851    39.8225   608.0055 </r>
       <r>    -2.7802    11.2932   609.1903 </r>
       <r>    -2.6753     6.2625   609.8473 </r>
       <r>    -2.5704    19.7023   611.9144 </r>
       <r>    -2.4655    28.8030   614.9362 </r>
       <r>    -2.3606    16.9818   616.7179 </r>
       <r>    -2.2557     8.6848   617.6290 </r>
       <r>    -2.1507    21.1773   619.8508 </r>
       <r>    -2.0458    40.1859   624.0669 </r>
       <r>    -1.9409    42.4954   628.5253 </r>
       <r>    -1.8360    32.1950   631.9030 </r>
       <r>    -1.7311    34.5597   635.5288 </r>
       <r>    -1.6262    47.8324   640.5471 </r>
       <r>    -1.5213    38.8182   644.6197 </r>
       <r>    -1.4163    17.0464   646.4081 </r>
       <r>    -1.3114    14.0094   647.8779 </r>
       <r>    -1.2065    19.9852   649.9746 </r>
       <r>    -1.1016    26.7638   652.7825 </r>
       <r>    -0.9967    53.5228   658.3978 </r>
       <r>    -0.8918    69.6059   665.7004 </r>
       <r>    -0.7869    41.6344   670.0685 </r>
       <r>    -0.6819    13.0658   671.4393 </r>
       <r>    -0.5770     4.8934   671.9527 </r>
       <r>    -0.4721     0.9300   672.0502 </r>
       <r>    -0.3672    -0.5223   671.9954 </r>
       <r>    -0.2623    -0.0595   671.9892 </r>
       <r>    -0.1574     0.0786   671.9974 </r>
       <r>    -0.0525     0.0221   671.9998 </r>
       <r>     0.0525     0.0023   672.0000 </r>
       <r>     0.1574     0.0001   672.0000 </r>
       <r>     0.2623     0.0000   672.0000 </r>
       <r>     0.3672     0.0000   672.0000 </r>
       <r>     0.4721     0.0000   672.0000 </r>
       <r>     0.5770     0.0000   672.0000 </r>
       <r>     0.6819     0.0000   672.0000 </r>
       <r>     0.7869     0.0000   672.0000 </r>
       <r>     0.8918     0.0000   672.0000 </r>
       <r>     0.9967     0.0000   672.0000 </r>
       <r>     1.1016     0.0000   672.0000 </r>
       <r>     1.2065     0.0000   672.0000 </r>
       <r>     1.3114     0.0000   672.0000 </r>
      </set>
     </set>
    </array>
   </total>
  </dos>
 </calculation>
 <structure name="finalpos" >
  <crystal>
   <varray name="basis" >
    <v>      30.00000000       0.00000000       0.00000000 </v>
    <v>       0.00000000      30.00000000       0.00000000 </v>
    <v>       0.00000000       0.00000000      30.00000000 </v>
   </varray>
   <i name="volume">  27000.00000000 </i>
   <varray name="rec_basis" >
    <v>       0.03333333       0.00000000       0.00000000 </v>
    <v>       0.00000000       0.03333333       0.00000000 </v>
    <v>       0.00000000       0.00000000       0.03333333 </v>
   </varray>
  </crystal>
  <varray name="positions" >
   <v>       0.44576020       0.32826710       0.41691983 </v>
   <v>       0.67173288       0.55423978       0.41691983 </v>
   <v>       0.55423980       0.32826710       0.41691983 </v>
   <v>       0.32826712       0.55423978       0.41691983 </v>
   <v>       0.50000000       0.38250690       0.34021317 </v>
   <v>       0.50000000       0.38250690       0.65978680 </v>
   <v>       0.50000000       0.27609440       0.50000000 </v>
   <v>       0.27609443       0.49999998       0.50000000 </v>
   <v>       0.72390557       0.49999998       0.50000000 </v>
   <v>       0.50000000       0.72390555       0.50000000 </v>
   <v>       0.61195280       0.38804720       0.34167483 </v>
   <v>       0.61195280       0.38804720       0.65832513 </v>
   <v>       0.38804722       0.61195278       0.34167483 </v>
   <v>       0.38804722       0.61195278       0.65832513 </v>
   <v>       0.38804720       0.38804720       0.34167483 </v>
   <v>       0.38804720       0.38804720       0.65832513 </v>
   <v>       0.61195278       0.61195278       0.34167483 </v>
   <v>       0.61195278       0.61195278       0.65832513 </v>
   <v>       0.44576020       0.32826710       0.58308023 </v>
   <v>       0.67173288       0.55423978       0.58308023 </v>
   <v>       0.55791699       0.44208301       0.41809300 </v>
   <v>       0.32826705       0.44576024       0.41691983 </v>
   <v>       0.55423973       0.67173293       0.41691983 </v>
   <v>       0.55423980       0.32826710       0.58308023 </v>
   <v>       0.32826712       0.55423978       0.58308023 </v>
   <v>       0.67173295       0.44576024       0.41691983 </v>
   <v>       0.44576027       0.67173293       0.41691983 </v>
   <v>       0.44208301       0.44208301       0.41809300 </v>
   <v>       0.50000000       0.38416601       0.50000000 </v>
   <v>       0.61749315       0.50000005       0.34021317 </v>
   <v>       0.61749315       0.50000005       0.65978680 </v>
   <v>       0.38250685       0.50000005       0.34021317 </v>
   <v>       0.38250685       0.50000005       0.65978680 </v>
   <v>       0.38317830       0.38317830       0.50000000 </v>
   <v>       0.61682172       0.61682172       0.50000000 </v>
   <v>       0.61682170       0.38317830       0.50000000 </v>
   <v>       0.38317828       0.61682172       0.50000000 </v>
   <v>       0.50000000       0.50000000       0.33478917 </v>
   <v>       0.50000000       0.50000000       0.66521087 </v>
   <v>       0.32826705       0.44576024       0.58308023 </v>
   <v>       0.55423973       0.67173293       0.58308023 </v>
   <v>       0.55791699       0.44208301       0.58190703 </v>
   <v>       0.44208298       0.55791702       0.41809300 </v>
   <v>       0.44208301       0.44208301       0.58190703 </v>
   <v>       0.67173295       0.44576024       0.58308023 </v>
   <v>       0.44576027       0.67173293       0.58308023 </v>
   <v>       0.55791702       0.55791702       0.41809300 </v>
   <v>       0.38416599       0.50000002       0.50000000 </v>
   <v>       0.61583401       0.50000002       0.50000000 </v>
   <v>       0.50000000       0.61749319       0.34021317 </v>
   <v>       0.50000000       0.61749319       0.65978680 </v>
   <v>       0.50000000       0.50000000       0.50000000 </v>
   <v>       0.44208298       0.55791702       0.58190703 </v>
   <v>       0.55791702       0.55791702       0.58190703 </v>
   <v>       0.50000000       0.61583404       0.50000000 </v>
   <v>       0.53795917       0.27728700       0.40226050 </v>
   <v>       0.54375727       0.24326850       0.38733120 </v>
  </varray>
  <varray name="selective"  type="logical" >
   <v type="logical" >  F  F  F </v>
   <v type="logical" >  F  F  F </v>
   <v type="logical" >  F  F  F </v>
   <v type="logical" >  F  F  F </v>
   <v type="logical" >  F  F  F </v>
   <v type="logical" >  F  F  F </v>
   <v type="logical" >  F  F  F </v>
   <v type="logical" >  F  F  F </v>
   <v type="logical" >  F  F  F </v>
   <v type="logical" >  F  F  F </v>
   <v type="logical" >  F  F  F </v>
   <v type="logical" >  F  F  F </v>
   <v type="logical" >  F  F  F </v>
   <v type="logical" >  F  F  F </v>
   <v type="logical" >  F  F  F </v>
   <v type="logical" >  F  F  F </v>
   <v type="logical" >  F  F  F </v>
   <v type="logical" >  F  F  F </v>
   <v type="logical" >  F  F  F </v>
   <v type="logical" >  F  F  F </v>
   <v type="logical" >  F  F  F </v>
   <v type="logical" >  F  F  F </v>
   <v type="logical" >  F  F  F </v>
   <v type="logical" >  F  F  F </v>
   <v type="logical" >  F  F  F </v>
   <v type="logical" >  F  F  F </v>
   <v type="logical" >  F  F  F </v>
   <v type="logical" >  F  F  F </v>
   <v type="logical" >  F  F  F </v>
   <v type="logical" >  F  F  F </v>
   <v type="logical" >  F  F  F </v>
   <v type="logical" >  F  F  F </v>
   <v type="logical" >  F  F  F </v>
   <v type="logical" >  F  F  F </v>
   <v type="logical" >  F  F  F </v>
   <v type="logical" >  F  F  F </v>
   <v type="logical" >  F  F  F </v>
   <v type="logical" >  F  F  F </v>
   <v type="logical" >  F  F  F </v>
   <v type="logical" >  F  F  F </v>
   <v type="logical" >  F  F  F </v>
   <v type="logical" >  F  F  F </v>
   <v type="logical" >  F  F  F </v>
   <v type="logical" >  F  F  F </v>
   <v type="logical" >  F  F  F </v>
   <v type="logical" >  F  F  F </v>
   <v type="logical" >  F  F  F </v>
   <v type="logical" >  F  F  F </v>
   <v type="logical" >  F  F  F </v>
   <v type="logical" >  F  F  F </v>
   <v type="logical" >  F  F  F </v>
   <v type="logical" >  F  F  F </v>
   <v type="logical" >  F  F  F </v>
   <v type="logical" >  F  F  F </v>
   <v type="logical" >  F  F  F </v>
   <v type="logical" >  F  F  F </v>
   <v type="logical" >  F  F  F </v>
  </varray>
  <nose>
   <v>      -3.00000000       0.00000000       0.00010000       0.00010000 </v>
  </nose>
 </structure>
</modeling>
