 vasp.5.4.4.18Apr17-6-g9f103f2a35 (build Sep 03 2018 23:53:05) complex          
  
 executed on             LinuxIFC date 2021.11.26  18:25:39
 running on    1 total cores
 distrk:  each k-point on    1 cores,    1 groups
 distr:  one band on NCORES_PER_BAND=   1 cores,    1 groups


--------------------------------------------------------------------------------------------------------


 INCAR:
 POTCAR:    PAW_PBE Pd 04Jan2005                  
 POTCAR:    PAW_PBE C 08Apr2002                   
 POTCAR:    PAW_PBE O 08Apr2002                   
 POTCAR:    PAW_PBE Pd 04Jan2005                  
   VRHFIN =Pd : s1 d9                                                           
   LEXCH  = PE                                                                  
   EATOM  =   809.7530 eV,   59.5152 Ry                                         
                                                                                
   TITEL  = PAW_PBE Pd 04Jan2005                                                
   LULTRA =        F    use ultrasoft PP ?                                      
   IUNSCR =        1    unscreen: 0-lin 1-nonlin 2-no                           
   RPACOR =    2.000    partial core radius                                     
   POMASS =  106.420; ZVAL   =   10.000    mass and valenz                      
   RCORE  =    2.600    outmost cutoff radius                                   
   RWIGS  =    2.710; RWIGS  =    1.434    wigner-seitz radius (au A)           
   ENMAX  =  250.925; ENMIN  =  188.194 eV                                      
   ICORE  =        3    local potential                                         
   LCOR   =        T    correct aug charges                                     
   LPAW   =        T    paw PP                                                  
   EAUG   =  416.230                                                            
   DEXC   =    0.000                                                            
   RMAX   =    2.653    core radius for proj-oper                               
   RAUG   =    1.300    factor for augmentation sphere                          
   RDEP   =    2.734    radius for radial grids                                 
   RDEPT  =    2.103    core radius for aug-charge                              
                                                                                
   Atomic configuration                                                         
   12 entries                                                                   
     n  l   j            E        occ.                                          
     1  0  0.50    -24164.6631   2.0000                                         
     2  0  0.50     -3530.9218   2.0000                                         
     2  1  1.50     -3165.6822   6.0000                                         
     3  0  0.50      -639.4577   2.0000                                         
     3  1  1.50      -519.4532   6.0000                                         
     3  2  2.50      -328.9757  10.0000                                         
     4  0  0.50       -88.7014   2.0000                                         
     4  1  1.50       -54.4540   6.0000                                         
     4  2  2.50        -6.6878   9.0000                                         
     5  0  0.50        -4.3543   1.0000                                         
     5  1  0.50        -1.3606   0.0000                                         
     4  3  2.50        -1.3606   0.0000                                         
   Description                                                                  
     l       E           TYP  RCUT    TYP  RCUT                                 
     2     -6.6878251     23  2.400                                             
     2     -8.0484077     23  2.400                                             
     0     -4.3542939     23  2.400                                             
     0      4.3406793     23  2.400                                             
     1     -4.0817478     23  2.600                                             
     1     15.8380318     23  2.600                                             
     3     -4.0817478     23  2.400                                             
  local pseudopotential read in
  partial core-charges read in
  partial kinetic energy density read in
  atomic valenz-charges read in
  non local Contribution for L=           2  read in
    real space projection operators read in
  non local Contribution for L=           2  read in
    real space projection operators read in
  non local Contribution for L=           0  read in
    real space projection operators read in
  non local Contribution for L=           0  read in
    real space projection operators read in
  non local Contribution for L=           1  read in
    real space projection operators read in
  non local Contribution for L=           1  read in
    real space projection operators read in
    PAW grid and wavefunctions read in
 
   number of l-projection  operators is LMAX  =           6
   number of lm-projection operators is LMMAX =          18
 
 POTCAR:    PAW_PBE C 08Apr2002                   
   VRHFIN =C: s2p2                                                              
   LEXCH  = PE                                                                  
   EATOM  =   147.1560 eV,   10.8157 Ry                                         
                                                                                
   TITEL  = PAW_PBE C 08Apr2002                                                 
   LULTRA =        F    use ultrasoft PP ?                                      
   IUNSCR =        1    unscreen: 0-lin 1-nonlin 2-no                           
   RPACOR =    1.200    partial core radius                                     
   POMASS =   12.011; ZVAL   =    4.000    mass and valenz                      
   RCORE  =    1.500    outmost cutoff radius                                   
   RWIGS  =    1.630; RWIGS  =    0.863    wigner-seitz radius (au A)           
   ENMAX  =  400.000; ENMIN  =  300.000 eV                                      
   ICORE  =        2    local potential                                         
   LCOR   =        T    correct aug charges                                     
   LPAW   =        T    paw PP                                                  
   EAUG   =  644.873                                                            
   DEXC   =    0.000                                                            
   RMAX   =    1.529    core radius for proj-oper                               
   RAUG   =    1.300    factor for augmentation sphere                          
   RDEP   =    1.501    radius for radial grids                                 
   RDEPT  =    1.300    core radius for aug-charge                              
                                                                                
   Atomic configuration                                                         
    4 entries                                                                   
     n  l   j            E        occ.                                          
     1  0  0.50      -273.3789   2.0000                                         
     2  0  0.50       -13.7508   2.0000                                         
     2  1  0.50        -5.2854   2.0000                                         
     3  2  1.50        -5.4423   0.0000                                         
   Description                                                                  
     l       E           TYP  RCUT    TYP  RCUT                                 
     0    -13.7508458     23  1.200                                             
     0     -8.2022199     23  1.200                                             
     1     -5.2854383     23  1.500                                             
     1     34.0145650     23  1.500                                             
     2     -5.4423304      7  1.500                                             
  local pseudopotential read in
  partial core-charges read in
  partial kinetic energy density read in
  atomic valenz-charges read in
  non local Contribution for L=           0  read in
    real space projection operators read in
  non local Contribution for L=           0  read in
    real space projection operators read in
  non local Contribution for L=           1  read in
    real space projection operators read in
  non local Contribution for L=           1  read in
    real space projection operators read in
    PAW grid and wavefunctions read in
 
   number of l-projection  operators is LMAX  =           4
   number of lm-projection operators is LMMAX =           8
 
 POTCAR:    PAW_PBE O 08Apr2002                   
   VRHFIN =O: s2p4                                                              
   LEXCH  = PE                                                                  
   EATOM  =   432.3788 eV,   31.7789 Ry                                         
                                                                                
   TITEL  = PAW_PBE O 08Apr2002                                                 
   LULTRA =        F    use ultrasoft PP ?                                      
   IUNSCR =        1    unscreen: 0-lin 1-nonlin 2-no                           
   RPACOR =    1.200    partial core radius                                     
   POMASS =   16.000; ZVAL   =    6.000    mass and valenz                      
   RCORE  =    1.520    outmost cutoff radius                                   
   RWIGS  =    1.550; RWIGS  =    0.820    wigner-seitz radius (au A)           
   ENMAX  =  400.000; ENMIN  =  300.000 eV                                      
   ICORE  =        2    local potential                                         
   LCOR   =        T    correct aug charges                                     
   LPAW   =        T    paw PP                                                  
   EAUG   =  605.392                                                            
   DEXC   =    0.000                                                            
   RMAX   =    1.553    core radius for proj-oper                               
   RAUG   =    1.300    factor for augmentation sphere                          
   RDEP   =    1.550    radius for radial grids                                 
   RDEPT  =    1.329    core radius for aug-charge                              
                                                                                
   Atomic configuration                                                         
    4 entries                                                                   
     n  l   j            E        occ.                                          
     1  0  0.50      -514.6923   2.0000                                         
     2  0  0.50       -23.9615   2.0000                                         
     2  1  0.50        -9.0305   4.0000                                         
     3  2  1.50        -9.5241   0.0000                                         
   Description                                                                  
     l       E           TYP  RCUT    TYP  RCUT                                 
     0    -23.9615318     23  1.200                                             
     0     -9.5240782     23  1.200                                             
     1     -9.0304911     23  1.520                                             
     1      8.1634956     23  1.520                                             
     2     -9.5240782      7  1.500                                             
  local pseudopotential read in
  partial core-charges read in
  partial kinetic energy density read in
  kinetic energy density of atom read in
  atomic valenz-charges read in
  non local Contribution for L=           0  read in
    real space projection operators read in
  non local Contribution for L=           0  read in
    real space projection operators read in
  non local Contribution for L=           1  read in
    real space projection operators read in
  non local Contribution for L=           1  read in
    real space projection operators read in
    PAW grid and wavefunctions read in
 
   number of l-projection  operators is LMAX  =           4
   number of lm-projection operators is LMMAX =           8
 
 Optimization of the real space projectors (new method)

 maximal supplied QI-value         = 14.36
 optimisation between [QCUT,QGAM] = [ 10.20, 20.39] = [ 29.12,116.47] Ry 
 Optimized for a Real-space Cutoff    1.51 Angstroem

   l    n(q)    QCUT    max X(q) W(low)/X(q) W(high)/X(q)  e(spline) 
   2      8    10.197    59.108    0.26E-03    0.14E-03    0.96E-07
   2      8    10.197    58.101    0.27E-03    0.14E-03    0.98E-07
   0      9    10.197   102.235    0.54E-04    0.60E-05    0.72E-07
   0      9    10.197    58.388    0.52E-04    0.60E-05    0.68E-07
   1      9    10.197    22.191    0.18E-03    0.25E-03    0.79E-07
   1      9    10.197    15.590    0.15E-03    0.21E-03    0.69E-07
 Optimization of the real space projectors (new method)

 maximal supplied QI-value         = 25.13
 optimisation between [QCUT,QGAM] = [ 10.05, 20.36] = [ 28.30,116.06] Ry 
 Optimized for a Real-space Cutoff    1.30 Angstroem

   l    n(q)    QCUT    max X(q) W(low)/X(q) W(high)/X(q)  e(spline) 
   0      8    10.053   115.676    0.49E-03    0.72E-03    0.18E-06
   0      8    10.053    87.132    0.49E-03    0.71E-03    0.18E-06
   1      7    10.053     4.429    0.32E-03    0.31E-03    0.18E-06
   1      7    10.053     2.733    0.23E-03    0.19E-03    0.20E-06
 Optimization of the real space projectors (new method)

 maximal supplied QI-value         = 24.76
 optimisation between [QCUT,QGAM] = [ 10.15, 20.30] = [ 28.85,115.39] Ry 
 Optimized for a Real-space Cutoff    1.38 Angstroem

   l    n(q)    QCUT    max X(q) W(low)/X(q) W(high)/X(q)  e(spline) 
   0      8    10.150    20.381    0.22E-03    0.32E-03    0.29E-06
   0      8    10.150    15.268    0.23E-03    0.35E-03    0.30E-06
   1      8    10.150     5.964    0.46E-03    0.53E-03    0.21E-06
   1      8    10.150     5.382    0.38E-03    0.45E-03    0.19E-06

 ----------------------------------------------------------------------------- 
|                                                                             |
|  ADVICE TO THIS USER RUNNING 'VASP/VAMP'   (HEAR YOUR MASTER'S VOICE ...):  |
|                                                                             |
|      You enforced a specific xc-type in the INCAR file,                     |
|      a different type was found on the POTCAR file                          |
|          I HOPE YOU KNOW, WHAT YOU ARE  DOING                               |
|                                                                             |
 ----------------------------------------------------------------------------- 

  PAW_PBE Pd 04Jan2005                  :
 energy of atom  1       EATOM= -809.7530
 kinetic energy error for atom=    0.0091 (will be added to EATOM!!)
  PAW_PBE C 08Apr2002                   :
 energy of atom  2       EATOM= -147.1560
 kinetic energy error for atom=    0.0288 (will be added to EATOM!!)
  PAW_PBE O 08Apr2002                   :
 energy of atom  3       EATOM= -432.3788
 kinetic energy error for atom=    0.1156 (will be added to EATOM!!)
 
 
 POSCAR: Pd55PES                                 
  positions in cartesian coordinates
  No initial velocities read in
 exchange correlation table for  LEXCH =        9
   RHO(1)=    0.500       N(1)  =     2000
   RHO(2)=  100.500       N(2)  =     4000
 


--------------------------------------------------------------------------------------------------------


 ion  position               nearest neighbor table
   1  0.446  0.328  0.417-   3 3.25   5 3.25   7 3.36  15 3.36  29 3.42  28 3.42
   2  0.672  0.554  0.417-  26 3.25  30 3.25  17 3.36   9 3.36  47 3.42  49 3.42
   3  0.554  0.328  0.417-   1 3.25   5 3.25   7 3.36  11 3.36  29 3.42  21 3.42
   4  0.328  0.554  0.417-  32 3.25  22 3.25  13 3.36   8 3.36  43 3.42  48 3.42
   5  0.500  0.383  0.340-   1 3.25   3 3.25  11 3.36  15 3.36  21 3.42  28 3.42
   6  0.500  0.383  0.660-  24 3.25  19 3.25  16 3.36  12 3.36  42 3.42  44 3.42
   7  0.500  0.276  0.500-  29 3.24   3 3.36   1 3.36  19 3.36  24 3.36
   8  0.276  0.500  0.500-  48 3.24  22 3.36  40 3.36   4 3.36  25 3.36
   9  0.724  0.500  0.500-  49 3.24  26 3.36  45 3.36   2 3.36  20 3.36
  10  0.500  0.724  0.500-  55 3.24  27 3.36  23 3.36  46 3.36  41 3.36
  11  0.612  0.388  0.342-  21 3.24   5 3.36   3 3.36  30 3.36  26 3.36
  12  0.612  0.388  0.658-  42 3.24  24 3.36  45 3.36   6 3.36  31 3.36
  13  0.388  0.612  0.342-  43 3.24  32 3.36  50 3.36   4 3.36  27 3.36
  14  0.388  0.612  0.658-  56 1.84  57 2.20  53 3.24  25 3.36  33 3.36  51 3.36  46 3.36
  15  0.388  0.388  0.342-  28 3.24   5 3.36   1 3.36  32 3.36  22 3.36
  16  0.388  0.388  0.658-  44 3.24  19 3.36  40 3.36   6 3.36  33 3.36
  17  0.612  0.612  0.342-  47 3.24  30 3.36  50 3.36   2 3.36  23 3.36
  18  0.612  0.612  0.658-  54 3.24  31 3.36  20 3.36  51 3.36  41 3.36
  19  0.446  0.328  0.583-   6 3.25  24 3.25  16 3.36   7 3.36  44 3.42  29 3.42
  20  0.672  0.554  0.583-  31 3.25  45 3.25  18 3.36   9 3.36  54 3.42  49 3.42
  21  0.558  0.442  0.418-  11 3.24   5 3.42   3 3.42  30 3.42  26 3.42
  22  0.328  0.446  0.417-   4 3.25  32 3.25   8 3.36  15 3.36  48 3.42  28 3.42
  23  0.554  0.672  0.417-  27 3.25  50 3.25  10 3.36  17 3.36  55 3.42  47 3.42
  24  0.554  0.328  0.583-   6 3.25  19 3.25  12 3.36   7 3.36  42 3.42  29 3.42
  25  0.328  0.554  0.583-  33 3.25  40 3.25  14 3.36   8 3.36  53 3.42  48 3.42
  26  0.672  0.446  0.417-   2 3.25  30 3.25   9 3.36  11 3.36  49 3.42  21 3.42
  27  0.446  0.672  0.417-  23 3.25  50 3.25  10 3.36  13 3.36  55 3.42  43 3.42
  28  0.442  0.442  0.418-  15 3.24   5 3.42   1 3.42  32 3.42  22 3.42
  29  0.500  0.384  0.500-   7 3.24   3 3.42   1 3.42  24 3.42  19 3.42
  30  0.617  0.500  0.340-   2 3.25  26 3.25  17 3.36  11 3.36  47 3.42  21 3.42
  31  0.617  0.500  0.660-  20 3.25  45 3.25  18 3.36  12 3.36  54 3.42  42 3.42
  32  0.383  0.500  0.340-   4 3.25  22 3.25  13 3.36  15 3.36  43 3.42  28 3.42
  33  0.383  0.500  0.660-  25 3.25  40 3.25  14 3.36  16 3.36  53 3.42  44 3.42
  34  0.383  0.383  0.500-
  35  0.617  0.617  0.500-
  36  0.617  0.383  0.500-
  37  0.383  0.617  0.500-
  38  0.500  0.500  0.335-
  39  0.500  0.500  0.665-
  40  0.328  0.446  0.583-  33 3.25  25 3.25  16 3.36   8 3.36  44 3.42  48 3.42
  41  0.554  0.672  0.583-  46 3.25  51 3.25  10 3.36  18 3.36  54 3.42  55 3.42
  42  0.558  0.442  0.582-  12 3.24   6 3.42  24 3.42  31 3.42  45 3.42
  43  0.442  0.558  0.418-  13 3.24   4 3.42  32 3.42  27 3.42  50 3.42
  44  0.442  0.442  0.582-  16 3.24   6 3.42  19 3.42  33 3.42  40 3.42
  45  0.672  0.446  0.583-  20 3.25  31 3.25   9 3.36  12 3.36  49 3.42  42 3.42
  46  0.446  0.672  0.583-  56 2.51  41 3.25  51 3.25  10 3.36  14 3.36  53 3.42  55 3.42
  47  0.558  0.558  0.418-  17 3.24   2 3.42  30 3.42  23 3.42  50 3.42
  48  0.384  0.500  0.500-   8 3.24   4 3.42  22 3.42  25 3.42  40 3.42
  49  0.616  0.500  0.500-   9 3.24   2 3.42  26 3.42  20 3.42  45 3.42
  50  0.500  0.617  0.340-  27 3.25  23 3.25  13 3.36  17 3.36  43 3.42  47 3.42
  51  0.500  0.617  0.660-  41 3.25  46 3.25  14 3.36  18 3.36  53 3.42  54 3.42
  52  0.500  0.500  0.500-
  53  0.442  0.558  0.582-  14 3.24  25 3.42  33 3.42  51 3.42  46 3.42
  54  0.558  0.558  0.582-  18 3.24  31 3.42  20 3.42  51 3.42  41 3.42
  55  0.500  0.616  0.500-  10 3.24  23 3.42  27 3.42  41 3.42  46 3.42
  56  0.372  0.640  0.606-  57 1.13  14 1.84  46 2.51
  57  0.350  0.664  0.625-  56 1.13  14 2.20
 
  LATTYP: Found a simple cubic cell.
 ALAT       =    30.0000000000
  
  Lattice vectors:
  
 A1 = (  30.0000000000,   0.0000000000,   0.0000000000)
 A2 = (   0.0000000000,  30.0000000000,   0.0000000000)
 A3 = (   0.0000000000,   0.0000000000,  30.0000000000)


Analysis of symmetry for initial positions (statically):
=====================================================================
 Subroutine PRICEL returns:
 Original cell was already a primitive cell.
 

 Routine SETGRP: Setting up the symmetry group for a 
 simple cubic supercell.


 Subroutine GETGRP returns: Found  1 space group operations
 (whereof  1 operations were pure point group operations)
 out of a pool of 48 trial point group operations.


The static configuration has the point symmetry C_1 .


Analysis of symmetry for dynamics (positions and initial velocities):
=====================================================================
 Subroutine PRICEL returns:
 Original cell was already a primitive cell.
 

 Routine SETGRP: Setting up the symmetry group for a 
 simple cubic supercell.


 Subroutine GETGRP returns: Found  1 space group operations
 (whereof  1 operations were pure point group operations)
 out of a pool of 48 trial point group operations.


The dynamic configuration has the point symmetry C_1 .


Analysis of constrained symmetry for selective dynamics:
=====================================================================
 Subroutine PRICEL returns:
 Original cell was already a primitive cell.
 

 Routine SETGRP: Setting up the symmetry group for a 
 simple cubic supercell.


 Subroutine GETGRP returns: Found  1 space group operations
 (whereof  1 operations were pure point group operations)
 out of a pool of 48 trial point group operations.


The constrained configuration has the point symmetry C_1 .


 Subroutine INISYM returns: Found  1 space group operations
 (whereof  1 operations are pure point group operations),
 and found     1 'primitive' translations

 
 
 KPOINTS: K-points                                

Automatic generation of k-mesh.
Space group operators:
 irot       det(A)        alpha          n_x          n_y          n_z        tau_x        tau_y        tau_z
    1     1.000000     0.000000     1.000000     0.000000     0.000000     0.000000     0.000000     0.000000
 
 Subroutine IBZKPT returns following result:
 ===========================================
 
 Found      1 irreducible k-points:
 
 Following reciprocal coordinates:
            Coordinates               Weight
  0.000000  0.000000  0.000000      1.000000
 
 Following cartesian coordinates:
            Coordinates               Weight
  0.000000  0.000000  0.000000      1.000000
 


--------------------------------------------------------------------------------------------------------




 Dimension of arrays:
   k-points           NKPTS =      1   k-points in BZ     NKDIM =      1   number of bands    NBANDS=    336
   number of dos      NEDOS =    301   number of ions     NIONS =     57
   non local maximal  LDIM  =      6   non local SUM 2l+1 LMDIM =     18
   total plane-waves  NPLWV = ******
   max r-space proj   IRMAX =   1847   max aug-charges    IRDMAX=   6262
   dimension x,y,z NGX =   150 NGY =  150 NGZ =  150
   dimension x,y,z NGXF=   300 NGYF=  300 NGZF=  300
   support grid    NGXF=   300 NGYF=  300 NGZF=  300
   ions per type =              55   1   1
   NGX,Y,Z   is equivalent  to a cutoff of   8.31,  8.31,  8.31 a.u.
   NGXF,Y,Z  is equivalent  to a cutoff of  16.62, 16.62, 16.62 a.u.

 SYSTEM =  6_Pd100_top_free_z(O)                   
 POSCAR =  Pd55PES                                 

 Startparameter for this run:
   NWRITE =      2    write-flag & timer
   PREC   = normal    normal or accurate (medium, high low for compatibility)
   ISTART =      0    job   : 0-new  1-cont  2-samecut
   ICHARG =      2    charge: 1-file 2-atom 10-const
   ISPIN  =      1    spin polarized calculation?
   LNONCOLLINEAR =      F non collinear calculations
   LSORBIT =      F    spin-orbit coupling
   INIWAV =      1    electr: 0-lowe 1-rand  2-diag
   LASPH  =      F    aspherical Exc in radial PAW
   METAGGA=      F    non-selfconsistent MetaGGA calc.

 Electronic Relaxation 1
   ENCUT  =  400.0 eV  29.40 Ry    5.42 a.u.  48.92 48.92 48.92*2*pi/ulx,y,z
   ENINI  =  400.0     initial cutoff
   ENAUG  =  644.9 eV  augmentation charge cutoff
   NELM   =    100;   NELMIN=  6; NELMDL= -5     # of ELM steps 
   EDIFF  = 0.1E-03   stopping-criterion for ELM
   LREAL  =      T    real-space projection
   NLSPLINE    = F    spline interpolate recip. space projectors
   LCOMPAT=      F    compatible to vasp.4.4
   GGA_COMPAT  = T    GGA compatible to vasp.4.4-vasp.4.6
   LMAXPAW     = -100 max onsite density
   LMAXMIX     =    2 max onsite mixed and CHGCAR
   VOSKOWN=      0    Vosko Wilk Nusair interpolation
   ROPT   =   -0.00050  -0.00050  -0.00050
 Ionic relaxation
   EDIFFG = -.5E-01   stopping-criterion for IOM
   NSW    =      0    number of steps for IOM
   NBLOCK =      1;   KBLOCK =      1    inner block; outer block 
   IBRION =     -1    ionic relax: 0-MD 1-quasi-New 2-CG
   NFREE  =      1    steps in history (QN), initial steepest desc. (CG)
   ISIF   =      2    stress and relaxation
   IWAVPR =     10    prediction:  0-non 1-charg 2-wave 3-comb
   ISYM   =      2    0-nonsym 1-usesym 2-fastsym
   LCORR  =      T    Harris-Foulkes like correction to forces

   POTIM  = 0.5000    time-step for ionic-motion
   TEIN   =    0.0    initial temperature
   TEBEG  =    0.0;   TEEND  =   0.0 temperature during run
   SMASS  =  -3.00    Nose mass-parameter (am)
   estimated Nose-frequenzy (Omega)   =  0.10E-29 period in steps =****** mass=  -0.206E-25a.u.
   SCALEE = 1.0000    scale energy and forces
   NPACO  =    256;   APACO  = 16.0  distance and # of slots for P.C.
   PSTRESS=    0.0 pullay stress

  Mass of Ions in am
   POMASS = 106.42 12.01 16.00
  Ionic Valenz
   ZVAL   =  10.00  4.00  6.00
  Atomic Wigner-Seitz radii
   RWIGS  =  -1.00 -1.00 -1.00
  virtual crystal weights 
   VCA    =   1.00  1.00  1.00
   NELECT =     560.0000    total number of electrons
   NUPDOWN=      -1.0000    fix difference up-down

 DOS related values:
   EMIN   =  10.00;   EMAX   =-10.00  energy-range for DOS
   EFERMI =   0.00
   ISMEAR =     2;   SIGMA  =   0.20  broadening in eV -4-tet -1-fermi 0-gaus

 Electronic relaxation 2 (details)
   IALGO  =     68    algorithm
   LDIAG  =      T    sub-space diagonalisation (order eigenvalues)
   LSUBROT=      F    optimize rotation matrix (better conditioning)
   TURBO    =      0    0=normal 1=particle mesh
   IRESTART =      0    0=no restart 2=restart with 2 vectors
   NREBOOT  =      0    no. of reboots
   NMIN     =      0    reboot dimension
   EREF     =   0.00    reference energy to select bands
   IMIX   =      4    mixing-type and parameters
     AMIX     =   0.40;   BMIX     =  1.00
     AMIX_MAG =   1.60;   BMIX_MAG =  1.00
     AMIN     =   0.10
     WC   =   100.;   INIMIX=   1;  MIXPRE=   1;  MAXMIX= -45

 Intra band minimization:
   WEIMIN = 0.0000     energy-eigenvalue tresh-hold
   EBREAK =  0.74E-07  absolut break condition
   DEPER  =   0.30     relativ break condition  

   TIME   =   0.40     timestep for ELM

  volume/ion in A,a.u.               =     473.68      3196.58
  Fermi-wavevector in a.u.,A,eV,Ry     =   0.449797  0.849992  2.752691  0.202317
  Thomas-Fermi vector in A             =   1.430086
 
 Write flags
   LWAVE        =      F    write WAVECAR
   LDOWNSAMPLE  =      F    k-point downsampling of WAVECAR
   LCHARG       =      F    write CHGCAR
   LVTOT        =      F    write LOCPOT, total local potential
   LVHAR        =      F    write LOCPOT, Hartree potential only
   LELF         =      F    write electronic localiz. function (ELF)
   LORBIT       =      0    0 simple, 1 ext, 2 COOP (PROOUT), +10 PAW based schemes


 Dipole corrections
   LMONO  =      F    monopole corrections only (constant potential shift)
   LDIPOL =      F    correct potential (dipole corrections)
   IDIPOL =      0    1-x, 2-y, 3-z, 4-all directions 
   EPSILON=  1.0000000 bulk dielectric constant

 Exchange correlation treatment:
   GGA     =    RP    GGA type
   LEXCH   =     9    internal setting for exchange type
   VOSKOWN=      0    Vosko Wilk Nusair interpolation
   LHFCALC =     F    Hartree Fock is set to
   LHFONE  =     F    Hartree Fock one center treatment
   AEXX    =    0.0000 exact exchange contribution

 Linear response parameters
   LEPSILON=     F    determine dielectric tensor
   LRPA    =     F    only Hartree local field effects (RPA)
   LNABLA  =     F    use nabla operator in PAW spheres
   LVEL    =     F    velocity operator in full k-point grid
   LINTERFAST=   F  fast interpolation
   KINTER  =     0    interpolate to denser k-point grid
   CSHIFT  =0.1000    complex shift for real part using Kramers Kronig
   OMEGAMAX=  -1.0    maximum frequency
   DEG_THRESHOLD= 0.2000000E-02 threshold for treating states as degnerate
   RTIME   =   -0.100 relaxation time in fs
  (WPLASMAI=    0.000 imaginary part of plasma frequency in eV, 0.658/RTIME)
   DFIELD  = 0.0000000 0.0000000 0.0000000 field for delta impulse in time
 
 Orbital magnetization related:
   ORBITALMAG=     F  switch on orbital magnetization
   LCHIMAG   =     F  perturbation theory with respect to B field
   DQ        =  0.001000  dq finite difference perturbation B field
   LLRAUG    =     F  two centre corrections for induced B field



--------------------------------------------------------------------------------------------------------


 Static calculation
 charge density and potential will be updated during run
 non-spin polarized calculation
 RMM-DIIS sequential band-by-band and
  variant of blocked Davidson during initial phase
 perform sub-space diagonalisation
    before iterative eigenvector-optimisation
 modified Broyden-mixing scheme, WC =      100.0
 initial mixing is a Kerker type mixing with AMIX =  0.4000 and BMIX =      1.0000
 Hartree-type preconditioning will be used
 using additional bands           56
 real space projection scheme for non local part
 use partial core corrections
 calculate Harris-corrections to forces 
   (improved forces if not selfconsistent)
 use gradient corrections 
 use of overlap-Matrix (Vanderbilt PP)
 Methfessel and Paxton  Order N= 2 SIGMA  =   0.20


--------------------------------------------------------------------------------------------------------


  energy-cutoff  :      400.00
  volume of cell :    27000.00
      direct lattice vectors                 reciprocal lattice vectors
    30.000000000  0.000000000  0.000000000     0.033333333  0.000000000  0.000000000
     0.000000000 30.000000000  0.000000000     0.000000000  0.033333333  0.000000000
     0.000000000  0.000000000 30.000000000     0.000000000  0.000000000  0.033333333

  length of vectors
    30.000000000 30.000000000 30.000000000     0.033333333  0.033333333  0.033333333


 
 k-points in units of 2pi/SCALE and weight: K-points                                
   0.00000000  0.00000000  0.00000000       1.000
 
 k-points in reciprocal lattice and weights: K-points                                
   0.00000000  0.00000000  0.00000000       1.000
 
 position of ions in fractional coordinates (direct lattice) 
   0.44576020  0.32826710  0.41691983
   0.67173288  0.55423978  0.41691983
   0.55423980  0.32826710  0.41691983
   0.32826712  0.55423978  0.41691983
   0.50000000  0.38250690  0.34021317
   0.50000000  0.38250690  0.65978680
   0.50000000  0.27609440  0.50000000
   0.27609443  0.49999998  0.50000000
   0.72390557  0.49999998  0.50000000
   0.50000000  0.72390555  0.50000000
   0.61195280  0.38804720  0.34167483
   0.61195280  0.38804720  0.65832513
   0.38804722  0.61195278  0.34167483
   0.38804722  0.61195278  0.65832513
   0.38804720  0.38804720  0.34167483
   0.38804720  0.38804720  0.65832513
   0.61195278  0.61195278  0.34167483
   0.61195278  0.61195278  0.65832513
   0.44576020  0.32826710  0.58308023
   0.67173288  0.55423978  0.58308023
   0.55791699  0.44208301  0.41809300
   0.32826705  0.44576024  0.41691983
   0.55423973  0.67173293  0.41691983
   0.55423980  0.32826710  0.58308023
   0.32826712  0.55423978  0.58308023
   0.67173295  0.44576024  0.41691983
   0.44576027  0.67173293  0.41691983
   0.44208301  0.44208301  0.41809300
   0.50000000  0.38416601  0.50000000
   0.61749315  0.50000005  0.34021317
   0.61749315  0.50000005  0.65978680
   0.38250685  0.50000005  0.34021317
   0.38250685  0.50000005  0.65978680
   0.38317830  0.38317830  0.50000000
   0.61682172  0.61682172  0.50000000
   0.61682170  0.38317830  0.50000000
   0.38317828  0.61682172  0.50000000
   0.50000000  0.50000000  0.33478917
   0.50000000  0.50000000  0.66521087
   0.32826705  0.44576024  0.58308023
   0.55423973  0.67173293  0.58308023
   0.55791699  0.44208301  0.58190703
   0.44208298  0.55791702  0.41809300
   0.44208301  0.44208301  0.58190703
   0.67173295  0.44576024  0.58308023
   0.44576027  0.67173293  0.58308023
   0.55791702  0.55791702  0.41809300
   0.38416599  0.50000002  0.50000000
   0.61583401  0.50000002  0.50000000
   0.50000000  0.61749319  0.34021317
   0.50000000  0.61749319  0.65978680
   0.50000000  0.50000000  0.50000000
   0.44208298  0.55791702  0.58190703
   0.55791702  0.55791702  0.58190703
   0.50000000  0.61583404  0.50000000
   0.37171553  0.64022410  0.60645190
   0.34957257  0.66442797  0.62482637
 
 position of ions in cartesian coordinates  (Angst):
  13.37280588  9.84801292 12.50759500
  20.15198637 16.62719342 12.50759500
  16.62719412  9.84801292 12.50759500
   9.84801363 16.62719342 12.50759500
  15.00000000 11.47520705 10.20639500
  15.00000000 11.47520705 19.79360400
  15.00000000  8.28283206 15.00000000
   8.28283277 14.99999929 15.00000000
  21.71716723 14.99999929 15.00000000
  15.00000000 21.71716652 14.99999999
  18.35858397 11.64141603 10.25024500
  18.35858397 11.64141603 19.74975399
  11.64141674 18.35858326 10.25024500
  11.64141674 18.35858326 19.74975400
  11.64141603 11.64141603 10.25024500
  11.64141603 11.64141603 19.74975400
  18.35858326 18.35858326 10.25024500
  18.35858326 18.35858326 19.74975400
  13.37280588  9.84801291 17.49240700
  20.15198638 16.62719341 17.49240700
  16.73750985 13.26249015 12.54279000
   9.84801151 13.37280729 12.50759500
  16.62719200 20.15198779 12.50759500
  16.62719412  9.84801292 17.49240700
   9.84801363 16.62719342 17.49240700
  20.15198849 13.37280729 12.50759500
  13.37280800 20.15198779 12.50759500
  13.26249015 13.26249015 12.54279000
  15.00000000 11.52498029 15.00000000
  18.52479437 15.00000140 10.20639500
  18.52479437 15.00000141 19.79360400
  11.47520562 15.00000141 10.20639501
  11.47520563 15.00000141 19.79360400
  11.49534898 11.49534898 15.00000000
  18.50465172 18.50465172 15.00000000
  18.50465102 11.49534898 15.00000000
  11.49534828 18.50465172 15.00000000
  15.00000000 15.00000000 10.04367500
  15.00000000 15.00000000 19.95632599
   9.84801151 13.37280729 17.49240700
  16.62719200 20.15198779 17.49240700
  16.73750985 13.26249015 17.45721100
  13.26248944 16.73751056 12.54279001
  13.26249015 13.26249015 17.45721100
  20.15198849 13.37280729 17.49240699
  13.37280800 20.15198779 17.49240700
  16.73751056 16.73751056 12.54279000
  11.52497959 15.00000071 15.00000000
  18.47502041 15.00000071 15.00000000
  14.99999999 18.52479579 10.20639500
  15.00000000 18.52479578 19.79360400
  15.00000000 15.00000000 15.00000000
  13.26248944 16.73751057 17.45721101
  16.73751056 16.73751057 17.45721100
  15.00000000 18.47502112 15.00000000
  11.15146600 19.20672300 18.19355700
  10.48717700 19.93283900 18.74479100
 


--------------------------------------------------------------------------------------------------------


 k-point  1 :   0.0000 0.0000 0.0000  plane waves:  490521

 maximum and minimum number of plane-waves per node :    490521   490521

 maximum number of plane-waves:    490521
 maximum index in each direction: 
   IXMAX=   48   IYMAX=   48   IZMAX=   48
   IXMIN=  -48   IYMIN=  -48   IZMIN=  -48


 serial   3D FFT for wavefunctions
 parallel 3D FFT for charge:
    minimum data exchange during FFTs selected (reduces bandwidth)


 total amount of memory used by VASP MPI-rank0  5486942. kBytes
=======================================================================

   base      :      30000. kBytes
   nonlr-proj:      17127. kBytes
   fftplans  :     924480. kBytes
   grid      :    1872000. kBytes
   one-center:        886. kBytes
   wavefun   :    2642449. kBytes
 
     INWAV:  cpu time    0.0002: real time    0.0004
 Broyden mixing: mesh for mixing (old mesh)
   NGX = 97   NGY = 97   NGZ = 97
  (NGX  =300   NGY  =300   NGZ  =300)
  gives a total of 912673 points

 initial charge density was supplied:
 charge density of overlapping atoms calculated
 number of electron     560.0000000 magnetization 
 keeping initial charge density in first step


--------------------------------------------------------------------------------------------------------


 Maximum index for non-local projection operator         1763
 Maximum index for augmentation-charges         5898 (set IRDMAX)


--------------------------------------------------------------------------------------------------------


 First call to EWALD:  gamma=   0.059
 Maximum number of real-space cells 3x 3x 3
 Maximum number of reciprocal cells 3x 3x 3

    FEWALD:  cpu time    0.0209: real time    0.0209


--------------------------------------- Iteration      1(   1)  ---------------------------------------


    POTLOK:  cpu time   19.2632: real time   19.2664
    SETDIJ:  cpu time    0.1573: real time    0.1573
     EDDAV:  cpu time  574.2737: real time  574.4899
       DOS:  cpu time    0.0017: real time    0.0017
    --------------------------------------------
      LOOP:  cpu time  593.6960: real time  593.9153

 eigenvalue-minimisations  :   688
 total energy-change (2. order) : 0.4395608E+04  (-0.1005516E+05)
 number of electron     560.0000000 magnetization 
 augmentation part      560.0000000 magnetization 

 Free energy of the ion-electron system (eV)
  ---------------------------------------------------
  alpha Z        PSCENC =        75.25431677
  Ewald energy   TEWEN  =    139240.18260113
  -Hartree energ DENC   =   -182592.65778240
  -exchange      EXHF   =         0.00000000
  -V(xc)+E(xc)   XCENC  =     -1702.02518098
  PAW double counting   =     44873.02882129   -41398.84523641
  entropy T*S    EENTRO =         0.01943675
  eigenvalues    EBANDS =       814.14536332
  atomic energy  EATOM  =     45086.50549395
  Solvation  Ediel_sol  =         0.00000000
  ---------------------------------------------------
  free energy    TOTEN  =      4395.60783342 eV

  energy without entropy =     4395.58839667  energy(sigma->0) =     4395.60297423


--------------------------------------------------------------------------------------------------------




--------------------------------------- Iteration      1(   2)  ---------------------------------------


     EDDAV:  cpu time  898.1138: real time  898.1477
       DOS:  cpu time    0.0016: real time    0.0016
    --------------------------------------------
      LOOP:  cpu time  898.1154: real time  898.1493

 eigenvalue-minimisations  :  1208
 total energy-change (2. order) :-0.2368252E+04  (-0.2125803E+04)
 number of electron     560.0000000 magnetization 
 augmentation part      560.0000000 magnetization 

 Free energy of the ion-electron system (eV)
  ---------------------------------------------------
  alpha Z        PSCENC =        75.25431677
  Ewald energy   TEWEN  =    139240.18260113
  -Hartree energ DENC   =   -182592.65778240
  -exchange      EXHF   =         0.00000000
  -V(xc)+E(xc)   XCENC  =     -1702.02518098
  PAW double counting   =     44873.02882129   -41398.84523641
  entropy T*S    EENTRO =         0.02333736
  eigenvalues    EBANDS =     -1554.11026197
  atomic energy  EATOM  =     45086.50549395
  Solvation  Ediel_sol  =         0.00000000
  ---------------------------------------------------
  free energy    TOTEN  =      2027.35610874 eV

  energy without entropy =     2027.33277138  energy(sigma->0) =     2027.35027440


--------------------------------------------------------------------------------------------------------




--------------------------------------- Iteration      1(   3)  ---------------------------------------


     EDDAV:  cpu time  757.8579: real time  757.9046
       DOS:  cpu time    0.0014: real time    0.0014
    --------------------------------------------
      LOOP:  cpu time  757.8593: real time  757.9060

 eigenvalue-minimisations  :  1000
 total energy-change (2. order) :-0.1787750E+04  (-0.1679285E+04)
 number of electron     560.0000000 magnetization 
 augmentation part      560.0000000 magnetization 

 Free energy of the ion-electron system (eV)
  ---------------------------------------------------
  alpha Z        PSCENC =        75.25431677
  Ewald energy   TEWEN  =    139240.18260113
  -Hartree energ DENC   =   -182592.65778240
  -exchange      EXHF   =         0.00000000
  -V(xc)+E(xc)   XCENC  =     -1702.02518098
  PAW double counting   =     44873.02882129   -41398.84523641
  entropy T*S    EENTRO =         0.01119294
  eigenvalues    EBANDS =     -3341.84847467
  atomic energy  EATOM  =     45086.50549395
  Solvation  Ediel_sol  =         0.00000000
  ---------------------------------------------------
  free energy    TOTEN  =       239.60575162 eV

  energy without entropy =      239.59455868  energy(sigma->0) =      239.60295338


--------------------------------------------------------------------------------------------------------




--------------------------------------- Iteration      1(   4)  ---------------------------------------


     EDDAV:  cpu time  636.2468: real time  636.2750
       DOS:  cpu time    0.0015: real time    0.0015
    --------------------------------------------
      LOOP:  cpu time  636.2483: real time  636.2765

 eigenvalue-minimisations  :   824
 total energy-change (2. order) :-0.3716014E+03  (-0.3151175E+03)
 number of electron     560.0000000 magnetization 
 augmentation part      560.0000000 magnetization 

 Free energy of the ion-electron system (eV)
  ---------------------------------------------------
  alpha Z        PSCENC =        75.25431677
  Ewald energy   TEWEN  =    139240.18260113
  -Hartree energ DENC   =   -182592.65778240
  -exchange      EXHF   =         0.00000000
  -V(xc)+E(xc)   XCENC  =     -1702.02518098
  PAW double counting   =     44873.02882129   -41398.84523641
  entropy T*S    EENTRO =         0.00672277
  eigenvalues    EBANDS =     -3713.44539588
  atomic energy  EATOM  =     45086.50549395
  Solvation  Ediel_sol  =         0.00000000
  ---------------------------------------------------
  free energy    TOTEN  =      -131.99563976 eV

  energy without entropy =     -132.00236253  energy(sigma->0) =     -131.99732045


--------------------------------------------------------------------------------------------------------




--------------------------------------- Iteration      1(   5)  ---------------------------------------


     EDDAV:  cpu time  741.7502: real time  741.7709
       DOS:  cpu time    0.0018: real time    0.0018
    CHARGE:  cpu time   39.4875: real time   39.4874
    MIXING:  cpu time    0.6650: real time    0.6650
    --------------------------------------------
      LOOP:  cpu time  781.9045: real time  781.9251

 eigenvalue-minimisations  :  1064
 total energy-change (2. order) :-0.4715997E+02  (-0.3863740E+02)
 number of electron     559.9999844 magnetization 
 augmentation part      245.0244448 magnetization 

 Broyden mixing:
  rms(total) = 0.16562E+01    rms(broyden)= 0.16554E+01
  rms(prec ) = 0.17548E+01
  weight for this iteration     100.00

 Free energy of the ion-electron system (eV)
  ---------------------------------------------------
  alpha Z        PSCENC =        75.25431677
  Ewald energy   TEWEN  =    139240.18260113
  -Hartree energ DENC   =   -182592.65778240
  -exchange      EXHF   =         0.00000000
  -V(xc)+E(xc)   XCENC  =     -1702.02518098
  PAW double counting   =     44873.02882129   -41398.84523641
  entropy T*S    EENTRO =         0.51993766
  eigenvalues    EBANDS =     -3761.11858326
  atomic energy  EATOM  =     45086.50549395
  Solvation  Ediel_sol  =         0.00000000
  ---------------------------------------------------
  free energy    TOTEN  =      -179.15561225 eV

  energy without entropy =     -179.67554991  energy(sigma->0) =     -179.28559667


--------------------------------------------------------------------------------------------------------




--------------------------------------- Iteration      1(   6)  ---------------------------------------


    POTLOK:  cpu time   18.6051: real time   18.6076
    SETDIJ:  cpu time    0.1474: real time    0.1474
    EDDIAG:  cpu time   98.2865: real time   98.2881
  RMM-DIIS:  cpu time  284.5826: real time  284.5917
    ORTHCH:  cpu time   20.3327: real time   20.3330
       DOS:  cpu time    0.0019: real time    0.0019
    CHARGE:  cpu time   38.7061: real time   38.7066
    MIXING:  cpu time    0.6769: real time    0.6769
    --------------------------------------------
      LOOP:  cpu time  461.3390: real time  461.3530

 eigenvalue-minimisations  :   728
 total energy-change (2. order) : 0.1308790E+01  (-0.5770767E+01)
 number of electron     559.9999869 magnetization 
 augmentation part      240.8353121 magnetization 

 Broyden mixing:
  rms(total) = 0.19941E+01    rms(broyden)= 0.19939E+01
  rms(prec ) = 0.22761E+01
  weight for this iteration     100.00

 eigenvalues of (default mixing * dielectric matrix)
  average eigenvalue GAMMA=   0.4250
  0.4250

 Free energy of the ion-electron system (eV)
  ---------------------------------------------------
  alpha Z        PSCENC =        75.25431677
  Ewald energy   TEWEN  =    139240.18260113
  -Hartree energ DENC   =   -183003.79181922
  -exchange      EXHF   =         0.00000000
  -V(xc)+E(xc)   XCENC  =     -1695.68340786
  PAW double counting   =     45668.46410000   -42168.01777198
  entropy T*S    EENTRO =        -0.19537482
  eigenvalues    EBANDS =     -3380.56496061
  atomic energy  EATOM  =     45086.50549395
  Solvation  Ediel_sol  =         0.00000000
  ---------------------------------------------------
  free energy    TOTEN  =      -177.84682265 eV

  energy without entropy =     -177.65144783  energy(sigma->0) =     -177.79797894


--------------------------------------------------------------------------------------------------------




--------------------------------------- Iteration      1(   7)  ---------------------------------------


    POTLOK:  cpu time   18.7064: real time   18.7081
    SETDIJ:  cpu time    0.1489: real time    0.1489
    EDDIAG:  cpu time   99.2895: real time   99.2934
  RMM-DIIS:  cpu time  332.4728: real time  332.4849
    ORTHCH:  cpu time   20.5637: real time   20.5641
       DOS:  cpu time    0.0017: real time    0.0017
    CHARGE:  cpu time   35.8700: real time   35.8704
    MIXING:  cpu time    0.6901: real time    0.6901
    --------------------------------------------
      LOOP:  cpu time  507.7432: real time  507.7616

 eigenvalue-minimisations  :   843
 total energy-change (2. order) :-0.3135269E+01  (-0.2088716E+01)
 number of electron     559.9999818 magnetization 
 augmentation part      240.5144903 magnetization 

 Broyden mixing:
  rms(total) = 0.20796E+01    rms(broyden)= 0.20793E+01
  rms(prec ) = 0.24118E+01
  weight for this iteration     100.00

 eigenvalues of (default mixing * dielectric matrix)
  average eigenvalue GAMMA=   0.4517
  0.7203  0.1831

 Free energy of the ion-electron system (eV)
  ---------------------------------------------------
  alpha Z        PSCENC =        75.25431677
  Ewald energy   TEWEN  =    139240.18260113
  -Hartree energ DENC   =   -183110.70076306
  -exchange      EXHF   =         0.00000000
  -V(xc)+E(xc)   XCENC  =     -1695.86455110
  PAW double counting   =     45771.25859471   -42267.28978421
  entropy T*S    EENTRO =        -0.05333850
  eigenvalues    EBANDS =     -3280.27466122
  atomic energy  EATOM  =     45086.50549395
  Solvation  Ediel_sol  =         0.00000000
  ---------------------------------------------------
  free energy    TOTEN  =      -180.98209153 eV

  energy without entropy =     -180.92875304  energy(sigma->0) =     -180.96875691


--------------------------------------------------------------------------------------------------------




--------------------------------------- Iteration      1(   8)  ---------------------------------------


    POTLOK:  cpu time   17.0022: real time   17.0041
    SETDIJ:  cpu time    0.1450: real time    0.1450
    EDDIAG:  cpu time  100.3097: real time  100.3124
  RMM-DIIS:  cpu time  299.6900: real time  299.6967
    ORTHCH:  cpu time   19.3302: real time   19.3303
       DOS:  cpu time    0.0017: real time    0.0017
    CHARGE:  cpu time   35.8250: real time   35.8250
    MIXING:  cpu time    0.7374: real time    0.7374
    --------------------------------------------
      LOOP:  cpu time  473.0411: real time  473.0525

 eigenvalue-minimisations  :   762
 total energy-change (2. order) :-0.2978158E+01  (-0.8875507E+00)
 number of electron     559.9999818 magnetization 
 augmentation part      240.4242567 magnetization 

 Broyden mixing:
  rms(total) = 0.27986E+01    rms(broyden)= 0.27983E+01
  rms(prec ) = 0.33340E+01
  weight for this iteration     100.00

 eigenvalues of (default mixing * dielectric matrix)
  average eigenvalue GAMMA=   0.3840
  0.8334  0.1634  0.1554

 Free energy of the ion-electron system (eV)
  ---------------------------------------------------
  alpha Z        PSCENC =        75.25431677
  Ewald energy   TEWEN  =    139240.18260113
  -Hartree energ DENC   =   -183150.48527428
  -exchange      EXHF   =         0.00000000
  -V(xc)+E(xc)   XCENC  =     -1695.72970293
  PAW double counting   =     45888.20781685   -42380.13668884
  entropy T*S    EENTRO =        -0.07690458
  eigenvalues    EBANDS =     -3247.68190800
  atomic energy  EATOM  =     45086.50549395
  Solvation  Ediel_sol  =         0.00000000
  ---------------------------------------------------
  free energy    TOTEN  =      -183.96024992 eV

  energy without entropy =     -183.88334534  energy(sigma->0) =     -183.94102377


--------------------------------------------------------------------------------------------------------




--------------------------------------- Iteration      1(   9)  ---------------------------------------


    POTLOK:  cpu time   17.0071: real time   17.0077
    SETDIJ:  cpu time    0.1446: real time    0.1446
    EDDIAG:  cpu time  102.8599: real time  102.8620
  RMM-DIIS:  cpu time  293.6344: real time  293.6412
    ORTHCH:  cpu time   19.6014: real time   19.6015
       DOS:  cpu time    0.0018: real time    0.0018
    CHARGE:  cpu time   35.9662: real time   35.9663
    MIXING:  cpu time    0.7833: real time    0.7833
    --------------------------------------------
      LOOP:  cpu time  469.9985: real time  470.0083

 eigenvalue-minimisations  :   754
 total energy-change (2. order) : 0.1686069E+01  (-0.4663272E+00)
 number of electron     559.9999845 magnetization 
 augmentation part      240.9229699 magnetization 

 Broyden mixing:
  rms(total) = 0.28102E+01    rms(broyden)= 0.28099E+01
  rms(prec ) = 0.32843E+01
  weight for this iteration     100.00

 eigenvalues of (default mixing * dielectric matrix)
  average eigenvalue GAMMA=   0.3400
  0.9173  0.1719  0.1719  0.0988

 Free energy of the ion-electron system (eV)
  ---------------------------------------------------
  alpha Z        PSCENC =        75.25431677
  Ewald energy   TEWEN  =    139240.18260113
  -Hartree energ DENC   =   -183173.38180576
  -exchange      EXHF   =         0.00000000
  -V(xc)+E(xc)   XCENC  =     -1695.67159810
  PAW double counting   =     45943.70403268   -42433.82009105
  entropy T*S    EENTRO =        -0.19552555
  eigenvalues    EBANDS =     -3224.85160458
  atomic energy  EATOM  =     45086.50549395
  Solvation  Ediel_sol  =         0.00000000
  ---------------------------------------------------
  free energy    TOTEN  =      -182.27418049 eV

  energy without entropy =     -182.07865495  energy(sigma->0) =     -182.22529910


--------------------------------------------------------------------------------------------------------




--------------------------------------- Iteration      1(  10)  ---------------------------------------


    POTLOK:  cpu time   17.6310: real time   17.6317
    SETDIJ:  cpu time    0.1485: real time    0.1485
    EDDIAG:  cpu time  104.7555: real time  104.7572
  RMM-DIIS:  cpu time  282.8178: real time  282.8254
    ORTHCH:  cpu time   19.4011: real time   19.4012
       DOS:  cpu time    0.0017: real time    0.0017
    CHARGE:  cpu time   35.4749: real time   35.4749
    MIXING:  cpu time    0.8801: real time    0.8801
    --------------------------------------------
      LOOP:  cpu time  461.1107: real time  461.1207

 eigenvalue-minimisations  :   730
 total energy-change (2. order) : 0.2255661E+01  (-0.3277912E+00)
 number of electron     559.9999836 magnetization 
 augmentation part      241.3110069 magnetization 

 Broyden mixing:
  rms(total) = 0.26102E+01    rms(broyden)= 0.26099E+01
  rms(prec ) = 0.30982E+01
  weight for this iteration     100.00

 eigenvalues of (default mixing * dielectric matrix)
  average eigenvalue GAMMA=   0.3078
  0.9865  0.1607  0.1607  0.1588  0.0721

 Free energy of the ion-electron system (eV)
  ---------------------------------------------------
  alpha Z        PSCENC =        75.25431677
  Ewald energy   TEWEN  =    139240.18260113
  -Hartree energ DENC   =   -183199.19721856
  -exchange      EXHF   =         0.00000000
  -V(xc)+E(xc)   XCENC  =     -1695.56693278
  PAW double counting   =     45986.45918487   -42475.20856685
  entropy T*S    EENTRO =        -0.13472954
  eigenvalues    EBANDS =     -3198.31266882
  atomic energy  EATOM  =     45086.50549395
  Solvation  Ediel_sol  =         0.00000000
  ---------------------------------------------------
  free energy    TOTEN  =      -180.01851983 eV

  energy without entropy =     -179.88379029  energy(sigma->0) =     -179.98483745


--------------------------------------------------------------------------------------------------------




--------------------------------------- Iteration      1(  11)  ---------------------------------------


    POTLOK:  cpu time   18.2232: real time   18.2247
    SETDIJ:  cpu time    0.1496: real time    0.1496
    EDDIAG:  cpu time  102.7395: real time  102.7416
  RMM-DIIS:  cpu time  277.2572: real time  277.2671
    ORTHCH:  cpu time   19.3542: real time   19.3545
       DOS:  cpu time    0.0018: real time    0.0018
    CHARGE:  cpu time   37.0503: real time   37.0509
    MIXING:  cpu time    0.8864: real time    0.8865
    --------------------------------------------
      LOOP:  cpu time  455.6622: real time  455.6767

 eigenvalue-minimisations  :   723
 total energy-change (2. order) : 0.2442081E+01  (-0.2235813E+00)
 number of electron     559.9999849 magnetization 
 augmentation part      241.6239772 magnetization 

 Broyden mixing:
  rms(total) = 0.19625E+01    rms(broyden)= 0.19622E+01
  rms(prec ) = 0.23455E+01
  weight for this iteration     100.00

 eigenvalues of (default mixing * dielectric matrix)
  average eigenvalue GAMMA=   0.2907
  1.0334  0.2137  0.2137  0.1251  0.0792  0.0792

 Free energy of the ion-electron system (eV)
  ---------------------------------------------------
  alpha Z        PSCENC =        75.25431677
  Ewald energy   TEWEN  =    139240.18260113
  -Hartree energ DENC   =   -183212.43813078
  -exchange      EXHF   =         0.00000000
  -V(xc)+E(xc)   XCENC  =     -1695.43911065
  PAW double counting   =     46020.50915038   -42508.01617643
  entropy T*S    EENTRO =        -0.02558141
  eigenvalues    EBANDS =     -3184.10900153
  atomic energy  EATOM  =     45086.50549395
  Solvation  Ediel_sol  =         0.00000000
  ---------------------------------------------------
  free energy    TOTEN  =      -177.57643856 eV

  energy without entropy =     -177.55085715  energy(sigma->0) =     -177.57004320


--------------------------------------------------------------------------------------------------------




--------------------------------------- Iteration      1(  12)  ---------------------------------------


    POTLOK:  cpu time   18.8135: real time   18.8151
    SETDIJ:  cpu time    0.1473: real time    0.1473
    EDDIAG:  cpu time  103.4356: real time  103.4396
  RMM-DIIS:  cpu time  280.8324: real time  280.8386
    ORTHCH:  cpu time   19.1644: real time   19.1645
       DOS:  cpu time    0.0019: real time    0.0019
    CHARGE:  cpu time   37.6088: real time   37.6089
    MIXING:  cpu time    0.9945: real time    0.9945
    --------------------------------------------
      LOOP:  cpu time  460.9986: real time  461.0105

 eigenvalue-minimisations  :   730
 total energy-change (2. order) : 0.1237776E+01  (-0.1435309E+00)
 number of electron     559.9999849 magnetization 
 augmentation part      241.7173304 magnetization 

 Broyden mixing:
  rms(total) = 0.15418E+01    rms(broyden)= 0.15414E+01
  rms(prec ) = 0.18240E+01
  weight for this iteration     100.00

 eigenvalues of (default mixing * dielectric matrix)
  average eigenvalue GAMMA=   0.2950
  1.1228  0.2765  0.2765  0.1281  0.1281  0.0664  0.0664

 Free energy of the ion-electron system (eV)
  ---------------------------------------------------
  alpha Z        PSCENC =        75.25431677
  Ewald energy   TEWEN  =    139240.18260113
  -Hartree energ DENC   =   -183228.99103325
  -exchange      EXHF   =         0.00000000
  -V(xc)+E(xc)   XCENC  =     -1695.25478569
  PAW double counting   =     46049.32674499   -42535.67567881
  entropy T*S    EENTRO =        -0.03829422
  eigenvalues    EBANDS =     -3167.64802740
  atomic energy  EATOM  =     45086.50549395
  Solvation  Ediel_sol  =         0.00000000
  ---------------------------------------------------
  free energy    TOTEN  =      -176.33866253 eV

  energy without entropy =     -176.30036831  energy(sigma->0) =     -176.32908897


--------------------------------------------------------------------------------------------------------




--------------------------------------- Iteration      1(  13)  ---------------------------------------


    POTLOK:  cpu time   18.1891: real time   18.1898
    SETDIJ:  cpu time    0.1466: real time    0.1466
    EDDIAG:  cpu time  101.5896: real time  101.5910
  RMM-DIIS:  cpu time  274.1594: real time  274.1693
    ORTHCH:  cpu time   19.4894: real time   19.4897
       DOS:  cpu time    0.0019: real time    0.0019
    CHARGE:  cpu time   39.0874: real time   39.0882
    MIXING:  cpu time    1.0764: real time    1.0764
    --------------------------------------------
      LOOP:  cpu time  453.7399: real time  453.7528

 eigenvalue-minimisations  :   715
 total energy-change (2. order) : 0.1667271E-01  (-0.1651865E+00)
 number of electron     559.9999843 magnetization 
 augmentation part      241.7032203 magnetization 

 Broyden mixing:
  rms(total) = 0.15489E+01    rms(broyden)= 0.15485E+01
  rms(prec ) = 0.18300E+01
  weight for this iteration     100.00

 eigenvalues of (default mixing * dielectric matrix)
  average eigenvalue GAMMA=   0.3090
  1.2594  0.3583  0.3583  0.1245  0.1245  0.0964  0.0866  0.0636

 Free energy of the ion-electron system (eV)
  ---------------------------------------------------
  alpha Z        PSCENC =        75.25431677
  Ewald energy   TEWEN  =    139240.18260113
  -Hartree energ DENC   =   -183248.77144446
  -exchange      EXHF   =         0.00000000
  -V(xc)+E(xc)   XCENC  =     -1694.89652030
  PAW double counting   =     46093.68082736   -42578.11357966
  entropy T*S    EENTRO =        -0.12603307
  eigenvalues    EBANDS =     -3150.03765154
  atomic energy  EATOM  =     45086.50549395
  Solvation  Ediel_sol  =         0.00000000
  ---------------------------------------------------
  free energy    TOTEN  =      -176.32198982 eV

  energy without entropy =     -176.19595675  energy(sigma->0) =     -176.29048155


--------------------------------------------------------------------------------------------------------




--------------------------------------- Iteration      1(  14)  ---------------------------------------


    POTLOK:  cpu time   18.8973: real time   18.8985
    SETDIJ:  cpu time    0.1509: real time    0.1509
    EDDIAG:  cpu time  102.9146: real time  102.9193
  RMM-DIIS:  cpu time  275.1377: real time  275.1503
    ORTHCH:  cpu time   20.2556: real time   20.2557
       DOS:  cpu time    0.0018: real time    0.0018
    CHARGE:  cpu time   38.4948: real time   38.4952
    MIXING:  cpu time    1.0980: real time    1.0981
    --------------------------------------------
      LOOP:  cpu time  456.9506: real time  456.9697

 eigenvalue-minimisations  :   715
 total energy-change (2. order) :-0.9127117E-01  (-0.1616745E+00)
 number of electron     559.9999821 magnetization 
 augmentation part      241.4443656 magnetization 

 Broyden mixing:
  rms(total) = 0.19706E+01    rms(broyden)= 0.19703E+01
  rms(prec ) = 0.23058E+01
  weight for this iteration     100.00

 eigenvalues of (default mixing * dielectric matrix)
  average eigenvalue GAMMA=   0.3278
  1.4496  0.6248  0.2385  0.1495  0.1495  0.1069  0.1069  0.0622  0.0622

 Free energy of the ion-electron system (eV)
  ---------------------------------------------------
  alpha Z        PSCENC =        75.25431677
  Ewald energy   TEWEN  =    139240.18260113
  -Hartree energ DENC   =   -183291.87271905
  -exchange      EXHF   =         0.00000000
  -V(xc)+E(xc)   XCENC  =     -1694.28676391
  PAW double counting   =     46162.49444432   -42643.86034546
  entropy T*S    EENTRO =         0.02312223
  eigenvalues    EBANDS =     -3110.85341097
  atomic energy  EATOM  =     45086.50549395
  Solvation  Ediel_sol  =         0.00000000
  ---------------------------------------------------
  free energy    TOTEN  =      -176.41326099 eV

  energy without entropy =     -176.43638323  energy(sigma->0) =     -176.41904155


--------------------------------------------------------------------------------------------------------




--------------------------------------- Iteration      1(  15)  ---------------------------------------


    POTLOK:  cpu time   18.1968: real time   18.1978
    SETDIJ:  cpu time    0.1511: real time    0.1512
    EDDIAG:  cpu time   99.4516: real time   99.4545
  RMM-DIIS:  cpu time  268.3040: real time  268.3310
    ORTHCH:  cpu time   19.9812: real time   19.9821
       DOS:  cpu time    0.0019: real time    0.0019
    CHARGE:  cpu time   38.4743: real time   38.4762
    MIXING:  cpu time    1.1724: real time    1.1725
    --------------------------------------------
      LOOP:  cpu time  445.7333: real time  445.7671

 eigenvalue-minimisations  :   703
 total energy-change (2. order) : 0.1131585E+01  (-0.1472131E+00)
 number of electron     559.9999850 magnetization 
 augmentation part      241.1488349 magnetization 

 Broyden mixing:
  rms(total) = 0.11513E+01    rms(broyden)= 0.11510E+01
  rms(prec ) = 0.12959E+01
  weight for this iteration     100.00

 eigenvalues of (default mixing * dielectric matrix)
  average eigenvalue GAMMA=   0.3355
  1.5867  0.7140  0.2332  0.2332  0.1199  0.1199  0.1124  0.1124  0.0617  0.0617

 Free energy of the ion-electron system (eV)
  ---------------------------------------------------
  alpha Z        PSCENC =        75.25431677
  Ewald energy   TEWEN  =    139240.18260113
  -Hartree energ DENC   =   -183339.09633309
  -exchange      EXHF   =         0.00000000
  -V(xc)+E(xc)   XCENC  =     -1693.66228220
  PAW double counting   =     46233.01792769   -42711.21204364
  entropy T*S    EENTRO =        -0.02429933
  eigenvalues    EBANDS =     -3066.24705723
  atomic energy  EATOM  =     45086.50549395
  Solvation  Ediel_sol  =         0.00000000
  ---------------------------------------------------
  free energy    TOTEN  =      -175.28167594 eV

  energy without entropy =     -175.25737661  energy(sigma->0) =     -175.27560111


--------------------------------------------------------------------------------------------------------




--------------------------------------- Iteration      1(  16)  ---------------------------------------


    POTLOK:  cpu time   18.4512: real time   18.4543
    SETDIJ:  cpu time    0.1511: real time    0.1511
    EDDIAG:  cpu time  100.4997: real time  100.5069
  RMM-DIIS:  cpu time  261.5789: real time  261.5907
    ORTHCH:  cpu time   19.0202: real time   19.0206
       DOS:  cpu time    0.0020: real time    0.0020
    CHARGE:  cpu time   35.9592: real time   35.9594
    MIXING:  cpu time    1.1542: real time    1.1542
    --------------------------------------------
      LOOP:  cpu time  436.8163: real time  436.8390

 eigenvalue-minimisations  :   699
 total energy-change (2. order) : 0.1060426E+00  (-0.8168834E-01)
 number of electron     559.9999878 magnetization 
 augmentation part      241.2250978 magnetization 

 Broyden mixing:
  rms(total) = 0.16585E+01    rms(broyden)= 0.16583E+01
  rms(prec ) = 0.19115E+01
  weight for this iteration     100.00

 eigenvalues of (default mixing * dielectric matrix)
  average eigenvalue GAMMA=   0.3344
  1.6791  0.7817  0.2773  0.2773  0.1314  0.1314  0.1018  0.1018  0.0739  0.0615
  0.0615

 Free energy of the ion-electron system (eV)
  ---------------------------------------------------
  alpha Z        PSCENC =        75.25431677
  Ewald energy   TEWEN  =    139240.18260113
  -Hartree energ DENC   =   -183356.28571043
  -exchange      EXHF   =         0.00000000
  -V(xc)+E(xc)   XCENC  =     -1693.38044917
  PAW double counting   =     46263.26945868   -42739.99833394
  entropy T*S    EENTRO =         0.12389234
  eigenvalues    EBANDS =     -3050.84690267
  atomic energy  EATOM  =     45086.50549395
  Solvation  Ediel_sol  =         0.00000000
  ---------------------------------------------------
  free energy    TOTEN  =      -175.17563333 eV

  energy without entropy =     -175.29952567  energy(sigma->0) =     -175.20660642


--------------------------------------------------------------------------------------------------------




--------------------------------------- Iteration      1(  17)  ---------------------------------------


    POTLOK:  cpu time   17.0786: real time   17.0796
    SETDIJ:  cpu time    0.1432: real time    0.1432
    EDDIAG:  cpu time   94.2689: real time   94.2744
  RMM-DIIS:  cpu time  256.9802: real time  256.9916
    ORTHCH:  cpu time   18.1475: real time   18.1476
       DOS:  cpu time    0.0017: real time    0.0017
    CHARGE:  cpu time   34.3371: real time   34.3373
    MIXING:  cpu time    1.1965: real time    1.1965
    --------------------------------------------
      LOOP:  cpu time  422.1537: real time  422.1718

 eigenvalue-minimisations  :   708
 total energy-change (2. order) : 0.2239875E+00  (-0.5842540E-01)
 number of electron     559.9999849 magnetization 
 augmentation part      241.1618642 magnetization 

 Broyden mixing:
  rms(total) = 0.12449E+01    rms(broyden)= 0.12447E+01
  rms(prec ) = 0.14463E+01
  weight for this iteration     100.00

 eigenvalues of (default mixing * dielectric matrix)
  average eigenvalue GAMMA=   0.3417
  1.7675  0.8926  0.3354  0.3354  0.1365  0.1365  0.1116  0.1007  0.1007  0.0638
  0.0638  0.0554

 Free energy of the ion-electron system (eV)
  ---------------------------------------------------
  alpha Z        PSCENC =        75.25431677
  Ewald energy   TEWEN  =    139240.18260113
  -Hartree energ DENC   =   -183371.83435035
  -exchange      EXHF   =         0.00000000
  -V(xc)+E(xc)   XCENC  =     -1693.24224416
  PAW double counting   =     46280.62517740   -42756.45055261
  entropy T*S    EENTRO =         0.04040516
  eigenvalues    EBANDS =     -3036.03249308
  atomic energy  EATOM  =     45086.50549395
  Solvation  Ediel_sol  =         0.00000000
  ---------------------------------------------------
  free energy    TOTEN  =      -174.95164578 eV

  energy without entropy =     -174.99205095  energy(sigma->0) =     -174.96174707


--------------------------------------------------------------------------------------------------------




--------------------------------------- Iteration      1(  18)  ---------------------------------------


    POTLOK:  cpu time   16.3004: real time   16.3021
    SETDIJ:  cpu time    0.1343: real time    0.1343
    EDDIAG:  cpu time   88.8812: real time   88.8837
  RMM-DIIS:  cpu time  243.8253: real time  243.8331
    ORTHCH:  cpu time   18.1253: real time   18.1254
       DOS:  cpu time    0.0018: real time    0.0018
    CHARGE:  cpu time   34.2163: real time   34.2164
    MIXING:  cpu time    1.2867: real time    1.2867
    --------------------------------------------
      LOOP:  cpu time  402.7713: real time  402.7836

 eigenvalue-minimisations  :   706
 total energy-change (2. order) : 0.1840060E+00  (-0.5314779E-01)
 number of electron     559.9999854 magnetization 
 augmentation part      241.1770572 magnetization 

 Broyden mixing:
  rms(total) = 0.10728E+01    rms(broyden)= 0.10726E+01
  rms(prec ) = 0.12557E+01
  weight for this iteration     100.00

 eigenvalues of (default mixing * dielectric matrix)
  average eigenvalue GAMMA=   0.3473
  1.8692  1.0179  0.3700  0.3700  0.1387  0.1387  0.1181  0.1181  0.0975  0.0975
  0.0620  0.0620  0.0546

 Free energy of the ion-electron system (eV)
  ---------------------------------------------------
  alpha Z        PSCENC =        75.25431677
  Ewald energy   TEWEN  =    139240.18260113
  -Hartree energ DENC   =   -183391.94509909
  -exchange      EXHF   =         0.00000000
  -V(xc)+E(xc)   XCENC  =     -1693.08591125
  PAW double counting   =     46295.44686922   -42770.30150997
  entropy T*S    EENTRO =         0.01447670
  eigenvalues    EBANDS =     -3016.83887719
  atomic energy  EATOM  =     45086.50549395
  Solvation  Ediel_sol  =         0.00000000
  ---------------------------------------------------
  free energy    TOTEN  =      -174.76763974 eV

  energy without entropy =     -174.78211644  energy(sigma->0) =     -174.77125892


--------------------------------------------------------------------------------------------------------




--------------------------------------- Iteration      1(  19)  ---------------------------------------


    POTLOK:  cpu time   16.0910: real time   16.0934
    SETDIJ:  cpu time    0.1370: real time    0.1371
    EDDIAG:  cpu time   88.4315: real time   88.4360
  RMM-DIIS:  cpu time  244.1376: real time  244.1450
    ORTHCH:  cpu time   17.9730: real time   17.9730
       DOS:  cpu time    0.0017: real time    0.0016
    CHARGE:  cpu time   33.8665: real time   33.8666
    MIXING:  cpu time    1.3330: real time    1.3330
    --------------------------------------------
      LOOP:  cpu time  401.9713: real time  401.9856

 eigenvalue-minimisations  :   705
 total energy-change (2. order) : 0.3377492E-01  (-0.4206144E-01)
 number of electron     559.9999843 magnetization 
 augmentation part      241.1965401 magnetization 

 Broyden mixing:
  rms(total) = 0.10442E+01    rms(broyden)= 0.10439E+01
  rms(prec ) = 0.12504E+01
  weight for this iteration     100.00

 eigenvalues of (default mixing * dielectric matrix)
  average eigenvalue GAMMA=   0.3517
  2.0065  1.1347  0.3441  0.3441  0.2486  0.1451  0.1451  0.1004  0.1004  0.0900
  0.0900  0.0616  0.0616  0.0520

 Free energy of the ion-electron system (eV)
  ---------------------------------------------------
  alpha Z        PSCENC =        75.25431677
  Ewald energy   TEWEN  =    139240.18260113
  -Hartree energ DENC   =   -183411.44131881
  -exchange      EXHF   =         0.00000000
  -V(xc)+E(xc)   XCENC  =     -1692.91089115
  PAW double counting   =     46306.28154540   -42780.16024387
  entropy T*S    EENTRO =        -0.02807373
  eigenvalues    EBANDS =     -2998.41729452
  atomic energy  EATOM  =     45086.50549395
  Solvation  Ediel_sol  =         0.00000000
  ---------------------------------------------------
  free energy    TOTEN  =      -174.73386482 eV

  energy without entropy =     -174.70579109  energy(sigma->0) =     -174.72684639


--------------------------------------------------------------------------------------------------------




--------------------------------------- Iteration      1(  20)  ---------------------------------------


    POTLOK:  cpu time   15.0337: real time   15.0357
    SETDIJ:  cpu time    0.1315: real time    0.1315
    EDDIAG:  cpu time   88.5697: real time   88.5740
  RMM-DIIS:  cpu time  245.3013: real time  245.3091
    ORTHCH:  cpu time   18.0586: real time   18.0590
       DOS:  cpu time    0.0018: real time    0.0018
    CHARGE:  cpu time   34.1880: real time   34.1887
    MIXING:  cpu time    1.4320: real time    1.4320
    --------------------------------------------
      LOOP:  cpu time  402.7165: real time  402.7316

 eigenvalue-minimisations  :   713
 total energy-change (2. order) : 0.1427225E+00  (-0.3152336E-01)
 number of electron     559.9999858 magnetization 
 augmentation part      241.2144217 magnetization 

 Broyden mixing:
  rms(total) = 0.10436E+01    rms(broyden)= 0.10433E+01
  rms(prec ) = 0.12091E+01
  weight for this iteration     100.00

 eigenvalues of (default mixing * dielectric matrix)
  average eigenvalue GAMMA=   0.3479
  2.0896  1.1517  0.4582  0.2939  0.2939  0.1435  0.1435  0.1015  0.1015  0.1026
  0.1026  0.0626  0.0626  0.0609  0.0499

 Free energy of the ion-electron system (eV)
  ---------------------------------------------------
  alpha Z        PSCENC =        75.25431677
  Ewald energy   TEWEN  =    139240.18260113
  -Hartree energ DENC   =   -183432.33124035
  -exchange      EXHF   =         0.00000000
  -V(xc)+E(xc)   XCENC  =     -1692.67739443
  PAW double counting   =     46317.11824138   -42789.89420502
  entropy T*S    EENTRO =        -0.00189002
  eigenvalues    EBANDS =     -2978.74706569
  atomic energy  EATOM  =     45086.50549395
  Solvation  Ediel_sol  =         0.00000000
  ---------------------------------------------------
  free energy    TOTEN  =      -174.59114229 eV

  energy without entropy =     -174.58925227  energy(sigma->0) =     -174.59066978


--------------------------------------------------------------------------------------------------------




--------------------------------------- Iteration      1(  21)  ---------------------------------------


    POTLOK:  cpu time   15.0100: real time   15.0122
    SETDIJ:  cpu time    0.1316: real time    0.1316
    EDDIAG:  cpu time   88.7026: real time   88.7063
  RMM-DIIS:  cpu time  240.1485: real time  240.1594
    ORTHCH:  cpu time   18.0673: real time   18.0677
       DOS:  cpu time    0.0018: real time    0.0018
    CHARGE:  cpu time   34.0851: real time   34.0857
    MIXING:  cpu time    1.3521: real time    1.3521
    --------------------------------------------
      LOOP:  cpu time  397.4991: real time  397.5169

 eigenvalue-minimisations  :   694
 total energy-change (2. order) : 0.3032961E+00  (-0.1582882E-01)
 number of electron     559.9999851 magnetization 
 augmentation part      241.2142680 magnetization 

 Broyden mixing:
  rms(total) = 0.57049E+00    rms(broyden)= 0.57031E+00
  rms(prec ) = 0.65029E+00
  weight for this iteration     100.00

 eigenvalues of (default mixing * dielectric matrix)
  average eigenvalue GAMMA=   0.3557
  2.2100  1.1744  0.6206  0.3111  0.3111  0.1548  0.1386  0.1386  0.1025  0.1025
  0.0961  0.0961  0.0629  0.0629  0.0600  0.0494

 Free energy of the ion-electron system (eV)
  ---------------------------------------------------
  alpha Z        PSCENC =        75.25431677
  Ewald energy   TEWEN  =    139240.18260113
  -Hartree energ DENC   =   -183442.35111843
  -exchange      EXHF   =         0.00000000
  -V(xc)+E(xc)   XCENC  =     -1692.53161334
  PAW double counting   =     46321.63867446   -42793.86137930
  entropy T*S    EENTRO =        -0.05061844
  eigenvalues    EBANDS =     -2969.07420298
  atomic energy  EATOM  =     45086.50549395
  Solvation  Ediel_sol  =         0.00000000
  ---------------------------------------------------
  free energy    TOTEN  =      -174.28784619 eV

  energy without entropy =     -174.23722774  energy(sigma->0) =     -174.27519158


--------------------------------------------------------------------------------------------------------




--------------------------------------- Iteration      1(  22)  ---------------------------------------


    POTLOK:  cpu time   14.8351: real time   14.8369
    SETDIJ:  cpu time    0.1322: real time    0.1322
    EDDIAG:  cpu time   89.0309: real time   89.0334
  RMM-DIIS:  cpu time  240.8593: real time  240.8660
    ORTHCH:  cpu time   18.0431: real time   18.0431
       DOS:  cpu time    0.0018: real time    0.0018
    CHARGE:  cpu time   33.7152: real time   33.7153
    MIXING:  cpu time    1.4309: real time    1.4309
    --------------------------------------------
      LOOP:  cpu time  398.0485: real time  398.0597

 eigenvalue-minimisations  :   695
 total energy-change (2. order) : 0.7807635E-01  (-0.1340645E-01)
 number of electron     559.9999852 magnetization 
 augmentation part      241.2295288 magnetization 

 Broyden mixing:
  rms(total) = 0.54598E+00    rms(broyden)= 0.54587E+00
  rms(prec ) = 0.63098E+00
  weight for this iteration     100.00

 eigenvalues of (default mixing * dielectric matrix)
  average eigenvalue GAMMA=   0.3560
  2.2736  1.2143  0.7054  0.3280  0.3280  0.1958  0.1419  0.1419  0.1008  0.1008
  0.1030  0.1030  0.0830  0.0627  0.0627  0.0584  0.0490

 Free energy of the ion-electron system (eV)
  ---------------------------------------------------
  alpha Z        PSCENC =        75.25431677
  Ewald energy   TEWEN  =    139240.18260113
  -Hartree energ DENC   =   -183454.24714075
  -exchange      EXHF   =         0.00000000
  -V(xc)+E(xc)   XCENC  =     -1692.32483999
  PAW double counting   =     46324.33842081   -42795.86189936
  entropy T*S    EENTRO =        -0.03714058
  eigenvalues    EBANDS =     -2958.01958182
  atomic energy  EATOM  =     45086.50549395
  Solvation  Ediel_sol  =         0.00000000
  ---------------------------------------------------
  free energy    TOTEN  =      -174.20976984 eV

  energy without entropy =     -174.17262926  energy(sigma->0) =     -174.20048469


--------------------------------------------------------------------------------------------------------




--------------------------------------- Iteration      1(  23)  ---------------------------------------


    POTLOK:  cpu time   14.5265: real time   14.5279
    SETDIJ:  cpu time    0.1323: real time    0.1323
    EDDIAG:  cpu time   87.9662: real time   87.9682
  RMM-DIIS:  cpu time  240.6287: real time  240.6350
    ORTHCH:  cpu time   18.0704: real time   18.0704
       DOS:  cpu time    0.0018: real time    0.0018
    CHARGE:  cpu time   33.5255: real time   33.5258
    MIXING:  cpu time    1.5506: real time    1.5506
    --------------------------------------------
      LOOP:  cpu time  396.4021: real time  396.4120

 eigenvalue-minimisations  :   696
 total energy-change (2. order) : 0.1318312E+00  (-0.8199736E-02)
 number of electron     559.9999850 magnetization 
 augmentation part      241.1580827 magnetization 

 Broyden mixing:
  rms(total) = 0.33053E+00    rms(broyden)= 0.33042E+00
  rms(prec ) = 0.38247E+00
  weight for this iteration     100.00

 eigenvalues of (default mixing * dielectric matrix)
  average eigenvalue GAMMA=   0.3579
[...]
 -0.006  -0.012   0.004   0.004   0.006  -0.006  -0.012   0.004
 -0.010  -0.020   0.006   0.007   0.009  -0.010  -0.020   0.006
 -0.015  -0.005   0.012   0.000   0.022  -0.014  -0.005   0.012
  0.000  -0.023  -0.006  -0.015  -0.000   0.000  -0.022  -0.006
 -0.022   0.000   0.009  -0.005  -0.016  -0.021   0.000   0.009
 -0.018  -0.006   0.015   0.000   0.027  -0.017  -0.006   0.015
  0.000  -0.027  -0.007  -0.018   0.000   0.000  -0.026  -0.007
 -0.027   0.000   0.011  -0.006  -0.019  -0.026   0.000   0.010
 total augmentation occupancy for first ion, spin component:           1
  1.530  -0.032   0.009   0.016   0.021   0.078  -0.008  -0.003   0.036  -0.009   0.084  -0.028   0.012   0.002   0.004  -0.019
 -0.032   1.401   0.028   0.071  -0.001  -0.006   0.071   0.011  -0.014  -0.008   0.217  -0.066   0.019   0.001   0.003  -0.006
  0.009   0.028   1.537   0.002   0.004  -0.002   0.013   0.075  -0.013   0.016  -0.051   0.018  -0.003  -0.006  -0.006   0.016
  0.016   0.071   0.002   1.339   0.046   0.034  -0.013  -0.012   0.091  -0.023  -0.082   0.022  -0.001  -0.009  -0.004   0.001
  0.021  -0.001   0.004   0.046   1.440  -0.009  -0.008   0.015  -0.022   0.068  -0.099   0.032  -0.002  -0.010  -0.009   0.026
  0.078  -0.006  -0.002   0.034  -0.009   0.217   0.018  -0.001  -0.045   0.003  -0.048   0.002   0.017  -0.010   0.034  -0.004
 -0.008   0.071   0.013  -0.013  -0.008   0.018   0.263  -0.023  -0.003   0.005  -0.109   0.007  -0.001   0.052  -0.010  -0.000
 -0.003   0.011   0.075  -0.012   0.015  -0.001  -0.023   0.215   0.014  -0.019   0.027  -0.001  -0.012   0.009  -0.017   0.003
  0.036  -0.014  -0.013   0.091  -0.022  -0.045  -0.003   0.014   0.261   0.007   0.043  -0.004  -0.009   0.036   0.004   0.000
 -0.009  -0.008   0.016  -0.023   0.068   0.003   0.005  -0.019   0.007   0.259   0.047  -0.002  -0.038   0.002   0.049   0.007
  0.084   0.217  -0.051  -0.082  -0.099  -0.048  -0.109   0.027   0.043   0.047   0.948  -0.141   0.083   0.014   0.064  -0.013
 -0.028  -0.066   0.018   0.022   0.032   0.002   0.007  -0.001  -0.004  -0.002  -0.141   0.023  -0.014  -0.003  -0.010   0.003
  0.012   0.019  -0.003  -0.001  -0.002   0.017  -0.001  -0.012  -0.009  -0.038   0.083  -0.014   0.029  -0.008  -0.004  -0.003
  0.002   0.001  -0.006  -0.009  -0.010  -0.010   0.052   0.009   0.036   0.002   0.014  -0.003  -0.008   0.036   0.005   0.000
  0.004   0.003  -0.006  -0.004  -0.009   0.034  -0.010  -0.017   0.004   0.049   0.064  -0.010  -0.004   0.005   0.034  -0.000
 -0.019  -0.006   0.016   0.001   0.026  -0.004  -0.000   0.003   0.000   0.007  -0.013   0.003  -0.003   0.000  -0.000   0.001
  0.001  -0.028  -0.007  -0.018   0.001   0.001  -0.008  -0.002  -0.006  -0.000  -0.003   0.001   0.000  -0.003  -0.000   0.000
 -0.028   0.001   0.012  -0.005  -0.020  -0.006   0.001   0.003  -0.001  -0.007  -0.008   0.001  -0.000  -0.000  -0.003   0.000


------------------------ aborting loop because EDIFF is reached ----------------------------------------


    CHARGE:  cpu time   37.5971: real time   37.5979
    FORLOC:  cpu time    9.3533: real time    9.3535
    FORNL :  cpu time   90.5353: real time   90.5367
    STRESS:  cpu time  275.7477: real time  275.7528
    FORCOR:  cpu time   28.3110: real time   28.3118
    FORHAR:  cpu time   13.2008: real time   13.2009
    MIXING:  cpu time    5.5482: real time    5.5483
    OFIELD:  cpu time    0.0000: real time    0.0000

  FORCE on cell =-STRESS in cart. coord.  units (eV):
  Direction    XX          YY          ZZ          XY          YZ          ZX
  --------------------------------------------------------------------------------------
  Alpha Z    75.25432    75.25432    75.25432
  Ewald   46522.23977 46905.10293 45812.73397 -1440.15564  1055.86569 -1078.70326
  Hartree 61323.45382 61671.98015 60606.90932 -1304.75737  1038.91211 -1022.88723
  E(xc)   -2905.91280 -2905.94598 -2905.86240    -0.58995    -0.13326    -0.13420
  Local  ************************************  2728.92459 -2092.98634  2097.48827
  n-local  -885.52053  -887.10366  -880.49822     4.25150    -5.23237     3.84270
  augment  4104.78964  4105.46278  4100.23996     0.16767     2.79300    -1.57560
  Kinetic  7813.09398  7813.30143  7805.89921     5.51886     0.66396     1.43353
  Fock        0.00000     0.00000     0.00000     0.00000     0.00000     0.00000
  -------------------------------------------------------------------------------------
  Total    -109.65474  -106.69586  -108.03669    -6.64034    -0.11721    -0.53580
  in kB      -6.50690    -6.33132    -6.41089    -0.39404    -0.00696    -0.03179
  external pressure =       -6.42 kB  Pullay stress =        0.00 kB


 VOLUME and BASIS-vectors are now :
 -----------------------------------------------------------------------------
  energy-cutoff  :      400.00
  volume of cell :    27000.00
      direct lattice vectors                 reciprocal lattice vectors
    30.000000000  0.000000000  0.000000000     0.033333333  0.000000000  0.000000000
     0.000000000 30.000000000  0.000000000     0.000000000  0.033333333  0.000000000
     0.000000000  0.000000000 30.000000000     0.000000000  0.000000000  0.033333333

  length of vectors
    30.000000000 30.000000000 30.000000000     0.033333333  0.033333333  0.033333333


 FORCES acting on ions
    electron-ion (+dipol)            ewald-force                    non-local-force                 convergence-correction
 -----------------------------------------------------------------------------------------------
   0.392E+03 0.976E+03 0.420E+03   -.389E+03 -.973E+03 -.420E+03   -.152E+01 -.183E+01 -.227E+00   -.147E-02 0.294E-02 -.327E-02
   -.977E+03 -.391E+03 0.420E+03   0.974E+03 0.389E+03 -.420E+03   0.182E+01 0.152E+01 -.226E+00   -.401E-02 0.571E-02 -.462E-02
   -.397E+03 0.975E+03 0.419E+03   0.395E+03 -.972E+03 -.418E+03   0.153E+01 -.182E+01 -.228E+00   0.260E-02 0.231E-02 -.191E-02
   0.974E+03 -.380E+03 0.442E+03   -.971E+03 0.378E+03 -.441E+03   -.185E+01 0.149E+01 -.247E+00   0.360E-02 -.156E-03 0.142E-02
   -.275E+01 0.590E+03 0.968E+03   0.274E+01 -.590E+03 -.965E+03   0.409E-02 -.326E+00 -.236E+01   -.249E-03 0.736E-02 -.206E-02
   -.693E+01 0.598E+03 -.966E+03   0.695E+01 -.597E+03 0.962E+03   -.122E-01 -.305E+00 0.234E+01   0.275E-02 -.228E-02 0.396E-02
   -.273E+01 0.114E+04 0.229E+01   0.272E+01 -.113E+04 -.228E+01   0.196E-02 -.311E+01 -.400E-02   0.169E-02 -.255E-02 0.410E-03
   0.115E+04 0.251E+02 0.192E+02   -.114E+04 -.251E+02 -.191E+02   -.313E+01 -.606E-02 -.467E-01   0.145E-02 0.438E-02 -.370E-02
   -.114E+04 0.308E+01 0.238E+01   0.113E+04 -.308E+01 -.238E+01   0.311E+01 -.154E-02 -.241E-02   0.266E-02 0.201E-02 -.221E-02
   -.286E+02 -.115E+04 0.239E+02   0.287E+02 0.114E+04 -.238E+02   -.156E-01 0.316E+01 -.503E-01   0.183E-03 -.438E-02 -.280E-02
   -.581E+03 0.581E+03 0.815E+03   0.578E+03 -.578E+03 -.812E+03   0.156E+01 -.157E+01 -.219E+01   -.128E-02 0.451E-02 -.244E-02
   -.584E+03 0.584E+03 -.813E+03   0.582E+03 -.582E+03 0.809E+03   0.156E+01 -.156E+01 0.220E+01   0.414E-02 -.291E-02 0.116E-02
   0.575E+03 -.575E+03 0.829E+03   -.573E+03 0.572E+03 -.826E+03   -.156E+01 0.156E+01 -.220E+01   0.377E-02 -.477E-02 0.423E-02
   0.437E+03 -.369E+03 -.104E+04   -.436E+03 0.368E+03 0.103E+04   0.771E+00 -.187E+01 0.685E+01   -.312E-02 0.229E-02 -.234E-02
   0.577E+03 0.583E+03 0.818E+03   -.574E+03 -.581E+03 -.814E+03   -.156E+01 -.156E+01 -.220E+01   0.786E-04 0.644E-02 -.119E-02
   0.575E+03 0.597E+03 -.815E+03   -.573E+03 -.594E+03 0.811E+03   -.153E+01 -.159E+01 0.216E+01   -.242E-02 -.105E-02 0.260E-02
   -.584E+03 -.576E+03 0.818E+03   0.581E+03 0.574E+03 -.815E+03   0.155E+01 0.156E+01 -.220E+01   -.333E-02 -.280E-02 0.251E-02
   -.598E+03 -.574E+03 -.815E+03   0.596E+03 0.572E+03 0.812E+03   0.161E+01 0.154E+01 0.216E+01   0.101E-02 0.343E-02 -.358E-03
   0.390E+03 0.981E+03 -.414E+03   -.388E+03 -.978E+03 0.414E+03   -.152E+01 -.180E+01 0.226E+00   -.111E-03 -.295E-02 0.937E-03
   -.981E+03 -.390E+03 -.414E+03   0.978E+03 0.387E+03 0.414E+03   0.180E+01 0.152E+01 0.226E+00   0.524E-02 -.657E-03 -.600E-02
   -.327E+03 0.327E+03 0.459E+03   0.327E+03 -.327E+03 -.459E+03   -.346E+00 0.345E+00 0.517E+00   -.316E-02 0.792E-02 -.619E-02
   0.972E+03 0.406E+03 0.427E+03   -.969E+03 -.404E+03 -.427E+03   -.181E+01 -.149E+01 -.215E+00   0.166E-02 0.865E-02 -.105E-02
   -.407E+03 -.971E+03 0.429E+03   0.404E+03 0.968E+03 -.428E+03   0.149E+01 0.182E+01 -.222E+00   -.510E-03 -.788E-02 -.274E-02
   -.398E+03 0.977E+03 -.415E+03   0.396E+03 -.974E+03 0.414E+03   0.150E+01 -.182E+01 0.224E+00   0.484E-02 -.218E-02 0.130E-02
   0.101E+04 -.276E+03 -.377E+03   -.101E+04 0.274E+03 0.377E+03   -.147E+01 0.166E+01 0.395E+00   -.218E-02 0.245E-02 -.687E-02
   -.975E+03 0.397E+03 0.419E+03   0.972E+03 -.395E+03 -.419E+03   0.182E+01 -.153E+01 -.231E+00   -.121E-02 0.565E-02 -.225E-02
   0.381E+03 -.973E+03 0.445E+03   -.379E+03 0.970E+03 -.444E+03   -.150E+01 0.185E+01 -.238E+00   0.283E-02 -.701E-02 0.624E-04
   0.316E+03 0.331E+03 0.463E+03   -.316E+03 -.332E+03 -.463E+03   0.362E+00 0.378E+00 0.530E+00   -.444E-03 0.109E-01 -.513E-02
   -.585E+01 0.648E+03 0.488E+01   0.585E+01 -.649E+03 -.489E+01   -.599E-02 0.742E+00 0.846E-02   0.147E-02 0.265E-02 -.529E-02
   -.590E+03 0.306E+01 0.968E+03   0.590E+03 -.306E+01 -.965E+03   0.330E+00 -.425E-02 -.236E+01   -.418E-02 0.846E-02 0.272E-03
   -.598E+03 0.796E+01 -.966E+03   0.598E+03 -.797E+01 0.962E+03   0.311E+00 0.103E-01 0.233E+01   0.346E-02 -.534E-02 0.217E-02
   0.584E+03 0.694E+01 0.975E+03   -.584E+03 -.693E+01 -.972E+03   -.312E+00 -.807E-02 -.235E+01   0.304E-02 0.380E-02 0.373E-02
   0.577E+03 0.565E+02 -.980E+03   -.577E+03 -.567E+02 0.976E+03   -.442E+00 0.131E-02 0.229E+01   -.308E-02 0.288E-02 0.108E-03
   0.758E+03 0.774E+03 0.665E+01   -.756E+03 -.772E+03 -.665E+01   -.114E+01 -.116E+01 0.511E-02   -.344E-02 0.419E-02 -.435E-02
   -.775E+03 -.757E+03 0.746E+01   0.773E+03 0.755E+03 -.745E+01   0.117E+01 0.113E+01 0.378E-02   -.215E-02 0.255E-02 -.995E-02
   -.765E+03 0.765E+03 0.274E+01   0.763E+03 -.763E+03 -.271E+01   0.115E+01 -.115E+01 -.163E-01   0.336E-02 -.118E-02 -.248E-03
   0.741E+03 -.731E+03 0.966E+02   -.740E+03 0.729E+03 -.968E+02   -.106E+01 0.112E+01 0.252E+00   0.721E-03 -.271E-02 -.577E-02
   -.460E+01 0.500E+01 0.108E+04   0.461E+01 -.502E+01 -.107E+04   -.872E-02 0.805E-02 -.161E+01   -.133E-03 0.648E-02 0.364E-02
   -.220E+02 0.240E+02 -.108E+04   0.220E+02 -.240E+02 0.107E+04   0.492E-01 -.440E-01 0.163E+01   -.136E-02 0.203E-03 0.363E-02
   0.975E+03 0.426E+03 -.410E+03   -.972E+03 -.424E+03 0.410E+03   -.183E+01 -.158E+01 0.235E+00   -.471E-02 0.434E-02 -.438E-02
   -.432E+03 -.974E+03 -.409E+03   0.429E+03 0.971E+03 0.409E+03   0.162E+01 0.185E+01 0.242E+00   -.177E-02 0.334E-02 -.818E-02
   -.332E+03 0.333E+03 -.450E+03   0.332E+03 -.333E+03 0.451E+03   -.382E+00 0.381E+00 -.515E+00   0.417E-02 -.313E-02 -.144E-03
   0.311E+03 -.309E+03 0.475E+03   -.311E+03 0.310E+03 -.476E+03   0.394E+00 -.390E+00 0.503E+00   0.146E-02 0.733E-03 -.206E-02
   0.310E+03 0.347E+03 -.448E+03   -.310E+03 -.347E+03 0.449E+03   0.397E+00 0.280E+00 -.530E+00   -.298E-02 0.315E-02 -.271E-02
   -.977E+03 0.399E+03 -.415E+03   0.974E+03 -.397E+03 0.414E+03   0.182E+01 -.149E+01 0.227E+00   0.520E-02 -.376E-02 -.878E-03
   0.233E+03 -.101E+04 -.356E+03   -.232E+03 0.101E+04 0.355E+03   -.834E+00 0.154E+01 0.282E+00   -.131E-02 0.112E-03 -.635E-02
   -.331E+03 -.315E+03 0.463E+03   0.332E+03 0.315E+03 -.464E+03   -.377E+00 -.364E+00 0.531E+00   -.253E-02 0.526E-02 -.732E-02
   0.633E+03 0.324E+02 0.247E+02   -.634E+03 -.325E+02 -.247E+02   0.725E+00 0.179E-01 -.707E-02   -.321E-02 0.804E-02 -.929E-02
   -.648E+03 0.665E+01 0.511E+01   0.649E+03 -.667E+01 -.511E+01   -.742E+00 0.133E-01 0.117E-01   0.220E-02 0.440E-02 -.865E-02
   -.671E+01 -.584E+03 0.976E+03   0.669E+01 0.583E+03 -.972E+03   0.105E-01 0.312E+00 -.235E+01   0.356E-02 -.424E-02 0.309E-02
   -.624E+02 -.570E+03 -.983E+03   0.628E+02 0.569E+03 0.980E+03   -.141E+00 0.457E+00 0.225E+01   -.399E-02 0.324E-02 -.104E-02
   -.158E+02 0.172E+02 0.131E+02   0.158E+02 -.172E+02 -.131E+02   -.200E-02 0.229E-02 0.157E-02   -.433E-02 0.815E-02 -.132E-01
   0.261E+03 -.251E+03 -.428E+03   -.261E+03 0.251E+03 0.429E+03   -.125E+00 0.235E+00 -.373E+00   -.426E-02 0.528E-02 -.815E-02
   -.348E+03 -.307E+03 -.448E+03   0.348E+03 0.308E+03 0.448E+03   -.293E+00 -.402E+00 -.530E+00   -.296E-02 0.508E-02 -.795E-02
   -.338E+02 -.629E+03 0.282E+02   0.339E+02 0.630E+03 -.282E+02   -.515E-01 -.744E+00 -.889E-02   -.161E-02 0.509E-03 -.969E-02
   0.197E+03 -.200E+03 0.135E+02   -.183E+03 0.186E+03 -.293E+02   -.911E+01 0.100E+02 0.106E+02   -.811E-03 0.204E-03 -.202E-02
   0.580E+03 -.629E+03 -.328E+03   -.620E+03 0.674E+03 0.357E+03   0.346E+02 -.389E+02 -.254E+02   -.631E-03 -.326E-04 -.196E-02
 -----------------------------------------------------------------------------------------------
   -.284E+02 0.318E+02 0.101E+02   0.568E-12 0.455E-12 -.398E-12   0.284E+02 -.319E+02 -.991E+01   -.579E-02 0.980E-01 -.142E+00
 
 
 POSITION                                       TOTAL-FORCE (eV/Angst)
 -----------------------------------------------------------------------------------
     13.37281      9.84801     12.50759         0.703601      1.100881      0.290208
     20.15199     16.62719     12.50759        -1.101694     -0.704436      0.289824
     16.62719      9.84801     12.50759        -0.712008      1.098072      0.298181
      9.84801     16.62719     12.50759         1.107876     -0.704551      0.283190
     15.00000     11.47521     10.20639        -0.007987      0.419344      1.277591
     15.00000     11.47521     19.79360         0.004084      0.415276     -1.283649
     15.00000      8.28283     15.00000        -0.001218      1.514403      0.002131
      8.28283     15.00000     15.00000         1.514156     -0.003689      0.005709
     21.71717     15.00000     15.00000        -1.514697      0.000860      0.001370
     15.00000     21.71717     15.00000         0.015609     -1.505163     -0.011075
     18.35858     11.64142     10.25025        -0.757810      0.759228      1.063614
     18.35858     11.64142     19.74975        -0.756082      0.755442     -1.072830
     11.64142     18.35858     10.25025         0.756383     -0.756724      1.072511
     11.64142     18.35858     19.74975         2.153911     -3.077023      1.637613
     11.64142     11.64142     10.25025         0.754497      0.753169      1.070181
     11.64142     11.64142     19.74975         0.751475      0.764811     -1.048720
     18.35858     18.35858     10.25025        -0.753406     -0.755061      1.070730
     18.35858     18.35858     19.74975        -0.775270     -0.753188     -1.042568
     13.37281      9.84801     17.49241         0.715640      1.097227     -0.296927
     20.15199     16.62719     17.49241        -1.098868     -0.713908     -0.297771
     16.73751     13.26249     12.54279         0.108852     -0.109414     -0.158081
      9.84801     13.37281     12.50759         1.104235      0.703870      0.288796
     16.62719     20.15199     12.50759        -0.702977     -1.100546      0.291960
     16.62719      9.84801     17.49241        -0.702074      1.106721     -0.290410
      9.84801     16.62719     17.49241         1.161842     -0.604368     -0.348530
     20.15199     13.37281     12.50759        -1.098249      0.711012      0.299561
     13.37281     20.15199     12.50759         0.707401     -1.108229      0.278629
     13.26249     13.26249     12.54279        -0.099480     -0.106198     -0.161321
     15.00000     11.52498     15.00000         0.003664     -0.227267     -0.001270
     18.52479     15.00000     10.20639        -0.420440      0.009779      1.278485
     18.52479     15.00000     19.79360        -0.415897     -0.003539     -1.282515
     11.47521     15.00000     10.20640         0.418353      0.006399      1.279098
     11.47521     15.00000     19.79360         0.402817     -0.140234     -1.284915
     11.49535     11.49535     15.00000         0.827083      0.838776     -0.002546
     18.50465     18.50465     15.00000        -0.841805     -0.824564      0.000206
     18.50465     11.49535     15.00000        -0.828608      0.829914      0.009856
     11.49535     18.50465     15.00000         0.776783     -0.777446      0.082689
     15.00000     15.00000     10.04368         0.001453     -0.002849      1.170890
     15.00000     15.00000     19.95633        -0.006702      0.001558     -1.185497
      9.84801     13.37281     17.49241         1.091423      0.713874     -0.293956
     16.62719     20.15199     17.49241        -0.701470     -1.090390     -0.299871
     16.73751     13.26249     17.45721         0.107589     -0.107782      0.160801
     13.26249     16.73751     12.54279        -0.116371      0.116042     -0.143700
     13.26249     13.26249     17.45721        -0.106018     -0.097939      0.151452
     20.15199     13.37281     17.49241        -1.107444      0.701147     -0.291914
     13.37281     20.15199     17.49241         0.062094     -1.428860     -0.272852
     16.73751     16.73751     12.54279         0.110413      0.096648     -0.164297
     11.52498     15.00000     15.00000        -0.231603     -0.022199     -0.005507
     18.47502     15.00000     15.00000         0.228044     -0.005595     -0.002762
     15.00000     18.52480     10.20639        -0.007213     -0.417161      1.280005
     15.00000     18.52480     19.79360         0.180323     -0.400352     -1.281775
     15.00000     15.00000     15.00000        -0.002023      0.001181      0.007328
     13.26249     16.73751     17.45721         0.045279     -0.081965      0.086943
     16.73751     16.73751     17.45721         0.101382      0.110267      0.152025
     15.00000     18.47502     15.00000         0.034724      0.229284     -0.017877
     11.15147     19.20672     18.19356         4.981538     -3.831984     -5.323469
     10.48718     19.93284     18.74479        -6.065109      6.607439      2.685029
 -----------------------------------------------------------------------------------
    total drift:                                0.000239      0.001430      0.003519


--------------------------------------------------------------------------------------------------------



  FREE ENERGIE OF THE ION-ELECTRON SYSTEM (eV)
  ---------------------------------------------------
  free  energy   TOTEN  =      -173.99765657 eV

  energy  without entropy=     -173.96509533  energy(sigma->0) =     -173.98951626
 


--------------------------------------------------------------------------------------------------------


    POTLOK:  cpu time   18.0738: real time   18.0741


--------------------------------------------------------------------------------------------------------


     LOOP+:  cpu time25812.6468: real time25814.1384
    4ORBIT:  cpu time    0.0000: real time    0.0000

 total amount of memory used by VASP MPI-rank0  5486942. kBytes
=======================================================================

   base      :      30000. kBytes
   nonlr-proj:      17127. kBytes
   fftplans  :     924480. kBytes
   grid      :    1872000. kBytes
   one-center:        886. kBytes
   wavefun   :    2642449. kBytes
 
  
  
 General timing and accounting informations for this job:
 ========================================================
  
                  Total CPU time used (sec):    25923.791
                            User time (sec):    24060.906
                          System time (sec):     1862.884
                         Elapsed time (sec):    25925.370
  
                   Maximum memory used (kb):     7179096.
                   Average memory used (kb):           0.
  
                          Minor page faults:    812276491
                          Major page faults:            0
                 Voluntary context switches:          593
