  57  57   0   0
  0.4736842E+03  0.3000000E-08  0.3000000E-08  0.3000000E-08  0.5000000E-15
  1.000000000000000E-004
  CAR 
 6_Pd100_top_free_z(O)                   
      1.31482569    -31.79882104  301     -4.11180160      1.00000000
    -31.799  0.0000E+00  0.0000E+00
    -31.688  0.0000E+00  0.0000E+00
    -31.578  0.0000E+00  0.0000E+00
    -31.468  0.8136E-27  0.8980E-28
    -31.357  0.4847E-23  0.5351E-24
    -31.247  0.1544E-19  0.1705E-20
    -31.137  0.2621E-16  0.2895E-17
    -31.026  0.2361E-13  0.2609E-14
    -30.916  0.1125E-10  0.1244E-11
    -30.805  0.2801E-08  0.3104E-09
    -30.695  0.3606E-06  0.4012E-07
    -30.585  0.2354E-04  0.2639E-05
    -30.474  0.7517E-03  0.8561E-04
    -30.364  0.1086E-01  0.1284E-02
    -30.254  0.5537E-01  0.7395E-02
    -30.143 -0.5373E-01  0.1464E-02
    -30.033 -0.7469E+00 -0.8098E-01
    -29.922  0.8356E+00  0.1126E-01
    -29.812  0.7699E+01  0.8610E+00
    -29.702  0.9063E+01  0.1861E+01
    -29.591  0.2156E+01  0.2099E+01
    -29.481 -0.8075E+00  0.2010E+01
    -29.370 -0.1760E+00  0.1991E+01
    -29.260  0.6331E-01  0.1998E+01
    -29.150  0.1793E-01  0.2000E+01
    -29.039  0.1536E-02  0.2000E+01
    -28.929  0.5757E-04  0.2000E+01
    -28.819  0.1042E-05  0.2000E+01
    -28.708  0.9493E-08  0.2000E+01
    -28.598  0.4457E-10  0.2000E+01
    -28.487  0.1086E-12  0.2000E+01
    -28.377  0.0000E+00  0.2000E+01
    -28.267  0.0000E+00  0.2000E+01
    -28.156  0.0000E+00  0.2000E+01
    -28.046  0.0000E+00  0.2000E+01
    -27.936  0.0000E+00  0.2000E+01
    -27.825  0.0000E+00  0.2000E+01
    -27.715  0.0000E+00  0.2000E+01
    -27.604  0.0000E+00  0.2000E+01
    -27.494  0.0000E+00  0.2000E+01
    -27.384  0.0000E+00  0.2000E+01
    -27.273  0.0000E+00  0.2000E+01
    -27.163  0.0000E+00  0.2000E+01
    -27.053  0.0000E+00  0.2000E+01
    -26.942  0.0000E+00  0.2000E+01
    -26.832  0.0000E+00  0.2000E+01
    -26.721  0.0000E+00  0.2000E+01
    -26.611  0.0000E+00  0.2000E+01
    -26.501  0.0000E+00  0.2000E+01
    -26.390  0.0000E+00  0.2000E+01
    -26.280  0.0000E+00  0.2000E+01
    -26.170  0.0000E+00  0.2000E+01
    -26.059  0.0000E+00  0.2000E+01
    -25.949  0.0000E+00  0.2000E+01
    -25.838  0.0000E+00  0.2000E+01
    -25.728  0.0000E+00  0.2000E+01
    -25.618  0.0000E+00  0.2000E+01
    -25.507  0.0000E+00  0.2000E+01
    -25.397  0.0000E+00  0.2000E+01
    -25.286  0.0000E+00  0.2000E+01
    -25.176  0.0000E+00  0.2000E+01
    -25.066  0.0000E+00  0.2000E+01
    -24.955  0.0000E+00  0.2000E+01
    -24.845  0.0000E+00  0.2000E+01
    -24.735  0.0000E+00  0.2000E+01
    -24.624  0.0000E+00  0.2000E+01
    -24.514  0.0000E+00  0.2000E+01
    -24.403  0.0000E+00  0.2000E+01
    -24.293  0.0000E+00  0.2000E+01
    -24.183  0.0000E+00  0.2000E+01
    -24.072  0.0000E+00  0.2000E+01
    -23.962  0.0000E+00  0.2000E+01
    -23.852  0.0000E+00  0.2000E+01
    -23.741  0.0000E+00  0.2000E+01
    -23.631  0.0000E+00  0.2000E+01
    -23.520  0.0000E+00  0.2000E+01
    -23.410  0.0000E+00  0.2000E+01
    -23.300  0.0000E+00  0.2000E+01
    -23.189  0.0000E+00  0.2000E+01
    -23.079  0.0000E+00  0.2000E+01
    -22.969  0.0000E+00  0.2000E+01
    -22.858  0.0000E+00  0.2000E+01
    -22.748  0.0000E+00  0.2000E+01
    -22.637  0.0000E+00  0.2000E+01
    -22.527  0.0000E+00  0.2000E+01
    -22.417  0.0000E+00  0.2000E+01
    -22.306  0.0000E+00  0.2000E+01
    -22.196  0.0000E+00  0.2000E+01
    -22.085  0.0000E+00  0.2000E+01
    -21.975  0.0000E+00  0.2000E+01
    -21.865  0.0000E+00  0.2000E+01
    -21.754  0.0000E+00  0.2000E+01
    -21.644  0.0000E+00  0.2000E+01
    -21.534  0.0000E+00  0.2000E+01
    -21.423  0.0000E+00  0.2000E+01
    -21.313  0.0000E+00  0.2000E+01
    -21.202  0.0000E+00  0.2000E+01
    -21.092  0.0000E+00  0.2000E+01
    -20.982  0.0000E+00  0.2000E+01
    -20.871  0.0000E+00  0.2000E+01
    -20.761  0.0000E+00  0.2000E+01
    -20.651  0.0000E+00  0.2000E+01
    -20.540  0.0000E+00  0.2000E+01
    -20.430  0.0000E+00  0.2000E+01
    -20.319  0.0000E+00  0.2000E+01
    -20.209  0.0000E+00  0.2000E+01
    -20.099  0.0000E+00  0.2000E+01
    -19.988  0.0000E+00  0.2000E+01
    -19.878  0.0000E+00  0.2000E+01
    -19.768  0.0000E+00  0.2000E+01
    -19.657  0.0000E+00  0.2000E+01
    -19.547  0.0000E+00  0.2000E+01
    -19.436  0.0000E+00  0.2000E+01
    -19.326  0.0000E+00  0.2000E+01
    -19.216  0.0000E+00  0.2000E+01
    -19.105  0.0000E+00  0.2000E+01
    -18.995  0.0000E+00  0.2000E+01
    -18.884  0.0000E+00  0.2000E+01
    -18.774  0.0000E+00  0.2000E+01
    -18.664  0.0000E+00  0.2000E+01
    -18.553  0.0000E+00  0.2000E+01
    -18.443  0.0000E+00  0.2000E+01
    -18.333  0.0000E+00  0.2000E+01
    -18.222  0.0000E+00  0.2000E+01
    -18.112  0.0000E+00  0.2000E+01
    -18.001  0.0000E+00  0.2000E+01
    -17.891  0.0000E+00  0.2000E+01
    -17.781  0.0000E+00  0.2000E+01
    -17.670  0.0000E+00  0.2000E+01
    -17.560  0.0000E+00  0.2000E+01
    -17.450  0.0000E+00  0.2000E+01
    -17.339  0.0000E+00  0.2000E+01
    -17.229  0.0000E+00  0.2000E+01
    -17.118  0.0000E+00  0.2000E+01
    -17.008  0.0000E+00  0.2000E+01
    -16.898  0.0000E+00  0.2000E+01
    -16.787  0.0000E+00  0.2000E+01
    -16.677  0.0000E+00  0.2000E+01
    -16.567  0.0000E+00  0.2000E+01
    -16.456  0.0000E+00  0.2000E+01
    -16.346  0.0000E+00  0.2000E+01
    -16.235  0.1242E-24  0.2000E+01
    -16.125  0.5180E-21  0.2000E+01
    -16.015  0.1153E-17  0.2000E+01
    -15.904  0.1366E-14  0.2000E+01
    -15.794  0.8574E-12  0.2000E+01
    -15.684  0.2823E-09  0.2000E+01
    -15.573  0.4837E-07  0.2000E+01
    -15.463  0.4243E-05  0.2000E+01
    -15.352  0.1855E-03  0.2000E+01
    -15.242  0.3824E-02  0.2000E+01
    -15.132  0.3235E-01  0.2004E+01
    -15.021  0.5079E-01  0.2010E+01
    -14.911 -0.4196E+00  0.1963E+01
    -14.800 -0.5279E+00  0.1905E+01
    -14.690  0.4500E+01  0.2402E+01
    -14.580  0.9961E+01  0.3501E+01
    -14.469  0.5266E+01  0.4083E+01
    -14.359 -0.3256E+00  0.4047E+01
    -14.249 -0.5026E+00  0.3991E+01
    -14.138  0.3780E-01  0.3995E+01
    -14.028  0.4058E-01  0.4000E+01
    -13.917  0.3267E-01  0.4003E+01
    -13.807  0.5879E-01  0.4010E+01
    -13.697 -0.3436E+00  0.3972E+01
    -13.586 -0.6638E+00  0.3899E+01
    -13.476  0.3792E+01  0.4317E+01
    -13.366  0.9842E+01  0.5404E+01
    -13.255  0.5989E+01  0.6065E+01
    -13.145 -0.6603E-01  0.6057E+01
    -13.034 -0.5306E+00  0.5999E+01
    -12.924  0.5501E-02  0.5999E+01
    -12.814 -0.6352E+00  0.5929E+01
    -12.703  0.3715E+00  0.5970E+01
    -12.593  0.6939E+01  0.6736E+01
    -12.483  0.9504E+01  0.7785E+01
    -12.372  0.2878E+01  0.8103E+01
    -12.262 -0.7726E+00  0.8018E+01
    -12.151 -0.2482E+00  0.7990E+01
    -12.041  0.6327E-01  0.7997E+01
    -11.931  0.2210E-01  0.8000E+01
    -11.820  0.2097E-02  0.8000E+01
    -11.710  0.9149E-04  0.8000E+01
    -11.599  0.2491E-03  0.8000E+01
    -11.489  0.4765E-02  0.8001E+01
    -11.379  0.3682E-01  0.8005E+01
    -11.268  0.3991E-01  0.8009E+01
    -11.158 -0.4906E+00  0.7955E+01
    -11.048 -0.3588E+00  0.7915E+01
    -10.937  0.5155E+01  0.8484E+01
    -10.827  0.9969E+01  0.9585E+01
    -10.716  0.4610E+01  0.1009E+02
    -10.606 -0.5026E+00  0.1004E+02
    -10.496 -0.4315E+00  0.9990E+01
    -10.385  0.4922E-01  0.9996E+01
    -10.275  0.3309E-01  0.1000E+02
    -10.165  0.3971E-02  0.1000E+02
    -10.054  0.1948E-03  0.1000E+02
     -9.944  0.4503E-05  0.1000E+02
     -9.833  0.5183E-07  0.1000E+02
     -9.723  0.3054E-09  0.1000E+02
     -9.613  0.9354E-12  0.1000E+02
     -9.502  0.2012E-14  0.1000E+02
     -9.392  0.1237E-20  0.1000E+02
     -9.282  0.2572E-17  0.1000E+02
     -9.171  0.2842E-14  0.1000E+02
     -9.061  0.1663E-11  0.1000E+02
     -8.950  0.5105E-09  0.1000E+02
     -8.840  0.8139E-07  0.1000E+02
     -8.730  0.6629E-05  0.1000E+02
     -8.619  0.2679E-03  0.1000E+02
     -8.509  0.5060E-02  0.1000E+02
     -8.399  0.3811E-01  0.1000E+02
     -8.288  0.3615E-01  0.1001E+02
     -8.178 -0.5104E+00  0.9952E+01
     -8.067 -0.3033E+00  0.9919E+01
     -7.957  0.5338E+01  0.1051E+02
     -7.847  0.9954E+01  0.1161E+02
     -7.736  0.4429E+01  0.1210E+02
     -7.626 -0.5434E+00  0.1204E+02
     -7.515 -0.4057E+00  0.1199E+02
     -7.405  0.9428E-01  0.1200E+02
     -7.295  0.5296E-01  0.1201E+02
     -7.184 -0.5671E+00  0.1194E+02
     -7.074 -0.4559E-01  0.1194E+02
     -6.964  0.5980E+01  0.1260E+02
     -6.853  0.9287E+01  0.1362E+02
     -6.743  0.3707E+01  0.1403E+02
     -6.632  0.5309E+01  0.1462E+02
     -6.522  0.9780E+01  0.1570E+02
     -6.412  0.2506E+01  0.1598E+02
     -6.301 -0.3282E+01  0.1561E+02
     -6.191  0.1646E+02  0.1743E+02
     -6.081  0.4733E+02  0.2266E+02
     -5.970  0.3937E+02  0.2700E+02
     -5.860  0.2172E+02  0.2940E+02
     -5.749  0.3927E+02  0.3373E+02
     -5.639  0.8437E+02  0.4305E+02
     -5.529  0.1766E+03  0.6253E+02
     -5.418  0.2782E+03  0.9324E+02
     -5.308  0.2756E+03  0.1237E+03
     -5.198  0.2151E+03  0.1474E+03
     -5.087  0.2364E+03  0.1735E+03
     -4.977  0.3274E+03  0.2096E+03
     -4.866  0.3537E+03  0.2487E+03
     -4.756  0.3051E+03  0.2824E+03
     -4.646  0.3267E+03  0.3184E+03
     -4.535  0.3993E+03  0.3625E+03
     -4.425  0.4123E+03  0.4080E+03
     -4.314  0.4670E+03  0.4595E+03
     -4.204  0.5500E+03  0.5203E+03
     -4.094  0.4066E+03  0.5651E+03
     -3.983  0.1305E+03  0.5795E+03
     -3.873  0.1762E+02  0.5815E+03
     -3.763  0.2395E+02  0.5841E+03
     -3.652  0.1971E+02  0.5863E+03
     -3.542  0.1601E+02  0.5881E+03
     -3.431  0.2266E+02  0.5906E+03
     -3.321  0.1744E+02  0.5925E+03
     -3.211  0.6362E+01  0.5932E+03
     -3.100  0.1694E+02  0.5951E+03
     -2.990  0.5271E+02  0.6009E+03
     -2.880  0.5292E+02  0.6067E+03
     -2.769  0.1870E+02  0.6088E+03
     -2.659  0.6028E+01  0.6095E+03
     -2.548  0.1284E+02  0.6109E+03
     -2.438  0.2175E+02  0.6133E+03
     -2.328  0.2186E+02  0.6157E+03
     -2.217  0.1759E+02  0.6176E+03
     -2.107  0.2157E+02  0.6200E+03
     -1.997  0.3254E+02  0.6236E+03
     -1.886  0.4148E+02  0.6282E+03
     -1.776  0.4423E+02  0.6331E+03
     -1.665  0.3658E+02  0.6371E+03
     -1.555  0.3475E+02  0.6409E+03
     -1.445  0.3291E+02  0.6446E+03
     -1.334  0.2396E+02  0.6472E+03
     -1.224  0.1998E+02  0.6494E+03
     -1.114  0.1811E+02  0.6514E+03
     -1.003  0.3209E+02  0.6550E+03
     -0.893  0.5738E+02  0.6613E+03
     -0.782  0.5525E+02  0.6674E+03
     -0.672  0.3333E+02  0.6711E+03
     -0.562  0.1021E+02  0.6722E+03
     -0.451 -0.1155E+01  0.6721E+03
     -0.341 -0.9662E+00  0.6720E+03
     -0.230  0.1445E+00  0.6720E+03
     -0.120  0.1059E+00  0.6720E+03
     -0.010  0.1534E-01  0.6720E+03
      0.101  0.9322E-03  0.6720E+03
      0.211  0.2711E-04  0.6720E+03
      0.321  0.3966E-06  0.6720E+03
      0.432  0.2989E-08  0.6720E+03
      0.542  0.1176E-10  0.6720E+03
      0.653  0.2414E-13  0.6720E+03
      0.763  0.0000E+00  0.6720E+03
      0.873  0.0000E+00  0.6720E+03
      0.984  0.0000E+00  0.6720E+03
      1.094  0.0000E+00  0.6720E+03
      1.204  0.0000E+00  0.6720E+03
      1.315  0.0000E+00  0.6720E+03
