<?xml version="1.0" encoding="ISO-8859-1"?>
<modeling>
 <generator>
  <i name="program" type="string">vasp </i>
  <i name="version" type="string">5.4.4.18Apr17-6-g9f103f2a35  </i>
  <i name="subversion" type="string">(build Sep 03 2018 23:53:05) complex            parallel </i>
  <i name="platform" type="string">LinuxIFC </i>
  <i name="date" type="string">2021 12 02 </i>
  <i name="time" type="string">04:31:26 </i>
 </generator>
 <incar>
  <i type="string" name="SYSTEM"> 6_Pd100_top_free_z(O)</i>
  <i type="int" name="ISTART">     0</i>
  <i type="string" name="PREC">normal   			! encut=max(enmax), ngx,y,z</i>
  <i type="string" name="ALGO"> Fast     			! Mix RMM-DIIS and Dav</i>
  <i type="logical" name="ADDGRID"> F  </i>
  <i type="int" name="ISPIN">     1</i>
  <i type="int" name="ICHARG">     2</i>
  <i type="int" name="NELM">   100</i>
  <i type="int" name="NELMIN">     6</i>
  <i type="int" name="IBRION">     2</i>
  <i name="EDIFF">      0.00010000</i>
  <i name="EDIFFG">     -0.05000000</i>
  <i type="int" name="NSW">     0</i>
  <i type="int" name="ISIF">     2</i>
  <i type="int" name="ISYM">     2</i>
  <i name="ENCUT">    400.00000000</i>
  <i type="string" name="LREAL"> Auto     			! Auto or A projection done</i>
  <i type="int" name="ISMEAR">     2</i>
  <i name="SIGMA">      0.20000000</i>
  <i type="logical" name="LWAVE"> F  </i>
  <i type="logical" name="LCHARG"> F  </i>
  <v type="int" name="KPOINT_BSE">    -1     0     0     0</v>
  <i type="int" name="MAXMEM"> 10000</i>
  <i type="int" name="NELM">   100</i>
  <i type="string" name="GGA"> RP         			! Revised PBE</i>
 </incar>
 <structure name="primitive_cell" >
  <crystal>
   <varray name="basis" >
    <v>      30.00000000       0.00000000       0.00000000 </v>
    <v>       0.00000000      30.00000000       0.00000000 </v>
    <v>       0.00000000       0.00000000      30.00000000 </v>
   </varray>
   <i name="volume">  27000.00000000 </i>
   <varray name="rec_basis" >
    <v>       0.03333333       0.00000000       0.00000000 </v>
    <v>       0.00000000       0.03333333       0.00000000 </v>
    <v>       0.00000000       0.00000000       0.03333333 </v>
   </varray>
  </crystal>
  <varray name="positions" >
   <v>       0.44576020       0.32826710       0.41691983 </v>
   <v>      -0.44576020       0.32826710       0.41691983 </v>
   <v>      -0.50000000       0.38250690       0.34021317 </v>
   <v>      -0.50000000       0.27609440      -0.50000000 </v>
   <v>       0.38804720       0.38804720       0.34167483 </v>
   <v>      -0.50000000       0.38416601      -0.50000000 </v>
   <v>       0.44208300       0.44208300       0.41809300 </v>
   <v>       0.38317830       0.38317830      -0.50000000 </v>
   <v>      -0.44208300       0.44208300       0.41809300 </v>
   <v>       0.44576020       0.32826710      -0.41691977 </v>
   <v>       0.32826705       0.44576024       0.41691983 </v>
   <v>      -0.38804720       0.38804720       0.34167483 </v>
   <v>      -0.38317830       0.38317830      -0.50000000 </v>
   <v>      -0.50000000      -0.50000000       0.33478917 </v>
   <v>      -0.50000000      -0.50000000      -0.50000000 </v>
   <v>      -0.44576020       0.32826710      -0.41691977 </v>
   <v>       0.38250685      -0.49999995       0.34021317 </v>
   <v>       0.44208300       0.44208300      -0.41809297 </v>
   <v>       0.38416599      -0.49999998      -0.50000000 </v>
   <v>      -0.44208300       0.44208300      -0.41809297 </v>
   <v>       0.44208298      -0.44208298       0.41809300 </v>
   <v>       0.32826705       0.44576024      -0.41691977 </v>
   <v>      -0.50000000       0.38250690      -0.34021320 </v>
   <v>       0.32826712      -0.44576022       0.41691983 </v>
   <v>      -0.38250685      -0.49999995       0.34021317 </v>
   <v>      -0.32826705       0.44576024       0.41691983 </v>
   <v>       0.27609443       0.49999998      -0.50000000 </v>
   <v>       0.38804720       0.38804720      -0.34167487 </v>
   <v>      -0.38416599      -0.49999998      -0.50000000 </v>
   <v>      -0.44208298      -0.44208298       0.41809300 </v>
   <v>      -0.45211043       0.40950187      -0.33757077 </v>
   <v>       0.44208298      -0.44208298      -0.41809297 </v>
   <v>      -0.38804720       0.38804720      -0.34167487 </v>
   <v>       0.38804722      -0.38804722       0.34167483 </v>
   <v>       0.38250685      -0.49999995      -0.34021320 </v>
   <v>       0.32826712      -0.44576022      -0.41691977 </v>
   <v>      -0.32826705       0.44576024      -0.41691977 </v>
   <v>       0.50000000      -0.38250681       0.34021317 </v>
   <v>      -0.50000000      -0.38416596      -0.50000000 </v>
   <v>      -0.44208298      -0.44208298      -0.41809297 </v>
   <v>      -0.44273237       0.39177993      -0.30576283 </v>
   <v>      -0.50000000      -0.50000000      -0.33478913 </v>
   <v>       0.38317828      -0.38317828      -0.50000000 </v>
   <v>      -0.32826712      -0.44576022       0.41691983 </v>
   <v>      -0.27609443       0.49999998      -0.50000000 </v>
   <v>      -0.38804722      -0.38804722       0.34167483 </v>
   <v>      -0.38250685      -0.49999995      -0.34021320 </v>
   <v>       0.44576027      -0.32826707       0.41691983 </v>
   <v>      -0.38317828      -0.38317828      -0.50000000 </v>
   <v>      -0.32826712      -0.44576022      -0.41691977 </v>
   <v>      -0.44576027      -0.32826707       0.41691983 </v>
   <v>       0.38804722      -0.38804722      -0.34167487 </v>
   <v>      -0.50000000      -0.38250681      -0.34021320 </v>
   <v>       0.44576027      -0.32826707      -0.41691977 </v>
   <v>      -0.44576027      -0.32826707      -0.41691977 </v>
   <v>      -0.50000000      -0.27609445       0.50000000 </v>
   <v>      -0.38804722      -0.38804722      -0.34167487 </v>
  </varray>
 </structure>
 <varray name="primitive_index" >
  <v type="int" >        1 </v>
  <v type="int" >        3 </v>
  <v type="int" >        5 </v>
  <v type="int" >        7 </v>
  <v type="int" >       15 </v>
  <v type="int" >       29 </v>
  <v type="int" >       28 </v>
  <v type="int" >       34 </v>
  <v type="int" >       21 </v>
  <v type="int" >       19 </v>
  <v type="int" >       22 </v>
  <v type="int" >       11 </v>
  <v type="int" >       36 </v>
  <v type="int" >       38 </v>
  <v type="int" >       52 </v>
  <v type="int" >       24 </v>
  <v type="int" >       32 </v>
  <v type="int" >       44 </v>
  <v type="int" >       48 </v>
  <v type="int" >       42 </v>
  <v type="int" >       43 </v>
  <v type="int" >       40 </v>
  <v type="int" >        6 </v>
  <v type="int" >        4 </v>
  <v type="int" >       30 </v>
  <v type="int" >       26 </v>
  <v type="int" >        8 </v>
  <v type="int" >       16 </v>
  <v type="int" >       49 </v>
  <v type="int" >       47 </v>
  <v type="int" >       56 </v>
  <v type="int" >       53 </v>
  <v type="int" >       12 </v>
  <v type="int" >       13 </v>
  <v type="int" >       33 </v>
  <v type="int" >       25 </v>
  <v type="int" >       45 </v>
  <v type="int" >       50 </v>
  <v type="int" >       55 </v>
  <v type="int" >       54 </v>
  <v type="int" >       57 </v>
  <v type="int" >       39 </v>
  <v type="int" >       37 </v>
  <v type="int" >        2 </v>
  <v type="int" >        9 </v>
  <v type="int" >       17 </v>
  <v type="int" >       31 </v>
  <v type="int" >       27 </v>
  <v type="int" >       35 </v>
  <v type="int" >       20 </v>
  <v type="int" >       23 </v>
  <v type="int" >       14 </v>
  <v type="int" >       51 </v>
  <v type="int" >       46 </v>
  <v type="int" >       41 </v>
  <v type="int" >       10 </v>
  <v type="int" >       18 </v>
 </varray>
 <kpoints>
  <generation param="Monkhorst-Pack">
   <v type="int" name="divisions">       1        1        1 </v>
   <v name="usershift">      0.00000000       0.00000000       0.00000000 </v>
   <v name="genvec1">      1.00000000       0.00000000       0.00000000 </v>
   <v name="genvec2">      0.00000000       1.00000000       0.00000000 </v>
   <v name="genvec3">      0.00000000       0.00000000       1.00000000 </v>
   <v name="shift">      0.00000000       0.00000000       0.00000000 </v>
  </generation>
  <varray name="kpointlist" >
   <v>       0.00000000       0.00000000       0.00000000 </v>
  </varray>
  <varray name="weights" >
   <v>       1.00000000 </v>
  </varray>
 </kpoints>
 <parameters>
  <separator name="general" >
   <i type="string" name="SYSTEM">6_Pd100_top_free_z(O)</i>
   <i type="logical" name="LCOMPAT"> F  </i>
  </separator>
  <separator name="electronic" >
   <i type="string" name="PREC">normal</i>
   <i name="ENMAX">    400.00000000</i>
   <i name="ENAUG">    644.87300000</i>
   <i name="EDIFF">      0.00010000</i>
   <i type="int" name="IALGO">    68</i>
   <i type="int" name="IWAVPR">    10</i>
   <i type="int" name="NBANDS">   336</i>
   <i name="NELECT">    560.00000000</i>
   <i type="int" name="TURBO">     0</i>
   <i type="int" name="IRESTART">     0</i>
   <i type="int" name="NREBOOT">     0</i>
   <i type="int" name="NMIN">     0</i>
   <i name="EREF">      0.00000000</i>
   <separator name="electronic smearing" >
    <i type="int" name="ISMEAR">     2</i>
    <i name="SIGMA">      0.20000000</i>
    <i name="KSPACING">      0.50000000</i>
    <i type="logical" name="KGAMMA"> T  </i>
   </separator>
   <separator name="electronic projectors" >
    <i type="logical" name="LREAL"> T  </i>
    <v name="ROPT">     -0.00050000     -0.00050000     -0.00050000</v>
    <i type="int" name="LMAXPAW">  -100</i>
    <i type="int" name="LMAXMIX">     2</i>
    <i type="logical" name="NLSPLINE"> F  </i>
   </separator>
   <separator name="electronic startup" >
    <i type="int" name="ISTART">     0</i>
    <i type="int" name="ICHARG">     2</i>
    <i type="int" name="INIWAV">     1</i>
   </separator>
   <separator name="electronic spin" >
    <i type="int" name="ISPIN">     1</i>
    <i type="logical" name="LNONCOLLINEAR"> F  </i>
    <v name="MAGMOM">      1.00000000      1.00000000      1.00000000      1.00000000      1.00000000      1.00000000      1.00000000      1.00000000      1.00000000      1.00000000      1.00000000      1.00000000      1.00000000      1.00000000      1.00000000      1.00000000      1.00000000      1.00000000      1.00000000      1.00000000
      1.00000000      1.00000000      1.00000000      1.00000000      1.00000000      1.00000000      1.00000000      1.00000000      1.00000000      1.00000000      1.00000000      1.00000000      1.00000000      1.00000000      1.00000000      1.00000000      1.00000000      1.00000000      1.00000000      1.00000000
      1.00000000      1.00000000      1.00000000      1.00000000      1.00000000      1.00000000      1.00000000      1.00000000      1.00000000      1.00000000      1.00000000      1.00000000      1.00000000      1.00000000      1.00000000      1.00000000      1.00000000</v>
    <i name="NUPDOWN">     -1.00000000</i>
    <i type="logical" name="LSORBIT"> F  </i>
    <v name="SAXIS">      0.00000000      0.00000000      1.00000000</v>
    <i type="logical" name="LSPIRAL"> F  </i>
    <v name="QSPIRAL">      0.00000000      0.00000000      0.00000000</v>
    <i type="logical" name="LZEROZ"> F  </i>
   </separator>
   <separator name="electronic exchange-correlation" >
    <i type="logical" name="LASPH"> F  </i>
    <i type="logical" name="LMETAGGA"> F  </i>
   </separator>
   <separator name="electronic convergence" >
    <i type="int" name="NELM">   100</i>
    <i type="int" name="NELMDL">    -5</i>
    <i type="int" name="NELMIN">     6</i>
    <i name="ENINI">    400.00000000</i>
    <separator name="electronic convergence detail" >
     <i type="logical" name="LDIAG"> T  </i>
     <i type="logical" name="LSUBROT"> F  </i>
     <i name="WEIMIN">      0.00000000</i>
     <i name="EBREAK">      0.00000007</i>
     <i name="DEPER">      0.30000000</i>
     <i type="int" name="NRMM">     4</i>
     <i name="TIME">      0.40000000</i>
    </separator>
   </separator>
   <separator name="electronic mixer" >
    <i name="AMIX">      0.40000000</i>
    <i name="BMIX">      1.00000000</i>
    <i name="AMIN">      0.10000000</i>
    <i name="AMIX_MAG">      1.60000000</i>
    <i name="BMIX_MAG">      1.00000000</i>
    <separator name="electronic mixer details" >
     <i type="int" name="IMIX">     4</i>
     <i type="logical" name="MIXFIRST"> F  </i>
     <i type="int" name="MAXMIX">   -45</i>
     <i name="WC">    100.00000000</i>
     <i type="int" name="INIMIX">     1</i>
     <i type="int" name="MIXPRE">     1</i>
     <i type="int" name="MREMOVE">     5</i>
    </separator>
   </separator>
   <separator name="electronic dipolcorrection" >
    <i type="logical" name="LDIPOL"> F  </i>
    <i type="logical" name="LMONO"> F  </i>
    <i type="int" name="IDIPOL">     0</i>
    <i name="EPSILON">      1.00000000</i>
    <v name="DIPOL">   -100.00000000   -100.00000000   -100.00000000</v>
    <i name="EFIELD">      0.00000000</i>
   </separator>
  </separator>
  <separator name="grids" >
   <i type="int" name="NGX">   150</i>
   <i type="int" name="NGY">   150</i>
   <i type="int" name="NGZ">   150</i>
   <i type="int" name="NGXF">   300</i>
   <i type="int" name="NGYF">   300</i>
   <i type="int" name="NGZF">   300</i>
   <i type="logical" name="ADDGRID"> F  </i>
  </separator>
  <separator name="ionic" >
   <i type="int" name="NSW">     0</i>
   <i type="int" name="IBRION">    -1</i>
   <i type="int" name="MDALGO">     0</i>
   <i type="int" name="ISIF">     2</i>
   <i name="PSTRESS">      0.00000000</i>
   <i name="EDIFFG">     -0.05000000</i>
   <i type="int" name="NFREE">     1</i>
   <i name="POTIM">      0.50000000</i>
   <i name="SMASS">     -3.00000000</i>
   <i name="SCALEE">      1.00000000</i>
  </separator>
  <separator name="ionic md" >
   <i name="TEBEG">      0.00010000</i>
   <i name="TEEND">      0.00010000</i>
   <i type="int" name="NBLOCK">     1</i>
   <i type="int" name="KBLOCK">     1</i>
   <i type="int" name="NPACO">   256</i>
   <i name="APACO">     16.00000000</i>
  </separator>
  <separator name="symmetry" >
   <i type="int" name="ISYM">     2</i>
   <i name="SYMPREC">      0.00001000</i>
  </separator>
  <separator name="dos" >
   <i type="int" name="LORBIT">     0</i>
   <v name="RWIGS">     -1.00000000     -1.00000000     -1.00000000</v>
   <i type="int" name="NEDOS">   301</i>
   <i name="EMIN">     10.00000000</i>
   <i name="EMAX">    -10.00000000</i>
   <i name="EFERMI">      0.00000000</i>
  </separator>
  <separator name="writing" >
   <i type="int" name="NWRITE">     2</i>
   <i type="logical" name="LWAVE"> F  </i>
   <i type="logical" name="LDOWNSAMPLE"> F  </i>
   <i type="logical" name="LCHARG"> F  </i>
   <i type="logical" name="LPARD"> F  </i>
   <i type="logical" name="LVTOT"> F  </i>
   <i type="logical" name="LVHAR"> F  </i>
   <i type="logical" name="LELF"> F  </i>
   <i type="logical" name="LOPTICS"> F  </i>
   <v name="STM">      0.00000000      0.00000000      0.00000000      0.00000000      0.00000000      0.00000000      0.00000000</v>
  </separator>
  <separator name="performance" >
   <i type="int" name="NPAR">     1</i>
   <i type="int" name="NSIM">     4</i>
   <i type="int" name="NBLK">    -1</i>
   <i type="logical" name="LPLANE"> T  </i>
   <i type="logical" name="LSCALAPACK"> T  </i>
   <i type="logical" name="LSCAAWARE"> F  </i>
   <i type="logical" name="LSCALU"> F  </i>
   <i type="logical" name="LASYNC"> F  </i>
   <i type="logical" name="LORBITALREAL"> F  </i>
  </separator>
  <separator name="miscellaneous" >
   <i type="int" name="IDIOT">     3</i>
   <i type="int" name="ISPECIAL">     0</i>
   <i type="logical" name="LMUSIC"> F  </i>
   <v name="POMASS">    106.42000000     12.01100000     16.00000000</v>
   <v name="DARWINR">      0.00000000      0.00000000      0.00000000</v>
   <v name="DARWINV">      1.00000000      1.00000000      1.00000000</v>
   <i type="logical" name="LCORR"> T  </i>
  </separator>
  <i type="logical" name="GGA_COMPAT"> T  </i>
  <i type="logical" name="LBERRY"> F  </i>
  <i type="int" name="ICORELEVEL">     0</i>
  <i type="logical" name="LDAU"> F  </i>
  <i type="int" name="I_CONSTRAINED_M">     0</i>
  <separator name="electronic exchange-correlation" >
   <i type="string" name="GGA">RP</i>
   <i type="int" name="VOSKOWN">     0</i>
   <i type="logical" name="LHFCALC"> F  </i>
   <i type="string" name="PRECFOCK"></i>
   <i type="logical" name="LSYMGRAD"> F  </i>
   <i type="logical" name="LHFONE"> F  </i>
   <i type="logical" name="LRHFCALC"> F  </i>
   <i type="logical" name="LTHOMAS"> F  </i>
   <i type="logical" name="LMODELHF"> F  </i>
   <i name="ENCUT4O">     -1.00000000</i>
   <i type="int" name="EXXOEP">     0</i>
   <i type="int" name="FOURORBIT">     0</i>
   <i name="AEXX">      0.00000000</i>
   <i name="HFALPHA">      0.00000000</i>
   <i name="MCALPHA">      0.00000000</i>
   <i name="ALDAX">      1.00000000</i>
   <i name="AGGAX">      1.00000000</i>
   <i name="ALDAC">      1.00000000</i>
   <i name="AGGAC">      1.00000000</i>
   <i type="int" name="NKREDX">     1</i>
   <i type="int" name="NKREDY">     1</i>
   <i type="int" name="NKREDZ">     1</i>
   <i type="logical" name="SHIFTRED"> F  </i>
   <i type="logical" name="ODDONLY"> F  </i>
   <i type="logical" name="EVENONLY"> F  </i>
   <i type="int" name="LMAXFOCK">     0</i>
   <i type="int" name="NMAXFOCKAE">     0</i>
   <i type="logical" name="LFOCKAEDFT"> F  </i>
   <i name="HFSCREEN">      0.00000000</i>
   <i name="HFSCREENC">      0.00000000</i>
   <i type="int" name="NBANDSGWLOW">     0</i>
  </separator>
  <separator name="vdW DFT" >
   <i type="logical" name="LUSE_VDW"> F  </i>
   <i name="Zab_VDW">     -0.84910000</i>
   <i name="PARAM1">      0.12340000</i>
   <i name="PARAM2">      1.00000000</i>
   <i name="PARAM3">      0.00000000</i>
  </separator>
  <separator name="model GW" >
   <i type="int" name="MODEL_GW">     0</i>
   <i name="MODEL_EPS0">    284.21052632</i>
   <i name="MODEL_ALPHA">      1.00000000</i>
  </separator>
  <separator name="linear response parameters" >
   <i type="logical" name="LEPSILON"> F  </i>
   <i type="logical" name="LRPA"> F  </i>
   <i type="logical" name="LNABLA"> F  </i>
   <i type="logical" name="LVEL"> F  </i>
   <i type="int" name="KINTER">     0</i>
   <i name="CSHIFT">      0.10000000</i>
   <i name="OMEGAMAX">     -1.00000000</i>
   <i name="DEG_THRESHOLD">      0.00200000</i>
   <i name="RTIME">     -0.10000000</i>
   <i name="WPLASMAI">      0.00000000</i>
   <v name="DFIELD">      0.00000000      0.00000000      0.00000000</v>
   <v name="WPLASMA">      0.00000000      0.00000000      0.00000000      0.00000000      0.00000000      0.00000000      0.00000000      0.00000000      0.00000000</v>
  </separator>
  <separator name="orbital magnetization" >
   <i type="logical" name="NUCIND"> F  </i>
   <v name="MAGPOS">      0.00000000      0.00000000      0.00000000</v>
   <i type="logical" name="LNICSALL"> T  </i>
   <i type="logical" name="ORBITALMAG"> F  </i>
   <i type="logical" name="LMAGBLOCH"> F  </i>
   <i type="logical" name="LCHIMAG"> F  </i>
   <i type="logical" name="LGAUGE"> T  </i>
   <i type="int" name="MAGATOM">     0</i>
   <v name="MAGDIPOL">      0.00000000      0.00000000      0.00000000</v>
   <v name="AVECCONST">      0.00000000      0.00000000      0.00000000</v>
  </separator>
  <separator name="response functions" >
   <i type="logical" name="LADDER"> F  </i>
   <i type="logical" name="LRPAFORCE"> F  </i>
   <i type="logical" name="LFXC"> F  </i>
   <i type="logical" name="LHARTREE"> T  </i>
   <i type="int" name="IBSE">     0</i>
   <v type="int" name="KPOINT">    -1     0     0     0</v>
   <i type="logical" name="LTCTE"> F  </i>
   <i type="logical" name="LTETE"> F  </i>
   <i type="logical" name="LTRIPLET"> F  </i>
   <i type="logical" name="LFXCEPS"> F  </i>
   <i type="logical" name="LFXHEG"> F  </i>
   <i type="int" name="NATURALO">     2</i>
   <i type="logical" name="L2ORDER"> F  </i>
   <i type="logical" name="LMP2LT"> F  </i>
   <i type="logical" name="LUSEW"> F  </i>
   <i name="ENCUTGW">     -2.00000000</i>
   <i name="ENCUTGWSOFT">     -2.00000000</i>
   <i name="ENCUTLF">     -1.00000000</i>
   <i type="int" name="LMAXMP2">    -1</i>
   <i name="SCISSOR">      0.00000000</i>
   <i type="int" name="NOMEGA">     0</i>
   <i type="int" name="NOMEGAR">     0</i>
   <i type="int" name="NBANDSGW">    -1</i>
   <i type="int" name="NBANDSO">    -1</i>
   <i type="int" name="NBANDSV">    -1</i>
   <i type="int" name="NELM">   100</i>
   <i type="int" name="NELMHF">     1</i>
   <i type="int" name="DIM">     3</i>
   <i type="int" name="ANTIRES">     0</i>
   <i name="OMEGAMAX">    -30.00000000</i>
   <i name="OMEGAMIN">    -30.00000000</i>
   <i name="OMEGATL">   -200.00000000</i>
   <i type="int" name="OMEGAGRID">   140</i>
   <i name="CSHIFT">     -0.10000000</i>
   <i type="logical" name="SELFENERGY"> F  </i>
   <i type="logical" name="LSPECTRAL"> F  </i>
   <i type="logical" name="LSPECTRALGW"> F  </i>
   <i type="logical" name="LSINGLES"> F  </i>
   <i type="logical" name="LFERMIGW"> F  </i>
   <i type="logical" name="ODDONLYGW"> F  </i>
   <i type="logical" name="EVENONLYGW"> F  </i>
   <i type="int" name="NKREDLFX">     1</i>
   <i type="int" name="NKREDLFY">     1</i>
   <i type="int" name="NKREDLFZ">     1</i>
   <i type="int" name="MAXMEM"> 10000</i>
   <i type="int" name="TELESCOPE">     0</i>
   <i type="int" name="TAUPAR">     1</i>
   <i type="int" name="OMEGAPAR">    -1</i>
   <i name="LAMBDA">      1.00000000</i>
  </separator>
  <separator name="External order field" >
   <i name="OFIELD_KAPPA">      0.00000000</i>
   <v name="OFIELD_K">      0.00000000      0.00000000      0.00000000</v>
   <i name="OFIELD_Q6_NEAR">      0.00000000</i>
   <i name="OFIELD_Q6_FAR">      0.00000000</i>
   <i name="OFIELD_A">      0.00000000</i>
  </separator>
 </parameters>
 <atominfo>
  <atoms>      57 </atoms>
  <types>       3 </types>
  <array name="atoms" >
   <dimension dim="1">ion</dimension>
   <field type="string">element</field>
   <field type="int">atomtype</field>
   <set>
    <rc><c>Pd</c><c>   1</c></rc>
    <rc><c>Pd</c><c>   1</c></rc>
    <rc><c>Pd</c><c>   1</c></rc>
    <rc><c>Pd</c><c>   1</c></rc>
    <rc><c>Pd</c><c>   1</c></rc>
    <rc><c>Pd</c><c>   1</c></rc>
    <rc><c>Pd</c><c>   1</c></rc>
    <rc><c>Pd</c><c>   1</c></rc>
    <rc><c>Pd</c><c>   1</c></rc>
    <rc><c>Pd</c><c>   1</c></rc>
    <rc><c>Pd</c><c>   1</c></rc>
    <rc><c>Pd</c><c>   1</c></rc>
    <rc><c>Pd</c><c>   1</c></rc>
    <rc><c>Pd</c><c>   1</c></rc>
    <rc><c>Pd</c><c>   1</c></rc>
    <rc><c>Pd</c><c>   1</c></rc>
    <rc><c>Pd</c><c>   1</c></rc>
    <rc><c>Pd</c><c>   1</c></rc>
    <rc><c>Pd</c><c>   1</c></rc>
    <rc><c>Pd</c><c>   1</c></rc>
    <rc><c>Pd</c><c>   1</c></rc>
    <rc><c>Pd</c><c>   1</c></rc>
    <rc><c>Pd</c><c>   1</c></rc>
    <rc><c>Pd</c><c>   1</c></rc>
    <rc><c>Pd</c><c>   1</c></rc>
    <rc><c>Pd</c><c>   1</c></rc>
    <rc><c>Pd</c><c>   1</c></rc>
    <rc><c>Pd</c><c>   1</c></rc>
    <rc><c>Pd</c><c>   1</c></rc>
    <rc><c>Pd</c><c>   1</c></rc>
    <rc><c>Pd</c><c>   1</c></rc>
    <rc><c>Pd</c><c>   1</c></rc>
    <rc><c>Pd</c><c>   1</c></rc>
    <rc><c>Pd</c><c>   1</c></rc>
    <rc><c>Pd</c><c>   1</c></rc>
    <rc><c>Pd</c><c>   1</c></rc>
    <rc><c>Pd</c><c>   1</c></rc>
    <rc><c>Pd</c><c>   1</c></rc>
    <rc><c>Pd</c><c>   1</c></rc>
    <rc><c>Pd</c><c>   1</c></rc>
    <rc><c>Pd</c><c>   1</c></rc>
    <rc><c>Pd</c><c>   1</c></rc>
    <rc><c>Pd</c><c>   1</c></rc>
    <rc><c>Pd</c><c>   1</c></rc>
    <rc><c>Pd</c><c>   1</c></rc>
    <rc><c>Pd</c><c>   1</c></rc>
    <rc><c>Pd</c><c>   1</c></rc>
    <rc><c>Pd</c><c>   1</c></rc>
    <rc><c>Pd</c><c>   1</c></rc>
    <rc><c>Pd</c><c>   1</c></rc>
    <rc><c>Pd</c><c>   1</c></rc>
    <rc><c>Pd</c><c>   1</c></rc>
    <rc><c>Pd</c><c>   1</c></rc>
    <rc><c>Pd</c><c>   1</c></rc>
    <rc><c>Pd</c><c>   1</c></rc>
    <rc><c>C </c><c>   2</c></rc>
    <rc><c>O </c><c>   3</c></rc>
   </set>
  </array>
  <array name="atomtypes" >
   <dimension dim="1">type</dimension>
   <field type="int">atomspertype</field>
   <field type="string">element</field>
   <field>mass</field>
   <field>valence</field>
   <field type="string">pseudopotential</field>
   <set>
    <rc><c>  55</c><c>Pd</c><c>    106.42000000</c><c>     10.00000000</c><c>  PAW_PBE Pd 04Jan2005                  </c></rc>
    <rc><c>   1</c><c>C </c><c>     12.01100000</c><c>      4.00000000</c><c>  PAW_PBE C 08Apr2002                   </c></rc>
    <rc><c>   1</c><c>O </c><c>     16.00000000</c><c>      6.00000000</c><c>  PAW_PBE O 08Apr2002                   </c></rc>
   </set>
  </array>
 </atominfo>
 <structure name="initialpos" >
  <crystal>
   <varray name="basis" >
    <v>      30.00000000       0.00000000       0.00000000 </v>
    <v>       0.00000000      30.00000000       0.00000000 </v>
    <v>       0.00000000       0.00000000      30.00000000 </v>
   </varray>
   <i name="volume">  27000.00000000 </i>
   <varray name="rec_basis" >
    <v>       0.03333333       0.00000000       0.00000000 </v>
    <v>       0.00000000       0.03333333       0.00000000 </v>
    <v>       0.00000000       0.00000000       0.03333333 </v>
   </varray>
  </crystal>
  <varray name="positions" >
   <v>       0.44576020       0.32826710       0.41691983 </v>
   <v>       0.67173288       0.55423978       0.41691983 </v>
   <v>       0.55423980       0.32826710       0.41691983 </v>
   <v>       0.32826712       0.55423978       0.41691983 </v>
   <v>       0.50000000       0.38250690       0.34021317 </v>
   <v>       0.50000000       0.38250690       0.65978680 </v>
   <v>       0.50000000       0.27609440       0.50000000 </v>
   <v>       0.27609443       0.49999998       0.50000000 </v>
   <v>       0.72390557       0.49999998       0.50000000 </v>
   <v>       0.50000000       0.72390555       0.50000000 </v>
   <v>       0.61195280       0.38804720       0.34167483 </v>
   <v>       0.61195280       0.38804720       0.65832513 </v>
   <v>       0.38804722       0.61195278       0.34167483 </v>
   <v>       0.38804722       0.61195278       0.65832513 </v>
   <v>       0.38804720       0.38804720       0.34167483 </v>
   <v>       0.38804720       0.38804720       0.65832513 </v>
   <v>       0.61195278       0.61195278       0.34167483 </v>
   <v>       0.61195278       0.61195278       0.65832513 </v>
   <v>       0.44576020       0.32826710       0.58308023 </v>
   <v>       0.67173288       0.55423978       0.58308023 </v>
   <v>       0.55791699       0.44208301       0.41809300 </v>
   <v>       0.32826705       0.44576024       0.41691983 </v>
   <v>       0.55423973       0.67173293       0.41691983 </v>
   <v>       0.55423980       0.32826710       0.58308023 </v>
   <v>       0.32826712       0.55423978       0.58308023 </v>
   <v>       0.67173295       0.44576024       0.41691983 </v>
   <v>       0.44576027       0.67173293       0.41691983 </v>
   <v>       0.44208301       0.44208301       0.41809300 </v>
   <v>       0.50000000       0.38416601       0.50000000 </v>
   <v>       0.61749315       0.50000005       0.34021317 </v>
   <v>       0.61749315       0.50000005       0.65978680 </v>
   <v>       0.38250685       0.50000005       0.34021317 </v>
   <v>       0.38250685       0.50000005       0.65978680 </v>
   <v>       0.38317830       0.38317830       0.50000000 </v>
   <v>       0.61682172       0.61682172       0.50000000 </v>
   <v>       0.61682170       0.38317830       0.50000000 </v>
   <v>       0.38317828       0.61682172       0.50000000 </v>
   <v>       0.50000000       0.50000000       0.33478917 </v>
   <v>       0.50000000       0.50000000       0.66521087 </v>
   <v>       0.32826705       0.44576024       0.58308023 </v>
   <v>       0.55423973       0.67173293       0.58308023 </v>
   <v>       0.55791699       0.44208301       0.58190703 </v>
   <v>       0.44208298       0.55791702       0.41809300 </v>
   <v>       0.44208301       0.44208301       0.58190703 </v>
   <v>       0.67173295       0.44576024       0.58308023 </v>
   <v>       0.44576027       0.67173293       0.58308023 </v>
   <v>       0.55791702       0.55791702       0.41809300 </v>
   <v>       0.38416599       0.50000002       0.50000000 </v>
   <v>       0.61583401       0.50000002       0.50000000 </v>
   <v>       0.50000000       0.61749319       0.34021317 </v>
   <v>       0.50000000       0.61749319       0.65978680 </v>
   <v>       0.50000000       0.50000000       0.50000000 </v>
   <v>       0.44208298       0.55791702       0.58190703 </v>
   <v>       0.55791702       0.55791702       0.58190703 </v>
   <v>       0.50000000       0.61583404       0.50000000 </v>
   <v>       0.54788957       0.40950187       0.66242923 </v>
   <v>       0.55726763       0.39177993       0.69423717 </v>
  </varray>
  <varray name="selective"  type="logical" >
   <v type="logical" >  F  F  F </v>
   <v type="logical" >  F  F  F </v>
   <v type="logical" >  F  F  F </v>
   <v type="logical" >  F  F  F </v>
   <v type="logical" >  F  F  F </v>
   <v type="logical" >  F  F  F </v>
   <v type="logical" >  F  F  F </v>
   <v type="logical" >  F  F  F </v>
   <v type="logical" >  F  F  F </v>
   <v type="logical" >  F  F  F </v>
   <v type="logical" >  F  F  F </v>
   <v type="logical" >  F  F  F </v>
   <v type="logical" >  F  F  F </v>
   <v type="logical" >  F  F  F </v>
   <v type="logical" >  F  F  F </v>
   <v type="logical" >  F  F  F </v>
   <v type="logical" >  F  F  F </v>
   <v type="logical" >  F  F  F </v>
   <v type="logical" >  F  F  F </v>
   <v type="logical" >  F  F  F </v>
   <v type="logical" >  F  F  F </v>
   <v type="logical" >  F  F  F </v>
   <v type="logical" >  F  F  F </v>
   <v type="logical" >  F  F  F </v>
   <v type="logical" >  F  F  F </v>
   <v type="logical" >  F  F  F </v>
   <v type="logical" >  F  F  F </v>
   <v type="logical" >  F  F  F </v>
   <v type="logical" >  F  F  F </v>
   <v type="logical" >  F  F  F </v>
   <v type="logical" >  F  F  F </v>
   <v type="logical" >  F  F  F </v>
   <v type="logical" >  F  F  F </v>
   <v type="logical" >  F  F  F </v>
   <v type="logical" >  F  F  F </v>
   <v type="logical" >  F  F  F </v>
   <v type="logical" >  F  F  F </v>
   <v type="logical" >  F  F  F </v>
   <v type="logical" >  F  F  F </v>
   <v type="logical" >  F  F  F </v>
   <v type="logical" >  F  F  F </v>
   <v type="logical" >  F  F  F </v>
   <v type="logical" >  F  F  F </v>
   <v type="logical" >  F  F  F </v>
   <v type="logical" >  F  F  F </v>
   <v type="logical" >  F  F  F </v>
   <v type="logical" >  F  F  F </v>
   <v type="logical" >  F  F  F </v>
   <v type="logical" >  F  F  F </v>
   <v type="logical" >  F  F  F </v>
   <v type="logical" >  F  F  F </v>
   <v type="logical" >  F  F  F </v>
   <v type="logical" >  F  F  F </v>
   <v type="logical" >  F  F  F </v>
   <v type="logical" >  F  F  F </v>
   <v type="logical" >  F  F  F </v>
   <v type="logical" >  F  F  F </v>
  </varray>
  <nose>
   <v>      -3.00000000       0.00000000       0.00010000       0.00010000 </v>
  </nose>
 </structure>
 <calculation>
  <scstep>
   <time name="dav">  322.04  322.13</time>
   <time name="total">  334.09  334.18</time>
   <energy>
    <i name="alphaZ">     75.25431677 </i>
    <i name="ewald"> 140282.95510716 </i>
    <i name="hartreedc">-183614.35223401 </i>
    <i name="XCdc">  -1700.14980175 </i>
    <i name="pawpsdc">  44873.02882129 </i>
    <i name="pawaedc"> -41398.84523641 </i>
    <i name="eentropy">     -0.01179001 </i>
    <i name="bandstr">    810.30329145 </i>
    <i name="atom">  45086.50549395 </i>
    <i name="e_fr_energy">   4414.68796844 </i>
    <i name="e_wo_entrp">   4414.69975845 </i>
    <i name="e_0_energy">   4414.69091595 </i>
   </energy>
  </scstep>
  <scstep>
   <time name="dav">  544.42  544.44</time>
   <time name="total">  544.42  544.44</time>
   <energy>
    <i name="e_fr_energy">   2009.57998611 </i>
    <i name="e_wo_entrp">   2009.62699274 </i>
    <i name="e_0_energy">   2009.59173777 </i>
   </energy>
  </scstep>
  <scstep>
   <time name="dav">  434.89  434.89</time>
   <time name="total">  434.89  434.89</time>
   <energy>
    <i name="e_fr_energy">    229.16541744 </i>
    <i name="e_wo_entrp">    229.12540886 </i>
    <i name="e_0_energy">    229.15541530 </i>
   </energy>
  </scstep>
  <scstep>
   <time name="dav">  373.82  373.82</time>
   <time name="total">  373.82  373.83</time>
   <energy>
    <i name="e_fr_energy">   -133.73881897 </i>
    <i name="e_wo_entrp">   -133.73318283 </i>
    <i name="e_0_energy">   -133.73740994 </i>
   </energy>
  </scstep>
  <scstep>
   <time name="dav">  449.02  449.03</time>
   <time name="total">  472.22  472.23</time>
   <energy>
    <i name="e_fr_energy">   -178.24543929 </i>
    <i name="e_wo_entrp">   -178.75800386 </i>
    <i name="e_0_energy">   -178.37358043 </i>
   </energy>
  </scstep>
  <scstep>
   <time name="diag">   62.94   62.94</time>
   <time name="diis">  182.16  182.16</time>
   <time name="orth">   13.49   13.49</time>
   <time name="total">  295.85  295.86</time>
   <energy>
    <i name="e_fr_energy">   -178.13809138 </i>
    <i name="e_wo_entrp">   -177.90460803 </i>
    <i name="e_0_energy">   -178.07972054 </i>
   </energy>
  </scstep>
  <scstep>
   <time name="diag">   63.67   63.67</time>
   <time name="diis">  185.83  185.83</time>
   <time name="orth">   12.33   12.33</time>
   <time name="total">  299.43  299.43</time>
   <energy>
    <i name="e_fr_energy">   -184.14190243 </i>
    <i name="e_wo_entrp">   -184.07290877 </i>
    <i name="e_0_energy">   -184.12465402 </i>
   </energy>
  </scstep>
  <scstep>
   <time name="diag">   61.49   61.49</time>
   <time name="diis">  179.36  179.36</time>
   <time name="orth">   12.30   12.30</time>
   <time name="total">  287.48  287.48</time>
   <energy>
    <i name="e_fr_energy">   -188.35766348 </i>
    <i name="e_wo_entrp">   -188.20995632 </i>
    <i name="e_0_energy">   -188.32073669 </i>
   </energy>
  </scstep>
  <scstep>
   <time name="diag">   61.16   61.16</time>
   <time name="diis">  165.63  165.63</time>
   <time name="orth">   12.27   12.27</time>
   <time name="total">  273.38  273.39</time>
   <energy>
    <i name="e_fr_energy">   -186.49929482 </i>
    <i name="e_wo_entrp">   -186.31344836 </i>
    <i name="e_0_energy">   -186.45283321 </i>
   </energy>
  </scstep>
  <scstep>
   <time name="diag">   61.15   61.15</time>
   <time name="diis">  167.95  167.95</time>
   <time name="orth">   12.32   12.32</time>
   <time name="total">  275.83  275.83</time>
   <energy>
    <i name="e_fr_energy">   -183.09769201 </i>
    <i name="e_wo_entrp">   -182.98209185 </i>
    <i name="e_0_energy">   -183.06879197 </i>
   </energy>
  </scstep>
  <scstep>
   <time name="diag">   61.75   61.75</time>
   <time name="diis">  164.42  164.42</time>
   <time name="orth">   12.28   12.28</time>
   <time name="total">  272.82  272.82</time>
   <energy>
    <i name="e_fr_energy">   -181.62734427 </i>
    <i name="e_wo_entrp">   -181.62425595 </i>
    <i name="e_0_energy">   -181.62657219 </i>
   </energy>
  </scstep>
  <scstep>
   <time name="diag">   61.73   61.73</time>
   <time name="diis">  163.59  163.59</time>
   <time name="orth">   12.31   12.31</time>
   <time name="total">  272.06  272.07</time>
   <energy>
    <i name="e_fr_energy">   -177.83112888 </i>
    <i name="e_wo_entrp">   -177.96744174 </i>
    <i name="e_0_energy">   -177.86520710 </i>
   </energy>
  </scstep>
  <scstep>
   <time name="diag">   61.25   61.25</time>
   <time name="diis">  171.82  171.83</time>
   <time name="orth">   13.19   13.19</time>
   <time name="total">  283.34  283.35</time>
   <energy>
    <i name="e_fr_energy">   -175.48683241 </i>
    <i name="e_wo_entrp">   -175.45267921 </i>
    <i name="e_0_energy">   -175.47829411 </i>
   </energy>
  </scstep>
  <scstep>
   <time name="diag">   63.96   64.40</time>
   <time name="diis">  156.32  156.35</time>
   <time name="orth">   11.76   11.76</time>
   <time name="total">  267.76  268.27</time>
   <energy>
    <i name="e_fr_energy">   -175.84902294 </i>
    <i name="e_wo_entrp">   -175.79498231 </i>
    <i name="e_0_energy">   -175.83551278 </i>
   </energy>
  </scstep>
  <scstep>
   <time name="diag">   59.28   59.28</time>
   <time name="diis">  157.18  157.18</time>
   <time name="orth">   11.73   11.73</time>
   <time name="total">  261.35  261.38</time>
   <energy>
    <i name="e_fr_energy">   -175.63980818 </i>
    <i name="e_wo_entrp">   -175.75683853 </i>
    <i name="e_0_energy">   -175.66906577 </i>
   </energy>
  </scstep>
  <scstep>
   <time name="diag">   59.19   59.19</time>
   <time name="diis">  157.45  157.45</time>
   <time name="orth">   11.73   11.73</time>
   <time name="total">  261.46  261.49</time>
   <energy>
    <i name="e_fr_energy">   -174.65967543 </i>
    <i name="e_wo_entrp">   -174.65146497 </i>
    <i name="e_0_energy">   -174.65762281 </i>
   </energy>
  </scstep>
  <scstep>
   <time name="diag">   59.12   59.12</time>
   <time name="diis">  156.01  156.01</time>
   <time name="orth">   11.77   11.77</time>
   <time name="total">  260.09  260.10</time>
   <energy>
    <i name="e_fr_energy">   -173.34031952 </i>
    <i name="e_wo_entrp">   -173.26310517 </i>
    <i name="e_0_energy">   -173.32101593 </i>
   </energy>
  </scstep>
  <scstep>
   <time name="diag">   59.24   59.24</time>
   <time name="diis">  154.00  154.01</time>
   <time name="orth">   11.73   11.73</time>
   <time name="total">  258.16  258.17</time>
   <energy>
    <i name="e_fr_energy">   -173.00780955 </i>
    <i name="e_wo_entrp">   -173.05425374 </i>
    <i name="e_0_energy">   -173.01942060 </i>
   </energy>
  </scstep>
  <scstep>
   <time name="diag">   59.33   59.33</time>
   <time name="diis">  154.23  154.23</time>
   <time name="orth">   11.75   11.75</time>
   <time name="total">  258.65  258.66</time>
   <energy>
    <i name="e_fr_energy">   -172.77969253 </i>
    <i name="e_wo_entrp">   -172.78933306 </i>
    <i name="e_0_energy">   -172.78210266 </i>
   </energy>
  </scstep>
  <scstep>
   <time name="diag">   59.23   59.23</time>
   <time name="diis">  153.56  153.57</time>
   <time name="orth">   11.84   11.84</time>
   <time name="total">  257.89  257.89</time>
   <energy>
    <i name="e_fr_energy">   -172.77838525 </i>
    <i name="e_wo_entrp">   -172.88111089 </i>
    <i name="e_0_energy">   -172.80406666 </i>
   </energy>
  </scstep>
  <scstep>
   <time name="diag">   59.18   59.19</time>
   <time name="diis">  153.72  153.72</time>
   <time name="orth">   11.72   11.72</time>
   <time name="total">  257.91  257.92</time>
   <energy>
    <i name="e_fr_energy">   -172.52863187 </i>
    <i name="e_wo_entrp">   -172.65407940 </i>
    <i name="e_0_energy">   -172.55999375 </i>
   </energy>
  </scstep>
  <scstep>
   <time name="diag">   59.19   59.19</time>
   <time name="diis">  153.40  153.40</time>
   <time name="orth">   11.77   11.77</time>
   <time name="total">  257.78  257.81</time>
   <energy>
    <i name="e_fr_energy">   -172.29751503 </i>
    <i name="e_wo_entrp">   -172.34735987 </i>
    <i name="e_0_energy">   -172.30997624 </i>
   </energy>
  </scstep>
  <scstep>
   <time name="diag">   59.28   59.28</time>
   <time name="diis">  152.76  152.77</time>
   <time name="orth">   11.78   11.78</time>
   <time name="total">  257.31  257.32</time>
   <energy>
    <i name="e_fr_energy">   -172.16846522 </i>
    <i name="e_wo_entrp">   -172.16140870 </i>
    <i name="e_0_energy">   -172.16670109 </i>
   </energy>
  </scstep>
  <scstep>
   <time name="diag">   59.18   59.18</time>
   <time name="diis">  152.78  152.78</time>
   <time name="orth">   11.73   11.73</time>
   <time name="total">  257.10  257.11</time>
   <energy>
    <i name="e_fr_energy">   -172.02631435 </i>
    <i name="e_wo_entrp">   -172.00876838 </i>
    <i name="e_0_energy">   -172.02192786 </i>
   </energy>
  </scstep>
  <scstep>
   <time name="diag">   59.11   59.12</time>
   <time name="diis">  152.83  152.84</time>
   <time name="orth">   11.73   11.73</time>
   <time name="total">  257.20  257.21</time>
   <energy>
    <i name="e_fr_energy">   -171.98164380 </i>
    <i name="e_wo_entrp">   -171.94324657 </i>
    <i name="e_0_energy">   -171.97204449 </i>
   </energy>
  </scstep>
  <scstep>
   <time name="diag">   59.41   59.41</time>
   <time name="diis">  154.00  154.00</time>
   <time name="orth">   11.78   11.78</time>
   <time name="total">  258.76  258.77</time>
   <energy>
    <i name="e_fr_energy">   -171.98037821 </i>
    <i name="e_wo_entrp">   -171.96731773 </i>
    <i name="e_0_energy">   -171.97711309 </i>
   </energy>
  </scstep>
  <scstep>
   <time name="diag">   59.28   59.28</time>
   <time name="diis">  153.47  153.47</time>
   <time name="orth">   11.78   11.78</time>
   <time name="total">  258.24  258.25</time>
   <energy>
    <i name="e_fr_energy">   -171.93215120 </i>
    <i name="e_wo_entrp">   -171.92585241 </i>
    <i name="e_0_energy">   -171.93057650 </i>
   </energy>
  </scstep>
  <scstep>
   <time name="diag">   59.38   59.39</time>
   <time name="diis">  152.61  152.63</time>
   <time name="orth">   11.73   11.73</time>
   <time name="total">  257.34  257.38</time>
   <energy>
    <i name="e_fr_energy">   -171.89706325 </i>
    <i name="e_wo_entrp">   -171.89294139 </i>
    <i name="e_0_energy">   -171.89603278 </i>
   </energy>
  </scstep>
  <scstep>
   <time name="diag">   59.20   59.21</time>
   <time name="diis">  152.59  152.62</time>
   <time name="orth">   11.81   11.81</time>
   <time name="total">  257.32  257.36</time>
   <energy>
    <i name="e_fr_energy">   -171.90447858 </i>
    <i name="e_wo_entrp">   -171.88829422 </i>
    <i name="e_0_energy">   -171.90043249 </i>
   </energy>
  </scstep>
  <scstep>
   <time name="diag">   59.11   59.12</time>
   <time name="diis">  152.83  152.85</time>
   <time name="orth">   11.74   11.74</time>
   <time name="total">  257.42  257.45</time>
   <energy>
    <i name="e_fr_energy">   -171.84885254 </i>
    <i name="e_wo_entrp">   -171.83939126 </i>
    <i name="e_0_energy">   -171.84648722 </i>
   </energy>
  </scstep>
  <scstep>
   <time name="diag">   59.00   59.01</time>
   <time name="diis">  151.72  151.74</time>
   <time name="orth">   11.73   11.73</time>
   <time name="total">  256.28  256.32</time>
   <energy>
    <i name="e_fr_energy">   -171.84744228 </i>
    <i name="e_wo_entrp">   -171.83820297 </i>
    <i name="e_0_energy">   -171.84513245 </i>
   </energy>
  </scstep>
  <scstep>
   <time name="diag">   59.25   59.26</time>
   <time name="diis">  152.65  152.67</time>
   <time name="orth">   11.70   11.70</time>
   <time name="total">  257.51  257.54</time>
   <energy>
    <i name="e_fr_energy">   -171.83566819 </i>
    <i name="e_wo_entrp">   -171.81449469 </i>
    <i name="e_0_energy">   -171.83037482 </i>
   </energy>
  </scstep>
  <scstep>
   <time name="diag">   59.09   59.09</time>
   <time name="diis">  152.66  152.67</time>
   <time name="orth">   11.73   11.73</time>
   <time name="total">  257.51  257.52</time>
   <energy>
    <i name="e_fr_energy">   -171.82231876 </i>
    <i name="e_wo_entrp">   -171.80883042 </i>
    <i name="e_0_energy">   -171.81894667 </i>
   </energy>
  </scstep>
  <scstep>
   <time name="diag">   59.17   59.17</time>
   <time name="diis">  152.20  152.20</time>
   <time name="orth">   11.77   11.78</time>
   <time name="total">  257.29  257.30</time>
   <energy>
    <i name="e_fr_energy">   -171.81636427 </i>
    <i name="e_wo_entrp">   -171.80366966 </i>
    <i name="e_0_energy">   -171.81319062 </i>
   </energy>
  </scstep>
  <scstep>
   <time name="diag">   59.17   59.17</time>
   <time name="diis">  152.07  152.08</time>
   <time name="orth">   11.75   11.75</time>
   <time name="total">  257.26  257.27</time>
   <energy>
    <i name="e_fr_energy">   -171.81570876 </i>
    <i name="e_wo_entrp">   -171.80105970 </i>
    <i name="e_0_energy">   -171.81204650 </i>
   </energy>
  </scstep>
  <scstep>
   <time name="diag">   59.13   59.14</time>
   <time name="diis">  151.36  151.37</time>
   <time name="orth">   11.77   11.77</time>
   <time name="total">  256.63  256.64</time>
   <energy>
    <i name="e_fr_energy">   -171.81457107 </i>
    <i name="e_wo_entrp">   -171.80208439 </i>
    <i name="e_0_energy">   -171.81144940 </i>
   </energy>
  </scstep>
  <scstep>
   <time name="diag">   59.23   59.23</time>
   <time name="diis">  151.81  151.82</time>
   <time name="orth">   11.76   11.76</time>
   <time name="total">  257.20  257.22</time>
   <energy>
    <i name="e_fr_energy">   -171.81423880 </i>
    <i name="e_wo_entrp">   -171.80152356 </i>
    <i name="e_0_energy">   -171.81105999 </i>
   </energy>
  </scstep>
  <scstep>
   <time name="diag">   59.26   59.26</time>
   <time name="diis">  151.92  151.92</time>
   <time name="orth">   11.76   11.76</time>
   <time name="total">  257.40  257.41</time>
   <energy>
    <i name="e_fr_energy">   -171.81499579 </i>
    <i name="e_wo_entrp">   -171.80643440 </i>
    <i name="e_0_energy">   -171.81285544 </i>
   </energy>
  </scstep>
  <scstep>
   <time name="diag">   59.15   59.15</time>
   <time name="diis">  151.20  151.20</time>
   <time name="orth">   11.76   11.76</time>
   <time name="total">  256.66  256.67</time>
   <energy>
    <i name="e_fr_energy">   -171.81539779 </i>
    <i name="e_wo_entrp">   -171.80631058 </i>
    <i name="e_0_energy">   -171.81312599 </i>
   </energy>
  </scstep>
  <scstep>
   <time name="diag">   59.19   59.19</time>
   <time name="diis">  144.66  144.66</time>
   <time name="orth">   11.76   11.76</time>
   <time name="total">  250.24  250.25</time>
   <energy>
    <i name="e_fr_energy">   -171.81565519 </i>
    <i name="e_wo_entrp">   -171.80422208 </i>
    <i name="e_0_energy">   -171.81279691 </i>
   </energy>
  </scstep>
  <scstep>
   <time name="diag">   59.21   59.22</time>
   <time name="diis">  150.16  150.17</time>
   <time name="orth">   11.76   11.76</time>
   <time name="total">  255.91  255.91</time>
   <energy>
    <i name="e_fr_energy">   -171.81823450 </i>
    <i name="e_wo_entrp">   -171.80713136 </i>
    <i name="e_0_energy">   -171.81545871 </i>
   </energy>
  </scstep>
  <scstep>
   <time name="diag">   59.24   59.24</time>
   <time name="diis">  147.23  147.23</time>
   <time name="orth">   11.75   11.75</time>
   <time name="total">  253.08  253.09</time>
   <energy>
    <i name="e_fr_energy">   -171.82046199 </i>
    <i name="e_wo_entrp">   -171.80896173 </i>
    <i name="e_0_energy">   -171.81758692 </i>
   </energy>
  </scstep>
  <scstep>
   <time name="diag">   59.25   59.26</time>
   <time name="diis">  123.97  123.97</time>
   <time name="orth">   11.75   11.75</time>
   <time name="total">  230.07  230.08</time>
   <energy>
    <i name="e_fr_energy">   -171.82240493 </i>
    <i name="e_wo_entrp">   -171.80999997 </i>
    <i name="e_0_energy">   -171.81930369 </i>
   </energy>
  </scstep>
  <scstep>
   <time name="diag">   59.20   59.21</time>
   <time name="diis">  134.76  134.77</time>
   <time name="orth">   11.77   11.77</time>
   <time name="total">  240.89  240.90</time>
   <energy>
    <i name="e_fr_energy">   -171.82562445 </i>
    <i name="e_wo_entrp">   -171.81441522 </i>
    <i name="e_0_energy">   -171.82282214 </i>
   </energy>
  </scstep>
  <scstep>
   <time name="diag">   59.21   59.21</time>
   <time name="diis">  121.55  121.55</time>
   <time name="orth">   11.73   11.73</time>
   <time name="total">  227.75  227.76</time>
   <energy>
    <i name="e_fr_energy">   -171.82789958 </i>
    <i name="e_wo_entrp">   -171.81592146 </i>
    <i name="e_0_energy">   -171.82490505 </i>
   </energy>
  </scstep>
  <scstep>
   <time name="diag">   59.25   59.25</time>
   <time name="diis">  109.63  109.63</time>
   <time name="orth">   11.73   11.73</time>
   <time name="total">  215.93  215.93</time>
   <energy>
    <i name="e_fr_energy">   -171.82983993 </i>
    <i name="e_wo_entrp">   -171.81814961 </i>
    <i name="e_0_energy">   -171.82691735 </i>
   </energy>
  </scstep>
  <scstep>
   <time name="diag">   59.22   59.22</time>
   <time name="diis">   98.75   98.75</time>
   <time name="orth">   11.77   11.77</time>
   <time name="total">  205.26  205.27</time>
   <energy>
    <i name="e_fr_energy">   -171.83130646 </i>
    <i name="e_wo_entrp">   -171.81969263 </i>
    <i name="e_0_energy">   -171.82840300 </i>
   </energy>
  </scstep>
  <scstep>
   <time name="diag">   59.23   59.23</time>
   <time name="diis">  100.09  100.09</time>
   <time name="orth">   11.73   11.73</time>
   <time name="total">  206.65  206.66</time>
   <energy>
    <i name="e_fr_energy">   -171.83299006 </i>
    <i name="e_wo_entrp">   -171.82072316 </i>
    <i name="e_0_energy">   -171.82992334 </i>
   </energy>
  </scstep>
  <scstep>
   <time name="diag">   59.18   59.19</time>
   <time name="diis">   97.91   97.92</time>
   <time name="orth">   11.73   11.73</time>
   <time name="total">  204.64  204.65</time>
   <energy>
    <i name="e_fr_energy">   -171.83459309 </i>
    <i name="e_wo_entrp">   -171.82203659 </i>
    <i name="e_0_energy">   -171.83145396 </i>
   </energy>
  </scstep>
  <scstep>
   <time name="diag">   59.21   59.21</time>
   <time name="diis">   99.34   99.34</time>
   <time name="orth">   11.73   11.73</time>
   <time name="total">  205.98  205.98</time>
   <energy>
    <i name="e_fr_energy">   -171.83577858 </i>
    <i name="e_wo_entrp">   -171.82405463 </i>
    <i name="e_0_energy">   -171.83284759 </i>
   </energy>
  </scstep>
  <scstep>
   <time name="diag">   59.21   59.22</time>
   <time name="diis">   97.17   97.17</time>
   <time name="orth">   11.73   11.73</time>
   <time name="total">  203.66  203.67</time>
   <energy>
    <i name="e_fr_energy">   -171.83709106 </i>
    <i name="e_wo_entrp">   -171.82543569 </i>
    <i name="e_0_energy">   -171.83417722 </i>
   </energy>
  </scstep>
  <scstep>
   <time name="diag">   59.20   59.20</time>
   <time name="diis">   96.93   96.93</time>
   <time name="orth">   11.74   11.74</time>
   <time name="total">  203.60  203.60</time>
   <energy>
    <i name="e_fr_energy">   -171.83787535 </i>
    <i name="e_wo_entrp">   -171.82625832 </i>
    <i name="e_0_energy">   -171.83497109 </i>
   </energy>
  </scstep>
  <scstep>
   <time name="diag">   59.17   59.17</time>
   <time name="diis">   97.53   97.53</time>
   <time name="orth">   11.73   11.73</time>
   <time name="total">  204.30  204.31</time>
   <energy>
    <i name="e_fr_energy">   -171.83832161 </i>
    <i name="e_wo_entrp">   -171.82680800 </i>
    <i name="e_0_energy">   -171.83544321 </i>
   </energy>
  </scstep>
  <scstep>
   <time name="diag">   59.25   59.25</time>
   <time name="diis">   97.26   97.26</time>
   <time name="orth">   11.73   11.73</time>
   <time name="total">  204.19  204.20</time>
   <energy>
    <i name="e_fr_energy">   -171.83901369 </i>
    <i name="e_wo_entrp">   -171.82741822 </i>
    <i name="e_0_energy">   -171.83611483 </i>
   </energy>
  </scstep>
  <scstep>
   <time name="diag">   59.25   59.25</time>
   <time name="diis">   89.88   89.89</time>
   <time name="orth">   11.75   11.76</time>
   <time name="total">  196.78  196.79</time>
   <energy>
    <i name="e_fr_energy">   -171.83932257 </i>
    <i name="e_wo_entrp">   -171.82789361 </i>
    <i name="e_0_energy">   -171.83646533 </i>
   </energy>
  </scstep>
  <scstep>
   <time name="diag">   59.14   59.14</time>
   <time name="diis">   80.68   80.68</time>
   <time name="orth">   11.75   11.75</time>
   <time name="total">  187.24  187.25</time>
   <energy>
    <i name="e_fr_energy">   -171.83973863 </i>
    <i name="e_wo_entrp">   -171.82818929 </i>
    <i name="e_0_energy">   -171.83685130 </i>
   </energy>
  </scstep>
  <scstep>
   <time name="diag">   59.23   59.24</time>
   <time name="diis">   77.94   77.94</time>
   <time name="orth">   11.73   11.73</time>
   <time name="total">  184.76  184.77</time>
   <energy>
    <i name="e_fr_energy">   -171.84016638 </i>
    <i name="e_wo_entrp">   -171.82867177 </i>
    <i name="e_0_energy">   -171.83729273 </i>
   </energy>
  </scstep>
  <scstep>
   <time name="diag">   59.35   59.35</time>
   <time name="diis">   73.09   73.09</time>
   <time name="orth">   11.75   11.75</time>
   <time name="total">  180.14  180.14</time>
   <energy>
    <i name="e_fr_energy">   -171.84041804 </i>
    <i name="e_wo_entrp">   -171.82893506 </i>
    <i name="e_0_energy">   -171.83754730 </i>
   </energy>
  </scstep>
  <scstep>
   <time name="diag">   59.12   59.12</time>
   <time name="diis">   85.12   85.12</time>
   <time name="orth">   11.75   11.75</time>
   <time name="total">  192.11  192.11</time>
   <energy>
    <i name="e_fr_energy">   -171.84088312 </i>
    <i name="e_wo_entrp">   -171.82941969 </i>
    <i name="e_0_energy">   -171.83801726 </i>
   </energy>
  </scstep>
  <scstep>
   <time name="diag">   59.12   59.12</time>
   <time name="diis">   69.43   69.43</time>
   <time name="orth">   11.75   11.75</time>
   <time name="total">  176.23  176.24</time>
   <energy>
    <i name="e_fr_energy">   -171.84104566 </i>
    <i name="e_wo_entrp">   -171.82955044 </i>
    <i name="e_0_energy">   -171.83817186 </i>
   </energy>
  </scstep>
  <scstep>
   <time name="diag">   59.11   59.11</time>
   <time name="diis">   66.02   66.03</time>
   <time name="orth">   11.74   11.74</time>
   <time name="total">  172.71  172.71</time>
   <energy>
    <i name="e_fr_energy">   -171.84115860 </i>
    <i name="e_wo_entrp">   -171.82967977 </i>
    <i name="e_0_energy">   -171.83828889 </i>
   </energy>
  </scstep>
  <scstep>
   <time name="diag">   59.24   59.24</time>
   <time name="diis">   70.26   70.26</time>
   <time name="orth">   11.73   11.73</time>
   <time name="total">  177.11  177.12</time>
   <energy>
    <i name="e_fr_energy">   -171.84126477 </i>
    <i name="e_wo_entrp">   -171.82975028 </i>
    <i name="e_0_energy">   -171.83838615 </i>
   </energy>
  </scstep>
  <scstep>
   <time name="diag">   59.25   59.25</time>
   <time name="diis">   69.73   69.73</time>
   <time name="orth">   11.77   11.77</time>
   <time name="total">  152.08  152.09</time>
   <energy>
    <i name="alphaZ">     75.25431677 </i>
    <i name="ewald"> 140282.95510716 </i>
    <i name="hartreedc">-184630.02313241 </i>
    <i name="XCdc">  -1689.41085298 </i>
    <i name="pawpsdc">  46617.78592422 </i>
    <i name="pawaedc"> -43090.62221164 </i>
    <i name="eentropy">     -0.01150931 </i>
    <i name="bandstr">  -2824.27449864 </i>
    <i name="atom">  45086.50549395 </i>
    <i name="e_fr_energy">   -171.84136287 </i>
    <i name="e_wo_entrp">   -171.82985357 </i>
    <i name="e_0_energy">   -171.83848555 </i>
   </energy>
  </scstep>
  <structure>
   <crystal>
    <varray name="basis" >
     <v>      30.00000000       0.00000000       0.00000000 </v>
     <v>       0.00000000      30.00000000       0.00000000 </v>
     <v>       0.00000000       0.00000000      30.00000000 </v>
    </varray>
    <i name="volume">  27000.00000000 </i>
    <varray name="rec_basis" >
     <v>       0.03333333       0.00000000       0.00000000 </v>
     <v>       0.00000000       0.03333333       0.00000000 </v>
     <v>       0.00000000       0.00000000       0.03333333 </v>
    </varray>
   </crystal>
   <varray name="positions" >
    <v>       0.44576020       0.32826710       0.41691983 </v>
    <v>       0.67173288       0.55423978       0.41691983 </v>
    <v>       0.55423980       0.32826710       0.41691983 </v>
    <v>       0.32826712       0.55423978       0.41691983 </v>
    <v>       0.50000000       0.38250690       0.34021317 </v>
    <v>       0.50000000       0.38250690       0.65978680 </v>
    <v>       0.50000000       0.27609440       0.50000000 </v>
    <v>       0.27609443       0.49999998       0.50000000 </v>
    <v>       0.72390557       0.49999998       0.50000000 </v>
    <v>       0.50000000       0.72390555       0.50000000 </v>
    <v>       0.61195280       0.38804720       0.34167483 </v>
    <v>       0.61195280       0.38804720       0.65832513 </v>
    <v>       0.38804722       0.61195278       0.34167483 </v>
    <v>       0.38804722       0.61195278       0.65832513 </v>
    <v>       0.38804720       0.38804720       0.34167483 </v>
    <v>       0.38804720       0.38804720       0.65832513 </v>
    <v>       0.61195278       0.61195278       0.34167483 </v>
    <v>       0.61195278       0.61195278       0.65832513 </v>
    <v>       0.44576020       0.32826710       0.58308023 </v>
    <v>       0.67173288       0.55423978       0.58308023 </v>
    <v>       0.55791699       0.44208301       0.41809300 </v>
    <v>       0.32826705       0.44576024       0.41691983 </v>
    <v>       0.55423973       0.67173293       0.41691983 </v>
    <v>       0.55423980       0.32826710       0.58308023 </v>
    <v>       0.32826712       0.55423978       0.58308023 </v>
    <v>       0.67173295       0.44576024       0.41691983 </v>
    <v>       0.44576027       0.67173293       0.41691983 </v>
    <v>       0.44208301       0.44208301       0.41809300 </v>
    <v>       0.50000000       0.38416601       0.50000000 </v>
    <v>       0.61749315       0.50000005       0.34021317 </v>
    <v>       0.61749315       0.50000005       0.65978680 </v>
    <v>       0.38250685       0.50000005       0.34021317 </v>
    <v>       0.38250685       0.50000005       0.65978680 </v>
    <v>       0.38317830       0.38317830       0.50000000 </v>
    <v>       0.61682172       0.61682172       0.50000000 </v>
    <v>       0.61682170       0.38317830       0.50000000 </v>
    <v>       0.38317828       0.61682172       0.50000000 </v>
    <v>       0.50000000       0.50000000       0.33478917 </v>
    <v>       0.50000000       0.50000000       0.66521087 </v>
    <v>       0.32826705       0.44576024       0.58308023 </v>
    <v>       0.55423973       0.67173293       0.58308023 </v>
    <v>       0.55791699       0.44208301       0.58190703 </v>
    <v>       0.44208298       0.55791702       0.41809300 </v>
    <v>       0.44208301       0.44208301       0.58190703 </v>
    <v>       0.67173295       0.44576024       0.58308023 </v>
    <v>       0.44576027       0.67173293       0.58308023 </v>
    <v>       0.55791702       0.55791702       0.41809300 </v>
    <v>       0.38416599       0.50000002       0.50000000 </v>
    <v>       0.61583401       0.50000002       0.50000000 </v>
    <v>       0.50000000       0.61749319       0.34021317 </v>
    <v>       0.50000000       0.61749319       0.65978680 </v>
    <v>       0.50000000       0.50000000       0.50000000 </v>
    <v>       0.44208298       0.55791702       0.58190703 </v>
    <v>       0.55791702       0.55791702       0.58190703 </v>
    <v>       0.50000000       0.61583404       0.50000000 </v>
    <v>       0.54788957       0.40950187       0.66242923 </v>
    <v>       0.55726763       0.39177993       0.69423717 </v>
   </varray>
  </structure>
  <varray name="forces" >
   <v>       0.69826707       1.10922086       0.28452715 </v>
   <v>      -1.10498789      -0.69338512       0.27013613 </v>
   <v>      -0.70414655       1.11048191       0.29363063 </v>
   <v>       1.10161778      -0.70128448       0.29944037 </v>
   <v>       0.00114134       0.41935698       1.27801943 </v>
   <v>     -10.79433329      -4.03987466      -3.53834800 </v>
   <v>       0.02991179       1.51973311       0.02833861 </v>
   <v>       1.51551319      -0.00124506       0.00059310 </v>
   <v>      -1.49547197      -0.00970582      -0.00150135 </v>
   <v>       0.00169010      -1.51236729      -0.00028456 </v>
   <v>      -0.75703741       0.75710991       1.07117832 </v>
   <v>       3.23191424       0.35670678      -2.84191808 </v>
   <v>       0.74737749      -0.75400433       1.07574680 </v>
   <v>       0.75754760      -0.75803468      -1.07207385 </v>
   <v>       0.75568971       0.75565150       1.07156576 </v>
   <v>       0.65841533       0.73321655      -1.08569431 </v>
   <v>      -0.75123777      -0.75703112       1.07125197 </v>
   <v>      -0.74520149      -0.76744633      -1.06817806 </v>
   <v>       0.62246431       1.09270008      -0.34820305 </v>
   <v>      -1.10774754      -0.68467678      -0.29118261 </v>
   <v>       0.11170176      -0.11172602      -0.15408401 </v>
   <v>       1.10544515       0.70292753       0.28746297 </v>
   <v>      -0.70236079      -1.10430500       0.28941638 </v>
   <v>      -0.73375929       0.87516129      -0.56737554 </v>
   <v>       1.11272905      -0.70201234      -0.28381023 </v>
   <v>      -1.11299556       0.70433356       0.29212578 </v>
   <v>       0.70232144      -1.10273634       0.29955158 </v>
   <v>      -0.11260903      -0.10361906      -0.16464671 </v>
   <v>      -0.00365119      -0.23278427      -0.00883631 </v>
   <v>      -0.41615399      -0.00182564       1.27649793 </v>
   <v>      -0.32950875       0.13209301      -1.29947169 </v>
   <v>       0.41236608      -0.01540846       1.27906777 </v>
   <v>       0.39687095       0.02094096      -1.28930153 </v>
   <v>       0.83606331       0.82843291       0.01275407 </v>
   <v>      -0.83169980      -0.83011973       0.00725893 </v>
   <v>      -0.82828188       0.84466639      -0.02302183 </v>
   <v>       0.82647673      -0.82424266      -0.00490684 </v>
   <v>       0.00721190      -0.00959356       1.17690197 </v>
   <v>       0.08595852      -0.04358419      -1.13985638 </v>
   <v>       1.10813411       0.69404646      -0.29664832 </v>
   <v>      -0.69949259      -1.10430439      -0.29238884 </v>
   <v>       0.05265800      -0.10062589       0.49527757 </v>
   <v>      -0.11602432       0.11450057      -0.15385386 </v>
   <v>      -0.18785250      -0.12075772       0.10056705 </v>
   <v>      -1.04780758       0.74043508      -0.32513645 </v>
   <v>       0.69676622      -1.11235675      -0.28977709 </v>
   <v>       0.10571626       0.10652705      -0.15359135 </v>
   <v>      -0.23091820       0.01158813      -0.01350739 </v>
   <v>       0.21319849      -0.01194288       0.01166015 </v>
   <v>       0.01495067      -0.40946412       1.28031503 </v>
   <v>      -0.00610998      -0.41074509      -1.28042307 </v>
   <v>       0.01602675      -0.01084218      -0.00109357 </v>
   <v>      -0.11734276       0.11665483       0.14923057 </v>
   <v>       0.11054365       0.12922789       0.13561420 </v>
   <v>      -0.00867876       0.21881162      -0.00293777 </v>
   <v>       3.39568249       9.61909128     -10.10842473 </v>
   <v>       3.51303938      -4.67156425      14.26234717 </v>
  </varray>
  <varray name="stress" >
   <v>      -5.24042778       0.28954565       0.24002945 </v>
   <v>       0.28954563      -6.32062906      -0.22071336 </v>
   <v>       0.24002942      -0.22071335      -5.90397700 </v>
  </varray>
  <energy>
   <i name="e_fr_energy">   -171.84136287 </i>
   <i name="e_wo_entrp">   -171.83848555 </i>
   <i name="e_0_energy">     -0.01150931 </i>
  </energy>
  <time name="totalsc">16369.1516370.50</time>
  <eigenvalues>
   <array>
    <dimension dim="1">band</dimension>
    <dimension dim="2">kpoint</dimension>
    <dimension dim="3">spin</dimension>
    <field>eigene</field>
    <field>occ</field>
    <set>
     <set comment="spin 1">
      <set comment="kpoint 1">
       <r>  -29.7988    1.0000 </r>
       <r>  -14.6294    1.0000 </r>
       <r>  -13.4049    1.0000 </r>
       <r>  -12.5677    1.0000 </r>
       <r>  -10.8859    1.0000 </r>
       <r>   -7.9083    1.0000 </r>
       <r>   -6.9238    1.0000 </r>
       <r>   -6.5909    1.0000 </r>
       <r>   -6.1638    1.0000 </r>
       <r>   -6.1192    1.0000 </r>
       <r>   -6.1120    1.0000 </r>
       <r>   -6.1019    1.0000 </r>
       <r>   -6.0692    1.0000 </r>
       <r>   -5.9802    1.0000 </r>
       <r>   -5.8528    1.0000 </r>
       <r>   -5.7971    1.0000 </r>
       <r>   -5.7793    1.0000 </r>
       <r>   -5.7339    1.0000 </r>
       <r>   -5.7148    1.0000 </r>
       <r>   -5.6765    1.0000 </r>
       <r>   -5.6562    1.0000 </r>
       <r>   -5.6486    1.0000 </r>
       <r>   -5.6420    1.0000 </r>
       <r>   -5.6103    1.0000 </r>
       <r>   -5.5863    1.0000 </r>
       <r>   -5.5708    1.0000 </r>
       <r>   -5.5676    1.0000 </r>
       <r>   -5.5579    1.0000 </r>
       <r>   -5.5551    1.0000 </r>
       <r>   -5.5322    1.0000 </r>
       <r>   -5.5210    1.0000 </r>
       <r>   -5.5169    1.0000 </r>
       <r>   -5.5094    1.0000 </r>
       <r>   -5.5004    1.0000 </r>
       <r>   -5.4945    1.0000 </r>
       <r>   -5.4826    1.0000 </r>
       <r>   -5.4814    1.0000 </r>
       <r>   -5.4779    1.0000 </r>
       <r>   -5.4742    1.0000 </r>
       <r>   -5.4701    1.0000 </r>
       <r>   -5.4569    1.0000 </r>
       <r>   -5.4397    1.0000 </r>
       <r>   -5.4395    1.0000 </r>
       <r>   -5.4369    1.0000 </r>
       <r>   -5.4335    1.0000 </r>
       <r>   -5.4314    1.0000 </r>
       <r>   -5.4282    1.0000 </r>
       <r>   -5.4174    1.0000 </r>
       <r>   -5.4067    1.0000 </r>
       <r>   -5.4057    1.0000 </r>
       <r>   -5.3944    1.0000 </r>
       <r>   -5.3898    1.0000 </r>
       <r>   -5.3855    1.0000 </r>
       <r>   -5.3808    1.0000 </r>
       <r>   -5.3717    1.0000 </r>
       <r>   -5.3690    1.0000 </r>
       <r>   -5.3651    1.0000 </r>
       <r>   -5.3565    1.0000 </r>
       <r>   -5.3520    1.0000 </r>
       <r>   -5.3322    1.0000 </r>
       <r>   -5.3223    1.0000 </r>
       <r>   -5.2992    1.0000 </r>
       <r>   -5.2918    1.0000 </r>
       <r>   -5.2907    1.0000 </r>
       <r>   -5.2869    1.0000 </r>
       <r>   -5.2812    1.0000 </r>
       <r>   -5.2736    1.0000 </r>
       <r>   -5.2646    1.0000 </r>
       <r>   -5.2611    1.0000 </r>
       <r>   -5.2550    1.0000 </r>
       <r>   -5.2371    1.0000 </r>
       <r>   -5.2224    1.0000 </r>
       <r>   -5.2119    1.0000 </r>
       <r>   -5.1874    1.0000 </r>
       <r>   -5.1761    1.0000 </r>
       <r>   -5.1653    1.0000 </r>
       <r>   -5.1625    1.0000 </r>
       <r>   -5.1524    1.0000 </r>
       <r>   -5.1503    1.0000 </r>
       <r>   -5.1412    1.0000 </r>
       <r>   -5.1305    1.0000 </r>
       <r>   -5.1266    1.0000 </r>
       <r>   -5.1205    1.0000 </r>
       <r>   -5.1187    1.0000 </r>
       <r>   -5.1100    1.0000 </r>
       <r>   -5.0967    1.0000 </r>
       <r>   -5.0911    1.0000 </r>
       <r>   -5.0809    1.0000 </r>
       <r>   -5.0698    1.0000 </r>
       <r>   -5.0644    1.0000 </r>
       <r>   -5.0631    1.0000 </r>
       <r>   -5.0434    1.0000 </r>
       <r>   -5.0334    1.0000 </r>
       <r>   -5.0286    1.0000 </r>
       <r>   -5.0218    1.0000 </r>
       <r>   -5.0179    1.0000 </r>
       <r>   -5.0165    1.0000 </r>
       <r>   -5.0153    1.0000 </r>
       <r>   -5.0055    1.0000 </r>
       <r>   -5.0024    1.0000 </r>
       <r>   -4.9987    1.0000 </r>
       <r>   -4.9932    1.0000 </r>
       <r>   -4.9842    1.0000 </r>
       <r>   -4.9785    1.0000 </r>
       <r>   -4.9775    1.0000 </r>
       <r>   -4.9735    1.0000 </r>
       <r>   -4.9664    1.0000 </r>
       <r>   -4.9618    1.0000 </r>
       <r>   -4.9606    1.0000 </r>
       <r>   -4.9533    1.0000 </r>
       <r>   -4.9483    1.0000 </r>
       <r>   -4.9466    1.0000 </r>
       <r>   -4.9395    1.0000 </r>
       <r>   -4.9326    1.0000 </r>
       <r>   -4.9256    1.0000 </r>
       <r>   -4.9234    1.0000 </r>
       <r>   -4.9210    1.0000 </r>
       <r>   -4.9184    1.0000 </r>
       <r>   -4.9047    1.0000 </r>
       <r>   -4.9016    1.0000 </r>
       <r>   -4.8962    1.0000 </r>
       <r>   -4.8925    1.0000 </r>
       <r>   -4.8834    1.0000 </r>
       <r>   -4.8738    1.0000 </r>
       <r>   -4.8701    1.0000 </r>
       <r>   -4.8684    1.0000 </r>
       <r>   -4.8647    1.0000 </r>
       <r>   -4.8570    1.0000 </r>
       <r>   -4.8409    1.0000 </r>
       <r>   -4.8363    1.0000 </r>
       <r>   -4.8260    1.0000 </r>
       <r>   -4.8206    1.0000 </r>
       <r>   -4.8107    1.0000 </r>
       <r>   -4.8087    1.0000 </r>
       <r>   -4.8071    1.0000 </r>
       <r>   -4.7986    1.0000 </r>
       <r>   -4.7942    1.0000 </r>
       <r>   -4.7926    1.0000 </r>
       <r>   -4.7806    0.9999 </r>
       <r>   -4.7750    0.9999 </r>
       <r>   -4.7592    0.9999 </r>
       <r>   -4.7565    0.9999 </r>
       <r>   -4.7474    0.9999 </r>
       <r>   -4.7394    0.9998 </r>
       <r>   -4.7304    0.9998 </r>
       <r>   -4.7293    0.9998 </r>
       <r>   -4.7170    0.9997 </r>
       <r>   -4.7154    0.9997 </r>
       <r>   -4.6979    0.9996 </r>
       <r>   -4.6936    0.9996 </r>
       <r>   -4.6904    0.9995 </r>
       <r>   -4.6851    0.9995 </r>
       <r>   -4.6792    0.9994 </r>
       <r>   -4.6653    0.9992 </r>
       <r>   -4.6527    0.9990 </r>
       <r>   -4.6509    0.9989 </r>
       <r>   -4.6464    0.9988 </r>
       <r>   -4.6367    0.9986 </r>
       <r>   -4.6357    0.9986 </r>
       <r>   -4.6322    0.9985 </r>
       <r>   -4.6297    0.9984 </r>
       <r>   -4.6273    0.9984 </r>
       <r>   -4.6213    0.9982 </r>
       <r>   -4.6179    0.9981 </r>
       <r>   -4.6135    0.9980 </r>
       <r>   -4.6112    0.9979 </r>
       <r>   -4.6099    0.9979 </r>
       <r>   -4.6058    0.9977 </r>
       <r>   -4.6031    0.9976 </r>
       <r>   -4.6008    0.9976 </r>
       <r>   -4.5919    0.9972 </r>
       <r>   -4.5830    0.9969 </r>
       <r>   -4.5804    0.9968 </r>
       <r>   -4.5753    0.9966 </r>
       <r>   -4.5710    0.9965 </r>
       <r>   -4.5620    0.9961 </r>
       <r>   -4.5603    0.9961 </r>
       <r>   -4.5573    0.9960 </r>
       <r>   -4.5515    0.9958 </r>
       <r>   -4.5500    0.9957 </r>
       <r>   -4.5445    0.9956 </r>
       <r>   -4.5416    0.9955 </r>
       <r>   -4.5373    0.9954 </r>
       <r>   -4.5346    0.9953 </r>
       <r>   -4.5239    0.9951 </r>
       <r>   -4.5214    0.9951 </r>
       <r>   -4.5196    0.9951 </r>
       <r>   -4.5169    0.9951 </r>
       <r>   -4.5136    0.9951 </r>
       <r>   -4.5048    0.9952 </r>
       <r>   -4.4991    0.9953 </r>
       <r>   -4.4919    0.9956 </r>
       <r>   -4.4833    0.9961 </r>
       <r>   -4.4796    0.9964 </r>
       <r>   -4.4724    0.9971 </r>
       <r>   -4.4649    0.9980 </r>
       <r>   -4.4630    0.9982 </r>
       <r>   -4.4600    0.9986 </r>
       <r>   -4.4553    0.9994 </r>
       <r>   -4.4506    1.0003 </r>
       <r>   -4.4439    1.0016 </r>
       <r>   -4.4392    1.0027 </r>
       <r>   -4.4294    1.0052 </r>
       <r>   -4.4272    1.0059 </r>
       <r>   -4.4246    1.0067 </r>
       <r>   -4.4184    1.0086 </r>
       <r>   -4.4145    1.0100 </r>
       <r>   -4.4110    1.0112 </r>
       <r>   -4.4058    1.0132 </r>
       <r>   -4.4031    1.0142 </r>
       <r>   -4.3973    1.0166 </r>
       <r>   -4.3898    1.0199 </r>
       <r>   -4.3853    1.0219 </r>
       <r>   -4.3834    1.0228 </r>
       <r>   -4.3768    1.0258 </r>
       <r>   -4.3722    1.0280 </r>
       <r>   -4.3693    1.0295 </r>
       <r>   -4.3662    1.0309 </r>
       <r>   -4.3649    1.0316 </r>
       <r>   -4.3562    1.0357 </r>
       <r>   -4.3460    1.0404 </r>
       <r>   -4.3438    1.0413 </r>
       <r>   -4.3301    1.0466 </r>
       <r>   -4.3277    1.0474 </r>
       <r>   -4.3216    1.0492 </r>
       <r>   -4.3153    1.0505 </r>
       <r>   -4.3094    1.0513 </r>
       <r>   -4.3058    1.0516 </r>
       <r>   -4.3033    1.0516 </r>
       <r>   -4.2981    1.0514 </r>
       <r>   -4.2972    1.0513 </r>
       <r>   -4.2964    1.0512 </r>
       <r>   -4.2939    1.0508 </r>
       <r>   -4.2918    1.0504 </r>
       <r>   -4.2885    1.0495 </r>
       <r>   -4.2850    1.0483 </r>
       <r>   -4.2836    1.0478 </r>
       <r>   -4.2808    1.0465 </r>
       <r>   -4.2771    1.0446 </r>
       <r>   -4.2747    1.0432 </r>
       <r>   -4.2680    1.0383 </r>
       <r>   -4.2645    1.0352 </r>
       <r>   -4.2597    1.0305 </r>
       <r>   -4.2590    1.0297 </r>
       <r>   -4.2537    1.0234 </r>
       <r>   -4.2530    1.0226 </r>
       <r>   -4.2481    1.0157 </r>
       <r>   -4.2453    1.0116 </r>
       <r>   -4.2451    1.0113 </r>
       <r>   -4.2394    1.0018 </r>
       <r>   -4.2339    0.9914 </r>
       <r>   -4.2313    0.9862 </r>
       <r>   -4.2266    0.9762 </r>
       <r>   -4.2241    0.9704 </r>
       <r>   -4.2220    0.9655 </r>
       <r>   -4.2189    0.9577 </r>
       <r>   -4.2140    0.9449 </r>
       <r>   -4.2110    0.9365 </r>
       <r>   -4.2102    0.9341 </r>
       <r>   -4.2085    0.9294 </r>
       <r>   -4.2051    0.9189 </r>
       <r>   -4.2043    0.9165 </r>
       <r>   -4.2023    0.9104 </r>
       <r>   -4.1999    0.9025 </r>
       <r>   -4.1977    0.8953 </r>
       <r>   -4.1889    0.8641 </r>
       <r>   -4.1879    0.8604 </r>
       <r>   -4.1857    0.8521 </r>
       <r>   -4.1832    0.8426 </r>
       <r>   -4.1798    0.8295 </r>
       <r>   -4.1784    0.8235 </r>
       <r>   -4.1686    0.7826 </r>
       <r>   -4.1669    0.7751 </r>
       <r>   -4.1635    0.7598 </r>
       <r>   -4.1474    0.6837 </r>
       <r>   -4.1460    0.6769 </r>
       <r>   -4.1393    0.6431 </r>
       <r>   -4.1378    0.6357 </r>
       <r>   -4.1354    0.6234 </r>
       <r>   -4.1328    0.6100 </r>
       <r>   -4.1217    0.5523 </r>
       <r>   -4.1202    0.5442 </r>
       <r>   -4.1042    0.4599 </r>
       <r>   -4.0939    0.4057 </r>
       <r>   -4.0900    0.3860 </r>
       <r>   -4.0861    0.3658 </r>
       <r>   -4.0801    0.3357 </r>
       <r>   -4.0704    0.2881 </r>
       <r>   -3.9645   -0.0298 </r>
       <r>   -3.9232   -0.0515 </r>
       <r>   -3.8661   -0.0351 </r>
       <r>   -3.7908   -0.0043 </r>
       <r>   -3.7816   -0.0020 </r>
       <r>   -3.5974    0.0017 </r>
       <r>   -3.4642    0.0001 </r>
       <r>   -3.4513    0.0001 </r>
       <r>   -3.2713    0.0000 </r>
       <r>   -3.0532    0.0000 </r>
       <r>   -3.0298    0.0000 </r>
       <r>   -3.0141    0.0000 </r>
       <r>   -2.9907    0.0000 </r>
       <r>   -2.9861    0.0000 </r>
       <r>   -2.9376    0.0000 </r>
       <r>   -2.8992    0.0000 </r>
       <r>   -2.7117    0.0000 </r>
       <r>   -2.5071    0.0000 </r>
       <r>   -2.4867    0.0000 </r>
       <r>   -2.3449    0.0000 </r>
       <r>   -2.2788    0.0000 </r>
       <r>   -2.1155    0.0000 </r>
       <r>   -2.0834    0.0000 </r>
       <r>   -2.0343    0.0000 </r>
       <r>   -1.9362    0.0000 </r>
       <r>   -1.9248    0.0000 </r>
       <r>   -1.8507    0.0000 </r>
       <r>   -1.8315    0.0000 </r>
       <r>   -1.7718    0.0000 </r>
       <r>   -1.7623    0.0000 </r>
       <r>   -1.6498    0.0000 </r>
       <r>   -1.5942    0.0000 </r>
       <r>   -1.5541    0.0000 </r>
       <r>   -1.5104    0.0000 </r>
       <r>   -1.4319    0.0000 </r>
       <r>   -1.3425    0.0000 </r>
       <r>   -1.2242    0.0000 </r>
       <r>   -1.1836    0.0000 </r>
       <r>   -1.0144    0.0000 </r>
       <r>   -0.9904    0.0000 </r>
       <r>   -0.9492    0.0000 </r>
       <r>   -0.9400    0.0000 </r>
       <r>   -0.9047    0.0000 </r>
       <r>   -0.8970    0.0000 </r>
       <r>   -0.8234    0.0000 </r>
       <r>   -0.7791    0.0000 </r>
       <r>   -0.7442    0.0000 </r>
       <r>   -0.6852    0.0000 </r>
      </set>
     </set>
    </set>
   </array>
  </eigenvalues>
  <separator name="orbital magnetization" >
   <v name="MAGDIPOLOUT">      0.00000000      0.00000000      0.00000000</v>
  </separator>
  <dos>
   <i name="efermi">     -4.11180160 </i>
   <total>
    <array>
     <dimension dim="1">gridpoints</dimension>
     <dimension dim="2">spin</dimension>
     <field>energy</field>
     <field>total</field>
     <field>integrated</field>
     <set>
      <set comment="spin 1">
       <r>   -31.7988     0.0000     0.0000 </r>
       <r>   -31.6884     0.0000     0.0000 </r>
       <r>   -31.5781     0.0000     0.0000 </r>
       <r>   -31.4677     0.0000     0.0000 </r>
       <r>   -31.3573     0.0000     0.0000 </r>
       <r>   -31.2469     0.0000     0.0000 </r>
       <r>   -31.1365     0.0000     0.0000 </r>
       <r>   -31.0262     0.0000     0.0000 </r>
       <r>   -30.9158     0.0000     0.0000 </r>
       <r>   -30.8054     0.0000     0.0000 </r>
       <r>   -30.6950     0.0000     0.0000 </r>
       <r>   -30.5847     0.0000     0.0000 </r>
       <r>   -30.4743     0.0008     0.0001 </r>
       <r>   -30.3639     0.0109     0.0013 </r>
       <r>   -30.2535     0.0554     0.0074 </r>
       <r>   -30.1431    -0.0537     0.0015 </r>
       <r>   -30.0328    -0.7469    -0.0810 </r>
       <r>   -29.9224     0.8356     0.0113 </r>
       <r>   -29.8120     7.6987     0.8610 </r>
       <r>   -29.7016     9.0633     1.8614 </r>
       <r>   -29.5912     2.1560     2.0994 </r>
       <r>   -29.4809    -0.8075     2.0103 </r>
       <r>   -29.3705    -0.1760     1.9909 </r>
       <r>   -29.2601     0.0633     1.9978 </r>
       <r>   -29.1497     0.0179     1.9998 </r>
       <r>   -29.0394     0.0015     2.0000 </r>
       <r>   -28.9290     0.0001     2.0000 </r>
       <r>   -28.8186     0.0000     2.0000 </r>
       <r>   -28.7082     0.0000     2.0000 </r>
       <r>   -28.5978     0.0000     2.0000 </r>
       <r>   -28.4875     0.0000     2.0000 </r>
       <r>   -28.3771     0.0000     2.0000 </r>
       <r>   -28.2667     0.0000     2.0000 </r>
       <r>   -28.1563     0.0000     2.0000 </r>
       <r>   -28.0459     0.0000     2.0000 </r>
       <r>   -27.9356     0.0000     2.0000 </r>
       <r>   -27.8252     0.0000     2.0000 </r>
       <r>   -27.7148     0.0000     2.0000 </r>
       <r>   -27.6044     0.0000     2.0000 </r>
       <r>   -27.4940     0.0000     2.0000 </r>
       <r>   -27.3837     0.0000     2.0000 </r>
       <r>   -27.2733     0.0000     2.0000 </r>
       <r>   -27.1629     0.0000     2.0000 </r>
       <r>   -27.0525     0.0000     2.0000 </r>
       <r>   -26.9422     0.0000     2.0000 </r>
       <r>   -26.8318     0.0000     2.0000 </r>
       <r>   -26.7214     0.0000     2.0000 </r>
       <r>   -26.6110     0.0000     2.0000 </r>
       <r>   -26.5006     0.0000     2.0000 </r>
       <r>   -26.3903     0.0000     2.0000 </r>
       <r>   -26.2799     0.0000     2.0000 </r>
       <r>   -26.1695     0.0000     2.0000 </r>
       <r>   -26.0591     0.0000     2.0000 </r>
       <r>   -25.9487     0.0000     2.0000 </r>
       <r>   -25.8384     0.0000     2.0000 </r>
       <r>   -25.7280     0.0000     2.0000 </r>
       <r>   -25.6176     0.0000     2.0000 </r>
       <r>   -25.5072     0.0000     2.0000 </r>
       <r>   -25.3968     0.0000     2.0000 </r>
       <r>   -25.2865     0.0000     2.0000 </r>
       <r>   -25.1761     0.0000     2.0000 </r>
       <r>   -25.0657     0.0000     2.0000 </r>
       <r>   -24.9553     0.0000     2.0000 </r>
       <r>   -24.8450     0.0000     2.0000 </r>
       <r>   -24.7346     0.0000     2.0000 </r>
       <r>   -24.6242     0.0000     2.0000 </r>
       <r>   -24.5138     0.0000     2.0000 </r>
       <r>   -24.4034     0.0000     2.0000 </r>
       <r>   -24.2931     0.0000     2.0000 </r>
       <r>   -24.1827     0.0000     2.0000 </r>
       <r>   -24.0723     0.0000     2.0000 </r>
       <r>   -23.9619     0.0000     2.0000 </r>
       <r>   -23.8515     0.0000     2.0000 </r>
       <r>   -23.7412     0.0000     2.0000 </r>
       <r>   -23.6308     0.0000     2.0000 </r>
       <r>   -23.5204     0.0000     2.0000 </r>
       <r>   -23.4100     0.0000     2.0000 </r>
       <r>   -23.2997     0.0000     2.0000 </r>
       <r>   -23.1893     0.0000     2.0000 </r>
       <r>   -23.0789     0.0000     2.0000 </r>
       <r>   -22.9685     0.0000     2.0000 </r>
       <r>   -22.8581     0.0000     2.0000 </r>
       <r>   -22.7478     0.0000     2.0000 </r>
       <r>   -22.6374     0.0000     2.0000 </r>
       <r>   -22.5270     0.0000     2.0000 </r>
       <r>   -22.4166     0.0000     2.0000 </r>
       <r>   -22.3062     0.0000     2.0000 </r>
       <r>   -22.1959     0.0000     2.0000 </r>
       <r>   -22.0855     0.0000     2.0000 </r>
       <r>   -21.9751     0.0000     2.0000 </r>
       <r>   -21.8647     0.0000     2.0000 </r>
       <r>   -21.7543     0.0000     2.0000 </r>
       <r>   -21.6440     0.0000     2.0000 </r>
       <r>   -21.5336     0.0000     2.0000 </r>
       <r>   -21.4232     0.0000     2.0000 </r>
       <r>   -21.3128     0.0000     2.0000 </r>
       <r>   -21.2025     0.0000     2.0000 </r>
       <r>   -21.0921     0.0000     2.0000 </r>
       <r>   -20.9817     0.0000     2.0000 </r>
       <r>   -20.8713     0.0000     2.0000 </r>
       <r>   -20.7609     0.0000     2.0000 </r>
       <r>   -20.6506     0.0000     2.0000 </r>
       <r>   -20.5402     0.0000     2.0000 </r>
       <r>   -20.4298     0.0000     2.0000 </r>
       <r>   -20.3194     0.0000     2.0000 </r>
       <r>   -20.2090     0.0000     2.0000 </r>
       <r>   -20.0987     0.0000     2.0000 </r>
       <r>   -19.9883     0.0000     2.0000 </r>
       <r>   -19.8779     0.0000     2.0000 </r>
       <r>   -19.7675     0.0000     2.0000 </r>
       <r>   -19.6572     0.0000     2.0000 </r>
       <r>   -19.5468     0.0000     2.0000 </r>
       <r>   -19.4364     0.0000     2.0000 </r>
       <r>   -19.3260     0.0000     2.0000 </r>
       <r>   -19.2156     0.0000     2.0000 </r>
       <r>   -19.1053     0.0000     2.0000 </r>
       <r>   -18.9949     0.0000     2.0000 </r>
       <r>   -18.8845     0.0000     2.0000 </r>
       <r>   -18.7741     0.0000     2.0000 </r>
       <r>   -18.6637     0.0000     2.0000 </r>
       <r>   -18.5534     0.0000     2.0000 </r>
       <r>   -18.4430     0.0000     2.0000 </r>
       <r>   -18.3326     0.0000     2.0000 </r>
       <r>   -18.2222     0.0000     2.0000 </r>
       <r>   -18.1118     0.0000     2.0000 </r>
       <r>   -18.0015     0.0000     2.0000 </r>
       <r>   -17.8911     0.0000     2.0000 </r>
       <r>   -17.7807     0.0000     2.0000 </r>
       <r>   -17.6703     0.0000     2.0000 </r>
       <r>   -17.5600     0.0000     2.0000 </r>
       <r>   -17.4496     0.0000     2.0000 </r>
       <r>   -17.3392     0.0000     2.0000 </r>
       <r>   -17.2288     0.0000     2.0000 </r>
       <r>   -17.1184     0.0000     2.0000 </r>
       <r>   -17.0081     0.0000     2.0000 </r>
       <r>   -16.8977     0.0000     2.0000 </r>
       <r>   -16.7873     0.0000     2.0000 </r>
       <r>   -16.6769     0.0000     2.0000 </r>
       <r>   -16.5665     0.0000     2.0000 </r>
       <r>   -16.4562     0.0000     2.0000 </r>
       <r>   -16.3458     0.0000     2.0000 </r>
       <r>   -16.2354     0.0000     2.0000 </r>
       <r>   -16.1250     0.0000     2.0000 </r>
       <r>   -16.0146     0.0000     2.0000 </r>
       <r>   -15.9043     0.0000     2.0000 </r>
       <r>   -15.7939     0.0000     2.0000 </r>
       <r>   -15.6835     0.0000     2.0000 </r>
       <r>   -15.5731     0.0000     2.0000 </r>
       <r>   -15.4628     0.0000     2.0000 </r>
       <r>   -15.3524     0.0002     2.0000 </r>
       <r>   -15.2420     0.0038     2.0004 </r>
       <r>   -15.1316     0.0323     2.0040 </r>
       <r>   -15.0212     0.0508     2.0096 </r>
       <r>   -14.9109    -0.4196     1.9633 </r>
       <r>   -14.8005    -0.5279     1.9050 </r>
       <r>   -14.6901     4.5004     2.4018 </r>
       <r>   -14.5797     9.9608     3.5012 </r>
       <r>   -14.4693     5.2663     4.0825 </r>
       <r>   -14.3590    -0.3256     4.0466 </r>
       <r>   -14.2486    -0.5026     3.9911 </r>
       <r>   -14.1382     0.0378     3.9953 </r>
       <r>   -14.0278     0.0406     3.9998 </r>
       <r>   -13.9175     0.0327     4.0034 </r>
       <r>   -13.8071     0.0588     4.0099 </r>
       <r>   -13.6967    -0.3436     3.9719 </r>
       <r>   -13.5863    -0.6638     3.8987 </r>
       <r>   -13.4759     3.7921     4.3172 </r>
       <r>   -13.3656     9.8423     5.4036 </r>
       <r>   -13.2552     5.9892     6.0647 </r>
       <r>   -13.1448    -0.0660     6.0574 </r>
       <r>   -13.0344    -0.5306     5.9989 </r>
       <r>   -12.9240     0.0055     5.9995 </r>
       <r>   -12.8137    -0.6352     5.9293 </r>
       <r>   -12.7033     0.3715     5.9704 </r>
       <r>   -12.5929     6.9393     6.7363 </r>
       <r>   -12.4825     9.5040     7.7853 </r>
       <r>   -12.3721     2.8779     8.1030 </r>
       <r>   -12.2618    -0.7726     8.0177 </r>
       <r>   -12.1514    -0.2482     7.9903 </r>
       <r>   -12.0410     0.0633     7.9973 </r>
       <r>   -11.9306     0.0221     7.9998 </r>
       <r>   -11.8203     0.0021     8.0000 </r>
       <r>   -11.7099     0.0001     8.0000 </r>
       <r>   -11.5995     0.0002     8.0000 </r>
       <r>   -11.4891     0.0048     8.0006 </r>
       <r>   -11.3787     0.0368     8.0046 </r>
       <r>   -11.2684     0.0399     8.0090 </r>
       <r>   -11.1580    -0.4906     7.9549 </r>
       <r>   -11.0476    -0.3588     7.9153 </r>
       <r>   -10.9372     5.1552     8.4843 </r>
       <r>   -10.8268     9.9689     9.5847 </r>
       <r>   -10.7165     4.6104    10.0936 </r>
       <r>   -10.6061    -0.5026    10.0381 </r>
       <r>   -10.4957    -0.4315     9.9905 </r>
       <r>   -10.3853     0.0492     9.9959 </r>
       <r>   -10.2750     0.0331     9.9995 </r>
       <r>   -10.1646     0.0040    10.0000 </r>
       <r>   -10.0542     0.0002    10.0000 </r>
       <r>    -9.9438     0.0000    10.0000 </r>
       <r>    -9.8334     0.0000    10.0000 </r>
       <r>    -9.7231     0.0000    10.0000 </r>
       <r>    -9.6127     0.0000    10.0000 </r>
       <r>    -9.5023     0.0000    10.0000 </r>
       <r>    -9.3919     0.0000    10.0000 </r>
       <r>    -9.2815     0.0000    10.0000 </r>
       <r>    -9.1712     0.0000    10.0000 </r>
       <r>    -9.0608     0.0000    10.0000 </r>
       <r>    -8.9504     0.0000    10.0000 </r>
       <r>    -8.8400     0.0000    10.0000 </r>
       <r>    -8.7296     0.0000    10.0000 </r>
       <r>    -8.6193     0.0003    10.0000 </r>
       <r>    -8.5089     0.0051    10.0006 </r>
       <r>    -8.3985     0.0381    10.0048 </r>
       <r>    -8.2881     0.0361    10.0088 </r>
       <r>    -8.1778    -0.5104     9.9524 </r>
       <r>    -8.0674    -0.3033     9.9190 </r>
       <r>    -7.9570     5.3383    10.5082 </r>
       <r>    -7.8466     9.9542    11.6069 </r>
       <r>    -7.7362     4.4292    12.0958 </r>
       <r>    -7.6259    -0.5434    12.0358 </r>
       <r>    -7.5155    -0.4057    11.9911 </r>
       <r>    -7.4051     0.0943    12.0015 </r>
       <r>    -7.2947     0.0530    12.0073 </r>
       <r>    -7.1843    -0.5671    11.9447 </r>
       <r>    -7.0740    -0.0456    11.9397 </r>
       <r>    -6.9636     5.9798    12.5997 </r>
       <r>    -6.8532     9.2873    13.6248 </r>
       <r>    -6.7428     3.7067    14.0340 </r>
       <r>    -6.6324     5.3094    14.6200 </r>
       <r>    -6.5221     9.7802    15.6996 </r>
       <r>    -6.4117     2.5062    15.9762 </r>
       <r>    -6.3013    -3.2818    15.6139 </r>
       <r>    -6.1909    16.4600    17.4308 </r>
       <r>    -6.0806    47.3340    22.6555 </r>
       <r>    -5.9702    39.3683    27.0009 </r>
       <r>    -5.8598    21.7197    29.3983 </r>
       <r>    -5.7494    39.2702    33.7329 </r>
       <r>    -5.6390    84.3730    43.0459 </r>
       <r>    -5.5287   176.5616    62.5345 </r>
       <r>    -5.4183   278.1588    93.2374 </r>
       <r>    -5.3079   275.5687   123.6543 </r>
       <r>    -5.1975   215.0984   147.3966 </r>
       <r>    -5.0871   236.4385   173.4944 </r>
       <r>    -4.9768   327.4052   209.6330 </r>
       <r>    -4.8664   353.7074   248.6748 </r>
       <r>    -4.7560   305.0973   282.3511 </r>
       <r>    -4.6456   326.6996   318.4118 </r>
       <r>    -4.5353   399.3488   362.4915 </r>
       <r>    -4.4249   412.3138   408.0022 </r>
       <r>    -4.3145   466.9972   459.5488 </r>
       <r>    -4.2041   550.0105   520.2583 </r>
       <r>    -4.0937   406.6082   565.1393 </r>
       <r>    -3.9834   130.5377   579.5479 </r>
       <r>    -3.8730    17.6215   581.4929 </r>
       <r>    -3.7626    23.9482   584.1363 </r>
       <r>    -3.6522    19.7063   586.3114 </r>
       <r>    -3.5418    16.0104   588.0786 </r>
       <r>    -3.4315    22.6570   590.5795 </r>
       <r>    -3.3211    17.4391   592.5044 </r>
       <r>    -3.2107     6.3617   593.2066 </r>
       <r>    -3.1003    16.9432   595.0768 </r>
       <r>    -2.9899    52.7132   600.8952 </r>
       <r>    -2.8796    52.9158   606.7360 </r>
       <r>    -2.7692    18.6983   608.7999 </r>
       <r>    -2.6588     6.0278   609.4652 </r>
       <r>    -2.5484    12.8370   610.8821 </r>
       <r>    -2.4381    21.7474   613.2826 </r>
       <r>    -2.3277    21.8566   615.6951 </r>
       <r>    -2.2173    17.5908   617.6367 </r>
       <r>    -2.1069    21.5713   620.0178 </r>
       <r>    -1.9965    32.5373   623.6092 </r>
       <r>    -1.8862    41.4816   628.1879 </r>
       <r>    -1.7758    44.2299   633.0699 </r>
       <r>    -1.6654    36.5845   637.1081 </r>
       <r>    -1.5550    34.7494   640.9437 </r>
       <r>    -1.4446    32.9077   644.5760 </r>
       <r>    -1.3343    23.9622   647.2209 </r>
       <r>    -1.2239    19.9758   649.4258 </r>
       <r>    -1.1135    18.1070   651.4244 </r>
       <r>    -1.0031    32.0929   654.9668 </r>
       <r>    -0.8928    57.3777   661.3001 </r>
       <r>    -0.7824    55.2512   667.3987 </r>
       <r>    -0.6720    33.3331   671.0779 </r>
       <r>    -0.5616    10.2083   672.2047 </r>
       <r>    -0.4512    -1.1551   672.0772 </r>
       <r>    -0.3409    -0.9662   671.9706 </r>
       <r>    -0.2305     0.1445   671.9865 </r>
       <r>    -0.1201     0.1059   671.9982 </r>
       <r>    -0.0097     0.0153   671.9999 </r>
       <r>     0.1007     0.0009   672.0000 </r>
       <r>     0.2110     0.0000   672.0000 </r>
       <r>     0.3214     0.0000   672.0000 </r>
       <r>     0.4318     0.0000   672.0000 </r>
       <r>     0.5422     0.0000   672.0000 </r>
       <r>     0.6526     0.0000   672.0000 </r>
       <r>     0.7629     0.0000   672.0000 </r>
       <r>     0.8733     0.0000   672.0000 </r>
       <r>     0.9837     0.0000   672.0000 </r>
       <r>     1.0941     0.0000   672.0000 </r>
       <r>     1.2044     0.0000   672.0000 </r>
       <r>     1.3148     0.0000   672.0000 </r>
      </set>
     </set>
    </array>
   </total>
  </dos>
 </calculation>
 <structure name="finalpos" >
  <crystal>
   <varray name="basis" >
    <v>      30.00000000       0.00000000       0.00000000 </v>
    <v>       0.00000000      30.00000000       0.00000000 </v>
    <v>       0.00000000       0.00000000      30.00000000 </v>
   </varray>
   <i name="volume">  27000.00000000 </i>
   <varray name="rec_basis" >
    <v>       0.03333333       0.00000000       0.00000000 </v>
    <v>       0.00000000       0.03333333       0.00000000 </v>
    <v>       0.00000000       0.00000000       0.03333333 </v>
   </varray>
  </crystal>
  <varray name="positions" >
   <v>       0.44576020       0.32826710       0.41691983 </v>
   <v>       0.67173288       0.55423978       0.41691983 </v>
   <v>       0.55423980       0.32826710       0.41691983 </v>
   <v>       0.32826712       0.55423978       0.41691983 </v>
   <v>       0.50000000       0.38250690       0.34021317 </v>
   <v>       0.50000000       0.38250690       0.65978680 </v>
   <v>       0.50000000       0.27609440       0.50000000 </v>
   <v>       0.27609443       0.49999998       0.50000000 </v>
   <v>       0.72390557       0.49999998       0.50000000 </v>
   <v>       0.50000000       0.72390555       0.50000000 </v>
   <v>       0.61195280       0.38804720       0.34167483 </v>
   <v>       0.61195280       0.38804720       0.65832513 </v>
   <v>       0.38804722       0.61195278       0.34167483 </v>
   <v>       0.38804722       0.61195278       0.65832513 </v>
   <v>       0.38804720       0.38804720       0.34167483 </v>
   <v>       0.38804720       0.38804720       0.65832513 </v>
   <v>       0.61195278       0.61195278       0.34167483 </v>
   <v>       0.61195278       0.61195278       0.65832513 </v>
   <v>       0.44576020       0.32826710       0.58308023 </v>
   <v>       0.67173288       0.55423978       0.58308023 </v>
   <v>       0.55791699       0.44208301       0.41809300 </v>
   <v>       0.32826705       0.44576024       0.41691983 </v>
   <v>       0.55423973       0.67173293       0.41691983 </v>
   <v>       0.55423980       0.32826710       0.58308023 </v>
   <v>       0.32826712       0.55423978       0.58308023 </v>
   <v>       0.67173295       0.44576024       0.41691983 </v>
   <v>       0.44576027       0.67173293       0.41691983 </v>
   <v>       0.44208301       0.44208301       0.41809300 </v>
   <v>       0.50000000       0.38416601       0.50000000 </v>
   <v>       0.61749315       0.50000005       0.34021317 </v>
   <v>       0.61749315       0.50000005       0.65978680 </v>
   <v>       0.38250685       0.50000005       0.34021317 </v>
   <v>       0.38250685       0.50000005       0.65978680 </v>
   <v>       0.38317830       0.38317830       0.50000000 </v>
   <v>       0.61682172       0.61682172       0.50000000 </v>
   <v>       0.61682170       0.38317830       0.50000000 </v>
   <v>       0.38317828       0.61682172       0.50000000 </v>
   <v>       0.50000000       0.50000000       0.33478917 </v>
   <v>       0.50000000       0.50000000       0.66521087 </v>
   <v>       0.32826705       0.44576024       0.58308023 </v>
   <v>       0.55423973       0.67173293       0.58308023 </v>
   <v>       0.55791699       0.44208301       0.58190703 </v>
   <v>       0.44208298       0.55791702       0.41809300 </v>
   <v>       0.44208301       0.44208301       0.58190703 </v>
   <v>       0.67173295       0.44576024       0.58308023 </v>
   <v>       0.44576027       0.67173293       0.58308023 </v>
   <v>       0.55791702       0.55791702       0.41809300 </v>
   <v>       0.38416599       0.50000002       0.50000000 </v>
   <v>       0.61583401       0.50000002       0.50000000 </v>
   <v>       0.50000000       0.61749319       0.34021317 </v>
   <v>       0.50000000       0.61749319       0.65978680 </v>
   <v>       0.50000000       0.50000000       0.50000000 </v>
   <v>       0.44208298       0.55791702       0.58190703 </v>
   <v>       0.55791702       0.55791702       0.58190703 </v>
   <v>       0.50000000       0.61583404       0.50000000 </v>
   <v>       0.54788957       0.40950187       0.66242923 </v>
   <v>       0.55726763       0.39177993       0.69423717 </v>
  </varray>
  <varray name="selective"  type="logical" >
   <v type="logical" >  F  F  F </v>
   <v type="logical" >  F  F  F </v>
   <v type="logical" >  F  F  F </v>
   <v type="logical" >  F  F  F </v>
   <v type="logical" >  F  F  F </v>
   <v type="logical" >  F  F  F </v>
   <v type="logical" >  F  F  F </v>
   <v type="logical" >  F  F  F </v>
   <v type="logical" >  F  F  F </v>
   <v type="logical" >  F  F  F </v>
   <v type="logical" >  F  F  F </v>
   <v type="logical" >  F  F  F </v>
   <v type="logical" >  F  F  F </v>
   <v type="logical" >  F  F  F </v>
   <v type="logical" >  F  F  F </v>
   <v type="logical" >  F  F  F </v>
   <v type="logical" >  F  F  F </v>
   <v type="logical" >  F  F  F </v>
   <v type="logical" >  F  F  F </v>
   <v type="logical" >  F  F  F </v>
   <v type="logical" >  F  F  F </v>
   <v type="logical" >  F  F  F </v>
   <v type="logical" >  F  F  F </v>
   <v type="logical" >  F  F  F </v>
   <v type="logical" >  F  F  F </v>
   <v type="logical" >  F  F  F </v>
   <v type="logical" >  F  F  F </v>
   <v type="logical" >  F  F  F </v>
   <v type="logical" >  F  F  F </v>
   <v type="logical" >  F  F  F </v>
   <v type="logical" >  F  F  F </v>
   <v type="logical" >  F  F  F </v>
   <v type="logical" >  F  F  F </v>
   <v type="logical" >  F  F  F </v>
   <v type="logical" >  F  F  F </v>
   <v type="logical" >  F  F  F </v>
   <v type="logical" >  F  F  F </v>
   <v type="logical" >  F  F  F </v>
   <v type="logical" >  F  F  F </v>
   <v type="logical" >  F  F  F </v>
   <v type="logical" >  F  F  F </v>
   <v type="logical" >  F  F  F </v>
   <v type="logical" >  F  F  F </v>
   <v type="logical" >  F  F  F </v>
   <v type="logical" >  F  F  F </v>
   <v type="logical" >  F  F  F </v>
   <v type="logical" >  F  F  F </v>
   <v type="logical" >  F  F  F </v>
   <v type="logical" >  F  F  F </v>
   <v type="logical" >  F  F  F </v>
   <v type="logical" >  F  F  F </v>
   <v type="logical" >  F  F  F </v>
   <v type="logical" >  F  F  F </v>
   <v type="logical" >  F  F  F </v>
   <v type="logical" >  F  F  F </v>
   <v type="logical" >  F  F  F </v>
   <v type="logical" >  F  F  F </v>
  </varray>
  <nose>
   <v>      -3.00000000       0.00000000       0.00010000       0.00010000 </v>
  </nose>
 </structure>
</modeling>
