<?xml version="1.0" encoding="ISO-8859-1"?>
<modeling>
 <generator>
  <i name="program" type="string">vasp </i>
  <i name="version" type="string">5.4.4.18Apr17-6-g9f103f2a35  </i>
  <i name="subversion" type="string">(build Sep 03 2018 23:53:05) complex            parallel </i>
  <i name="platform" type="string">LinuxIFC </i>
  <i name="date" type="string">2021 11 25 </i>
  <i name="time" type="string">16:47:58 </i>
 </generator>
 <incar>
  <i type="string" name="SYSTEM"> 6_Pd100_top_free_z(O)</i>
  <i type="int" name="ISTART">     0</i>
  <i type="string" name="PREC">normal   			! encut=max(enmax), ngx,y,z</i>
  <i type="string" name="ALGO"> Fast     			! Mix RMM-DIIS and Dav</i>
  <i type="logical" name="ADDGRID"> F  </i>
  <i type="int" name="ISPIN">     1</i>
  <i type="int" name="ICHARG">     2</i>
  <i type="int" name="NELM">   100</i>
  <i type="int" name="NELMIN">     6</i>
  <i type="int" name="IBRION">     2</i>
  <i name="EDIFF">      0.00010000</i>
  <i name="EDIFFG">     -0.05000000</i>
  <i type="int" name="NSW">     0</i>
  <i type="int" name="ISIF">     2</i>
  <i type="int" name="ISYM">     2</i>
  <i name="ENCUT">    400.00000000</i>
  <i type="string" name="LREAL"> Auto     			! Auto or A projection done</i>
  <i type="int" name="ISMEAR">     2</i>
  <i name="SIGMA">      0.20000000</i>
  <i type="logical" name="LWAVE"> F  </i>
  <i type="logical" name="LCHARG"> F  </i>
  <v type="int" name="KPOINT_BSE">    -1     0     0     0</v>
  <i type="int" name="MAXMEM"> 10000</i>
  <i type="int" name="NELM">   100</i>
  <i type="string" name="GGA"> RP         			! Revised PBE</i>
 </incar>
 <structure name="primitive_cell" >
  <crystal>
   <varray name="basis" >
    <v>      30.00000000       0.00000000       0.00000000 </v>
    <v>       0.00000000      30.00000000       0.00000000 </v>
    <v>       0.00000000       0.00000000      30.00000000 </v>
   </varray>
   <i name="volume">  27000.00000000 </i>
   <varray name="rec_basis" >
    <v>       0.03333333       0.00000000       0.00000000 </v>
    <v>       0.00000000       0.03333333       0.00000000 </v>
    <v>       0.00000000       0.00000000       0.03333333 </v>
   </varray>
  </crystal>
  <varray name="positions" >
   <v>       0.44576020       0.32826710       0.41691983 </v>
   <v>      -0.44576020       0.32826710       0.41691983 </v>
   <v>      -0.50000000       0.38250690       0.34021317 </v>
   <v>      -0.50000000       0.27609440      -0.50000000 </v>
   <v>       0.38804720       0.38804720       0.34167483 </v>
   <v>      -0.50000000       0.38416601      -0.50000000 </v>
   <v>       0.44208300       0.44208300       0.41809300 </v>
   <v>       0.38317830       0.38317830      -0.50000000 </v>
   <v>      -0.44208300       0.44208300       0.41809300 </v>
   <v>       0.44576020       0.32826710      -0.41691977 </v>
   <v>       0.32826705       0.44576024       0.41691983 </v>
   <v>      -0.38804720       0.38804720       0.34167483 </v>
   <v>      -0.38317830       0.38317830      -0.50000000 </v>
   <v>      -0.50000000      -0.50000000       0.33478917 </v>
   <v>      -0.50000000      -0.50000000      -0.50000000 </v>
   <v>      -0.44576020       0.32826710      -0.41691977 </v>
   <v>       0.38250685      -0.49999995       0.34021317 </v>
   <v>       0.44208300       0.44208300      -0.41809297 </v>
   <v>       0.38416599      -0.49999998      -0.50000000 </v>
   <v>      -0.44208300       0.44208300      -0.41809297 </v>
   <v>       0.44208298      -0.44208298       0.41809300 </v>
   <v>       0.32826705       0.44576024      -0.41691977 </v>
   <v>      -0.50000000       0.38250690      -0.34021320 </v>
   <v>       0.32826712      -0.44576022       0.41691983 </v>
   <v>      -0.38250685      -0.49999995       0.34021317 </v>
   <v>      -0.32826705       0.44576024       0.41691983 </v>
   <v>       0.27609443       0.49999998      -0.50000000 </v>
   <v>       0.38804720       0.38804720      -0.34167487 </v>
   <v>      -0.38416599      -0.49999998      -0.50000000 </v>
   <v>      -0.44208298      -0.44208298       0.41809300 </v>
   <v>       0.44208298      -0.44208298      -0.41809297 </v>
   <v>      -0.31391733       0.47263450       0.32419437 </v>
   <v>      -0.38804720       0.38804720      -0.34167487 </v>
   <v>       0.38804722      -0.38804722       0.34167483 </v>
   <v>       0.38250685      -0.49999995      -0.34021320 </v>
   <v>       0.32826712      -0.44576022      -0.41691977 </v>
   <v>      -0.32826705       0.44576024      -0.41691977 </v>
   <v>       0.50000000      -0.38250681       0.34021317 </v>
   <v>      -0.50000000      -0.38416596      -0.50000000 </v>
   <v>      -0.44208298      -0.44208298      -0.41809297 </v>
   <v>      -0.50000000      -0.50000000      -0.33478913 </v>
   <v>       0.38317828      -0.38317828      -0.50000000 </v>
   <v>      -0.32826712      -0.44576022       0.41691983 </v>
   <v>      -0.28674093       0.46863790       0.29851887 </v>
   <v>      -0.27609443       0.49999998      -0.50000000 </v>
   <v>      -0.38804722      -0.38804722       0.34167483 </v>
   <v>      -0.38250685      -0.49999995      -0.34021320 </v>
   <v>       0.44576027      -0.32826707       0.41691983 </v>
   <v>      -0.38317828      -0.38317828      -0.50000000 </v>
   <v>      -0.32826712      -0.44576022      -0.41691977 </v>
   <v>      -0.44576027      -0.32826707       0.41691983 </v>
   <v>       0.38804722      -0.38804722      -0.34167487 </v>
   <v>      -0.50000000      -0.38250681      -0.34021320 </v>
   <v>       0.44576027      -0.32826707      -0.41691977 </v>
   <v>      -0.44576027      -0.32826707      -0.41691977 </v>
   <v>      -0.50000000      -0.27609445       0.50000000 </v>
   <v>      -0.38804722      -0.38804722      -0.34167487 </v>
  </varray>
 </structure>
 <varray name="primitive_index" >
  <v type="int" >        1 </v>
  <v type="int" >        3 </v>
  <v type="int" >        5 </v>
  <v type="int" >        7 </v>
  <v type="int" >       15 </v>
  <v type="int" >       29 </v>
  <v type="int" >       28 </v>
  <v type="int" >       34 </v>
  <v type="int" >       21 </v>
  <v type="int" >       19 </v>
  <v type="int" >       22 </v>
  <v type="int" >       11 </v>
  <v type="int" >       36 </v>
  <v type="int" >       38 </v>
  <v type="int" >       52 </v>
  <v type="int" >       24 </v>
  <v type="int" >       32 </v>
  <v type="int" >       44 </v>
  <v type="int" >       48 </v>
  <v type="int" >       42 </v>
  <v type="int" >       43 </v>
  <v type="int" >       40 </v>
  <v type="int" >        6 </v>
  <v type="int" >        4 </v>
  <v type="int" >       30 </v>
  <v type="int" >       26 </v>
  <v type="int" >        8 </v>
  <v type="int" >       16 </v>
  <v type="int" >       49 </v>
  <v type="int" >       47 </v>
  <v type="int" >       53 </v>
  <v type="int" >       56 </v>
  <v type="int" >       12 </v>
  <v type="int" >       13 </v>
  <v type="int" >       33 </v>
  <v type="int" >       25 </v>
  <v type="int" >       45 </v>
  <v type="int" >       50 </v>
  <v type="int" >       55 </v>
  <v type="int" >       54 </v>
  <v type="int" >       39 </v>
  <v type="int" >       37 </v>
  <v type="int" >        2 </v>
  <v type="int" >       57 </v>
  <v type="int" >        9 </v>
  <v type="int" >       17 </v>
  <v type="int" >       31 </v>
  <v type="int" >       27 </v>
  <v type="int" >       35 </v>
  <v type="int" >       20 </v>
  <v type="int" >       23 </v>
  <v type="int" >       14 </v>
  <v type="int" >       51 </v>
  <v type="int" >       46 </v>
  <v type="int" >       41 </v>
  <v type="int" >       10 </v>
  <v type="int" >       18 </v>
 </varray>
 <kpoints>
  <generation param="Monkhorst-Pack">
   <v type="int" name="divisions">       1        1        1 </v>
   <v name="usershift">      0.00000000       0.00000000       0.00000000 </v>
   <v name="genvec1">      1.00000000       0.00000000       0.00000000 </v>
   <v name="genvec2">      0.00000000       1.00000000       0.00000000 </v>
   <v name="genvec3">      0.00000000       0.00000000       1.00000000 </v>
   <v name="shift">      0.00000000       0.00000000       0.00000000 </v>
  </generation>
  <varray name="kpointlist" >
   <v>       0.00000000       0.00000000       0.00000000 </v>
  </varray>
  <varray name="weights" >
   <v>       1.00000000 </v>
  </varray>
 </kpoints>
 <parameters>
  <separator name="general" >
   <i type="string" name="SYSTEM">6_Pd100_top_free_z(O)</i>
   <i type="logical" name="LCOMPAT"> F  </i>
  </separator>
  <separator name="electronic" >
   <i type="string" name="PREC">normal</i>
   <i name="ENMAX">    400.00000000</i>
   <i name="ENAUG">    644.87300000</i>
   <i name="EDIFF">      0.00010000</i>
   <i type="int" name="IALGO">    68</i>
   <i type="int" name="IWAVPR">    10</i>
   <i type="int" name="NBANDS">   336</i>
   <i name="NELECT">    560.00000000</i>
   <i type="int" name="TURBO">     0</i>
   <i type="int" name="IRESTART">     0</i>
   <i type="int" name="NREBOOT">     0</i>
   <i type="int" name="NMIN">     0</i>
   <i name="EREF">      0.00000000</i>
   <separator name="electronic smearing" >
    <i type="int" name="ISMEAR">     2</i>
    <i name="SIGMA">      0.20000000</i>
    <i name="KSPACING">      0.50000000</i>
    <i type="logical" name="KGAMMA"> T  </i>
   </separator>
   <separator name="electronic projectors" >
    <i type="logical" name="LREAL"> T  </i>
    <v name="ROPT">     -0.00050000     -0.00050000     -0.00050000</v>
    <i type="int" name="LMAXPAW">  -100</i>
    <i type="int" name="LMAXMIX">     2</i>
    <i type="logical" name="NLSPLINE"> F  </i>
   </separator>
   <separator name="electronic startup" >
    <i type="int" name="ISTART">     0</i>
    <i type="int" name="ICHARG">     2</i>
    <i type="int" name="INIWAV">     1</i>
   </separator>
   <separator name="electronic spin" >
    <i type="int" name="ISPIN">     1</i>
    <i type="logical" name="LNONCOLLINEAR"> F  </i>
    <v name="MAGMOM">      1.00000000      1.00000000      1.00000000      1.00000000      1.00000000      1.00000000      1.00000000      1.00000000      1.00000000      1.00000000      1.00000000      1.00000000      1.00000000      1.00000000      1.00000000      1.00000000      1.00000000      1.00000000      1.00000000      1.00000000
      1.00000000      1.00000000      1.00000000      1.00000000      1.00000000      1.00000000      1.00000000      1.00000000      1.00000000      1.00000000      1.00000000      1.00000000      1.00000000      1.00000000      1.00000000      1.00000000      1.00000000      1.00000000      1.00000000      1.00000000
      1.00000000      1.00000000      1.00000000      1.00000000      1.00000000      1.00000000      1.00000000      1.00000000      1.00000000      1.00000000      1.00000000      1.00000000      1.00000000      1.00000000      1.00000000      1.00000000      1.00000000</v>
    <i name="NUPDOWN">     -1.00000000</i>
    <i type="logical" name="LSORBIT"> F  </i>
    <v name="SAXIS">      0.00000000      0.00000000      1.00000000</v>
    <i type="logical" name="LSPIRAL"> F  </i>
    <v name="QSPIRAL">      0.00000000      0.00000000      0.00000000</v>
    <i type="logical" name="LZEROZ"> F  </i>
   </separator>
   <separator name="electronic exchange-correlation" >
    <i type="logical" name="LASPH"> F  </i>
    <i type="logical" name="LMETAGGA"> F  </i>
   </separator>
   <separator name="electronic convergence" >
    <i type="int" name="NELM">   100</i>
    <i type="int" name="NELMDL">    -5</i>
    <i type="int" name="NELMIN">     6</i>
    <i name="ENINI">    400.00000000</i>
    <separator name="electronic convergence detail" >
     <i type="logical" name="LDIAG"> T  </i>
     <i type="logical" name="LSUBROT"> F  </i>
     <i name="WEIMIN">      0.00000000</i>
     <i name="EBREAK">      0.00000007</i>
     <i name="DEPER">      0.30000000</i>
     <i type="int" name="NRMM">     4</i>
     <i name="TIME">      0.40000000</i>
    </separator>
   </separator>
   <separator name="electronic mixer" >
    <i name="AMIX">      0.40000000</i>
    <i name="BMIX">      1.00000000</i>
    <i name="AMIN">      0.10000000</i>
    <i name="AMIX_MAG">      1.60000000</i>
    <i name="BMIX_MAG">      1.00000000</i>
    <separator name="electronic mixer details" >
     <i type="int" name="IMIX">     4</i>
     <i type="logical" name="MIXFIRST"> F  </i>
     <i type="int" name="MAXMIX">   -45</i>
     <i name="WC">    100.00000000</i>
     <i type="int" name="INIMIX">     1</i>
     <i type="int" name="MIXPRE">     1</i>
     <i type="int" name="MREMOVE">     5</i>
    </separator>
   </separator>
   <separator name="electronic dipolcorrection" >
    <i type="logical" name="LDIPOL"> F  </i>
    <i type="logical" name="LMONO"> F  </i>
    <i type="int" name="IDIPOL">     0</i>
    <i name="EPSILON">      1.00000000</i>
    <v name="DIPOL">   -100.00000000   -100.00000000   -100.00000000</v>
    <i name="EFIELD">      0.00000000</i>
   </separator>
  </separator>
  <separator name="grids" >
   <i type="int" name="NGX">   150</i>
   <i type="int" name="NGY">   150</i>
   <i type="int" name="NGZ">   150</i>
   <i type="int" name="NGXF">   300</i>
   <i type="int" name="NGYF">   300</i>
   <i type="int" name="NGZF">   300</i>
   <i type="logical" name="ADDGRID"> F  </i>
  </separator>
  <separator name="ionic" >
   <i type="int" name="NSW">     0</i>
   <i type="int" name="IBRION">    -1</i>
   <i type="int" name="MDALGO">     0</i>
   <i type="int" name="ISIF">     2</i>
   <i name="PSTRESS">      0.00000000</i>
   <i name="EDIFFG">     -0.05000000</i>
   <i type="int" name="NFREE">     1</i>
   <i name="POTIM">      0.50000000</i>
   <i name="SMASS">     -3.00000000</i>
   <i name="SCALEE">      1.00000000</i>
  </separator>
  <separator name="ionic md" >
   <i name="TEBEG">      0.00010000</i>
   <i name="TEEND">      0.00010000</i>
   <i type="int" name="NBLOCK">     1</i>
   <i type="int" name="KBLOCK">     1</i>
   <i type="int" name="NPACO">   256</i>
   <i name="APACO">     16.00000000</i>
  </separator>
  <separator name="symmetry" >
   <i type="int" name="ISYM">     2</i>
   <i name="SYMPREC">      0.00001000</i>
  </separator>
  <separator name="dos" >
   <i type="int" name="LORBIT">     0</i>
   <v name="RWIGS">     -1.00000000     -1.00000000     -1.00000000</v>
   <i type="int" name="NEDOS">   301</i>
   <i name="EMIN">     10.00000000</i>
   <i name="EMAX">    -10.00000000</i>
   <i name="EFERMI">      0.00000000</i>
  </separator>
  <separator name="writing" >
   <i type="int" name="NWRITE">     2</i>
   <i type="logical" name="LWAVE"> F  </i>
   <i type="logical" name="LDOWNSAMPLE"> F  </i>
   <i type="logical" name="LCHARG"> F  </i>
   <i type="logical" name="LPARD"> F  </i>
   <i type="logical" name="LVTOT"> F  </i>
   <i type="logical" name="LVHAR"> F  </i>
   <i type="logical" name="LELF"> F  </i>
   <i type="logical" name="LOPTICS"> F  </i>
   <v name="STM">      0.00000000      0.00000000      0.00000000      0.00000000      0.00000000      0.00000000      0.00000000</v>
  </separator>
  <separator name="performance" >
   <i type="int" name="NPAR">     1</i>
   <i type="int" name="NSIM">     4</i>
   <i type="int" name="NBLK">    -1</i>
   <i type="logical" name="LPLANE"> T  </i>
   <i type="logical" name="LSCALAPACK"> T  </i>
   <i type="logical" name="LSCAAWARE"> F  </i>
   <i type="logical" name="LSCALU"> F  </i>
   <i type="logical" name="LASYNC"> F  </i>
   <i type="logical" name="LORBITALREAL"> F  </i>
  </separator>
  <separator name="miscellaneous" >
   <i type="int" name="IDIOT">     3</i>
   <i type="int" name="ISPECIAL">     0</i>
   <i type="logical" name="LMUSIC"> F  </i>
   <v name="POMASS">    106.42000000     12.01100000     16.00000000</v>
   <v name="DARWINR">      0.00000000      0.00000000      0.00000000</v>
   <v name="DARWINV">      1.00000000      1.00000000      1.00000000</v>
   <i type="logical" name="LCORR"> T  </i>
  </separator>
  <i type="logical" name="GGA_COMPAT"> T  </i>
  <i type="logical" name="LBERRY"> F  </i>
  <i type="int" name="ICORELEVEL">     0</i>
  <i type="logical" name="LDAU"> F  </i>
  <i type="int" name="I_CONSTRAINED_M">     0</i>
  <separator name="electronic exchange-correlation" >
   <i type="string" name="GGA">RP</i>
   <i type="int" name="VOSKOWN">     0</i>
   <i type="logical" name="LHFCALC"> F  </i>
   <i type="string" name="PRECFOCK"></i>
   <i type="logical" name="LSYMGRAD"> F  </i>
   <i type="logical" name="LHFONE"> F  </i>
   <i type="logical" name="LRHFCALC"> F  </i>
   <i type="logical" name="LTHOMAS"> F  </i>
   <i type="logical" name="LMODELHF"> F  </i>
   <i name="ENCUT4O">     -1.00000000</i>
   <i type="int" name="EXXOEP">     0</i>
   <i type="int" name="FOURORBIT">     0</i>
   <i name="AEXX">      0.00000000</i>
   <i name="HFALPHA">      0.00000000</i>
   <i name="MCALPHA">      0.00000000</i>
   <i name="ALDAX">      1.00000000</i>
   <i name="AGGAX">      1.00000000</i>
   <i name="ALDAC">      1.00000000</i>
   <i name="AGGAC">      1.00000000</i>
   <i type="int" name="NKREDX">     1</i>
   <i type="int" name="NKREDY">     1</i>
   <i type="int" name="NKREDZ">     1</i>
   <i type="logical" name="SHIFTRED"> F  </i>
   <i type="logical" name="ODDONLY"> F  </i>
   <i type="logical" name="EVENONLY"> F  </i>
   <i type="int" name="LMAXFOCK">     0</i>
   <i type="int" name="NMAXFOCKAE">     0</i>
   <i type="logical" name="LFOCKAEDFT"> F  </i>
   <i name="HFSCREEN">      0.00000000</i>
   <i name="HFSCREENC">      0.00000000</i>
   <i type="int" name="NBANDSGWLOW">     0</i>
  </separator>
  <separator name="vdW DFT" >
   <i type="logical" name="LUSE_VDW"> F  </i>
   <i name="Zab_VDW">     -0.84910000</i>
   <i name="PARAM1">      0.12340000</i>
   <i name="PARAM2">      1.00000000</i>
   <i name="PARAM3">      0.00000000</i>
  </separator>
  <separator name="model GW" >
   <i type="int" name="MODEL_GW">     0</i>
   <i name="MODEL_EPS0">    284.21052632</i>
   <i name="MODEL_ALPHA">      1.00000000</i>
  </separator>
  <separator name="linear response parameters" >
   <i type="logical" name="LEPSILON"> F  </i>
   <i type="logical" name="LRPA"> F  </i>
   <i type="logical" name="LNABLA"> F  </i>
   <i type="logical" name="LVEL"> F  </i>
   <i type="int" name="KINTER">     0</i>
   <i name="CSHIFT">      0.10000000</i>
   <i name="OMEGAMAX">     -1.00000000</i>
   <i name="DEG_THRESHOLD">      0.00200000</i>
   <i name="RTIME">     -0.10000000</i>
   <i name="WPLASMAI">      0.00000000</i>
   <v name="DFIELD">      0.00000000      0.00000000      0.00000000</v>
   <v name="WPLASMA">      0.00000000      0.00000000      0.00000000      0.00000000      0.00000000      0.00000000      0.00000000      0.00000000      0.00000000</v>
  </separator>
  <separator name="orbital magnetization" >
   <i type="logical" name="NUCIND"> F  </i>
   <v name="MAGPOS">      0.00000000      0.00000000      0.00000000</v>
   <i type="logical" name="LNICSALL"> T  </i>
   <i type="logical" name="ORBITALMAG"> F  </i>
   <i type="logical" name="LMAGBLOCH"> F  </i>
   <i type="logical" name="LCHIMAG"> F  </i>
   <i type="logical" name="LGAUGE"> T  </i>
   <i type="int" name="MAGATOM">     0</i>
   <v name="MAGDIPOL">      0.00000000      0.00000000      0.00000000</v>
   <v name="AVECCONST">      0.00000000      0.00000000      0.00000000</v>
  </separator>
  <separator name="response functions" >
   <i type="logical" name="LADDER"> F  </i>
   <i type="logical" name="LRPAFORCE"> F  </i>
   <i type="logical" name="LFXC"> F  </i>
   <i type="logical" name="LHARTREE"> T  </i>
   <i type="int" name="IBSE">     0</i>
   <v type="int" name="KPOINT">    -1     0     0     0</v>
   <i type="logical" name="LTCTE"> F  </i>
   <i type="logical" name="LTETE"> F  </i>
   <i type="logical" name="LTRIPLET"> F  </i>
   <i type="logical" name="LFXCEPS"> F  </i>
   <i type="logical" name="LFXHEG"> F  </i>
   <i type="int" name="NATURALO">     2</i>
   <i type="logical" name="L2ORDER"> F  </i>
   <i type="logical" name="LMP2LT"> F  </i>
   <i type="logical" name="LUSEW"> F  </i>
   <i name="ENCUTGW">     -2.00000000</i>
   <i name="ENCUTGWSOFT">     -2.00000000</i>
   <i name="ENCUTLF">     -1.00000000</i>
   <i type="int" name="LMAXMP2">    -1</i>
   <i name="SCISSOR">      0.00000000</i>
   <i type="int" name="NOMEGA">     0</i>
   <i type="int" name="NOMEGAR">     0</i>
   <i type="int" name="NBANDSGW">    -1</i>
   <i type="int" name="NBANDSO">    -1</i>
   <i type="int" name="NBANDSV">    -1</i>
   <i type="int" name="NELM">   100</i>
   <i type="int" name="NELMHF">     1</i>
   <i type="int" name="DIM">     3</i>
   <i type="int" name="ANTIRES">     0</i>
   <i name="OMEGAMAX">    -30.00000000</i>
   <i name="OMEGAMIN">    -30.00000000</i>
   <i name="OMEGATL">   -200.00000000</i>
   <i type="int" name="OMEGAGRID">   140</i>
   <i name="CSHIFT">     -0.10000000</i>
   <i type="logical" name="SELFENERGY"> F  </i>
   <i type="logical" name="LSPECTRAL"> F  </i>
   <i type="logical" name="LSPECTRALGW"> F  </i>
   <i type="logical" name="LSINGLES"> F  </i>
   <i type="logical" name="LFERMIGW"> F  </i>
   <i type="logical" name="ODDONLYGW"> F  </i>
   <i type="logical" name="EVENONLYGW"> F  </i>
   <i type="int" name="NKREDLFX">     1</i>
   <i type="int" name="NKREDLFY">     1</i>
   <i type="int" name="NKREDLFZ">     1</i>
   <i type="int" name="MAXMEM"> 10000</i>
   <i type="int" name="TELESCOPE">     0</i>
   <i type="int" name="TAUPAR">     1</i>
   <i type="int" name="OMEGAPAR">    -1</i>
   <i name="LAMBDA">      1.00000000</i>
  </separator>
  <separator name="External order field" >
   <i name="OFIELD_KAPPA">      0.00000000</i>
   <v name="OFIELD_K">      0.00000000      0.00000000      0.00000000</v>
   <i name="OFIELD_Q6_NEAR">      0.00000000</i>
   <i name="OFIELD_Q6_FAR">      0.00000000</i>
   <i name="OFIELD_A">      0.00000000</i>
  </separator>
 </parameters>
 <atominfo>
  <atoms>      57 </atoms>
  <types>       3 </types>
  <array name="atoms" >
   <dimension dim="1">ion</dimension>
   <field type="string">element</field>
   <field type="int">atomtype</field>
   <set>
    <rc><c>Pd</c><c>   1</c></rc>
    <rc><c>Pd</c><c>   1</c></rc>
    <rc><c>Pd</c><c>   1</c></rc>
    <rc><c>Pd</c><c>   1</c></rc>
    <rc><c>Pd</c><c>   1</c></rc>
    <rc><c>Pd</c><c>   1</c></rc>
    <rc><c>Pd</c><c>   1</c></rc>
    <rc><c>Pd</c><c>   1</c></rc>
    <rc><c>Pd</c><c>   1</c></rc>
    <rc><c>Pd</c><c>   1</c></rc>
    <rc><c>Pd</c><c>   1</c></rc>
    <rc><c>Pd</c><c>   1</c></rc>
    <rc><c>Pd</c><c>   1</c></rc>
    <rc><c>Pd</c><c>   1</c></rc>
    <rc><c>Pd</c><c>   1</c></rc>
    <rc><c>Pd</c><c>   1</c></rc>
    <rc><c>Pd</c><c>   1</c></rc>
    <rc><c>Pd</c><c>   1</c></rc>
    <rc><c>Pd</c><c>   1</c></rc>
    <rc><c>Pd</c><c>   1</c></rc>
    <rc><c>Pd</c><c>   1</c></rc>
    <rc><c>Pd</c><c>   1</c></rc>
    <rc><c>Pd</c><c>   1</c></rc>
    <rc><c>Pd</c><c>   1</c></rc>
    <rc><c>Pd</c><c>   1</c></rc>
    <rc><c>Pd</c><c>   1</c></rc>
    <rc><c>Pd</c><c>   1</c></rc>
    <rc><c>Pd</c><c>   1</c></rc>
    <rc><c>Pd</c><c>   1</c></rc>
    <rc><c>Pd</c><c>   1</c></rc>
    <rc><c>Pd</c><c>   1</c></rc>
    <rc><c>Pd</c><c>   1</c></rc>
    <rc><c>Pd</c><c>   1</c></rc>
    <rc><c>Pd</c><c>   1</c></rc>
    <rc><c>Pd</c><c>   1</c></rc>
    <rc><c>Pd</c><c>   1</c></rc>
    <rc><c>Pd</c><c>   1</c></rc>
    <rc><c>Pd</c><c>   1</c></rc>
    <rc><c>Pd</c><c>   1</c></rc>
    <rc><c>Pd</c><c>   1</c></rc>
    <rc><c>Pd</c><c>   1</c></rc>
    <rc><c>Pd</c><c>   1</c></rc>
    <rc><c>Pd</c><c>   1</c></rc>
    <rc><c>Pd</c><c>   1</c></rc>
    <rc><c>Pd</c><c>   1</c></rc>
    <rc><c>Pd</c><c>   1</c></rc>
    <rc><c>Pd</c><c>   1</c></rc>
    <rc><c>Pd</c><c>   1</c></rc>
    <rc><c>Pd</c><c>   1</c></rc>
    <rc><c>Pd</c><c>   1</c></rc>
    <rc><c>Pd</c><c>   1</c></rc>
    <rc><c>Pd</c><c>   1</c></rc>
    <rc><c>Pd</c><c>   1</c></rc>
    <rc><c>Pd</c><c>   1</c></rc>
    <rc><c>Pd</c><c>   1</c></rc>
    <rc><c>C </c><c>   2</c></rc>
    <rc><c>O </c><c>   3</c></rc>
   </set>
  </array>
  <array name="atomtypes" >
   <dimension dim="1">type</dimension>
   <field type="int">atomspertype</field>
   <field type="string">element</field>
   <field>mass</field>
   <field>valence</field>
   <field type="string">pseudopotential</field>
   <set>
    <rc><c>  55</c><c>Pd</c><c>    106.42000000</c><c>     10.00000000</c><c>  PAW_PBE Pd 04Jan2005                  </c></rc>
    <rc><c>   1</c><c>C </c><c>     12.01100000</c><c>      4.00000000</c><c>  PAW_PBE C 08Apr2002                   </c></rc>
    <rc><c>   1</c><c>O </c><c>     16.00000000</c><c>      6.00000000</c><c>  PAW_PBE O 08Apr2002                   </c></rc>
   </set>
  </array>
 </atominfo>
 <structure name="initialpos" >
  <crystal>
   <varray name="basis" >
    <v>      30.00000000       0.00000000       0.00000000 </v>
    <v>       0.00000000      30.00000000       0.00000000 </v>
    <v>       0.00000000       0.00000000      30.00000000 </v>
   </varray>
   <i name="volume">  27000.00000000 </i>
   <varray name="rec_basis" >
    <v>       0.03333333       0.00000000       0.00000000 </v>
    <v>       0.00000000       0.03333333       0.00000000 </v>
    <v>       0.00000000       0.00000000       0.03333333 </v>
   </varray>
  </crystal>
  <varray name="positions" >
   <v>       0.44576020       0.32826710       0.41691983 </v>
   <v>       0.67173288       0.55423978       0.41691983 </v>
   <v>       0.55423980       0.32826710       0.41691983 </v>
   <v>       0.32826712       0.55423978       0.41691983 </v>
   <v>       0.50000000       0.38250690       0.34021317 </v>
   <v>       0.50000000       0.38250690       0.65978680 </v>
   <v>       0.50000000       0.27609440       0.50000000 </v>
   <v>       0.27609443       0.49999998       0.50000000 </v>
   <v>       0.72390557       0.49999998       0.50000000 </v>
   <v>       0.50000000       0.72390555       0.50000000 </v>
   <v>       0.61195280       0.38804720       0.34167483 </v>
   <v>       0.61195280       0.38804720       0.65832513 </v>
   <v>       0.38804722       0.61195278       0.34167483 </v>
   <v>       0.38804722       0.61195278       0.65832513 </v>
   <v>       0.38804720       0.38804720       0.34167483 </v>
   <v>       0.38804720       0.38804720       0.65832513 </v>
   <v>       0.61195278       0.61195278       0.34167483 </v>
   <v>       0.61195278       0.61195278       0.65832513 </v>
   <v>       0.44576020       0.32826710       0.58308023 </v>
   <v>       0.67173288       0.55423978       0.58308023 </v>
   <v>       0.55791699       0.44208301       0.41809300 </v>
   <v>       0.32826705       0.44576024       0.41691983 </v>
   <v>       0.55423973       0.67173293       0.41691983 </v>
   <v>       0.55423980       0.32826710       0.58308023 </v>
   <v>       0.32826712       0.55423978       0.58308023 </v>
   <v>       0.67173295       0.44576024       0.41691983 </v>
   <v>       0.44576027       0.67173293       0.41691983 </v>
   <v>       0.44208301       0.44208301       0.41809300 </v>
   <v>       0.50000000       0.38416601       0.50000000 </v>
   <v>       0.61749315       0.50000005       0.34021317 </v>
   <v>       0.61749315       0.50000005       0.65978680 </v>
   <v>       0.38250685       0.50000005       0.34021317 </v>
   <v>       0.38250685       0.50000005       0.65978680 </v>
   <v>       0.38317830       0.38317830       0.50000000 </v>
   <v>       0.61682172       0.61682172       0.50000000 </v>
   <v>       0.61682170       0.38317830       0.50000000 </v>
   <v>       0.38317828       0.61682172       0.50000000 </v>
   <v>       0.50000000       0.50000000       0.33478917 </v>
   <v>       0.50000000       0.50000000       0.66521087 </v>
   <v>       0.32826705       0.44576024       0.58308023 </v>
   <v>       0.55423973       0.67173293       0.58308023 </v>
   <v>       0.55791699       0.44208301       0.58190703 </v>
   <v>       0.44208298       0.55791702       0.41809300 </v>
   <v>       0.44208301       0.44208301       0.58190703 </v>
   <v>       0.67173295       0.44576024       0.58308023 </v>
   <v>       0.44576027       0.67173293       0.58308023 </v>
   <v>       0.55791702       0.55791702       0.41809300 </v>
   <v>       0.38416599       0.50000002       0.50000000 </v>
   <v>       0.61583401       0.50000002       0.50000000 </v>
   <v>       0.50000000       0.61749319       0.34021317 </v>
   <v>       0.50000000       0.61749319       0.65978680 </v>
   <v>       0.50000000       0.50000000       0.50000000 </v>
   <v>       0.44208298       0.55791702       0.58190703 </v>
   <v>       0.55791702       0.55791702       0.58190703 </v>
   <v>       0.50000000       0.61583404       0.50000000 </v>
   <v>       0.68608267       0.47263450       0.32419437 </v>
   <v>       0.71325907       0.46863790       0.29851887 </v>
  </varray>
  <varray name="selective"  type="logical" >
   <v type="logical" >  F  F  F </v>
   <v type="logical" >  F  F  F </v>
   <v type="logical" >  F  F  F </v>
   <v type="logical" >  F  F  F </v>
   <v type="logical" >  F  F  F </v>
   <v type="logical" >  F  F  F </v>
   <v type="logical" >  F  F  F </v>
   <v type="logical" >  F  F  F </v>
   <v type="logical" >  F  F  F </v>
   <v type="logical" >  F  F  F </v>
   <v type="logical" >  F  F  F </v>
   <v type="logical" >  F  F  F </v>
   <v type="logical" >  F  F  F </v>
   <v type="logical" >  F  F  F </v>
   <v type="logical" >  F  F  F </v>
   <v type="logical" >  F  F  F </v>
   <v type="logical" >  F  F  F </v>
   <v type="logical" >  F  F  F </v>
   <v type="logical" >  F  F  F </v>
   <v type="logical" >  F  F  F </v>
   <v type="logical" >  F  F  F </v>
   <v type="logical" >  F  F  F </v>
   <v type="logical" >  F  F  F </v>
   <v type="logical" >  F  F  F </v>
   <v type="logical" >  F  F  F </v>
   <v type="logical" >  F  F  F </v>
   <v type="logical" >  F  F  F </v>
   <v type="logical" >  F  F  F </v>
   <v type="logical" >  F  F  F </v>
   <v type="logical" >  F  F  F </v>
   <v type="logical" >  F  F  F </v>
   <v type="logical" >  F  F  F </v>
   <v type="logical" >  F  F  F </v>
   <v type="logical" >  F  F  F </v>
   <v type="logical" >  F  F  F </v>
   <v type="logical" >  F  F  F </v>
   <v type="logical" >  F  F  F </v>
   <v type="logical" >  F  F  F </v>
   <v type="logical" >  F  F  F </v>
   <v type="logical" >  F  F  F </v>
   <v type="logical" >  F  F  F </v>
   <v type="logical" >  F  F  F </v>
   <v type="logical" >  F  F  F </v>
   <v type="logical" >  F  F  F </v>
   <v type="logical" >  F  F  F </v>
   <v type="logical" >  F  F  F </v>
   <v type="logical" >  F  F  F </v>
   <v type="logical" >  F  F  F </v>
   <v type="logical" >  F  F  F </v>
   <v type="logical" >  F  F  F </v>
   <v type="logical" >  F  F  F </v>
   <v type="logical" >  F  F  F </v>
   <v type="logical" >  F  F  F </v>
   <v type="logical" >  F  F  F </v>
   <v type="logical" >  F  F  F </v>
   <v type="logical" >  F  F  F </v>
   <v type="logical" >  F  F  F </v>
  </varray>
  <nose>
   <v>      -3.00000000       0.00000000       0.00010000       0.00010000 </v>
  </nose>
 </structure>
 <calculation>
  <scstep>
   <time name="dav">  359.17  359.21</time>
   <time name="total">  372.85  372.90</time>
   <energy>
    <i name="alphaZ">     75.25431677 </i>
    <i name="ewald"> 137999.01542913 </i>
    <i name="hartreedc">-181363.94102852 </i>
    <i name="XCdc">  -1703.43857915 </i>
    <i name="pawpsdc">  44873.02882129 </i>
    <i name="pawaedc"> -41398.84523641 </i>
    <i name="eentropy">      0.03933341 </i>
    <i name="bandstr">    817.55730568 </i>
    <i name="atom">  45086.50549395 </i>
    <i name="e_fr_energy">   4385.17585616 </i>
    <i name="e_wo_entrp">   4385.13652275 </i>
    <i name="e_0_energy">   4385.16602281 </i>
   </energy>
  </scstep>
  <scstep>
   <time name="dav">  558.75  558.75</time>
   <time name="total">  558.75  558.75</time>
   <energy>
    <i name="e_fr_energy">   2027.19751846 </i>
    <i name="e_wo_entrp">   2027.25583368 </i>
    <i name="e_0_energy">   2027.21209727 </i>
   </energy>
  </scstep>
  <scstep>
   <time name="dav">  489.94  489.94</time>
   <time name="total">  489.94  489.94</time>
   <energy>
    <i name="e_fr_energy">    235.35960323 </i>
    <i name="e_wo_entrp">    235.36164906 </i>
    <i name="e_0_energy">    235.36011469 </i>
   </energy>
  </scstep>
  <scstep>
   <time name="dav">  402.64  402.65</time>
   <time name="total">  402.64  402.65</time>
   <energy>
    <i name="e_fr_energy">   -132.66349113 </i>
    <i name="e_wo_entrp">   -132.62258701 </i>
    <i name="e_0_energy">   -132.65326510 </i>
   </energy>
  </scstep>
  <scstep>
   <time name="dav">  486.72  486.74</time>
   <time name="total">  511.95  511.96</time>
   <energy>
    <i name="e_fr_energy">   -178.95582444 </i>
    <i name="e_wo_entrp">   -179.40502565 </i>
    <i name="e_0_energy">   -179.06812474 </i>
   </energy>
  </scstep>
  <scstep>
   <time name="diag">   65.05   65.05</time>
   <time name="diis">  188.34  188.34</time>
   <time name="orth">   13.26   13.26</time>
   <time name="total">  304.26  304.26</time>
   <energy>
    <i name="e_fr_energy">   -178.90086976 </i>
    <i name="e_wo_entrp">   -178.66259354 </i>
    <i name="e_0_energy">   -178.84130070 </i>
   </energy>
  </scstep>
  <scstep>
   <time name="diag">   65.11   65.11</time>
   <time name="diis">  223.27  223.27</time>
   <time name="orth">   12.93   12.93</time>
   <time name="total">  338.76  338.76</time>
   <energy>
    <i name="e_fr_energy">   -179.67362678 </i>
    <i name="e_wo_entrp">   -179.53806062 </i>
    <i name="e_0_energy">   -179.63973524 </i>
   </energy>
  </scstep>
  <scstep>
   <time name="diag">   65.10   65.10</time>
   <time name="diis">  202.39  202.39</time>
   <time name="orth">   13.05   13.05</time>
   <time name="total">  318.46  318.46</time>
   <energy>
    <i name="e_fr_energy">   -183.29518817 </i>
    <i name="e_wo_entrp">   -183.18743977 </i>
    <i name="e_0_energy">   -183.26825107 </i>
   </energy>
  </scstep>
  <scstep>
   <time name="diag">   65.13   65.13</time>
   <time name="diis">  192.49  192.49</time>
   <time name="orth">   12.81   12.81</time>
   <time name="total">  307.74  307.74</time>
   <energy>
    <i name="e_fr_energy">   -182.15896286 </i>
    <i name="e_wo_entrp">   -182.17209661 </i>
    <i name="e_0_energy">   -182.16224629 </i>
   </energy>
  </scstep>
  <scstep>
   <time name="diag">   65.17   65.17</time>
   <time name="diis">  194.40  194.40</time>
   <time name="orth">   12.73   12.73</time>
   <time name="total">  310.37  310.37</time>
   <energy>
    <i name="e_fr_energy">   -180.86201676 </i>
    <i name="e_wo_entrp">   -180.68985519 </i>
    <i name="e_0_energy">   -180.81897637 </i>
   </energy>
  </scstep>
  <scstep>
   <time name="diag">   65.15   65.15</time>
   <time name="diis">  190.06  190.06</time>
   <time name="orth">   12.64   12.64</time>
   <time name="total">  305.65  305.65</time>
   <energy>
    <i name="e_fr_energy">   -179.47457439 </i>
    <i name="e_wo_entrp">   -179.49929384 </i>
    <i name="e_0_energy">   -179.48075426 </i>
   </energy>
  </scstep>
  <scstep>
   <time name="diag">   65.16   65.16</time>
   <time name="diis">  191.64  191.64</time>
   <time name="orth">   12.80   12.80</time>
   <time name="total">  307.50  307.50</time>
   <energy>
    <i name="e_fr_energy">   -177.87240323 </i>
    <i name="e_wo_entrp">   -177.71088199 </i>
    <i name="e_0_energy">   -177.83202292 </i>
   </energy>
  </scstep>
  <scstep>
   <time name="diag">   65.29   65.30</time>
   <time name="diis">  187.28  187.30</time>
   <time name="orth">   12.72   12.72</time>
   <time name="total">  303.31  303.33</time>
   <energy>
    <i name="e_fr_energy">   -176.62932195 </i>
    <i name="e_wo_entrp">   -176.52664837 </i>
    <i name="e_0_energy">   -176.60365356 </i>
   </energy>
  </scstep>
  <scstep>
   <time name="diag">   65.16   65.16</time>
   <time name="diis">  189.47  189.50</time>
   <time name="orth">   12.83   12.83</time>
   <time name="total">  305.40  305.44</time>
   <energy>
    <i name="e_fr_energy">   -176.25855020 </i>
    <i name="e_wo_entrp">   -176.13948407 </i>
    <i name="e_0_energy">   -176.22878366 </i>
   </energy>
  </scstep>
  <scstep>
   <time name="diag">   65.15   65.16</time>
   <time name="diis">  186.42  186.45</time>
   <time name="orth">   12.71   12.71</time>
   <time name="total">  302.17  302.22</time>
   <energy>
    <i name="e_fr_energy">   -176.51083928 </i>
    <i name="e_wo_entrp">   -176.40792598 </i>
    <i name="e_0_energy">   -176.48511095 </i>
   </energy>
  </scstep>
  <scstep>
   <time name="diag">   65.00   65.00</time>
   <time name="diis">  184.05  184.08</time>
   <time name="orth">   12.67   12.68</time>
   <time name="total">  299.55  299.60</time>
   <energy>
    <i name="e_fr_energy">   -176.16425777 </i>
    <i name="e_wo_entrp">   -176.08441853 </i>
    <i name="e_0_energy">   -176.14429796 </i>
   </energy>
  </scstep>
  <scstep>
   <time name="diag">   65.08   65.09</time>
   <time name="diis">  186.89  186.92</time>
   <time name="orth">   12.76   12.76</time>
   <time name="total">  303.04  303.09</time>
   <energy>
    <i name="e_fr_energy">   -175.82161159 </i>
    <i name="e_wo_entrp">   -175.78427253 </i>
    <i name="e_0_energy">   -175.81227683 </i>
   </energy>
  </scstep>
  <scstep>
   <time name="diag">   65.12   65.13</time>
   <time name="diis">  182.31  182.32</time>
   <time name="orth">   12.94   12.94</time>
   <time name="total">  298.41  298.44</time>
   <energy>
    <i name="e_fr_energy">   -175.38992339 </i>
    <i name="e_wo_entrp">   -175.34040974 </i>
    <i name="e_0_energy">   -175.37754498 </i>
   </energy>
  </scstep>
  <scstep>
   <time name="diag">   65.11   65.11</time>
   <time name="diis">  183.75  183.75</time>
   <time name="orth">   13.06   13.06</time>
   <time name="total">  300.11  300.11</time>
   <energy>
    <i name="e_fr_energy">   -175.08443321 </i>
    <i name="e_wo_entrp">   -174.97182680 </i>
    <i name="e_0_energy">   -175.05628161 </i>
   </energy>
  </scstep>
  <scstep>
   <time name="diag">   64.94   64.94</time>
   <time name="diis">  181.98  181.98</time>
   <time name="orth">   13.15   13.15</time>
   <time name="total">  298.33  298.33</time>
   <energy>
    <i name="e_fr_energy">   -175.28556154 </i>
    <i name="e_wo_entrp">   -175.24175334 </i>
    <i name="e_0_energy">   -175.27460949 </i>
   </energy>
  </scstep>
  <scstep>
   <time name="diag">   65.05   65.05</time>
   <time name="diis">  181.40  181.40</time>
   <time name="orth">   13.22   13.22</time>
   <time name="total">  297.82  297.82</time>
   <energy>
    <i name="e_fr_energy">   -175.09831493 </i>
    <i name="e_wo_entrp">   -175.03732041 </i>
    <i name="e_0_energy">   -175.08306630 </i>
   </energy>
  </scstep>
  <scstep>
   <time name="diag">   65.27   65.27</time>
   <time name="diis">  181.14  181.14</time>
   <time name="orth">   13.33   13.33</time>
   <time name="total">  298.03  298.03</time>
   <energy>
    <i name="e_fr_energy">   -174.96407288 </i>
    <i name="e_wo_entrp">   -174.88283698 </i>
    <i name="e_0_energy">   -174.94376390 </i>
   </energy>
  </scstep>
  <scstep>
   <time name="diag">   65.17   65.17</time>
   <time name="diis">  180.36  180.36</time>
   <time name="orth">   13.22   13.22</time>
   <time name="total">  297.34  297.34</time>
   <energy>
    <i name="e_fr_energy">   -174.76412931 </i>
    <i name="e_wo_entrp">   -174.67245657 </i>
    <i name="e_0_energy">   -174.74121113 </i>
   </energy>
  </scstep>
  <scstep>
   <time name="diag">   65.17   65.17</time>
   <time name="diis">  179.91  179.91</time>
   <time name="orth">   13.23   13.23</time>
   <time name="total">  297.09  297.10</time>
   <energy>
    <i name="e_fr_energy">   -174.75552416 </i>
    <i name="e_wo_entrp">   -174.64719381 </i>
    <i name="e_0_energy">   -174.72844157 </i>
   </energy>
  </scstep>
  <scstep>
   <time name="diag">   65.15   65.15</time>
   <time name="diis">  180.73  180.74</time>
   <time name="orth">   13.28   13.28</time>
   <time name="total">  298.15  298.16</time>
   <energy>
    <i name="e_fr_energy">   -174.74078381 </i>
    <i name="e_wo_entrp">   -174.63162869 </i>
    <i name="e_0_energy">   -174.71349503 </i>
   </energy>
  </scstep>
  <scstep>
   <time name="diag">   65.27   65.27</time>
   <time name="diis">  179.62  179.64</time>
   <time name="orth">   13.24   13.24</time>
   <time name="total">  296.99  297.01</time>
   <energy>
    <i name="e_fr_energy">   -174.68480311 </i>
    <i name="e_wo_entrp">   -174.57019933 </i>
    <i name="e_0_energy">   -174.65615217 </i>
   </energy>
  </scstep>
  <scstep>
   <time name="diag">   65.23   65.24</time>
   <time name="diis">  178.77  178.78</time>
   <time name="orth">   13.34   13.34</time>
   <time name="total">  296.48  296.50</time>
   <energy>
    <i name="e_fr_energy">   -174.59329671 </i>
    <i name="e_wo_entrp">   -174.47096505 </i>
    <i name="e_0_energy">   -174.56271380 </i>
   </energy>
  </scstep>
  <scstep>
   <time name="diag">   65.20   65.20</time>
   <time name="diis">  177.61  177.61</time>
   <time name="orth">   13.32   13.32</time>
   <time name="total">  295.39  295.39</time>
   <energy>
    <i name="e_fr_energy">   -174.55532768 </i>
    <i name="e_wo_entrp">   -174.44144012 </i>
    <i name="e_0_energy">   -174.52685579 </i>
   </energy>
  </scstep>
  <scstep>
   <time name="diag">   65.08   65.09</time>
   <time name="diis">  179.50  179.51</time>
   <time name="orth">   13.31   13.31</time>
   <time name="total">  297.50  297.51</time>
   <energy>
    <i name="e_fr_energy">   -174.54934256 </i>
    <i name="e_wo_entrp">   -174.42635333 </i>
    <i name="e_0_energy">   -174.51859525 </i>
   </energy>
  </scstep>
  <scstep>
   <time name="diag">   65.25   65.25</time>
   <time name="diis">  177.50  177.50</time>
   <time name="orth">   13.40   13.40</time>
   <time name="total">  295.92  295.92</time>
   <energy>
    <i name="e_fr_energy">   -174.50179760 </i>
    <i name="e_wo_entrp">   -174.37120057 </i>
    <i name="e_0_energy">   -174.46914834 </i>
   </energy>
  </scstep>
  <scstep>
   <time name="diag">   65.34   65.34</time>
   <time name="diis">  177.33  177.33</time>
   <time name="orth">   13.40   13.40</time>
   <time name="total">  295.94  295.94</time>
   <energy>
    <i name="e_fr_energy">   -174.49634891 </i>
    <i name="e_wo_entrp">   -174.36842929 </i>
    <i name="e_0_energy">   -174.46436900 </i>
   </energy>
  </scstep>
  <scstep>
   <time name="diag">   65.40   65.40</time>
   <time name="diis">  177.86  177.86</time>
   <time name="orth">   13.36   13.36</time>
   <time name="total">  296.54  296.54</time>
   <energy>
    <i name="e_fr_energy">   -174.48682503 </i>
    <i name="e_wo_entrp">   -174.36392260 </i>
    <i name="e_0_energy">   -174.45609942 </i>
   </energy>
  </scstep>
  <scstep>
   <time name="diag">   65.35   65.35</time>
   <time name="diis">  176.69  176.69</time>
   <time name="orth">   13.40   13.40</time>
   <time name="total">  295.47  295.48</time>
   <energy>
    <i name="e_fr_energy">   -174.48382719 </i>
    <i name="e_wo_entrp">   -174.35921226 </i>
    <i name="e_0_energy">   -174.45267345 </i>
   </energy>
  </scstep>
  <scstep>
   <time name="diag">   65.69   65.69</time>
   <time name="diis">  177.31  177.31</time>
   <time name="orth">   13.42   13.42</time>
   <time name="total">  296.58  296.59</time>
   <energy>
    <i name="e_fr_energy">   -174.47778646 </i>
    <i name="e_wo_entrp">   -174.35145132 </i>
    <i name="e_0_energy">   -174.44620267 </i>
   </energy>
  </scstep>
  <scstep>
   <time name="diag">   65.65   65.66</time>
   <time name="diis">  176.87  176.88</time>
   <time name="orth">   13.47   13.47</time>
   <time name="total">  296.31  296.31</time>
   <energy>
    <i name="e_fr_energy">   -174.47377485 </i>
    <i name="e_wo_entrp">   -174.34788100 </i>
    <i name="e_0_energy">   -174.44230138 </i>
   </energy>
  </scstep>
  <scstep>
   <time name="diag">   65.80   65.80</time>
   <time name="diis">  176.69  176.69</time>
   <time name="orth">   13.44   13.44</time>
   <time name="total">  296.25  296.25</time>
   <energy>
    <i name="e_fr_energy">   -174.47338034 </i>
    <i name="e_wo_entrp">   -174.34600330 </i>
    <i name="e_0_energy">   -174.44153608 </i>
   </energy>
  </scstep>
  <scstep>
   <time name="diag">   65.82   65.82</time>
   <time name="diis">  175.48  175.48</time>
   <time name="orth">   13.42   13.42</time>
   <time name="total">  295.10  295.10</time>
   <energy>
    <i name="e_fr_energy">   -174.47217767 </i>
    <i name="e_wo_entrp">   -174.34529849 </i>
    <i name="e_0_energy">   -174.44045787 </i>
   </energy>
  </scstep>
  <scstep>
   <time name="diag">   65.93   65.93</time>
   <time name="diis">  175.75  175.75</time>
   <time name="orth">   13.37   13.37</time>
   <time name="total">  295.29  295.29</time>
   <energy>
    <i name="e_fr_energy">   -174.47277664 </i>
    <i name="e_wo_entrp">   -174.34609373 </i>
    <i name="e_0_energy">   -174.44110591 </i>
   </energy>
  </scstep>
  <scstep>
   <time name="diag">   65.58   65.58</time>
   <time name="diis">  174.68  174.69</time>
   <time name="orth">   13.47   13.47</time>
   <time name="total">  294.29  294.29</time>
   <energy>
    <i name="e_fr_energy">   -174.47475865 </i>
    <i name="e_wo_entrp">   -174.34787062 </i>
    <i name="e_0_energy">   -174.44303664 </i>
   </energy>
  </scstep>
  <scstep>
   <time name="diag">   66.03   66.03</time>
   <time name="diis">  171.98  171.98</time>
   <time name="orth">   13.28   13.28</time>
   <time name="total">  291.83  291.84</time>
   <energy>
    <i name="e_fr_energy">   -174.47606881 </i>
    <i name="e_wo_entrp">   -174.35073418 </i>
    <i name="e_0_energy">   -174.44473516 </i>
   </energy>
  </scstep>
  <scstep>
   <time name="diag">   65.85   65.86</time>
   <time name="diis">  174.45  174.45</time>
   <time name="orth">   13.32   13.32</time>
   <time name="total">  293.95  293.95</time>
   <energy>
    <i name="e_fr_energy">   -174.47844382 </i>
    <i name="e_wo_entrp">   -174.35246503 </i>
    <i name="e_0_energy">   -174.44694912 </i>
   </energy>
  </scstep>
  <scstep>
   <time name="diag">   65.72   65.72</time>
   <time name="diis">  172.47  172.47</time>
   <time name="orth">   13.28   13.28</time>
   <time name="total">  291.96  291.97</time>
   <energy>
    <i name="e_fr_energy">   -174.48100155 </i>
    <i name="e_wo_entrp">   -174.35419156 </i>
    <i name="e_0_energy">   -174.44929906 </i>
   </energy>
  </scstep>
  <scstep>
   <time name="diag">   65.71   65.71</time>
   <time name="diis">  148.30  148.30</time>
   <time name="orth">   12.95   12.95</time>
   <time name="total">  267.69  267.69</time>
   <energy>
    <i name="e_fr_energy">   -174.48262679 </i>
    <i name="e_wo_entrp">   -174.35635735 </i>
    <i name="e_0_energy">   -174.45105943 </i>
   </energy>
  </scstep>
  <scstep>
   <time name="diag">   65.82   65.82</time>
   <time name="diis">  126.54  126.54</time>
   <time name="orth">   13.13   13.13</time>
   <time name="total">  246.01  246.01</time>
   <energy>
    <i name="e_fr_energy">   -174.48464872 </i>
    <i name="e_wo_entrp">   -174.35864921 </i>
    <i name="e_0_energy">   -174.45314884 </i>
   </energy>
  </scstep>
  <scstep>
   <time name="diag">   66.05   66.05</time>
   <time name="diis">  141.70  141.70</time>
   <time name="orth">   13.19   13.19</time>
   <time name="total">  261.92  261.92</time>
   <energy>
    <i name="e_fr_energy">   -174.48760449 </i>
    <i name="e_wo_entrp">   -174.36268552 </i>
    <i name="e_0_energy">   -174.45637475 </i>
   </energy>
  </scstep>
  <scstep>
   <time name="diag">   66.16   66.16</time>
   <time name="diis">  115.07  115.07</time>
   <time name="orth">   13.20   13.20</time>
   <time name="total">  235.30  235.31</time>
   <energy>
    <i name="e_fr_energy">   -174.48888166 </i>
    <i name="e_wo_entrp">   -174.36355790 </i>
    <i name="e_0_energy">   -174.45755072 </i>
   </energy>
  </scstep>
  <scstep>
   <time name="diag">   65.70   65.70</time>
   <time name="diis">  116.84  116.84</time>
   <time name="orth">   13.29   13.29</time>
   <time name="total">  236.91  236.92</time>
   <energy>
    <i name="e_fr_energy">   -174.49085674 </i>
    <i name="e_wo_entrp">   -174.36560209 </i>
    <i name="e_0_energy">   -174.45954307 </i>
   </energy>
  </scstep>
  <scstep>
   <time name="diag">   65.64   65.64</time>
   <time name="diis">  112.90  112.90</time>
   <time name="orth">   13.22   13.22</time>
   <time name="total">  232.99  232.99</time>
   <energy>
    <i name="e_fr_energy">   -174.49197523 </i>
    <i name="e_wo_entrp">   -174.36722783 </i>
    <i name="e_0_energy">   -174.46078838 </i>
   </energy>
  </scstep>
  <scstep>
   <time name="diag">   65.60   65.60</time>
   <time name="diis">  114.05  114.05</time>
   <time name="orth">   13.11   13.11</time>
   <time name="total">  234.03  234.03</time>
   <energy>
    <i name="e_fr_energy">   -174.49243487 </i>
    <i name="e_wo_entrp">   -174.36774375 </i>
    <i name="e_0_energy">   -174.46126209 </i>
   </energy>
  </scstep>
  <scstep>
   <time name="diag">   66.18   66.19</time>
   <time name="diis">  111.30  111.30</time>
   <time name="orth">   13.11   13.11</time>
   <time name="total">  232.10  232.12</time>
   <energy>
    <i name="e_fr_energy">   -174.49363873 </i>
    <i name="e_wo_entrp">   -174.36839527 </i>
    <i name="e_0_energy">   -174.46232787 </i>
   </energy>
  </scstep>
  <scstep>
   <time name="diag">   65.44   65.45</time>
   <time name="diis">  107.52  107.52</time>
   <time name="orth">   13.21   13.21</time>
   <time name="total">  227.30  227.30</time>
   <energy>
    <i name="e_fr_energy">   -174.49383342 </i>
    <i name="e_wo_entrp">   -174.36871011 </i>
    <i name="e_0_energy">   -174.46255260 </i>
   </energy>
  </scstep>
  <scstep>
   <time name="diag">   65.56   65.56</time>
   <time name="diis">  106.84  106.84</time>
   <time name="orth">   12.98   12.98</time>
   <time name="total">  226.58  226.59</time>
   <energy>
    <i name="e_fr_energy">   -174.49450161 </i>
    <i name="e_wo_entrp">   -174.36943225 </i>
    <i name="e_0_energy">   -174.46323427 </i>
   </energy>
  </scstep>
  <scstep>
   <time name="diag">   65.37   65.37</time>
   <time name="diis">  112.57  112.61</time>
   <time name="orth">   13.29   13.29</time>
   <time name="total">  233.88  233.92</time>
   <energy>
    <i name="e_fr_energy">   -174.49508551 </i>
    <i name="e_wo_entrp">   -174.36986924 </i>
    <i name="e_0_energy">   -174.46378144 </i>
   </energy>
  </scstep>
  <scstep>
   <time name="diag">   66.57   66.58</time>
   <time name="diis">  110.91  110.91</time>
   <time name="orth">   13.66   13.66</time>
   <time name="total">  233.83  233.84</time>
   <energy>
    <i name="e_fr_energy">   -174.49570838 </i>
    <i name="e_wo_entrp">   -174.37038806 </i>
    <i name="e_0_energy">   -174.46437830 </i>
   </energy>
  </scstep>
  <scstep>
   <time name="diag">   67.16   67.17</time>
   <time name="diis">  111.89  111.90</time>
   <time name="orth">   13.19   13.19</time>
   <time name="total">  234.56  234.57</time>
   <energy>
    <i name="e_fr_energy">   -174.49653094 </i>
    <i name="e_wo_entrp">   -174.37121409 </i>
    <i name="e_0_energy">   -174.46520173 </i>
   </energy>
  </scstep>
  <scstep>
   <time name="diag">   67.14   67.15</time>
   <time name="diis">  110.21  110.21</time>
   <time name="orth">   13.34   13.34</time>
   <time name="total">  232.53  232.54</time>
   <energy>
    <i name="e_fr_energy">   -174.49702457 </i>
    <i name="e_wo_entrp">   -174.37151584 </i>
    <i name="e_0_energy">   -174.46564739 </i>
   </energy>
  </scstep>
  <scstep>
   <time name="diag">   66.74   66.74</time>
   <time name="diis">  110.63  110.63</time>
   <time name="orth">   13.01   13.01</time>
   <time name="total">  232.36  232.37</time>
   <energy>
    <i name="e_fr_energy">   -174.49759507 </i>
    <i name="e_wo_entrp">   -174.37243503 </i>
    <i name="e_0_energy">   -174.46630506 </i>
   </energy>
  </scstep>
  <scstep>
   <time name="diag">   67.17   67.17</time>
   <time name="diis">   87.88   87.88</time>
   <time name="orth">   13.28   13.28</time>
   <time name="total">  210.66  210.66</time>
   <energy>
    <i name="e_fr_energy">   -174.49769596 </i>
    <i name="e_wo_entrp">   -174.37240757 </i>
    <i name="e_0_energy">   -174.46637386 </i>
   </energy>
  </scstep>
  <scstep>
   <time name="diag">   67.30   67.30</time>
   <time name="diis">   87.48   87.48</time>
   <time name="orth">   13.24   13.24</time>
   <time name="total">  210.31  210.32</time>
   <energy>
    <i name="e_fr_energy">   -174.49789130 </i>
    <i name="e_wo_entrp">   -174.37263948 </i>
    <i name="e_0_energy">   -174.46657835 </i>
   </energy>
  </scstep>
  <scstep>
   <time name="diag">   67.56   67.56</time>
   <time name="diis">   85.71   85.71</time>
   <time name="orth">   13.31   13.31</time>
   <time name="total">  208.73  208.74</time>
   <energy>
    <i name="e_fr_energy">   -174.49809198 </i>
    <i name="e_wo_entrp">   -174.37279424 </i>
    <i name="e_0_energy">   -174.46676754 </i>
   </energy>
  </scstep>
  <scstep>
   <time name="diag">   66.96   66.96</time>
   <time name="diis">   70.32   70.32</time>
   <time name="orth">   13.30   13.30</time>
   <time name="total">  164.33  164.33</time>
   <energy>
    <i name="alphaZ">     75.25431677 </i>
    <i name="ewald"> 137999.01542913 </i>
    <i name="hartreedc">-182357.66269751 </i>
    <i name="XCdc">  -1692.92084455 </i>
    <i name="pawpsdc">  46071.78813484 </i>
    <i name="pawaedc"> -42541.96697113 </i>
    <i name="eentropy">     -0.12528389 </i>
    <i name="bandstr">  -2814.38563352 </i>
    <i name="atom">  45086.50549395 </i>
    <i name="e_fr_energy">   -174.49805591 </i>
    <i name="e_wo_entrp">   -174.37277201 </i>
    <i name="e_0_energy">   -174.46673493 </i>
   </energy>
  </scstep>
  <structure>
   <crystal>
    <varray name="basis" >
     <v>      30.00000000       0.00000000       0.00000000 </v>
     <v>       0.00000000      30.00000000       0.00000000 </v>
     <v>       0.00000000       0.00000000      30.00000000 </v>
    </varray>
    <i name="volume">  27000.00000000 </i>
    <varray name="rec_basis" >
     <v>       0.03333333       0.00000000       0.00000000 </v>
     <v>       0.00000000       0.03333333       0.00000000 </v>
     <v>       0.00000000       0.00000000       0.03333333 </v>
    </varray>
   </crystal>
   <varray name="positions" >
    <v>       0.44576020       0.32826710       0.41691983 </v>
    <v>       0.67173288       0.55423978       0.41691983 </v>
    <v>       0.55423980       0.32826710       0.41691983 </v>
    <v>       0.32826712       0.55423978       0.41691983 </v>
    <v>       0.50000000       0.38250690       0.34021317 </v>
    <v>       0.50000000       0.38250690       0.65978680 </v>
    <v>       0.50000000       0.27609440       0.50000000 </v>
    <v>       0.27609443       0.49999998       0.50000000 </v>
    <v>       0.72390557       0.49999998       0.50000000 </v>
    <v>       0.50000000       0.72390555       0.50000000 </v>
    <v>       0.61195280       0.38804720       0.34167483 </v>
    <v>       0.61195280       0.38804720       0.65832513 </v>
    <v>       0.38804722       0.61195278       0.34167483 </v>
    <v>       0.38804722       0.61195278       0.65832513 </v>
    <v>       0.38804720       0.38804720       0.34167483 </v>
    <v>       0.38804720       0.38804720       0.65832513 </v>
    <v>       0.61195278       0.61195278       0.34167483 </v>
    <v>       0.61195278       0.61195278       0.65832513 </v>
    <v>       0.44576020       0.32826710       0.58308023 </v>
    <v>       0.67173288       0.55423978       0.58308023 </v>
    <v>       0.55791699       0.44208301       0.41809300 </v>
    <v>       0.32826705       0.44576024       0.41691983 </v>
    <v>       0.55423973       0.67173293       0.41691983 </v>
    <v>       0.55423980       0.32826710       0.58308023 </v>
    <v>       0.32826712       0.55423978       0.58308023 </v>
    <v>       0.67173295       0.44576024       0.41691983 </v>
    <v>       0.44576027       0.67173293       0.41691983 </v>
    <v>       0.44208301       0.44208301       0.41809300 </v>
    <v>       0.50000000       0.38416601       0.50000000 </v>
    <v>       0.61749315       0.50000005       0.34021317 </v>
    <v>       0.61749315       0.50000005       0.65978680 </v>
    <v>       0.38250685       0.50000005       0.34021317 </v>
    <v>       0.38250685       0.50000005       0.65978680 </v>
    <v>       0.38317830       0.38317830       0.50000000 </v>
    <v>       0.61682172       0.61682172       0.50000000 </v>
    <v>       0.61682170       0.38317830       0.50000000 </v>
    <v>       0.38317828       0.61682172       0.50000000 </v>
    <v>       0.50000000       0.50000000       0.33478917 </v>
    <v>       0.50000000       0.50000000       0.66521087 </v>
    <v>       0.32826705       0.44576024       0.58308023 </v>
    <v>       0.55423973       0.67173293       0.58308023 </v>
    <v>       0.55791699       0.44208301       0.58190703 </v>
    <v>       0.44208298       0.55791702       0.41809300 </v>
    <v>       0.44208301       0.44208301       0.58190703 </v>
    <v>       0.67173295       0.44576024       0.58308023 </v>
    <v>       0.44576027       0.67173293       0.58308023 </v>
    <v>       0.55791702       0.55791702       0.41809300 </v>
    <v>       0.38416599       0.50000002       0.50000000 </v>
    <v>       0.61583401       0.50000002       0.50000000 </v>
    <v>       0.50000000       0.61749319       0.34021317 </v>
    <v>       0.50000000       0.61749319       0.65978680 </v>
    <v>       0.50000000       0.50000000       0.50000000 </v>
    <v>       0.44208298       0.55791702       0.58190703 </v>
    <v>       0.55791702       0.55791702       0.58190703 </v>
    <v>       0.50000000       0.61583404       0.50000000 </v>
    <v>       0.68608267       0.47263450       0.32419437 </v>
    <v>       0.71325907       0.46863790       0.29851887 </v>
   </varray>
  </structure>
  <varray name="forces" >
   <v>       0.71136243       1.11116833       0.28696231 </v>
   <v>      -1.09370433      -0.61534102       0.38250220 </v>
   <v>      -0.71211835       1.10367817       0.27883304 </v>
   <v>       1.11238787      -0.71346211       0.28384407 </v>
   <v>      -0.00572665       0.39674164       1.28431665 </v>
   <v>       0.00572669       0.40617693      -1.29026620 </v>
   <v>      -0.00518719       1.52156620       0.01547327 </v>
   <v>       1.52169644       0.00006757      -0.00793964 </v>
   <v>      -1.54290731      -0.00371514       0.01261418 </v>
   <v>      -0.00239294      -1.52385061       0.01200821 </v>
   <v>      -0.75109954       0.72767505       1.06388760 </v>
   <v>      -0.76604675       0.75398630      -1.07460219 </v>
   <v>       0.75070302      -0.76185267       1.07850847 </v>
   <v>       0.75610603      -0.75676976      -1.07270932 </v>
   <v>       0.74922807       0.76282783       1.07912473 </v>
   <v>       0.76284384       0.75493102      -1.07634251 </v>
   <v>      -0.79355905      -0.73054225       1.09666640 </v>
   <v>      -0.76583557      -0.75307835      -1.07578918 </v>
   <v>       0.71932243       1.10866192      -0.29544400 </v>
   <v>      -1.10329266      -0.70915126      -0.29858708 </v>
   <v>       0.03878416      -0.12473931      -0.10969083 </v>
   <v>       1.11578182       0.71424764       0.28318083 </v>
   <v>      -0.69844801      -1.11503138       0.28009586 </v>
   <v>      -0.72505280       1.10677365      -0.27660156 </v>
   <v>       1.11168524      -0.70827939      -0.28827832 </v>
   <v>      -0.93359029       0.76005610      -0.05665526 </v>
   <v>       0.70407489      -1.11020861       0.29132709 </v>
   <v>      -0.11023482      -0.11000164      -0.16178744 </v>
   <v>      -0.00344944      -0.23587244       0.01365332 </v>
   <v>       1.25284633      -0.62513668       0.77940563 </v>
   <v>      -0.41509679       0.00004592      -1.28071538 </v>
   <v>       0.37736792       0.00104969       1.30289996 </v>
   <v>       0.40952901       0.00126406      -1.28617832 </v>
   <v>       0.82451499       0.82569454       0.00055115 </v>
   <v>      -0.81342608      -0.84003253      -0.01340448 </v>
   <v>      -0.81217305       0.84581739      -0.00146389 </v>
   <v>       0.82578576      -0.82721125      -0.00202624 </v>
   <v>       0.03278729       0.02444614       1.19937273 </v>
   <v>       0.00000685      -0.00128977      -1.17435383 </v>
   <v>       1.10838994       0.70822353      -0.28822003 </v>
   <v>      -0.71443857      -1.10474283      -0.28407604 </v>
   <v>       0.11544073      -0.11460360       0.15452914 </v>
   <v>      -0.10521134       0.11033663      -0.16637630 </v>
   <v>      -0.11392201      -0.11063885       0.15962183 </v>
   <v>      -1.10205883       0.70765878      -0.29807072 </v>
   <v>       0.71709527      -1.10359485      -0.30094735 </v>
   <v>       0.08700259       0.10309835      -0.17774380 </v>
   <v>      -0.23115445       0.00125994      -0.00100751 </v>
   <v>       0.22069637      -0.00389038       0.01751824 </v>
   <v>       0.01121102      -0.41302051       1.28102773 </v>
   <v>       0.01412938      -0.41216239      -1.28955535 </v>
   <v>       0.01694741       0.00034810      -0.00868360 </v>
   <v>      -0.11657927       0.10387559       0.15480095 </v>
   <v>       0.10525592       0.12267964       0.16739908 </v>
   <v>      -0.00910115       0.24775125       0.02048389 </v>
   <v>      -4.69450312       0.97132077       3.23744605 </v>
   <v>       2.96160063      -0.47520914      -2.56053828 </v>
  </varray>
  <varray name="stress" >
   <v>      -6.80978134       0.05246339      -0.07392787 </v>
   <v>       0.05246336      -6.77130432       0.02252209 </v>
   <v>      -0.07392785       0.02252212      -6.69854187 </v>
  </varray>
  <energy>
   <i name="e_fr_energy">   -174.49805591 </i>
   <i name="e_wo_entrp">   -174.46673493 </i>
   <i name="e_0_energy">     -0.12528389 </i>
  </energy>
  <time name="totalsc">18153.1518153.73</time>
  <eigenvalues>
   <array>
    <dimension dim="1">band</dimension>
    <dimension dim="2">kpoint</dimension>
    <dimension dim="3">spin</dimension>
    <field>eigene</field>
    <field>occ</field>
    <set>
     <set comment="spin 1">
      <set comment="kpoint 1">
       <r>  -28.8010    1.0000 </r>
       <r>  -13.4349    1.0000 </r>
       <r>  -11.2035    1.0000 </r>
       <r>  -11.1675    1.0000 </r>
       <r>   -9.9139    1.0000 </r>
       <r>   -6.6480    1.0000 </r>
       <r>   -6.1336    1.0000 </r>
       <r>   -6.1312    1.0000 </r>
       <r>   -6.1228    1.0000 </r>
       <r>   -5.8378    1.0000 </r>
       <r>   -5.8258    1.0000 </r>
       <r>   -5.8198    1.0000 </r>
       <r>   -5.7730    1.0000 </r>
       <r>   -5.7445    1.0000 </r>
       <r>   -5.6987    1.0000 </r>
       <r>   -5.6968    1.0000 </r>
       <r>   -5.6894    1.0000 </r>
       <r>   -5.6708    1.0000 </r>
       <r>   -5.6625    1.0000 </r>
       <r>   -5.6296    1.0000 </r>
       <r>   -5.6201    1.0000 </r>
       <r>   -5.6148    1.0000 </r>
       <r>   -5.6029    1.0000 </r>
       <r>   -5.5984    1.0000 </r>
       <r>   -5.5735    1.0000 </r>
       <r>   -5.5554    1.0000 </r>
       <r>   -5.5540    1.0000 </r>
       <r>   -5.5532    1.0000 </r>
       <r>   -5.5484    1.0000 </r>
       <r>   -5.5295    1.0000 </r>
       <r>   -5.5272    1.0000 </r>
       <r>   -5.5255    1.0000 </r>
       <r>   -5.5235    1.0000 </r>
       <r>   -5.5184    1.0000 </r>
       <r>   -5.5176    1.0000 </r>
       <r>   -5.5144    1.0000 </r>
       <r>   -5.5022    1.0000 </r>
       <r>   -5.4906    1.0000 </r>
       <r>   -5.4840    1.0000 </r>
       <r>   -5.4788    1.0000 </r>
       <r>   -5.4762    1.0000 </r>
       <r>   -5.4752    1.0000 </r>
       <r>   -5.4729    1.0000 </r>
       <r>   -5.4703    1.0000 </r>
       <r>   -5.4591    1.0000 </r>
       <r>   -5.4419    1.0000 </r>
       <r>   -5.4359    1.0000 </r>
       <r>   -5.4338    1.0000 </r>
       <r>   -5.4322    1.0000 </r>
       <r>   -5.4318    1.0000 </r>
       <r>   -5.4275    1.0000 </r>
       <r>   -5.4166    1.0000 </r>
       <r>   -5.4112    1.0000 </r>
       <r>   -5.4095    1.0000 </r>
       <r>   -5.4017    1.0000 </r>
       <r>   -5.3757    1.0000 </r>
       <r>   -5.3670    1.0000 </r>
       <r>   -5.3355    1.0000 </r>
       <r>   -5.3310    1.0000 </r>
       <r>   -5.3293    1.0000 </r>
       <r>   -5.3274    1.0000 </r>
       <r>   -5.3227    1.0000 </r>
       <r>   -5.3217    1.0000 </r>
       <r>   -5.3075    1.0000 </r>
       <r>   -5.3057    1.0000 </r>
       <r>   -5.2986    1.0000 </r>
       <r>   -5.2961    1.0000 </r>
       <r>   -5.2574    1.0000 </r>
       <r>   -5.2290    1.0000 </r>
       <r>   -5.2208    1.0000 </r>
       <r>   -5.2106    1.0000 </r>
       <r>   -5.2078    1.0000 </r>
       <r>   -5.1961    1.0000 </r>
       <r>   -5.1885    1.0000 </r>
       <r>   -5.1857    1.0000 </r>
       <r>   -5.1851    1.0000 </r>
       <r>   -5.1763    1.0000 </r>
       <r>   -5.1701    1.0000 </r>
       <r>   -5.1639    1.0000 </r>
       <r>   -5.1596    1.0000 </r>
       <r>   -5.1470    1.0000 </r>
       <r>   -5.1427    1.0000 </r>
       <r>   -5.1304    1.0000 </r>
       <r>   -5.1251    1.0000 </r>
       <r>   -5.1167    1.0000 </r>
       <r>   -5.1139    1.0000 </r>
       <r>   -5.1097    1.0000 </r>
       <r>   -5.0935    1.0000 </r>
       <r>   -5.0743    1.0000 </r>
       <r>   -5.0633    1.0000 </r>
       <r>   -5.0615    1.0000 </r>
       <r>   -5.0609    1.0000 </r>
       <r>   -5.0585    1.0000 </r>
       <r>   -5.0554    1.0000 </r>
       <r>   -5.0550    1.0000 </r>
       <r>   -5.0476    1.0000 </r>
       <r>   -5.0403    1.0000 </r>
       <r>   -5.0367    1.0000 </r>
       <r>   -5.0331    1.0000 </r>
       <r>   -5.0303    1.0000 </r>
       <r>   -5.0260    1.0000 </r>
       <r>   -5.0212    1.0000 </r>
       <r>   -5.0135    1.0000 </r>
       <r>   -5.0066    1.0000 </r>
       <r>   -5.0059    1.0000 </r>
       <r>   -4.9992    1.0000 </r>
       <r>   -4.9972    1.0000 </r>
       <r>   -4.9954    1.0000 </r>
       <r>   -4.9891    1.0000 </r>
       <r>   -4.9824    1.0000 </r>
       <r>   -4.9805    1.0000 </r>
       <r>   -4.9702    1.0000 </r>
       <r>   -4.9669    1.0000 </r>
       <r>   -4.9635    1.0000 </r>
       <r>   -4.9613    1.0000 </r>
       <r>   -4.9563    1.0000 </r>
       <r>   -4.9405    1.0000 </r>
       <r>   -4.9340    1.0000 </r>
       <r>   -4.9317    1.0000 </r>
       <r>   -4.9248    1.0000 </r>
       <r>   -4.9196    1.0000 </r>
       <r>   -4.9134    1.0000 </r>
       <r>   -4.9118    1.0000 </r>
       <r>   -4.9077    1.0000 </r>
       <r>   -4.9070    1.0000 </r>
       <r>   -4.9054    1.0000 </r>
       <r>   -4.8676    1.0000 </r>
       <r>   -4.8637    1.0000 </r>
       <r>   -4.8542    1.0000 </r>
       <r>   -4.8486    1.0000 </r>
       <r>   -4.8477    1.0000 </r>
       <r>   -4.8446    1.0000 </r>
       <r>   -4.8409    1.0000 </r>
       <r>   -4.8383    1.0000 </r>
       <r>   -4.8353    1.0000 </r>
       <r>   -4.8115    0.9999 </r>
       <r>   -4.8045    0.9999 </r>
       <r>   -4.7990    0.9999 </r>
       <r>   -4.7846    0.9999 </r>
       <r>   -4.7781    0.9998 </r>
       <r>   -4.7716    0.9998 </r>
       <r>   -4.7665    0.9998 </r>
       <r>   -4.7531    0.9997 </r>
       <r>   -4.7500    0.9997 </r>
       <r>   -4.7438    0.9996 </r>
       <r>   -4.7418    0.9996 </r>
       <r>   -4.7322    0.9995 </r>
       <r>   -4.7271    0.9994 </r>
       <r>   -4.7142    0.9993 </r>
       <r>   -4.7060    0.9991 </r>
       <r>   -4.6933    0.9989 </r>
       <r>   -4.6915    0.9989 </r>
       <r>   -4.6860    0.9987 </r>
       <r>   -4.6772    0.9985 </r>
       <r>   -4.6770    0.9985 </r>
       <r>   -4.6758    0.9985 </r>
       <r>   -4.6730    0.9984 </r>
       <r>   -4.6727    0.9984 </r>
       <r>   -4.6707    0.9984 </r>
       <r>   -4.6573    0.9980 </r>
       <r>   -4.6559    0.9979 </r>
       <r>   -4.6543    0.9979 </r>
       <r>   -4.6527    0.9978 </r>
       <r>   -4.6511    0.9978 </r>
       <r>   -4.6497    0.9977 </r>
       <r>   -4.6492    0.9977 </r>
       <r>   -4.6471    0.9977 </r>
       <r>   -4.6379    0.9973 </r>
       <r>   -4.6360    0.9973 </r>
       <r>   -4.6206    0.9967 </r>
       <r>   -4.6145    0.9965 </r>
       <r>   -4.6065    0.9962 </r>
       <r>   -4.6049    0.9961 </r>
       <r>   -4.6013    0.9960 </r>
       <r>   -4.5989    0.9959 </r>
       <r>   -4.5978    0.9959 </r>
       <r>   -4.5941    0.9957 </r>
       <r>   -4.5930    0.9957 </r>
       <r>   -4.5893    0.9956 </r>
       <r>   -4.5808    0.9954 </r>
       <r>   -4.5793    0.9953 </r>
       <r>   -4.5744    0.9952 </r>
       <r>   -4.5615    0.9951 </r>
       <r>   -4.5588    0.9951 </r>
       <r>   -4.5582    0.9951 </r>
       <r>   -4.5579    0.9951 </r>
       <r>   -4.5550    0.9951 </r>
       <r>   -4.5542    0.9951 </r>
       <r>   -4.5532    0.9951 </r>
       <r>   -4.5408    0.9954 </r>
       <r>   -4.5319    0.9958 </r>
       <r>   -4.5158    0.9971 </r>
       <r>   -4.5119    0.9975 </r>
       <r>   -4.5108    0.9977 </r>
       <r>   -4.5104    0.9977 </r>
       <r>   -4.5014    0.9990 </r>
       <r>   -4.4933    1.0004 </r>
       <r>   -4.4928    1.0005 </r>
       <r>   -4.4828    1.0027 </r>
       <r>   -4.4796    1.0035 </r>
       <r>   -4.4770    1.0042 </r>
       <r>   -4.4725    1.0054 </r>
       <r>   -4.4638    1.0081 </r>
       <r>   -4.4604    1.0092 </r>
       <r>   -4.4586    1.0098 </r>
       <r>   -4.4543    1.0113 </r>
       <r>   -4.4508    1.0126 </r>
       <r>   -4.4491    1.0133 </r>
       <r>   -4.4452    1.0149 </r>
       <r>   -4.4432    1.0157 </r>
       <r>   -4.4301    1.0214 </r>
       <r>   -4.4254    1.0235 </r>
       <r>   -4.4186    1.0267 </r>
       <r>   -4.4133    1.0293 </r>
       <r>   -4.4116    1.0301 </r>
       <r>   -4.4103    1.0307 </r>
       <r>   -4.4089    1.0314 </r>
       <r>   -4.4072    1.0322 </r>
       <r>   -4.4045    1.0335 </r>
       <r>   -4.3874    1.0414 </r>
       <r>   -4.3728    1.0469 </r>
       <r>   -4.3694    1.0480 </r>
       <r>   -4.3639    1.0495 </r>
       <r>   -4.3558    1.0510 </r>
       <r>   -4.3476    1.0516 </r>
       <r>   -4.3448    1.0516 </r>
       <r>   -4.3419    1.0514 </r>
       <r>   -4.3407    1.0513 </r>
       <r>   -4.3391    1.0510 </r>
       <r>   -4.3379    1.0508 </r>
       <r>   -4.3370    1.0507 </r>
       <r>   -4.3363    1.0505 </r>
       <r>   -4.3327    1.0497 </r>
       <r>   -4.3307    1.0491 </r>
       <r>   -4.3298    1.0488 </r>
       <r>   -4.3287    1.0484 </r>
       <r>   -4.3260    1.0473 </r>
       <r>   -4.3255    1.0470 </r>
       <r>   -4.3227    1.0457 </r>
       <r>   -4.3121    1.0387 </r>
       <r>   -4.3097    1.0367 </r>
       <r>   -4.3061    1.0333 </r>
       <r>   -4.3010    1.0279 </r>
       <r>   -4.2946    1.0198 </r>
       <r>   -4.2913    1.0152 </r>
       <r>   -4.2898    1.0129 </r>
       <r>   -4.2878    1.0098 </r>
       <r>   -4.2847    1.0047 </r>
       <r>   -4.2830    1.0017 </r>
       <r>   -4.2755    0.9874 </r>
       <r>   -4.2714    0.9786 </r>
       <r>   -4.2661    0.9665 </r>
       <r>   -4.2631    0.9593 </r>
       <r>   -4.2610    0.9538 </r>
       <r>   -4.2594    0.9496 </r>
       <r>   -4.2552    0.9381 </r>
       <r>   -4.2531    0.9320 </r>
       <r>   -4.2513    0.9269 </r>
       <r>   -4.2496    0.9215 </r>
       <r>   -4.2478    0.9162 </r>
       <r>   -4.2459    0.9103 </r>
       <r>   -4.2446    0.9059 </r>
       <r>   -4.2424    0.8988 </r>
       <r>   -4.2418    0.8969 </r>
       <r>   -4.2415    0.8956 </r>
       <r>   -4.2302    0.8553 </r>
       <r>   -4.2278    0.8463 </r>
       <r>   -4.2256    0.8378 </r>
       <r>   -4.2241    0.8319 </r>
       <r>   -4.2222    0.8241 </r>
       <r>   -4.2204    0.8169 </r>
       <r>   -4.2171    0.8030 </r>
       <r>   -4.2018    0.7351 </r>
       <r>   -4.1959    0.7075 </r>
       <r>   -4.1859    0.6580 </r>
       <r>   -4.1841    0.6491 </r>
       <r>   -4.1819    0.6381 </r>
       <r>   -4.1812    0.6347 </r>
       <r>   -4.1771    0.6134 </r>
       <r>   -4.1764    0.6101 </r>
       <r>   -4.1739    0.5968 </r>
       <r>   -4.1629    0.5395 </r>
       <r>   -4.1382    0.4091 </r>
       <r>   -4.1329    0.3818 </r>
       <r>   -4.1322    0.3783 </r>
       <r>   -4.1316    0.3750 </r>
       <r>   -4.1295    0.3645 </r>
       <r>   -4.1196    0.3151 </r>
       <r>   -4.1156    0.2958 </r>
       <r>   -3.9660   -0.0516 </r>
       <r>   -3.8504   -0.0092 </r>
       <r>   -3.8255   -0.0021 </r>
       <r>   -3.8180   -0.0005 </r>
       <r>   -3.7487    0.0049 </r>
       <r>   -3.4982    0.0001 </r>
       <r>   -3.4903    0.0001 </r>
       <r>   -3.3931    0.0000 </r>
       <r>   -3.0819    0.0000 </r>
       <r>   -3.0610    0.0000 </r>
       <r>   -3.0560    0.0000 </r>
       <r>   -3.0332    0.0000 </r>
       <r>   -3.0241    0.0000 </r>
       <r>   -2.9448    0.0000 </r>
       <r>   -2.9351    0.0000 </r>
       <r>   -2.8205    0.0000 </r>
       <r>   -2.5917    0.0000 </r>
       <r>   -2.5206    0.0000 </r>
       <r>   -2.5191    0.0000 </r>
       <r>   -2.3152    0.0000 </r>
       <r>   -2.1207    0.0000 </r>
       <r>   -2.1158    0.0000 </r>
       <r>   -2.0724    0.0000 </r>
       <r>   -2.0608    0.0000 </r>
       <r>   -2.0147    0.0000 </r>
       <r>   -1.9374    0.0000 </r>
       <r>   -1.8862    0.0000 </r>
       <r>   -1.7934    0.0000 </r>
       <r>   -1.7160    0.0000 </r>
       <r>   -1.6880    0.0000 </r>
       <r>   -1.6558    0.0000 </r>
       <r>   -1.6403    0.0000 </r>
       <r>   -1.6206    0.0000 </r>
       <r>   -1.5483    0.0000 </r>
       <r>   -1.4093    0.0000 </r>
       <r>   -1.3003    0.0000 </r>
       <r>   -1.2258    0.0000 </r>
       <r>   -1.1501    0.0000 </r>
       <r>   -1.0855    0.0000 </r>
       <r>   -0.9934    0.0000 </r>
       <r>   -0.9758    0.0000 </r>
       <r>   -0.9564    0.0000 </r>
       <r>   -0.9352    0.0000 </r>
       <r>   -0.9284    0.0000 </r>
       <r>   -0.9051    0.0000 </r>
       <r>   -0.7773    0.0000 </r>
       <r>   -0.6348    0.0000 </r>
      </set>
     </set>
    </set>
   </array>
  </eigenvalues>
  <separator name="orbital magnetization" >
   <v name="MAGDIPOLOUT">      0.00000000      0.00000000      0.00000000</v>
  </separator>
  <dos>
   <i name="efermi">     -4.15544528 </i>
   <total>
    <array>
     <dimension dim="1">gridpoints</dimension>
     <dimension dim="2">spin</dimension>
     <field>energy</field>
     <field>total</field>
     <field>integrated</field>
     <set>
      <set comment="spin 1">
       <r>   -30.8010     0.0000     0.0000 </r>
       <r>   -30.6938     0.0000     0.0000 </r>
       <r>   -30.5866     0.0000     0.0000 </r>
       <r>   -30.4794     0.0000     0.0000 </r>
       <r>   -30.3722     0.0000     0.0000 </r>
       <r>   -30.2649     0.0000     0.0000 </r>
       <r>   -30.1577     0.0000     0.0000 </r>
       <r>   -30.0505     0.0000     0.0000 </r>
       <r>   -29.9433     0.0000     0.0000 </r>
       <r>   -29.8360     0.0000     0.0000 </r>
       <r>   -29.7288     0.0000     0.0000 </r>
       <r>   -29.6216     0.0000     0.0000 </r>
       <r>   -29.5144     0.0003     0.0000 </r>
       <r>   -29.4072     0.0046     0.0005 </r>
       <r>   -29.2999     0.0345     0.0042 </r>
       <r>   -29.1927     0.0503     0.0096 </r>
       <r>   -29.0855    -0.4077    -0.0341 </r>
       <r>   -28.9783    -0.6084    -0.0993 </r>
       <r>   -28.8711     3.9611     0.3254 </r>
       <r>   -28.7638     9.8646     1.3831 </r>
       <r>   -28.6566     6.2485     2.0530 </r>
       <r>   -28.5494     0.1073     2.0645 </r>
       <r>   -28.4422    -0.6531     1.9945 </r>
       <r>   -28.3350    -0.0098     1.9935 </r>
       <r>   -28.2277     0.0509     1.9989 </r>
       <r>   -28.1205     0.0094     1.9999 </r>
       <r>   -28.0133     0.0007     2.0000 </r>
       <r>   -27.9061     0.0000     2.0000 </r>
       <r>   -27.7989     0.0000     2.0000 </r>
       <r>   -27.6916     0.0000     2.0000 </r>
       <r>   -27.5844     0.0000     2.0000 </r>
       <r>   -27.4772     0.0000     2.0000 </r>
       <r>   -27.3700     0.0000     2.0000 </r>
       <r>   -27.2628     0.0000     2.0000 </r>
       <r>   -27.1555     0.0000     2.0000 </r>
       <r>   -27.0483     0.0000     2.0000 </r>
       <r>   -26.9411     0.0000     2.0000 </r>
       <r>   -26.8339     0.0000     2.0000 </r>
       <r>   -26.7266     0.0000     2.0000 </r>
       <r>   -26.6194     0.0000     2.0000 </r>
       <r>   -26.5122     0.0000     2.0000 </r>
       <r>   -26.4050     0.0000     2.0000 </r>
       <r>   -26.2978     0.0000     2.0000 </r>
       <r>   -26.1905     0.0000     2.0000 </r>
       <r>   -26.0833     0.0000     2.0000 </r>
       <r>   -25.9761     0.0000     2.0000 </r>
       <r>   -25.8689     0.0000     2.0000 </r>
       <r>   -25.7617     0.0000     2.0000 </r>
       <r>   -25.6544     0.0000     2.0000 </r>
       <r>   -25.5472     0.0000     2.0000 </r>
       <r>   -25.4400     0.0000     2.0000 </r>
       <r>   -25.3328     0.0000     2.0000 </r>
       <r>   -25.2256     0.0000     2.0000 </r>
       <r>   -25.1183     0.0000     2.0000 </r>
       <r>   -25.0111     0.0000     2.0000 </r>
       <r>   -24.9039     0.0000     2.0000 </r>
       <r>   -24.7967     0.0000     2.0000 </r>
       <r>   -24.6895     0.0000     2.0000 </r>
       <r>   -24.5822     0.0000     2.0000 </r>
       <r>   -24.4750     0.0000     2.0000 </r>
       <r>   -24.3678     0.0000     2.0000 </r>
       <r>   -24.2606     0.0000     2.0000 </r>
       <r>   -24.1534     0.0000     2.0000 </r>
       <r>   -24.0461     0.0000     2.0000 </r>
       <r>   -23.9389     0.0000     2.0000 </r>
       <r>   -23.8317     0.0000     2.0000 </r>
       <r>   -23.7245     0.0000     2.0000 </r>
       <r>   -23.6172     0.0000     2.0000 </r>
       <r>   -23.5100     0.0000     2.0000 </r>
       <r>   -23.4028     0.0000     2.0000 </r>
       <r>   -23.2956     0.0000     2.0000 </r>
       <r>   -23.1884     0.0000     2.0000 </r>
       <r>   -23.0811     0.0000     2.0000 </r>
       <r>   -22.9739     0.0000     2.0000 </r>
       <r>   -22.8667     0.0000     2.0000 </r>
       <r>   -22.7595     0.0000     2.0000 </r>
       <r>   -22.6523     0.0000     2.0000 </r>
       <r>   -22.5450     0.0000     2.0000 </r>
       <r>   -22.4378     0.0000     2.0000 </r>
       <r>   -22.3306     0.0000     2.0000 </r>
       <r>   -22.2234     0.0000     2.0000 </r>
       <r>   -22.1162     0.0000     2.0000 </r>
       <r>   -22.0089     0.0000     2.0000 </r>
       <r>   -21.9017     0.0000     2.0000 </r>
       <r>   -21.7945     0.0000     2.0000 </r>
       <r>   -21.6873     0.0000     2.0000 </r>
       <r>   -21.5801     0.0000     2.0000 </r>
       <r>   -21.4728     0.0000     2.0000 </r>
       <r>   -21.3656     0.0000     2.0000 </r>
       <r>   -21.2584     0.0000     2.0000 </r>
       <r>   -21.1512     0.0000     2.0000 </r>
       <r>   -21.0440     0.0000     2.0000 </r>
       <r>   -20.9367     0.0000     2.0000 </r>
       <r>   -20.8295     0.0000     2.0000 </r>
       <r>   -20.7223     0.0000     2.0000 </r>
       <r>   -20.6151     0.0000     2.0000 </r>
       <r>   -20.5078     0.0000     2.0000 </r>
       <r>   -20.4006     0.0000     2.0000 </r>
       <r>   -20.2934     0.0000     2.0000 </r>
       <r>   -20.1862     0.0000     2.0000 </r>
       <r>   -20.0790     0.0000     2.0000 </r>
       <r>   -19.9717     0.0000     2.0000 </r>
       <r>   -19.8645     0.0000     2.0000 </r>
       <r>   -19.7573     0.0000     2.0000 </r>
       <r>   -19.6501     0.0000     2.0000 </r>
       <r>   -19.5429     0.0000     2.0000 </r>
       <r>   -19.4356     0.0000     2.0000 </r>
       <r>   -19.3284     0.0000     2.0000 </r>
       <r>   -19.2212     0.0000     2.0000 </r>
       <r>   -19.1140     0.0000     2.0000 </r>
       <r>   -19.0068     0.0000     2.0000 </r>
       <r>   -18.8995     0.0000     2.0000 </r>
       <r>   -18.7923     0.0000     2.0000 </r>
       <r>   -18.6851     0.0000     2.0000 </r>
       <r>   -18.5779     0.0000     2.0000 </r>
       <r>   -18.4707     0.0000     2.0000 </r>
       <r>   -18.3634     0.0000     2.0000 </r>
       <r>   -18.2562     0.0000     2.0000 </r>
       <r>   -18.1490     0.0000     2.0000 </r>
       <r>   -18.0418     0.0000     2.0000 </r>
       <r>   -17.9346     0.0000     2.0000 </r>
       <r>   -17.8273     0.0000     2.0000 </r>
       <r>   -17.7201     0.0000     2.0000 </r>
       <r>   -17.6129     0.0000     2.0000 </r>
       <r>   -17.5057     0.0000     2.0000 </r>
       <r>   -17.3984     0.0000     2.0000 </r>
       <r>   -17.2912     0.0000     2.0000 </r>
       <r>   -17.1840     0.0000     2.0000 </r>
       <r>   -17.0768     0.0000     2.0000 </r>
       <r>   -16.9696     0.0000     2.0000 </r>
       <r>   -16.8623     0.0000     2.0000 </r>
       <r>   -16.7551     0.0000     2.0000 </r>
       <r>   -16.6479     0.0000     2.0000 </r>
       <r>   -16.5407     0.0000     2.0000 </r>
       <r>   -16.4335     0.0000     2.0000 </r>
       <r>   -16.3262     0.0000     2.0000 </r>
       <r>   -16.2190     0.0000     2.0000 </r>
       <r>   -16.1118     0.0000     2.0000 </r>
       <r>   -16.0046     0.0000     2.0000 </r>
       <r>   -15.8974     0.0000     2.0000 </r>
       <r>   -15.7901     0.0000     2.0000 </r>
       <r>   -15.6829     0.0000     2.0000 </r>
       <r>   -15.5757     0.0000     2.0000 </r>
       <r>   -15.4685     0.0000     2.0000 </r>
       <r>   -15.3613     0.0000     2.0000 </r>
       <r>   -15.2540     0.0000     2.0000 </r>
       <r>   -15.1468     0.0000     2.0000 </r>
       <r>   -15.0396     0.0000     2.0000 </r>
       <r>   -14.9324     0.0000     2.0000 </r>
       <r>   -14.8252     0.0000     2.0000 </r>
       <r>   -14.7179     0.0000     2.0000 </r>
       <r>   -14.6107     0.0000     2.0000 </r>
       <r>   -14.5035     0.0000     2.0000 </r>
       <r>   -14.3963     0.0000     2.0000 </r>
       <r>   -14.2890     0.0000     2.0000 </r>
       <r>   -14.1818     0.0001     2.0000 </r>
       <r>   -14.0746     0.0020     2.0002 </r>
       <r>   -13.9674     0.0204     2.0024 </r>
       <r>   -13.8602     0.0642     2.0093 </r>
       <r>   -13.7529    -0.1820     1.9898 </r>
       <r>   -13.6457    -0.8168     1.9022 </r>
       <r>   -13.5385     1.8686     2.1026 </r>
       <r>   -13.4313     8.7241     3.0380 </r>
       <r>   -13.3241     8.3553     3.9338 </r>
       <r>   -13.2168     1.4887     4.0935 </r>
       <r>   -13.1096    -0.8118     4.0064 </r>
       <r>   -13.0024    -0.1429     3.9911 </r>
       <r>   -12.8952     0.0634     3.9979 </r>
       <r>   -12.7880     0.0180     3.9998 </r>
       <r>   -12.6807     0.0017     4.0000 </r>
       <r>   -12.5735     0.0001     4.0000 </r>
       <r>   -12.4663     0.0000     4.0000 </r>
       <r>   -12.3591     0.0000     4.0000 </r>
       <r>   -12.2519     0.0000     4.0000 </r>
       <r>   -12.1446     0.0000     4.0000 </r>
       <r>   -12.0374     0.0000     4.0000 </r>
       <r>   -11.9302     0.0002     4.0000 </r>
       <r>   -11.8230     0.0047     4.0005 </r>
       <r>   -11.7158     0.0438     4.0052 </r>
       <r>   -11.6085     0.1214     4.0182 </r>
       <r>   -11.5013    -0.4122     3.9740 </r>
       <r>   -11.3941    -1.5337     3.8096 </r>
       <r>   -11.2869     4.1517     4.2547 </r>
       <r>   -11.1796    17.4108     6.1216 </r>
       <r>   -11.0724    16.2545     7.8644 </r>
       <r>   -10.9652     2.9304     8.1786 </r>
       <r>   -10.8580    -1.5396     8.0135 </r>
       <r>   -10.7508    -0.2861     7.9828 </r>
       <r>   -10.6435     0.1210     7.9958 </r>
       <r>   -10.5363     0.0390     8.0000 </r>
       <r>   -10.4291     0.0306     8.0032 </r>
       <r>   -10.3219     0.0616     8.0098 </r>
       <r>   -10.2147    -0.2907     7.9787 </r>
       <r>   -10.1074    -0.7636     7.8968 </r>
       <r>   -10.0002     2.8917     8.2069 </r>
       <r>    -9.8930     9.4438     9.2194 </r>
       <r>    -9.7858     7.3314    10.0055 </r>
       <r>    -9.6786     0.6923    10.0797 </r>
       <r>    -9.5713    -0.7517     9.9991 </r>
       <r>    -9.4641    -0.0642     9.9922 </r>
       <r>    -9.3569     0.0582     9.9985 </r>
       <r>    -9.2497     0.0130     9.9999 </r>
       <r>    -9.1425     0.0011    10.0000 </r>
       <r>    -9.0352     0.0000    10.0000 </r>
       <r>    -8.9280     0.0000    10.0000 </r>
       <r>    -8.8208     0.0000    10.0000 </r>
       <r>    -8.7136     0.0000    10.0000 </r>
       <r>    -8.6064     0.0000    10.0000 </r>
       <r>    -8.4991     0.0000    10.0000 </r>
       <r>    -8.3919     0.0000    10.0000 </r>
       <r>    -8.2847     0.0000    10.0000 </r>
       <r>    -8.1775     0.0000    10.0000 </r>
       <r>    -8.0702     0.0000    10.0000 </r>
       <r>    -7.9630     0.0000    10.0000 </r>
       <r>    -7.8558     0.0000    10.0000 </r>
       <r>    -7.7486     0.0000    10.0000 </r>
       <r>    -7.6414     0.0000    10.0000 </r>
       <r>    -7.5341     0.0000    10.0000 </r>
       <r>    -7.4269     0.0000    10.0000 </r>
       <r>    -7.3197     0.0009    10.0001 </r>
       <r>    -7.2125     0.0112    10.0013 </r>
       <r>    -7.1053     0.0551    10.0072 </r>
       <r>    -6.9980    -0.0369    10.0032 </r>
       <r>    -6.8908    -0.7100     9.9271 </r>
       <r>    -6.7836     0.4077     9.9708 </r>
       <r>    -6.6764     6.8915    10.7097 </r>
       <r>    -6.5692     9.8549    11.7664 </r>
       <r>    -6.4619     3.0598    12.0945 </r>
       <r>    -6.3547    -2.9946    11.7734 </r>
       <r>    -6.2475     3.3896    12.1368 </r>
       <r>    -6.1403    23.7188    14.6800 </r>
       <r>    -6.0331    24.5180    17.3088 </r>
       <r>    -5.9258     9.5122    18.3287 </r>
       <r>    -5.8186    27.4612    21.2731 </r>
       <r>    -5.7114    72.6789    29.0658 </r>
       <r>    -5.6042   154.5809    45.6401 </r>
       <r>    -5.4970   269.5061    74.5367 </r>
       <r>    -5.3897   296.5166   106.3294 </r>
       <r>    -5.2825   224.4023   130.3900 </r>
       <r>    -5.1753   211.9669   153.1172 </r>
       <r>    -5.0681   301.9222   185.4895 </r>
       <r>    -4.9608   366.6861   224.8058 </r>
       <r>    -4.8536   319.2827   259.0395 </r>
       <r>    -4.7464   291.4327   290.2872 </r>
       <r>    -4.6392   378.1081   330.8282 </r>
       <r>    -4.5320   432.3125   377.1810 </r>
       <r>    -4.4247   429.9345   423.2789 </r>
       <r>    -4.3175   514.5349   478.4476 </r>
       <r>    -4.2103   551.0091   537.5272 </r>
       <r>    -4.1031   333.6271   573.2989 </r>
       <r>    -3.9959    72.0490   581.0241 </r>
       <r>    -3.8886     3.9023   581.4425 </r>
       <r>    -3.7814    31.9575   584.8690 </r>
       <r>    -3.6742    25.4406   587.5968 </r>
       <r>    -3.5670    10.8805   588.7634 </r>
       <r>    -3.4598    21.9863   591.1207 </r>
       <r>    -3.3525    21.1487   593.3883 </r>
       <r>    -3.2453     2.7262   593.6806 </r>
       <r>    -3.1381    11.6876   594.9338 </r>
       <r>    -3.0309    50.0061   600.2955 </r>
       <r>    -2.9237    56.9155   606.3980 </r>
       <r>    -2.8164    26.8464   609.2765 </r>
       <r>    -2.7092     6.2801   609.9498 </r>
       <r>    -2.6020    13.5514   611.4028 </r>
       <r>    -2.4948    27.0995   614.3084 </r>
       <r>    -2.3876    18.9647   616.3419 </r>
       <r>    -2.2803     7.3463   617.1295 </r>
       <r>    -2.1731    17.0102   618.9534 </r>
       <r>    -2.0659    42.3220   623.4912 </r>
       <r>    -1.9587    45.8427   628.4065 </r>
       <r>    -1.8514    29.1692   631.5340 </r>
       <r>    -1.7442    32.7849   635.0492 </r>
       <r>    -1.6370    51.4219   640.5627 </r>
       <r>    -1.5298    42.3182   645.1001 </r>
       <r>    -1.4226    18.6395   647.0986 </r>
       <r>    -1.3153    15.9169   648.8053 </r>
       <r>    -1.2081    22.2175   651.1874 </r>
       <r>    -1.1009    27.8721   654.1759 </r>
       <r>    -0.9937    47.8486   659.3063 </r>
       <r>    -0.8865    59.3743   665.6724 </r>
       <r>    -0.7792    34.3976   669.3605 </r>
       <r>    -0.6720    13.0772   670.7627 </r>
       <r>    -0.5648     8.9735   671.7248 </r>
       <r>    -0.4576     3.3021   672.0789 </r>
       <r>    -0.3504    -0.5452   672.0204 </r>
       <r>    -0.2431    -0.3047   671.9877 </r>
       <r>    -0.1359     0.0728   671.9956 </r>
       <r>    -0.0287     0.0365   671.9995 </r>
       <r>     0.0785     0.0046   672.0000 </r>
       <r>     0.1857     0.0003   672.0000 </r>
       <r>     0.2930     0.0000   672.0000 </r>
       <r>     0.4002     0.0000   672.0000 </r>
       <r>     0.5074     0.0000   672.0000 </r>
       <r>     0.6146     0.0000   672.0000 </r>
       <r>     0.7218     0.0000   672.0000 </r>
       <r>     0.8291     0.0000   672.0000 </r>
       <r>     0.9363     0.0000   672.0000 </r>
       <r>     1.0435     0.0000   672.0000 </r>
       <r>     1.1507     0.0000   672.0000 </r>
       <r>     1.2580     0.0000   672.0000 </r>
       <r>     1.3652     0.0000   672.0000 </r>
      </set>
     </set>
    </array>
   </total>
  </dos>
 </calculation>
 <structure name="finalpos" >
  <crystal>
   <varray name="basis" >
    <v>      30.00000000       0.00000000       0.00000000 </v>
    <v>       0.00000000      30.00000000       0.00000000 </v>
    <v>       0.00000000       0.00000000      30.00000000 </v>
   </varray>
   <i name="volume">  27000.00000000 </i>
   <varray name="rec_basis" >
    <v>       0.03333333       0.00000000       0.00000000 </v>
    <v>       0.00000000       0.03333333       0.00000000 </v>
    <v>       0.00000000       0.00000000       0.03333333 </v>
   </varray>
  </crystal>
  <varray name="positions" >
   <v>       0.44576020       0.32826710       0.41691983 </v>
   <v>       0.67173288       0.55423978       0.41691983 </v>
   <v>       0.55423980       0.32826710       0.41691983 </v>
   <v>       0.32826712       0.55423978       0.41691983 </v>
   <v>       0.50000000       0.38250690       0.34021317 </v>
   <v>       0.50000000       0.38250690       0.65978680 </v>
   <v>       0.50000000       0.27609440       0.50000000 </v>
   <v>       0.27609443       0.49999998       0.50000000 </v>
   <v>       0.72390557       0.49999998       0.50000000 </v>
   <v>       0.50000000       0.72390555       0.50000000 </v>
   <v>       0.61195280       0.38804720       0.34167483 </v>
   <v>       0.61195280       0.38804720       0.65832513 </v>
   <v>       0.38804722       0.61195278       0.34167483 </v>
   <v>       0.38804722       0.61195278       0.65832513 </v>
   <v>       0.38804720       0.38804720       0.34167483 </v>
   <v>       0.38804720       0.38804720       0.65832513 </v>
   <v>       0.61195278       0.61195278       0.34167483 </v>
   <v>       0.61195278       0.61195278       0.65832513 </v>
   <v>       0.44576020       0.32826710       0.58308023 </v>
   <v>       0.67173288       0.55423978       0.58308023 </v>
   <v>       0.55791699       0.44208301       0.41809300 </v>
   <v>       0.32826705       0.44576024       0.41691983 </v>
   <v>       0.55423973       0.67173293       0.41691983 </v>
   <v>       0.55423980       0.32826710       0.58308023 </v>
   <v>       0.32826712       0.55423978       0.58308023 </v>
   <v>       0.67173295       0.44576024       0.41691983 </v>
   <v>       0.44576027       0.67173293       0.41691983 </v>
   <v>       0.44208301       0.44208301       0.41809300 </v>
   <v>       0.50000000       0.38416601       0.50000000 </v>
   <v>       0.61749315       0.50000005       0.34021317 </v>
   <v>       0.61749315       0.50000005       0.65978680 </v>
   <v>       0.38250685       0.50000005       0.34021317 </v>
   <v>       0.38250685       0.50000005       0.65978680 </v>
   <v>       0.38317830       0.38317830       0.50000000 </v>
   <v>       0.61682172       0.61682172       0.50000000 </v>
   <v>       0.61682170       0.38317830       0.50000000 </v>
   <v>       0.38317828       0.61682172       0.50000000 </v>
   <v>       0.50000000       0.50000000       0.33478917 </v>
   <v>       0.50000000       0.50000000       0.66521087 </v>
   <v>       0.32826705       0.44576024       0.58308023 </v>
   <v>       0.55423973       0.67173293       0.58308023 </v>
   <v>       0.55791699       0.44208301       0.58190703 </v>
   <v>       0.44208298       0.55791702       0.41809300 </v>
   <v>       0.44208301       0.44208301       0.58190703 </v>
   <v>       0.67173295       0.44576024       0.58308023 </v>
   <v>       0.44576027       0.67173293       0.58308023 </v>
   <v>       0.55791702       0.55791702       0.41809300 </v>
   <v>       0.38416599       0.50000002       0.50000000 </v>
   <v>       0.61583401       0.50000002       0.50000000 </v>
   <v>       0.50000000       0.61749319       0.34021317 </v>
   <v>       0.50000000       0.61749319       0.65978680 </v>
   <v>       0.50000000       0.50000000       0.50000000 </v>
   <v>       0.44208298       0.55791702       0.58190703 </v>
   <v>       0.55791702       0.55791702       0.58190703 </v>
   <v>       0.50000000       0.61583404       0.50000000 </v>
   <v>       0.68608267       0.47263450       0.32419437 </v>
   <v>       0.71325907       0.46863790       0.29851887 </v>
  </varray>
  <varray name="selective"  type="logical" >
   <v type="logical" >  F  F  F </v>
   <v type="logical" >  F  F  F </v>
   <v type="logical" >  F  F  F </v>
   <v type="logical" >  F  F  F </v>
   <v type="logical" >  F  F  F </v>
   <v type="logical" >  F  F  F </v>
   <v type="logical" >  F  F  F </v>
   <v type="logical" >  F  F  F </v>
   <v type="logical" >  F  F  F </v>
   <v type="logical" >  F  F  F </v>
   <v type="logical" >  F  F  F </v>
   <v type="logical" >  F  F  F </v>
   <v type="logical" >  F  F  F </v>
   <v type="logical" >  F  F  F </v>
   <v type="logical" >  F  F  F </v>
   <v type="logical" >  F  F  F </v>
   <v type="logical" >  F  F  F </v>
   <v type="logical" >  F  F  F </v>
   <v type="logical" >  F  F  F </v>
   <v type="logical" >  F  F  F </v>
   <v type="logical" >  F  F  F </v>
   <v type="logical" >  F  F  F </v>
   <v type="logical" >  F  F  F </v>
   <v type="logical" >  F  F  F </v>
   <v type="logical" >  F  F  F </v>
   <v type="logical" >  F  F  F </v>
   <v type="logical" >  F  F  F </v>
   <v type="logical" >  F  F  F </v>
   <v type="logical" >  F  F  F </v>
   <v type="logical" >  F  F  F </v>
   <v type="logical" >  F  F  F </v>
   <v type="logical" >  F  F  F </v>
   <v type="logical" >  F  F  F </v>
   <v type="logical" >  F  F  F </v>
   <v type="logical" >  F  F  F </v>
   <v type="logical" >  F  F  F </v>
   <v type="logical" >  F  F  F </v>
   <v type="logical" >  F  F  F </v>
   <v type="logical" >  F  F  F </v>
   <v type="logical" >  F  F  F </v>
   <v type="logical" >  F  F  F </v>
   <v type="logical" >  F  F  F </v>
   <v type="logical" >  F  F  F </v>
   <v type="logical" >  F  F  F </v>
   <v type="logical" >  F  F  F </v>
   <v type="logical" >  F  F  F </v>
   <v type="logical" >  F  F  F </v>
   <v type="logical" >  F  F  F </v>
   <v type="logical" >  F  F  F </v>
   <v type="logical" >  F  F  F </v>
   <v type="logical" >  F  F  F </v>
   <v type="logical" >  F  F  F </v>
   <v type="logical" >  F  F  F </v>
   <v type="logical" >  F  F  F </v>
   <v type="logical" >  F  F  F </v>
   <v type="logical" >  F  F  F </v>
   <v type="logical" >  F  F  F </v>
  </varray>
  <nose>
   <v>      -3.00000000       0.00000000       0.00010000       0.00010000 </v>
  </nose>
 </structure>
</modeling>
