  57  57   0   0
  0.4736842E+03  0.3000000E-08  0.3000000E-08  0.3000000E-08  0.5000000E-15
  1.000000000000000E-004
  CAR 
 6_Pd100_top_free_z(O)                   
      1.32579877    -30.71121607  301     -4.13323909      1.00000000
    -30.711  0.0000E+00  0.0000E+00
    -30.604  0.0000E+00  0.0000E+00
    -30.498  0.0000E+00  0.0000E+00
    -30.391  0.3483E-27  0.3720E-28
    -30.284  0.1676E-23  0.1790E-24
    -30.177  0.4488E-20  0.4795E-21
    -30.070  0.6672E-17  0.7130E-18
    -29.964  0.5486E-14  0.5865E-15
    -29.857  0.2487E-11  0.2662E-12
    -29.750  0.6159E-09  0.6603E-10
    -29.643  0.8256E-07  0.8883E-08
    -29.537  0.5901E-05  0.6391E-06
    -29.430  0.2190E-03  0.2403E-04
    -29.323  0.4010E-02  0.4522E-03
    -29.216  0.3179E-01  0.3847E-02
    -29.109  0.5589E-01  0.9815E-02
    -29.003 -0.3581E+00 -0.2843E-01
    -28.896 -0.6921E+00 -0.1023E+00
    -28.789  0.3454E+01  0.2665E+00
    -28.682  0.9696E+01  0.1302E+01
    -28.575  0.6819E+01  0.2030E+01
    -28.469  0.4024E+00  0.2073E+01
    -28.362 -0.7133E+00  0.1997E+01
    -28.255 -0.3969E-01  0.1993E+01
    -28.148  0.5566E-01  0.1999E+01
    -28.041  0.1162E-01  0.2000E+01
    -27.935  0.9064E-03  0.2000E+01
    -27.828  0.3342E-04  0.2000E+01
    -27.721  0.6280E-06  0.2000E+01
    -27.614  0.6228E-08  0.2000E+01
    -27.508  0.3324E-10  0.2000E+01
    -27.401  0.9565E-13  0.2000E+01
    -27.294  0.0000E+00  0.2000E+01
    -27.187  0.0000E+00  0.2000E+01
    -27.080  0.0000E+00  0.2000E+01
    -26.974  0.0000E+00  0.2000E+01
    -26.867  0.0000E+00  0.2000E+01
    -26.760  0.0000E+00  0.2000E+01
    -26.653  0.0000E+00  0.2000E+01
    -26.546  0.0000E+00  0.2000E+01
    -26.440  0.0000E+00  0.2000E+01
    -26.333  0.0000E+00  0.2000E+01
    -26.226  0.0000E+00  0.2000E+01
    -26.119  0.0000E+00  0.2000E+01
    -26.012  0.0000E+00  0.2000E+01
    -25.906  0.0000E+00  0.2000E+01
    -25.799  0.0000E+00  0.2000E+01
    -25.692  0.0000E+00  0.2000E+01
    -25.585  0.0000E+00  0.2000E+01
    -25.479  0.0000E+00  0.2000E+01
    -25.372  0.0000E+00  0.2000E+01
    -25.265  0.0000E+00  0.2000E+01
    -25.158  0.0000E+00  0.2000E+01
    -25.051  0.0000E+00  0.2000E+01
    -24.945  0.0000E+00  0.2000E+01
    -24.838  0.0000E+00  0.2000E+01
    -24.731  0.0000E+00  0.2000E+01
    -24.624  0.0000E+00  0.2000E+01
    -24.517  0.0000E+00  0.2000E+01
    -24.411  0.0000E+00  0.2000E+01
    -24.304  0.0000E+00  0.2000E+01
    -24.197  0.0000E+00  0.2000E+01
    -24.090  0.0000E+00  0.2000E+01
    -23.983  0.0000E+00  0.2000E+01
    -23.877  0.0000E+00  0.2000E+01
    -23.770  0.0000E+00  0.2000E+01
    -23.663  0.0000E+00  0.2000E+01
    -23.556  0.0000E+00  0.2000E+01
    -23.449  0.0000E+00  0.2000E+01
    -23.343  0.0000E+00  0.2000E+01
    -23.236  0.0000E+00  0.2000E+01
    -23.129  0.0000E+00  0.2000E+01
    -23.022  0.0000E+00  0.2000E+01
    -22.916  0.0000E+00  0.2000E+01
    -22.809  0.0000E+00  0.2000E+01
    -22.702  0.0000E+00  0.2000E+01
    -22.595  0.0000E+00  0.2000E+01
    -22.488  0.0000E+00  0.2000E+01
    -22.382  0.0000E+00  0.2000E+01
    -22.275  0.0000E+00  0.2000E+01
    -22.168  0.0000E+00  0.2000E+01
    -22.061  0.0000E+00  0.2000E+01
    -21.954  0.0000E+00  0.2000E+01
    -21.848  0.0000E+00  0.2000E+01
    -21.741  0.0000E+00  0.2000E+01
    -21.634  0.0000E+00  0.2000E+01
    -21.527  0.0000E+00  0.2000E+01
    -21.420  0.0000E+00  0.2000E+01
    -21.314  0.0000E+00  0.2000E+01
    -21.207  0.0000E+00  0.2000E+01
    -21.100  0.0000E+00  0.2000E+01
    -20.993  0.0000E+00  0.2000E+01
    -20.887  0.0000E+00  0.2000E+01
    -20.780  0.0000E+00  0.2000E+01
    -20.673  0.0000E+00  0.2000E+01
    -20.566  0.0000E+00  0.2000E+01
    -20.459  0.0000E+00  0.2000E+01
    -20.353  0.0000E+00  0.2000E+01
    -20.246  0.0000E+00  0.2000E+01
    -20.139  0.0000E+00  0.2000E+01
    -20.032  0.0000E+00  0.2000E+01
    -19.925  0.0000E+00  0.2000E+01
    -19.819  0.0000E+00  0.2000E+01
    -19.712  0.0000E+00  0.2000E+01
    -19.605  0.0000E+00  0.2000E+01
    -19.498  0.0000E+00  0.2000E+01
    -19.391  0.0000E+00  0.2000E+01
    -19.285  0.0000E+00  0.2000E+01
    -19.178  0.0000E+00  0.2000E+01
    -19.071  0.0000E+00  0.2000E+01
    -18.964  0.0000E+00  0.2000E+01
    -18.858  0.0000E+00  0.2000E+01
    -18.751  0.0000E+00  0.2000E+01
    -18.644  0.0000E+00  0.2000E+01
    -18.537  0.0000E+00  0.2000E+01
    -18.430  0.0000E+00  0.2000E+01
    -18.324  0.0000E+00  0.2000E+01
    -18.217  0.0000E+00  0.2000E+01
    -18.110  0.0000E+00  0.2000E+01
    -18.003  0.0000E+00  0.2000E+01
    -17.896  0.0000E+00  0.2000E+01
    -17.790  0.0000E+00  0.2000E+01
    -17.683  0.0000E+00  0.2000E+01
    -17.576  0.0000E+00  0.2000E+01
    -17.469  0.0000E+00  0.2000E+01
    -17.362  0.0000E+00  0.2000E+01
    -17.256  0.0000E+00  0.2000E+01
    -17.149  0.0000E+00  0.2000E+01
    -17.042  0.0000E+00  0.2000E+01
    -16.935  0.0000E+00  0.2000E+01
    -16.829  0.0000E+00  0.2000E+01
    -16.722  0.0000E+00  0.2000E+01
    -16.615  0.0000E+00  0.2000E+01
    -16.508  0.0000E+00  0.2000E+01
    -16.401  0.0000E+00  0.2000E+01
    -16.295  0.0000E+00  0.2000E+01
    -16.188  0.0000E+00  0.2000E+01
    -16.081  0.0000E+00  0.2000E+01
    -15.974  0.0000E+00  0.2000E+01
    -15.867  0.0000E+00  0.2000E+01
    -15.761  0.0000E+00  0.2000E+01
    -15.654  0.0000E+00  0.2000E+01
    -15.547  0.0000E+00  0.2000E+01
    -15.440  0.6079E-25  0.2000E+01
    -15.333  0.2058E-21  0.2000E+01
    -15.227  0.3871E-18  0.2000E+01
    -15.120  0.4034E-15  0.2000E+01
    -15.013  0.2319E-12  0.2000E+01
    -14.906  0.7327E-10  0.2000E+01
    -14.799  0.1257E-07  0.2000E+01
    -14.693  0.1158E-05  0.2000E+01
    -14.586  0.5607E-04  0.2000E+01
    -14.479  0.1374E-02  0.2000E+01
    -14.372  0.1562E-01  0.2002E+01
    -14.266  0.6146E-01  0.2008E+01
    -14.159 -0.1010E+00  0.1998E+01
    -14.052 -0.7888E+00  0.1913E+01
    -13.945  0.1032E+01  0.2024E+01
    -13.838  0.7796E+01  0.2856E+01
    -13.732  0.9186E+01  0.3837E+01
    -13.625  0.2482E+01  0.4102E+01
    -13.518 -0.7958E+00  0.4017E+01
    -13.411 -0.2521E+00  0.3990E+01
    -13.304  0.6322E-01  0.3997E+01
    -13.198  0.2512E-01  0.4000E+01
    -13.091  0.2766E-02  0.4000E+01
    -12.984  0.1358E-03  0.4000E+01
    -12.877  0.7018E-05  0.4000E+01
    -12.770  0.1485E-03  0.4000E+01
    -12.664  0.2965E-02  0.4000E+01
    -12.557  0.2628E-01  0.4003E+01
    -12.450  0.6244E-01  0.4010E+01
    -12.343 -0.2706E+00  0.3981E+01
    -12.237 -0.7815E+00  0.3897E+01
    -12.130  0.2674E+01  0.4183E+01
    -12.023  0.9360E+01  0.5183E+01
    -11.916  0.7449E+01  0.5978E+01
    -11.809  0.8757E-01  0.5987E+01
    -11.703  0.9820E+00  0.6092E+01
    -11.596  0.8520E+01  0.7002E+01
    -11.489  0.8568E+01  0.7917E+01
    -11.382  0.1670E+01  0.8096E+01
    -11.275 -0.8157E+00  0.8008E+01
    -11.169 -0.1632E+00  0.7991E+01
    -11.062  0.7918E-01  0.7999E+01
    -10.955  0.8055E-01  0.8008E+01
    -10.848 -0.9107E-01  0.7998E+01
    -10.741 -0.7819E+00  0.7915E+01
    -10.635  0.9514E+00  0.8016E+01
    -10.528  0.7688E+01  0.8837E+01
    -10.421  0.9256E+01  0.9826E+01
    -10.314  0.2591E+01  0.1010E+02
    -10.208 -0.7884E+00  0.1002E+02
    -10.101 -0.2638E+00  0.9990E+01
     -9.994  0.6275E-01  0.9997E+01
     -9.887  0.2585E-01  0.1000E+02
     -9.780  0.2891E-02  0.1000E+02
     -9.674  0.1437E-03  0.1000E+02
     -9.567  0.3554E-05  0.1000E+02
     -9.460  0.4585E-07  0.1000E+02
     -9.353  0.3161E-09  0.1000E+02
     -9.246  0.1183E-11  0.1000E+02
     -9.140  0.2079E-14  0.1000E+02
     -9.033  0.0000E+00  0.1000E+02
     -8.926  0.0000E+00  0.1000E+02
     -8.819  0.7947E-27  0.1000E+02
     -8.712  0.3618E-23  0.1000E+02
     -8.606  0.9167E-20  0.1000E+02
     -8.499  0.1289E-16  0.1000E+02
     -8.392  0.1002E-13  0.1000E+02
     -8.285  0.4294E-11  0.1000E+02
     -8.179  0.1004E-08  0.1000E+02
     -8.072  0.1269E-06  0.1000E+02
     -7.965  0.8539E-05  0.1000E+02
     -7.858  0.2973E-03  0.1000E+02
     -7.751  0.5069E-02  0.1000E+02
     -7.645  0.3659E-01  0.1000E+02
     -7.538  0.4633E-01  0.1001E+02
     -7.431 -0.4332E+00  0.9963E+01
     -7.324 -0.5688E+00  0.9902E+01
     -7.217  0.4140E+01  0.1034E+02
     -7.111  0.9956E+01  0.1141E+02
     -7.004  0.6252E+01  0.1208E+02
     -6.897 -0.4796E+00  0.1202E+02
     -6.790 -0.2128E+01  0.1180E+02
     -6.683  0.5360E+01  0.1237E+02
     -6.577  0.1856E+02  0.1435E+02
     -6.470  0.1514E+02  0.1597E+02
     -6.363 -0.1544E+00  0.1595E+02
     -6.256 -0.6345E+00  0.1588E+02
     -6.150  0.2137E+02  0.1817E+02
     -6.043  0.3916E+02  0.2235E+02
     -5.936  0.3195E+02  0.2576E+02
     -5.829  0.2729E+02  0.2867E+02
     -5.722  0.5021E+02  0.3404E+02
     -5.616  0.1148E+03  0.4630E+02
     -5.509  0.2250E+03  0.7033E+02
     -5.402  0.2906E+03  0.1014E+03
     -5.295  0.2472E+03  0.1278E+03
     -5.188  0.2101E+03  0.1502E+03
     -5.082  0.2731E+03  0.1794E+03
     -4.975  0.3549E+03  0.2173E+03
     -4.868  0.3379E+03  0.2533E+03
     -4.761  0.2898E+03  0.2843E+03
     -4.654  0.3435E+03  0.3210E+03
     -4.548  0.4163E+03  0.3654E+03
     -4.441  0.4194E+03  0.4102E+03
     -4.334  0.4718E+03  0.4606E+03
     -4.227  0.5496E+03  0.5193E+03
     -4.120  0.4160E+03  0.5637E+03
     -4.014  0.1443E+03  0.5791E+03
     -3.907  0.1978E+02  0.5812E+03
     -3.800  0.2706E+02  0.5841E+03
     -3.693  0.2714E+02  0.5870E+03
     -3.587  0.1227E+02  0.5883E+03
     -3.480  0.1535E+02  0.5900E+03
     -3.373  0.1758E+02  0.5919E+03
     -3.266  0.7972E+01  0.5927E+03
     -3.159  0.1002E+02  0.5938E+03
     -3.053  0.4183E+02  0.5983E+03
     -2.946  0.6302E+02  0.6050E+03
     -2.839  0.3668E+02  0.6089E+03
     -2.732  0.8061E+01  0.6098E+03
     -2.625  0.3576E+01  0.6101E+03
     -2.519  0.1696E+02  0.6120E+03
     -2.412  0.2353E+02  0.6145E+03
     -2.305  0.1343E+02  0.6159E+03
     -2.198  0.1582E+02  0.6176E+03
     -2.091  0.3234E+02  0.6210E+03
     -1.985  0.3930E+02  0.6252E+03
     -1.878  0.4172E+02  0.6297E+03
     -1.771  0.3994E+02  0.6340E+03
     -1.664  0.3485E+02  0.6377E+03
     -1.558  0.3668E+02  0.6416E+03
     -1.451  0.3138E+02  0.6450E+03
     -1.344  0.2150E+02  0.6472E+03
     -1.237  0.1780E+02  0.6491E+03
     -1.130  0.1629E+02  0.6509E+03
     -1.024  0.3267E+02  0.6544E+03
     -0.917  0.6229E+02  0.6610E+03
     -0.810  0.5984E+02  0.6674E+03
     -0.703  0.3152E+02  0.6708E+03
     -0.596  0.1095E+02  0.6720E+03
     -0.490  0.1309E+01  0.6721E+03
     -0.383 -0.8987E+00  0.6720E+03
     -0.276 -0.1389E+00  0.6720E+03
     -0.169  0.1193E+00  0.6720E+03
     -0.062  0.3856E-01  0.6720E+03
      0.044  0.4353E-02  0.6720E+03
      0.151  0.2279E-03  0.6720E+03
      0.258  0.6023E-05  0.6720E+03
      0.365  0.8346E-07  0.6720E+03
      0.471  0.6195E-09  0.6720E+03
      0.578  0.2491E-11  0.6720E+03
      0.685  0.6238E-14  0.6720E+03
      0.792  0.0000E+00  0.6720E+03
      0.899  0.0000E+00  0.6720E+03
      1.005  0.0000E+00  0.6720E+03
      1.112  0.0000E+00  0.6720E+03
      1.219  0.0000E+00  0.6720E+03
      1.326  0.0000E+00  0.6720E+03
