  57  57   0   0
  0.4736842E+03  0.3000000E-08  0.3000000E-08  0.3000000E-08  0.5000000E-15
  1.000000000000000E-004
  CAR 
 6_Pd100_top_free_z(O)                   
      1.34946468    -30.70390258  301     -4.12592015      1.00000000
    -30.704  0.0000E+00  0.0000E+00
    -30.597  0.0000E+00  0.0000E+00
    -30.490  0.0000E+00  0.0000E+00
    -30.383  0.3529E-27  0.3770E-28
    -30.277  0.1703E-23  0.1820E-24
    -30.170  0.4574E-20  0.4888E-21
    -30.063  0.6813E-17  0.7284E-18
    -29.956  0.5610E-14  0.6001E-15
    -29.849  0.2546E-11  0.2726E-12
    -29.742  0.6304E-09  0.6763E-10
    -29.635  0.8447E-07  0.9093E-08
    -29.529  0.6030E-05  0.6534E-06
    -29.422  0.2234E-03  0.2452E-04
    -29.315  0.4076E-02  0.4600E-03
    -29.208  0.3213E-01  0.3893E-02
    -29.101  0.5527E-01  0.9798E-02
    -28.994 -0.3643E+00 -0.2913E-01
    -28.888 -0.6828E+00 -0.1021E+00
    -28.781  0.3517E+01  0.2737E+00
    -28.674  0.9721E+01  0.1312E+01
    -28.567  0.6748E+01  0.2033E+01
    -28.460  0.3625E+00  0.2072E+01
    -28.353 -0.7062E+00  0.1997E+01
    -28.246 -0.3556E-01  0.1993E+01
    -28.140  0.5509E-01  0.1999E+01
    -28.033  0.1131E-01  0.2000E+01
    -27.926  0.8725E-03  0.2000E+01
    -27.819  0.3182E-04  0.2000E+01
    -27.712  0.5915E-06  0.2000E+01
    -27.605  0.5801E-08  0.2000E+01
    -27.499  0.3061E-10  0.2000E+01
    -27.392  0.8728E-13  0.2000E+01
    -27.285  0.0000E+00  0.2000E+01
    -27.178  0.0000E+00  0.2000E+01
    -27.071  0.0000E+00  0.2000E+01
    -26.964  0.0000E+00  0.2000E+01
    -26.857  0.0000E+00  0.2000E+01
    -26.751  0.0000E+00  0.2000E+01
    -26.644  0.0000E+00  0.2000E+01
    -26.537  0.0000E+00  0.2000E+01
    -26.430  0.0000E+00  0.2000E+01
    -26.323  0.0000E+00  0.2000E+01
    -26.216  0.0000E+00  0.2000E+01
    -26.110  0.0000E+00  0.2000E+01
    -26.003  0.0000E+00  0.2000E+01
    -25.896  0.0000E+00  0.2000E+01
    -25.789  0.0000E+00  0.2000E+01
    -25.682  0.0000E+00  0.2000E+01
    -25.575  0.0000E+00  0.2000E+01
    -25.469  0.0000E+00  0.2000E+01
    -25.362  0.0000E+00  0.2000E+01
    -25.255  0.0000E+00  0.2000E+01
    -25.148  0.0000E+00  0.2000E+01
    -25.041  0.0000E+00  0.2000E+01
    -24.934  0.0000E+00  0.2000E+01
    -24.827  0.0000E+00  0.2000E+01
    -24.721  0.0000E+00  0.2000E+01
    -24.614  0.0000E+00  0.2000E+01
    -24.507  0.0000E+00  0.2000E+01
    -24.400  0.0000E+00  0.2000E+01
    -24.293  0.0000E+00  0.2000E+01
    -24.186  0.0000E+00  0.2000E+01
    -24.080  0.0000E+00  0.2000E+01
    -23.973  0.0000E+00  0.2000E+01
    -23.866  0.0000E+00  0.2000E+01
    -23.759  0.0000E+00  0.2000E+01
    -23.652  0.0000E+00  0.2000E+01
    -23.545  0.0000E+00  0.2000E+01
    -23.438  0.0000E+00  0.2000E+01
    -23.332  0.0000E+00  0.2000E+01
    -23.225  0.0000E+00  0.2000E+01
    -23.118  0.0000E+00  0.2000E+01
    -23.011  0.0000E+00  0.2000E+01
    -22.904  0.0000E+00  0.2000E+01
    -22.797  0.0000E+00  0.2000E+01
    -22.691  0.0000E+00  0.2000E+01
    -22.584  0.0000E+00  0.2000E+01
    -22.477  0.0000E+00  0.2000E+01
    -22.370  0.0000E+00  0.2000E+01
    -22.263  0.0000E+00  0.2000E+01
    -22.156  0.0000E+00  0.2000E+01
    -22.049  0.0000E+00  0.2000E+01
    -21.943  0.0000E+00  0.2000E+01
    -21.836  0.0000E+00  0.2000E+01
    -21.729  0.0000E+00  0.2000E+01
    -21.622  0.0000E+00  0.2000E+01
    -21.515  0.0000E+00  0.2000E+01
    -21.408  0.0000E+00  0.2000E+01
    -21.302  0.0000E+00  0.2000E+01
    -21.195  0.0000E+00  0.2000E+01
    -21.088  0.0000E+00  0.2000E+01
    -20.981  0.0000E+00  0.2000E+01
    -20.874  0.0000E+00  0.2000E+01
    -20.767  0.0000E+00  0.2000E+01
    -20.661  0.0000E+00  0.2000E+01
    -20.554  0.0000E+00  0.2000E+01
    -20.447  0.0000E+00  0.2000E+01
    -20.340  0.0000E+00  0.2000E+01
    -20.233  0.0000E+00  0.2000E+01
    -20.126  0.0000E+00  0.2000E+01
    -20.019  0.0000E+00  0.2000E+01
    -19.913  0.0000E+00  0.2000E+01
    -19.806  0.0000E+00  0.2000E+01
    -19.699  0.0000E+00  0.2000E+01
    -19.592  0.0000E+00  0.2000E+01
    -19.485  0.0000E+00  0.2000E+01
    -19.378  0.0000E+00  0.2000E+01
    -19.272  0.0000E+00  0.2000E+01
    -19.165  0.0000E+00  0.2000E+01
    -19.058  0.0000E+00  0.2000E+01
    -18.951  0.0000E+00  0.2000E+01
    -18.844  0.0000E+00  0.2000E+01
    -18.737  0.0000E+00  0.2000E+01
    -18.630  0.0000E+00  0.2000E+01
    -18.524  0.0000E+00  0.2000E+01
    -18.417  0.0000E+00  0.2000E+01
    -18.310  0.0000E+00  0.2000E+01
    -18.203  0.0000E+00  0.2000E+01
    -18.096  0.0000E+00  0.2000E+01
    -17.989  0.0000E+00  0.2000E+01
    -17.883  0.0000E+00  0.2000E+01
    -17.776  0.0000E+00  0.2000E+01
    -17.669  0.0000E+00  0.2000E+01
    -17.562  0.0000E+00  0.2000E+01
    -17.455  0.0000E+00  0.2000E+01
    -17.348  0.0000E+00  0.2000E+01
    -17.241  0.0000E+00  0.2000E+01
    -17.135  0.0000E+00  0.2000E+01
    -17.028  0.0000E+00  0.2000E+01
    -16.921  0.0000E+00  0.2000E+01
    -16.814  0.0000E+00  0.2000E+01
    -16.707  0.0000E+00  0.2000E+01
    -16.600  0.0000E+00  0.2000E+01
    -16.494  0.0000E+00  0.2000E+01
    -16.387  0.0000E+00  0.2000E+01
    -16.280  0.0000E+00  0.2000E+01
    -16.173  0.0000E+00  0.2000E+01
    -16.066  0.0000E+00  0.2000E+01
    -15.959  0.0000E+00  0.2000E+01
    -15.853  0.3978E-27  0.2000E+01
    -15.746  0.1905E-23  0.2000E+01
    -15.639  0.5074E-20  0.2000E+01
    -15.532  0.7497E-17  0.2000E+01
    -15.425  0.6123E-14  0.2000E+01
    -15.318  0.2756E-11  0.2000E+01
    -15.211  0.6769E-09  0.2000E+01
    -15.105  0.8993E-07  0.2000E+01
    -14.998  0.6364E-05  0.2000E+01
    -14.891  0.2336E-03  0.2000E+01
    -14.784  0.4218E-02  0.2000E+01
    -14.677  0.3281E-01  0.2004E+01
    -14.570  0.5409E-01  0.2010E+01
    -14.464 -0.3750E+00  0.1970E+01
    -14.357 -0.6673E+00  0.1898E+01
    -14.250  0.3615E+01  0.2285E+01
    -14.143  0.9756E+01  0.3327E+01
    -14.036  0.6650E+01  0.4037E+01
    -13.929  0.3111E+00  0.4071E+01
    -13.822 -0.6971E+00  0.3996E+01
    -13.716 -0.3073E-01  0.3993E+01
    -13.609  0.5464E-01  0.3999E+01
    -13.502  0.1489E-01  0.4000E+01
    -13.395  0.3215E-01  0.4004E+01
    -13.288  0.5661E-01  0.4010E+01
    -13.181 -0.3514E+00  0.3972E+01
    -13.075 -0.7004E+00  0.3897E+01
    -12.968  0.3400E+01  0.4261E+01
    -12.861  0.9675E+01  0.5294E+01
    -12.754  0.6867E+01  0.6028E+01
    -12.647  0.4278E+00  0.6074E+01
    -12.540 -0.7048E+00  0.5999E+01
    -12.433  0.1501E-01  0.6000E+01
    -12.327  0.8075E-02  0.6001E+01
    -12.220 -0.7153E+00  0.5925E+01
    -12.113  0.4928E+00  0.5977E+01
    -12.006  0.6982E+01  0.6723E+01
    -11.899  0.9627E+01  0.7752E+01
    -11.792  0.3286E+01  0.8103E+01
    -11.686 -0.7163E+00  0.8026E+01
    -11.579 -0.3381E+00  0.7990E+01
    -11.472  0.6794E-01  0.7997E+01
    -11.365  0.8320E-01  0.8006E+01
    -11.258 -0.1528E-01  0.8005E+01
    -11.151 -0.6726E+00  0.7933E+01
    -11.045  0.1850E+00  0.7953E+01
    -10.938  0.6396E+01  0.8636E+01
    -10.831  0.9836E+01  0.9687E+01
    -10.724  0.3866E+01  0.1010E+02
    -10.617 -0.6230E+00  0.1003E+02
    -10.510 -0.4028E+00  0.9990E+01
    -10.403  0.5069E-01  0.9996E+01
    -10.297  0.3459E-01  0.9999E+01
    -10.190  0.4603E-02  0.1000E+02
    -10.083  0.2617E-03  0.1000E+02
     -9.976  0.7302E-05  0.1000E+02
     -9.869  0.1055E-06  0.1000E+02
     -9.762  0.8118E-09  0.1000E+02
     -9.656  0.3377E-11  0.1000E+02
     -9.549  0.8313E-14  0.1000E+02
     -9.442  0.9814E-25  0.1000E+02
     -9.335  0.3225E-21  0.1000E+02
     -9.228  0.5887E-18  0.1000E+02
     -9.121  0.5948E-15  0.1000E+02
     -9.014  0.3322E-12  0.1000E+02
     -8.908  0.1012E-09  0.1000E+02
     -8.801  0.1678E-07  0.1000E+02
     -8.694  0.1492E-05  0.1000E+02
     -8.587  0.6953E-04  0.1000E+02
     -8.480  0.1633E-02  0.1000E+02
     -8.373  0.1764E-01  0.1000E+02
     -8.267  0.6314E-01  0.1001E+02
     -8.160 -0.1333E+00  0.9995E+01
     -8.053 -0.8084E+00  0.9908E+01
     -7.946  0.1357E+01  0.1005E+02
     -7.839  0.8195E+01  0.1093E+02
     -7.732  0.8885E+01  0.1188E+02
     -7.625  0.2074E+01  0.1210E+02
     -7.519 -0.8125E+00  0.1201E+02
     -7.412 -0.1899E+00  0.1199E+02
     -7.305  0.1329E+00  0.1201E+02
     -7.198 -0.7241E-01  0.1200E+02
     -7.091 -0.7585E+00  0.1192E+02
     -6.984  0.9442E+00  0.1202E+02
     -6.878  0.7782E+01  0.1285E+02
     -6.771  0.1284E+02  0.1422E+02
     -6.664  0.1097E+02  0.1539E+02
     -6.557  0.9600E+01  0.1642E+02
     -6.450  0.1498E+02  0.1802E+02
     -6.343  0.1357E+02  0.1947E+02
     -6.236  0.1156E+02  0.2071E+02
     -6.130  0.2577E+02  0.2346E+02
     -6.023  0.3090E+02  0.2676E+02
     -5.916  0.2422E+02  0.2935E+02
     -5.809  0.3564E+02  0.3316E+02
     -5.702  0.6691E+02  0.4030E+02
     -5.595  0.1291E+03  0.5410E+02
     -5.489  0.2326E+03  0.7895E+02
     -5.382  0.2912E+03  0.1101E+03
     -5.275  0.2428E+03  0.1360E+03
     -5.168  0.2030E+03  0.1577E+03
     -5.061  0.2672E+03  0.1862E+03
     -4.954  0.3474E+03  0.2234E+03
     -4.848  0.3292E+03  0.2585E+03
     -4.741  0.2895E+03  0.2895E+03
     -4.634  0.3521E+03  0.3271E+03
     -4.527  0.4213E+03  0.3721E+03
     -4.420  0.4208E+03  0.4171E+03
     -4.313  0.4796E+03  0.4683E+03
     -4.206  0.5430E+03  0.5263E+03
     -4.100  0.3835E+03  0.5673E+03
     -3.993  0.1184E+03  0.5799E+03
     -3.886  0.1081E+02  0.5811E+03
     -3.779  0.2207E+02  0.5834E+03
     -3.672  0.2234E+02  0.5858E+03
     -3.565  0.1927E+02  0.5879E+03
     -3.459  0.2595E+02  0.5907E+03
     -3.352  0.1381E+02  0.5921E+03
     -3.245  0.2388E+01  0.5924E+03
     -3.138  0.1373E+02  0.5939E+03
     -3.031  0.4681E+02  0.5989E+03
     -2.924  0.6024E+02  0.6053E+03
     -2.817  0.2667E+02  0.6081E+03
     -2.711 -0.2169E+01  0.6079E+03
     -2.604  0.1138E+02  0.6091E+03
     -2.497  0.3710E+02  0.6131E+03
     -2.390  0.2572E+02  0.6158E+03
     -2.283  0.3891E+01  0.6163E+03
     -2.176  0.1541E+02  0.6179E+03
     -2.070  0.3589E+02  0.6217E+03
     -1.963  0.4096E+02  0.6261E+03
     -1.856  0.4028E+02  0.6304E+03
     -1.749  0.3277E+02  0.6339E+03
     -1.642  0.3896E+02  0.6381E+03
     -1.535  0.4914E+02  0.6433E+03
     -1.428  0.2533E+02  0.6460E+03
     -1.322  0.6270E+01  0.6467E+03
     -1.215  0.1375E+02  0.6482E+03
     -1.108  0.1984E+02  0.6503E+03
     -1.001  0.4112E+02  0.6547E+03
     -0.894  0.6899E+02  0.6621E+03
     -0.787  0.5758E+02  0.6682E+03
     -0.681  0.2611E+02  0.6710E+03
     -0.574  0.8429E+01  0.6719E+03
     -0.467  0.1510E+01  0.6721E+03
     -0.360 -0.5975E+00  0.6720E+03
     -0.253 -0.1539E+00  0.6720E+03
     -0.146  0.9630E-01  0.6720E+03
     -0.040  0.3541E-01  0.6720E+03
      0.067  0.4203E-02  0.6720E+03
      0.174  0.2259E-03  0.6720E+03
      0.281  0.6058E-05  0.6720E+03
      0.388  0.8463E-07  0.6720E+03
      0.495  0.6309E-09  0.6720E+03
      0.602  0.2544E-11  0.6720E+03
      0.708  0.6235E-14  0.6720E+03
      0.815  0.0000E+00  0.6720E+03
      0.922  0.0000E+00  0.6720E+03
      1.029  0.0000E+00  0.6720E+03
      1.136  0.0000E+00  0.6720E+03
      1.243  0.0000E+00  0.6720E+03
      1.349  0.0000E+00  0.6720E+03
