  57  57   0   0
  0.4736842E+03  0.3000000E-08  0.3000000E-08  0.3000000E-08  0.5000000E-15
  1.000000000000000E-004
  CAR 
 6_Pd100_top_free_z(O)                   
      1.37424273    -31.21228960  301     -4.12171531      1.00000000
    -31.212  0.0000E+00  0.0000E+00
    -31.104  0.0000E+00  0.0000E+00
    -30.995  0.0000E+00  0.0000E+00
    -30.886  0.5374E-27  0.5837E-28
    -30.778  0.2885E-23  0.3135E-24
    -30.669  0.8449E-20  0.9180E-21
    -30.561  0.1345E-16  0.1462E-17
    -30.452  0.1160E-13  0.1262E-14
    -30.343  0.5401E-11  0.5879E-12
    -30.235  0.1343E-08  0.1465E-09
    -30.126  0.1768E-06  0.1935E-07
    -30.017  0.1209E-04  0.1333E-05
    -29.909  0.4169E-03  0.4662E-04
    -29.800  0.6802E-02  0.7855E-03
    -29.692  0.4396E-01  0.5561E-02
    -29.583  0.1942E-01  0.7670E-02
    -29.474 -0.5725E+00 -0.5452E-01
    -29.366 -0.1593E+00 -0.7182E-01
    -29.257  0.5670E+01  0.5440E+00
    -29.148  0.9947E+01  0.1624E+01
    -29.040  0.4342E+01  0.2096E+01
    -28.931 -0.5437E+00  0.2037E+01
    -28.823 -0.4285E+00  0.1990E+01
    -28.714  0.4841E-01  0.1996E+01
    -28.605  0.3454E-01  0.1999E+01
    -28.497  0.4427E-02  0.2000E+01
    -28.388  0.2363E-03  0.2000E+01
    -28.280  0.6058E-05  0.2000E+01
    -28.171  0.7885E-07  0.2000E+01
    -28.062  0.5356E-09  0.2000E+01
    -27.954  0.1930E-11  0.2000E+01
    -27.845  0.4088E-14  0.2000E+01
    -27.736  0.0000E+00  0.2000E+01
    -27.628  0.0000E+00  0.2000E+01
    -27.519  0.0000E+00  0.2000E+01
    -27.411  0.0000E+00  0.2000E+01
    -27.302  0.0000E+00  0.2000E+01
    -27.193  0.0000E+00  0.2000E+01
    -27.085  0.0000E+00  0.2000E+01
    -26.976  0.0000E+00  0.2000E+01
    -26.867  0.0000E+00  0.2000E+01
    -26.759  0.0000E+00  0.2000E+01
    -26.650  0.0000E+00  0.2000E+01
    -26.542  0.0000E+00  0.2000E+01
    -26.433  0.0000E+00  0.2000E+01
    -26.324  0.0000E+00  0.2000E+01
    -26.216  0.0000E+00  0.2000E+01
    -26.107  0.0000E+00  0.2000E+01
    -25.998  0.0000E+00  0.2000E+01
    -25.890  0.0000E+00  0.2000E+01
    -25.781  0.0000E+00  0.2000E+01
    -25.673  0.0000E+00  0.2000E+01
    -25.564  0.0000E+00  0.2000E+01
    -25.455  0.0000E+00  0.2000E+01
    -25.347  0.0000E+00  0.2000E+01
    -25.238  0.0000E+00  0.2000E+01
    -25.129  0.0000E+00  0.2000E+01
    -25.021  0.0000E+00  0.2000E+01
    -24.912  0.0000E+00  0.2000E+01
    -24.804  0.0000E+00  0.2000E+01
    -24.695  0.0000E+00  0.2000E+01
    -24.586  0.0000E+00  0.2000E+01
    -24.478  0.0000E+00  0.2000E+01
    -24.369  0.0000E+00  0.2000E+01
    -24.260  0.0000E+00  0.2000E+01
    -24.152  0.0000E+00  0.2000E+01
    -24.043  0.0000E+00  0.2000E+01
    -23.935  0.0000E+00  0.2000E+01
    -23.826  0.0000E+00  0.2000E+01
    -23.717  0.0000E+00  0.2000E+01
    -23.609  0.0000E+00  0.2000E+01
    -23.500  0.0000E+00  0.2000E+01
    -23.392  0.0000E+00  0.2000E+01
    -23.283  0.0000E+00  0.2000E+01
    -23.174  0.0000E+00  0.2000E+01
    -23.066  0.0000E+00  0.2000E+01
    -22.957  0.0000E+00  0.2000E+01
    -22.848  0.0000E+00  0.2000E+01
    -22.740  0.0000E+00  0.2000E+01
    -22.631  0.0000E+00  0.2000E+01
    -22.523  0.0000E+00  0.2000E+01
    -22.414  0.0000E+00  0.2000E+01
    -22.305  0.0000E+00  0.2000E+01
    -22.197  0.0000E+00  0.2000E+01
    -22.088  0.0000E+00  0.2000E+01
    -21.979  0.0000E+00  0.2000E+01
    -21.871  0.0000E+00  0.2000E+01
    -21.762  0.0000E+00  0.2000E+01
    -21.654  0.0000E+00  0.2000E+01
    -21.545  0.0000E+00  0.2000E+01
    -21.436  0.0000E+00  0.2000E+01
    -21.328  0.0000E+00  0.2000E+01
    -21.219  0.0000E+00  0.2000E+01
    -21.110  0.0000E+00  0.2000E+01
    -21.002  0.0000E+00  0.2000E+01
    -20.893  0.0000E+00  0.2000E+01
    -20.785  0.0000E+00  0.2000E+01
    -20.676  0.0000E+00  0.2000E+01
    -20.567  0.0000E+00  0.2000E+01
    -20.459  0.0000E+00  0.2000E+01
    -20.350  0.0000E+00  0.2000E+01
    -20.241  0.0000E+00  0.2000E+01
    -20.133  0.0000E+00  0.2000E+01
    -20.024  0.0000E+00  0.2000E+01
    -19.916  0.0000E+00  0.2000E+01
    -19.807  0.0000E+00  0.2000E+01
    -19.698  0.0000E+00  0.2000E+01
    -19.590  0.0000E+00  0.2000E+01
    -19.481  0.0000E+00  0.2000E+01
    -19.373  0.0000E+00  0.2000E+01
    -19.264  0.0000E+00  0.2000E+01
    -19.155  0.0000E+00  0.2000E+01
    -19.047  0.0000E+00  0.2000E+01
    -18.938  0.0000E+00  0.2000E+01
    -18.829  0.0000E+00  0.2000E+01
    -18.721  0.0000E+00  0.2000E+01
    -18.612  0.0000E+00  0.2000E+01
    -18.504  0.0000E+00  0.2000E+01
    -18.395  0.0000E+00  0.2000E+01
    -18.286  0.0000E+00  0.2000E+01
    -18.178  0.0000E+00  0.2000E+01
    -18.069  0.0000E+00  0.2000E+01
    -17.960  0.0000E+00  0.2000E+01
    -17.852  0.0000E+00  0.2000E+01
    -17.743  0.0000E+00  0.2000E+01
    -17.635  0.0000E+00  0.2000E+01
    -17.526  0.0000E+00  0.2000E+01
    -17.417  0.0000E+00  0.2000E+01
    -17.309  0.0000E+00  0.2000E+01
    -17.200  0.0000E+00  0.2000E+01
    -17.091  0.0000E+00  0.2000E+01
    -16.983  0.0000E+00  0.2000E+01
    -16.874  0.0000E+00  0.2000E+01
    -16.766  0.0000E+00  0.2000E+01
    -16.657  0.0000E+00  0.2000E+01
    -16.548  0.0000E+00  0.2000E+01
    -16.440  0.0000E+00  0.2000E+01
    -16.331  0.0000E+00  0.2000E+01
    -16.222  0.0000E+00  0.2000E+01
    -16.114  0.0000E+00  0.2000E+01
    -16.005  0.0000E+00  0.2000E+01
    -15.897  0.0000E+00  0.2000E+01
    -15.788  0.0000E+00  0.2000E+01
    -15.679  0.0000E+00  0.2000E+01
    -15.571  0.0000E+00  0.2000E+01
    -15.462  0.0000E+00  0.2000E+01
    -15.354  0.2304E-25  0.2000E+01
    -15.245  0.9538E-22  0.2000E+01
    -15.136  0.2152E-18  0.2000E+01
    -15.028  0.2635E-15  0.2000E+01
    -14.919  0.1744E-12  0.2000E+01
    -14.810  0.6218E-10  0.2000E+01
    -14.702  0.1179E-07  0.2000E+01
    -14.593  0.1175E-05  0.2000E+01
    -14.485  0.6019E-04  0.2000E+01
    -14.376  0.1522E-02  0.2000E+01
    -14.267  0.1731E-01  0.2002E+01
    -14.159  0.6302E-01  0.2009E+01
    -14.050 -0.1464E+00  0.1993E+01
    -13.941 -0.8113E+00  0.1905E+01
    -13.833  0.1666E+01  0.2086E+01
    -13.724  0.8590E+01  0.3019E+01
    -13.616  0.8405E+01  0.3932E+01
    -13.507  0.1481E+01  0.4093E+01
    -13.398 -0.8058E+00  0.4005E+01
    -13.290 -0.1282E+00  0.3991E+01
    -13.181  0.6225E-01  0.3998E+01
    -13.072  0.1622E-01  0.4000E+01
    -12.964  0.1386E-02  0.4000E+01
    -12.855  0.5347E-04  0.4000E+01
    -12.747  0.1020E-05  0.4000E+01
    -12.638  0.1004E-07  0.4000E+01
    -12.529  0.3671E-08  0.4000E+01
    -12.421  0.4589E-06  0.4000E+01
    -12.312  0.3021E-04  0.4000E+01
    -12.203  0.9999E-03  0.4000E+01
    -12.095  0.1557E-01  0.4002E+01
    -11.986  0.9422E-01  0.4012E+01
    -11.878  0.1123E-01  0.4013E+01
    -11.769 -0.1236E+01  0.3879E+01
    -11.660  0.2137E-01  0.3881E+01
    -11.552  0.1221E+02  0.5207E+01
    -11.443  0.1972E+02  0.7350E+01
    -11.335  0.7831E+01  0.8200E+01
    -11.226 -0.1259E+01  0.8063E+01
    -11.117 -0.7640E+00  0.7980E+01
    -11.009  0.1085E+00  0.7992E+01
    -10.900  0.6323E-01  0.7999E+01
    -10.791  0.7646E-02  0.8000E+01
    -10.683  0.3903E-03  0.8000E+01
    -10.574  0.9616E-05  0.8000E+01
    -10.466  0.1205E-06  0.8000E+01
    -10.357  0.7890E-09  0.8000E+01
    -10.248  0.3111E-11  0.8000E+01
    -10.140  0.1207E-09  0.8000E+01
    -10.031  0.2120E-07  0.8000E+01
     -9.922  0.1953E-05  0.8000E+01
     -9.814  0.9220E-04  0.8000E+01
     -9.705  0.2133E-02  0.8000E+01
     -9.597  0.2175E-01  0.8003E+01
     -9.488  0.6390E-01  0.8010E+01
     -9.379 -0.2204E+00  0.7986E+01
     -9.271 -0.8013E+00  0.7899E+01
     -9.162  0.2397E+01  0.8159E+01
     -9.053  0.9181E+01  0.9156E+01
     -8.945  0.7661E+01  0.9988E+01
     -8.836  0.8679E+00  0.1008E+02
     -8.728 -0.7623E+00  0.1000E+02
     -8.619 -0.6982E-01  0.9992E+01
     -8.510  0.5804E-01  0.9999E+01
     -8.402  0.1266E-01  0.1000E+02
     -8.293  0.9750E-03  0.1000E+02
     -8.184  0.3446E-04  0.1000E+02
     -8.076  0.6062E-06  0.1000E+02
     -7.967  0.5507E-08  0.1000E+02
     -7.859  0.2638E-10  0.1000E+02
     -7.750  0.5699E-11  0.1000E+02
     -7.641  0.1394E-08  0.1000E+02
     -7.533  0.1826E-06  0.1000E+02
     -7.424  0.1243E-04  0.1000E+02
     -7.315  0.4265E-03  0.1000E+02
     -7.207  0.6918E-02  0.1000E+02
     -7.098  0.4436E-01  0.1001E+02
     -6.990  0.1783E-01  0.1001E+02
     -6.881 -0.5782E+00  0.9945E+01
     -6.772 -0.1369E+00  0.9930E+01
     -6.664  0.5757E+01  0.1056E+02
     -6.555  0.1010E+02  0.1165E+02
     -6.447  0.4152E+01  0.1210E+02
     -6.338 -0.2696E+01  0.1181E+02
     -6.229  0.1687E+01  0.1199E+02
     -6.121  0.2200E+02  0.1438E+02
     -6.012  0.2625E+02  0.1724E+02
     -5.903  0.8895E+01  0.1820E+02
     -5.795  0.1927E+02  0.2029E+02
     -5.686  0.5792E+02  0.2659E+02
     -5.578  0.1378E+03  0.4155E+02
     -5.469  0.2646E+03  0.7029E+02
     -5.360  0.3055E+03  0.1035E+03
     -5.252  0.2302E+03  0.1285E+03
     -5.143  0.2105E+03  0.1513E+03
     -5.034  0.3009E+03  0.1840E+03
     -4.926  0.3699E+03  0.2242E+03
     -4.817  0.3230E+03  0.2593E+03
     -4.709  0.2981E+03  0.2917E+03
     -4.600  0.3872E+03  0.3337E+03
     -4.491  0.4292E+03  0.3803E+03
     -4.383  0.4288E+03  0.4269E+03
     -4.274  0.5255E+03  0.4840E+03
     -4.165  0.5414E+03  0.5428E+03
     -4.057  0.2988E+03  0.5753E+03
     -3.948  0.5674E+02  0.5814E+03
     -3.840  0.1404E+02  0.5829E+03
     -3.731  0.3249E+02  0.5865E+03
     -3.622  0.1406E+02  0.5880E+03
     -3.514  0.1219E+02  0.5893E+03
     -3.405  0.2852E+02  0.5924E+03
     -3.296  0.1482E+02  0.5940E+03
     -3.188 -0.4565E+01  0.5935E+03
     -3.079  0.1829E+02  0.5955E+03
     -2.971  0.6404E+02  0.6025E+03
     -2.862  0.5794E+02  0.6088E+03
     -2.753  0.1342E+02  0.6102E+03
     -2.645 -0.1361E+01  0.6101E+03
     -2.536  0.1906E+02  0.6122E+03
     -2.428  0.2850E+02  0.6152E+03
     -2.319  0.1367E+02  0.6167E+03
     -2.210  0.1014E+02  0.6178E+03
     -2.102  0.2388E+02  0.6204E+03
     -1.993  0.3618E+02  0.6244E+03
     -1.884  0.4599E+02  0.6294E+03
     -1.776  0.5006E+02  0.6348E+03
     -1.667  0.4288E+02  0.6394E+03
     -1.559  0.4358E+02  0.6442E+03
     -1.450  0.4071E+02  0.6486E+03
     -1.341  0.1404E+02  0.6501E+03
     -1.233  0.4235E+01  0.6506E+03
     -1.124  0.2119E+02  0.6529E+03
     -1.015  0.3923E+02  0.6572E+03
     -0.907  0.5741E+02  0.6634E+03
     -0.798  0.4787E+02  0.6686E+03
     -0.690  0.1907E+02  0.6707E+03
     -0.581  0.8363E+01  0.6716E+03
     -0.472  0.4336E+01  0.6720E+03
     -0.364 -0.4010E-01  0.6720E+03
     -0.255 -0.4255E+00  0.6720E+03
     -0.146  0.4684E-01  0.6720E+03
     -0.038  0.4613E-01  0.6720E+03
      0.071  0.6885E-02  0.6720E+03
      0.179  0.4186E-03  0.6720E+03
      0.288  0.1211E-04  0.6720E+03
      0.397  0.1768E-06  0.6720E+03
      0.505  0.1344E-08  0.6720E+03
      0.614  0.5401E-11  0.6720E+03
      0.723  0.1227E-13  0.6720E+03
      0.831  0.0000E+00  0.6720E+03
      0.940  0.0000E+00  0.6720E+03
      1.048  0.0000E+00  0.6720E+03
      1.157  0.0000E+00  0.6720E+03
      1.266  0.0000E+00  0.6720E+03
      1.374  0.0000E+00  0.6720E+03
