       N       E                     dE             d eps       ncg     rms          rms(c)
DAV:   1     0.439319861701E+04    0.43932E+04   -0.10050E+05   688   0.815E+02
DAV:   2     0.202673269564E+04   -0.23665E+04   -0.21265E+04  1208   0.105E+02
DAV:   3     0.242248445875E+03   -0.17845E+04   -0.16741E+04   992   0.922E+01
DAV:   4    -0.134892508604E+03   -0.37714E+03   -0.32333E+03   840   0.439E+01
DAV:   5    -0.180533255383E+03   -0.45641E+02   -0.37545E+02  1064   0.147E+01    0.153E+01
RMM:   6    -0.179914767081E+03    0.61849E+00   -0.55886E+01   723   0.895E+00    0.223E+01
RMM:   7    -0.183358288074E+03   -0.34435E+01   -0.19682E+01   856   0.464E+00    0.245E+01
RMM:   8    -0.184111181466E+03   -0.75289E+00   -0.68856E+00   790   0.341E+00    0.263E+01
RMM:   9    -0.182477703874E+03    0.16335E+01   -0.57387E+00   730   0.325E+00    0.235E+01
RMM:  10    -0.180167359725E+03    0.23103E+01   -0.34956E+00   729   0.267E+00    0.218E+01
RMM:  11    -0.178693082862E+03    0.14743E+01   -0.23382E+00   730   0.221E+00    0.181E+01
RMM:  12    -0.178276587087E+03    0.41650E+00   -0.15634E+00   722   0.181E+00    0.173E+01
RMM:  13    -0.177436506714E+03    0.84008E+00   -0.11498E+00   721   0.158E+00    0.143E+01
RMM:  14    -0.177163869233E+03    0.27264E+00   -0.14469E+00   704   0.179E+00    0.205E+01
RMM:  15    -0.177059479523E+03    0.10439E+00   -0.12096E+00   710   0.162E+00    0.257E+01
RMM:  16    -0.176207296152E+03    0.85218E+00   -0.85144E-01   705   0.130E+00    0.885E+00
RMM:  17    -0.175956853700E+03    0.25044E+00   -0.74200E-01   704   0.128E+00    0.903E+00
RMM:  18    -0.176153305986E+03   -0.19645E+00   -0.37135E-01   714   0.923E-01    0.131E+01
RMM:  19    -0.175793698848E+03    0.35961E+00   -0.38427E-01   702   0.968E-01    0.856E+00
RMM:  20    -0.175872562283E+03   -0.78863E-01   -0.27325E-01   712   0.811E-01    0.908E+00
RMM:  21    -0.175923987803E+03   -0.51426E-01   -0.26323E-01   716   0.801E-01    0.106E+01
RMM:  22    -0.175561988662E+03    0.36200E+00   -0.25792E-01   696   0.815E-01    0.661E+00
RMM:  23    -0.175409427735E+03    0.15256E+00   -0.20781E-01   694   0.726E-01    0.501E+00
RMM:  24    -0.175321333657E+03    0.88094E-01   -0.90642E-02   693   0.482E-01    0.336E+00
RMM:  25    -0.175278422793E+03    0.42911E-01   -0.53905E-02   695   0.355E-01    0.284E+00
RMM:  26    -0.175255379405E+03    0.23043E-01   -0.37244E-02   692   0.295E-01    0.232E+00
RMM:  27    -0.175242642048E+03    0.12737E-01   -0.22907E-02   693   0.239E-01    0.193E+00
RMM:  28    -0.175238839543E+03    0.38025E-02   -0.23358E-02   692   0.240E-01    0.202E+00
RMM:  29    -0.175235861809E+03    0.29777E-02   -0.20110E-02   692   0.229E-01    0.213E+00
RMM:  30    -0.175224705192E+03    0.11157E-01   -0.16187E-02   692   0.207E-01    0.177E+00
RMM:  31    -0.175213080486E+03    0.11625E-01   -0.97059E-03   693   0.168E-01    0.125E+00
RMM:  32    -0.175210913919E+03    0.21666E-02   -0.60936E-03   690   0.126E-01    0.104E+00
RMM:  33    -0.175207201973E+03    0.37119E-02   -0.39446E-03   690   0.102E-01    0.773E-01
RMM:  34    -0.175206169096E+03    0.10329E-02   -0.30658E-03   690   0.908E-02    0.640E-01
RMM:  35    -0.175206427866E+03   -0.25877E-03   -0.20116E-03   689   0.694E-02    0.486E-01
RMM:  36    -0.175207954263E+03   -0.15264E-02   -0.13291E-03   687   0.595E-02    0.614E-01
RMM:  37    -0.175208984039E+03   -0.10298E-02   -0.12649E-03   687   0.542E-02    0.449E-01
RMM:  38    -0.175210253926E+03   -0.12699E-02   -0.92075E-04   685   0.471E-02    0.235E-01
RMM:  39    -0.175212000036E+03   -0.17461E-02   -0.54653E-04   595   0.366E-02    0.224E-01
RMM:  40    -0.175214937539E+03   -0.29375E-02   -0.59958E-04   620   0.355E-02    0.299E-01
RMM:  41    -0.175217629632E+03   -0.26921E-02   -0.55574E-04   576   0.354E-02    0.197E-01
RMM:  42    -0.175219308742E+03   -0.16791E-02   -0.36064E-04   467   0.287E-02    0.169E-01
RMM:  43    -0.175222514788E+03   -0.32060E-02   -0.55483E-04   564   0.307E-02    0.196E-01
RMM:  44    -0.175224473163E+03   -0.19584E-02   -0.37468E-04   471   0.261E-02    0.174E-01
RMM:  45    -0.175225534996E+03   -0.10618E-02   -0.18522E-04   422   0.189E-02    0.136E-01
RMM:  46    -0.175227116809E+03   -0.15818E-02   -0.17507E-04   413   0.174E-02    0.776E-02
RMM:  47    -0.175227722609E+03   -0.60580E-03   -0.84282E-05   413   0.123E-02    0.634E-02
RMM:  48    -0.175229010528E+03   -0.12879E-02   -0.72808E-05   411   0.111E-02    0.785E-02
RMM:  49    -0.175229854644E+03   -0.84412E-03   -0.49883E-05   399   0.967E-03    0.438E-02
RMM:  50    -0.175230642877E+03   -0.78823E-03   -0.38943E-05   400   0.827E-03    0.492E-02
RMM:  51    -0.175231913498E+03   -0.12706E-02   -0.50299E-05   404   0.855E-03    0.327E-02
RMM:  52    -0.175232264116E+03   -0.35062E-03   -0.26815E-05   381   0.623E-03    0.265E-02
RMM:  53    -0.175232769944E+03   -0.50583E-03   -0.25084E-05   376   0.582E-03    0.263E-02
RMM:  54    -0.175232970670E+03   -0.20073E-03   -0.98684E-06   219   0.443E-03    0.118E-02
RMM:  55    -0.175233181710E+03   -0.21104E-03   -0.55840E-06   188   0.424E-03    0.178E-02
RMM:  56    -0.175233405474E+03   -0.22376E-03   -0.31417E-06   137   0.388E-03    0.117E-02
RMM:  57    -0.175233545515E+03   -0.14004E-03   -0.45954E-06   151   0.395E-03    0.828E-03
RMM:  58    -0.175233721679E+03   -0.17616E-03   -0.72471E-06   200   0.401E-03    0.896E-03
RMM:  59    -0.175233871608E+03   -0.14993E-03   -0.64872E-06   169   0.351E-03    0.494E-03
RMM:  60    -0.175233977387E+03   -0.10578E-03   -0.20318E-06   114   0.323E-03    0.591E-03
RMM:  61    -0.175234102539E+03   -0.12515E-03   -0.48943E-06   142   0.358E-03    0.575E-03
RMM:  62    -0.175234156604E+03   -0.54065E-04   -0.38347E-06   123   0.350E-03
   1 F= -.17523416E+03 E0= -.17522586E+03  d E =-.331737E-01
