   57   57    1    1
  0.4736842E+03  0.3000000E-08  0.3000000E-08  0.3000000E-08  0.5000000E-15
  1.000000000000000E-004
  CAR 
 6_Pd100_top_free_z(O)                   
    560      1    336
 
  0.0000000E+00  0.0000000E+00  0.0000000E+00  0.1000000E+01
    1      -28.635993   1.000000
    2      -13.401017   1.000000
    3      -11.111390   1.000000
    4      -11.042147   1.000000
    5      -10.431627   1.000000
    6       -6.644676   1.000000
    7       -6.139419   1.000000
    8       -6.132276   1.000000
    9       -6.126067   1.000000
   10       -5.987105   1.000000
   11       -5.961743   1.000000
   12       -5.820807   1.000000
   13       -5.806595   1.000000
   14       -5.797454   1.000000
   15       -5.739972   1.000000
   16       -5.686951   1.000000
   17       -5.680400   1.000000
   18       -5.679178   1.000000
   19       -5.677610   1.000000
   20       -5.630902   1.000000
   21       -5.622574   1.000000
   22       -5.604708   1.000000
   23       -5.592824   1.000000
   24       -5.592143   1.000000
   25       -5.588331   1.000000
   26       -5.578946   1.000000
   27       -5.573372   1.000000
   28       -5.539247   1.000000
   29       -5.527556   1.000000
   30       -5.524737   1.000000
   31       -5.519180   1.000000
   32       -5.512805   1.000000
   33       -5.511886   1.000000
   34       -5.510306   1.000000
   35       -5.507412   1.000000
   36       -5.505225   1.000000
   37       -5.494667   1.000000
   38       -5.481030   1.000000
   39       -5.471269   1.000000
   40       -5.470391   1.000000
   41       -5.465225   1.000000
   42       -5.461410   1.000000
   43       -5.460859   1.000000
   44       -5.460286   1.000000
   45       -5.459997   1.000000
   46       -5.455873   1.000000
   47       -5.441852   1.000000
   48       -5.429771   1.000000
   49       -5.422591   1.000000
   50       -5.421225   1.000000
   51       -5.419627   1.000000
   52       -5.408980   1.000000
   53       -5.400398   1.000000
   54       -5.400149   1.000000
   55       -5.388362   1.000000
   56       -5.376626   1.000000
   57       -5.366588   1.000000
   58       -5.343422   1.000000
   59       -5.338524   1.000000
   60       -5.313456   1.000000
   61       -5.310902   1.000000
   62       -5.308915   1.000000
   63       -5.308531   1.000000
   64       -5.307198   1.000000
   65       -5.298707   1.000000
   66       -5.295172   1.000000
   67       -5.292330   1.000000
   68       -5.284167   1.000000
   69       -5.264187   1.000000
   70       -5.248012   1.000000
   71       -5.232630   1.000000
   72       -5.190352   1.000000
   73       -5.176363   1.000000
   74       -5.175956   1.000000
   75       -5.173703   1.000000
   76       -5.171375   1.000000
   77       -5.169657   1.000000
   78       -5.168580   1.000000
   79       -5.165724   1.000000
   80       -5.145435   1.000000
   81       -5.140666   1.000000
   82       -5.136864   1.000000
   83       -5.122806   1.000000
   84       -5.116565   1.000000
   85       -5.114542   1.000000
   86       -5.105454   1.000000
   87       -5.104284   1.000000
   88       -5.094119   1.000000
   89       -5.089005   1.000000
   90       -5.081619   1.000000
   91       -5.066476   1.000000
   92       -5.051241   1.000000
   93       -5.049652   1.000000
   94       -5.045705   1.000000
   95       -5.044679   1.000000
   96       -5.040623   1.000000
   97       -5.040149   1.000000
   98       -5.029251   1.000000
   99       -5.020396   1.000000
  100       -5.012346   1.000000
  101       -5.009766   1.000000
  102       -5.007432   1.000000
  103       -4.997948   1.000000
  104       -4.997564   1.000000
  105       -4.997141   1.000000
  106       -4.994284   1.000000
  107       -4.988715   1.000000
  108       -4.982562   1.000000
  109       -4.978620   1.000000
  110       -4.972746   1.000000
  111       -4.972335   1.000000
  112       -4.971007   1.000000
  113       -4.959879   1.000000
  114       -4.957291   1.000000
  115       -4.952270   0.999999
  116       -4.949779   0.999999
  117       -4.940675   0.999999
  118       -4.939591   0.999999
  119       -4.921805   0.999999
  120       -4.913662   0.999998
  121       -4.909905   0.999998
  122       -4.909739   0.999998
  123       -4.907941   0.999998
  124       -4.904612   0.999997
  125       -4.894210   0.999996
  126       -4.893357   0.999996
  127       -4.880702   0.999994
  128       -4.869091   0.999992
  129       -4.862399   0.999990
  130       -4.858771   0.999988
  131       -4.835921   0.999977
  132       -4.831322   0.999973
  133       -4.829082   0.999971
  134       -4.824367   0.999967
  135       -4.822880   0.999966
  136       -4.822668   0.999966
  137       -4.810041   0.999951
  138       -4.791450   0.999919
  139       -4.790128   0.999916
  140       -4.781875   0.999895
  141       -4.770814   0.999861
  142       -4.759906   0.999817
  143       -4.754469   0.999791
  144       -4.745556   0.999742
  145       -4.730073   0.999630
  146       -4.729796   0.999628
  147       -4.727825   0.999611
  148       -4.722068   0.999558
  149       -4.707583   0.999398
  150       -4.700153   0.999298
  151       -4.695298   0.999226
  152       -4.692754   0.999186
  153       -4.674447   0.998846
  154       -4.672240   0.998799
  155       -4.670856   0.998768
  156       -4.667336   0.998689
  157       -4.665119   0.998636
  158       -4.664820   0.998629
  159       -4.659106   0.998487
  160       -4.654269   0.998360
  161       -4.647702   0.998175
  162       -4.644165   0.998070
  163       -4.642843   0.998030
  164       -4.642506   0.998020
  165       -4.641668   0.997994
  166       -4.636872   0.997843
  167       -4.636526   0.997832
  168       -4.628328   0.997558
  169       -4.624417   0.997422
  170       -4.621899   0.997333
  171       -4.619178   0.997235
  172       -4.615401   0.997098
  173       -4.608948   0.996858
  174       -4.589215   0.996122
  175       -4.588625   0.996100
  176       -4.584622   0.995958
  177       -4.583483   0.995918
  178       -4.579717   0.995790
  179       -4.578883   0.995762
  180       -4.574040   0.995608
  181       -4.565997   0.995382
  182       -4.557783   0.995203
  183       -4.546301   0.995071
  184       -4.545075   0.995067
  185       -4.543503   0.995065
  186       -4.543326   0.995065
  187       -4.542777   0.995065
  188       -4.542226   0.995066
  189       -4.539896   0.995075
  190       -4.538282   0.995086
  191       -4.506930   0.996416
  192       -4.502387   0.996828
  193       -4.501097   0.996957
  194       -4.497773   0.997315
  195       -4.494606   0.997693
  196       -4.482681   0.999450
  197       -4.474161   1.001055
  198       -4.472728   1.001355
  199       -4.466549   1.002754
  200       -4.461966   1.003901
  201       -4.459102   1.004666
  202       -4.456558   1.005378
  203       -4.452320   1.006628
  204       -4.450558   1.007172
  205       -4.447403   1.008182
  206       -4.444043   1.009306
  207       -4.442250   1.009927
  208       -4.438535   1.011257
  209       -4.436597   1.011976
  210       -4.430983   1.014143
  211       -4.422120   1.017814
  212       -4.410563   1.022986
  213       -4.402129   1.026957
  214       -4.400180   1.027890
  215       -4.398301   1.028792
  216       -4.393966   1.030878
  217       -4.392125   1.031765
  218       -4.391670   1.031983
  219       -4.389434   1.033057
  220       -4.382554   1.036322
  221       -4.380453   1.037300
  222       -4.363001   1.044752
  223       -4.357473   1.046728
  224       -4.343052   1.050513
  225       -4.341443   1.050784
  226       -4.332235   1.051615
  227       -4.329077   1.051587
  228       -4.328461   1.051562
  229       -4.327789   1.051526
  230       -4.324915   1.051279
  231       -4.320786   1.050644
  232       -4.320574   1.050602
  233       -4.317583   1.049910
  234       -4.316426   1.049591
  235       -4.315055   1.049174
  236       -4.313050   1.048488
  237       -4.312209   1.048172
  238       -4.307866   1.046273
  239       -4.306926   1.045800
  240       -4.303960   1.044161
  241       -4.299103   1.040973
  242       -4.291174   1.034334
  243       -4.289756   1.032949
  244       -4.287476   1.030592
  245       -4.282035   1.024303
  246       -4.280134   1.021877
  247       -4.274584   1.014097
  248       -4.273575   1.012569
  249       -4.273543   1.012520
  250       -4.272665   1.011161
  251       -4.258169   0.984688
  252       -4.249508   0.965120
  253       -4.249248   0.964489
  254       -4.247229   0.959493
  255       -4.241875   0.945484
  256       -4.240773   0.942464
  257       -4.240574   0.941913
  258       -4.239971   0.940234
  259       -4.234683   0.924917
  260       -4.234319   0.923822
  261       -4.228824   0.906684
  262       -4.227804   0.903374
  263       -4.227077   0.900993
  264       -4.226476   0.899008
  265       -4.224035   0.890806
  266       -4.211907   0.846791
  267       -4.211271   0.844338
  268       -4.209625   0.837919
  269       -4.208626   0.833979
  270       -4.205615   0.821895
  271       -4.204968   0.819260
  272       -4.192829   0.767314
  273       -4.185723   0.734885
  274       -4.184626   0.729756
  275       -4.179001   0.703003
  276       -4.174428   0.680713
  277       -4.172937   0.673352
  278       -4.169468   0.656062
  279       -4.160225   0.609004
  280       -4.159008   0.602720
  281       -4.158866   0.601987
  282       -4.145316   0.531042
  283       -4.133676   0.469520
  284       -4.122264   0.409658
  285       -4.121225   0.404260
  286       -4.116435   0.379548
  287       -4.109620   0.344957
  288       -4.100999   0.302391
  289       -4.032443   0.042494
  290       -3.960696  -0.050066
  291       -3.894851  -0.035626
  292       -3.815959  -0.003653
  293       -3.813231  -0.002970
  294       -3.799787  -0.000088
  295       -3.487461   0.000081
  296       -3.485874   0.000078
  297       -3.372900   0.000003
  298       -3.055238   0.000000
  299       -3.051852   0.000000
  300       -3.017723   0.000000
  301       -3.011449   0.000000
  302       -3.004629   0.000000
  303       -3.003336   0.000000
  304       -2.924321   0.000000
  305       -2.818129   0.000000
  306       -2.568167   0.000000
  307       -2.539384   0.000000
  308       -2.510759   0.000000
  309       -2.227422   0.000000
  310       -2.129179   0.000000
  311       -2.113866   0.000000
  312       -2.109594   0.000000
  313       -1.954430   0.000000
  314       -1.939874   0.000000
  315       -1.879698   0.000000
  316       -1.858439   0.000000
  317       -1.840584   0.000000
  318       -1.741540   0.000000
  319       -1.723734   0.000000
  320       -1.672513   0.000000
  321       -1.633125   0.000000
  322       -1.544362   0.000000
  323       -1.499366   0.000000
  324       -1.409978   0.000000
  325       -1.342626   0.000000
  326       -1.076227   0.000000
  327       -1.033594   0.000000
  328       -1.009404   0.000000
  329       -0.970224   0.000000
  330       -0.951792   0.000000
  331       -0.932363   0.000000
  332       -0.924185   0.000000
  333       -0.920730   0.000000
  334       -0.860669   0.000000
  335       -0.786149   0.000000
  336       -0.583306   0.000000
