<?xml version="1.0" encoding="ISO-8859-1"?>
<modeling>
 <generator>
  <i name="program" type="string">vasp </i>
  <i name="version" type="string">5.4.4.18Apr17-6-g9f103f2a35  </i>
  <i name="subversion" type="string">(build Sep 03 2018 23:53:05) complex            parallel </i>
  <i name="platform" type="string">LinuxIFC </i>
  <i name="date" type="string">2021 12 02 </i>
  <i name="time" type="string">22:04:47 </i>
 </generator>
 <incar>
  <i type="string" name="SYSTEM"> 6_Pd100_top_free_z(O)</i>
  <i type="int" name="ISTART">     0</i>
  <i type="string" name="PREC">normal   			! encut=max(enmax), ngx,y,z</i>
  <i type="string" name="ALGO"> Fast     			! Mix RMM-DIIS and Dav</i>
  <i type="logical" name="ADDGRID"> F  </i>
  <i type="int" name="ISPIN">     1</i>
  <i type="int" name="ICHARG">     2</i>
  <i type="int" name="NELM">   100</i>
  <i type="int" name="NELMIN">     6</i>
  <i type="int" name="IBRION">     2</i>
  <i name="EDIFF">      0.00010000</i>
  <i name="EDIFFG">     -0.05000000</i>
  <i type="int" name="NSW">     0</i>
  <i type="int" name="ISIF">     2</i>
  <i type="int" name="ISYM">     2</i>
  <i name="ENCUT">    400.00000000</i>
  <i type="string" name="LREAL"> Auto     			! Auto or A projection done</i>
  <i type="int" name="ISMEAR">     2</i>
  <i name="SIGMA">      0.20000000</i>
  <i type="logical" name="LWAVE"> F  </i>
  <i type="logical" name="LCHARG"> F  </i>
  <v type="int" name="KPOINT_BSE">    -1     0     0     0</v>
  <i type="int" name="MAXMEM"> 10000</i>
  <i type="int" name="NELM">   100</i>
  <i type="string" name="GGA"> RP         			! Revised PBE</i>
 </incar>
 <structure name="primitive_cell" >
  <crystal>
   <varray name="basis" >
    <v>      30.00000000       0.00000000       0.00000000 </v>
    <v>       0.00000000      30.00000000       0.00000000 </v>
    <v>       0.00000000       0.00000000      30.00000000 </v>
   </varray>
   <i name="volume">  27000.00000000 </i>
   <varray name="rec_basis" >
    <v>       0.03333333       0.00000000       0.00000000 </v>
    <v>       0.00000000       0.03333333       0.00000000 </v>
    <v>       0.00000000       0.00000000       0.03333333 </v>
   </varray>
  </crystal>
  <varray name="positions" >
   <v>       0.44576020       0.32826710       0.41691983 </v>
   <v>      -0.44576020       0.32826710       0.41691983 </v>
   <v>      -0.50000000       0.38250690       0.34021317 </v>
   <v>      -0.50000000       0.27609440      -0.50000000 </v>
   <v>       0.38804720       0.38804720       0.34167483 </v>
   <v>      -0.50000000       0.38416601      -0.50000000 </v>
   <v>       0.44208300       0.44208300       0.41809300 </v>
   <v>       0.38317830       0.38317830      -0.50000000 </v>
   <v>      -0.44208300       0.44208300       0.41809300 </v>
   <v>       0.44576020       0.32826710      -0.41691977 </v>
   <v>       0.32826705       0.44576024       0.41691983 </v>
   <v>      -0.38804720       0.38804720       0.34167483 </v>
   <v>      -0.38317830       0.38317830      -0.50000000 </v>
   <v>      -0.50000000      -0.50000000       0.33478917 </v>
   <v>      -0.50000000      -0.50000000      -0.50000000 </v>
   <v>      -0.44576020       0.32826710      -0.41691977 </v>
   <v>       0.38250685      -0.49999995       0.34021317 </v>
   <v>       0.44208300       0.44208300      -0.41809297 </v>
   <v>       0.38416599      -0.49999998      -0.50000000 </v>
   <v>      -0.44208300       0.44208300      -0.41809297 </v>
   <v>       0.44208298      -0.44208298       0.41809300 </v>
   <v>       0.32826705       0.44576024      -0.41691977 </v>
   <v>      -0.50000000       0.38250690      -0.34021320 </v>
   <v>       0.32826712      -0.44576022       0.41691983 </v>
   <v>      -0.38250685      -0.49999995       0.34021317 </v>
   <v>      -0.32826705       0.44576024       0.41691983 </v>
   <v>       0.27609443       0.49999998      -0.50000000 </v>
   <v>       0.38804720       0.38804720      -0.34167487 </v>
   <v>      -0.38416599      -0.49999998      -0.50000000 </v>
   <v>      -0.44208298      -0.44208298       0.41809300 </v>
   <v>       0.44208298      -0.44208298      -0.41809297 </v>
   <v>      -0.38804720       0.38804720      -0.34167487 </v>
   <v>       0.38804722      -0.38804722       0.34167483 </v>
   <v>       0.38250685      -0.49999995      -0.34021320 </v>
   <v>       0.32826712      -0.44576022      -0.41691977 </v>
   <v>      -0.32826705       0.44576024      -0.41691977 </v>
   <v>       0.50000000      -0.38250681       0.34021317 </v>
   <v>      -0.50000000      -0.38416596      -0.50000000 </v>
   <v>      -0.44208298      -0.44208298      -0.41809297 </v>
   <v>      -0.50000000      -0.50000000      -0.33478913 </v>
   <v>       0.38317828      -0.38317828      -0.50000000 </v>
   <v>      -0.32826712      -0.44576022       0.41691983 </v>
   <v>      -0.27609443       0.49999998      -0.50000000 </v>
   <v>      -0.38804722      -0.38804722       0.34167483 </v>
   <v>      -0.38250685      -0.49999995      -0.34021320 </v>
   <v>       0.44576027      -0.32826707       0.41691983 </v>
   <v>       0.42254087      -0.48194407      -0.29718563 </v>
   <v>      -0.38317828      -0.38317828      -0.50000000 </v>
   <v>      -0.32826712      -0.44576022      -0.41691977 </v>
   <v>      -0.44576027      -0.32826707       0.41691983 </v>
   <v>       0.40917187      -0.47882773      -0.26218107 </v>
   <v>       0.38804722      -0.38804722      -0.34167487 </v>
   <v>      -0.50000000      -0.38250681      -0.34021320 </v>
   <v>       0.44576027      -0.32826707      -0.41691977 </v>
   <v>      -0.44576027      -0.32826707      -0.41691977 </v>
   <v>      -0.50000000      -0.27609445       0.50000000 </v>
   <v>      -0.38804722      -0.38804722      -0.34167487 </v>
  </varray>
 </structure>
 <varray name="primitive_index" >
  <v type="int" >        1 </v>
  <v type="int" >        3 </v>
  <v type="int" >        5 </v>
  <v type="int" >        7 </v>
  <v type="int" >       15 </v>
  <v type="int" >       29 </v>
  <v type="int" >       28 </v>
  <v type="int" >       34 </v>
  <v type="int" >       21 </v>
  <v type="int" >       19 </v>
  <v type="int" >       22 </v>
  <v type="int" >       11 </v>
  <v type="int" >       36 </v>
  <v type="int" >       38 </v>
  <v type="int" >       52 </v>
  <v type="int" >       24 </v>
  <v type="int" >       32 </v>
  <v type="int" >       44 </v>
  <v type="int" >       48 </v>
  <v type="int" >       42 </v>
  <v type="int" >       43 </v>
  <v type="int" >       40 </v>
  <v type="int" >        6 </v>
  <v type="int" >        4 </v>
  <v type="int" >       30 </v>
  <v type="int" >       26 </v>
  <v type="int" >        8 </v>
  <v type="int" >       16 </v>
  <v type="int" >       49 </v>
  <v type="int" >       47 </v>
  <v type="int" >       53 </v>
  <v type="int" >       12 </v>
  <v type="int" >       13 </v>
  <v type="int" >       33 </v>
  <v type="int" >       25 </v>
  <v type="int" >       45 </v>
  <v type="int" >       50 </v>
  <v type="int" >       55 </v>
  <v type="int" >       54 </v>
  <v type="int" >       39 </v>
  <v type="int" >       37 </v>
  <v type="int" >        2 </v>
  <v type="int" >        9 </v>
  <v type="int" >       17 </v>
  <v type="int" >       31 </v>
  <v type="int" >       27 </v>
  <v type="int" >       56 </v>
  <v type="int" >       35 </v>
  <v type="int" >       20 </v>
  <v type="int" >       23 </v>
  <v type="int" >       57 </v>
  <v type="int" >       14 </v>
  <v type="int" >       51 </v>
  <v type="int" >       46 </v>
  <v type="int" >       41 </v>
  <v type="int" >       10 </v>
  <v type="int" >       18 </v>
 </varray>
 <kpoints>
  <generation param="Monkhorst-Pack">
   <v type="int" name="divisions">       1        1        1 </v>
   <v name="usershift">      0.00000000       0.00000000       0.00000000 </v>
   <v name="genvec1">      1.00000000       0.00000000       0.00000000 </v>
   <v name="genvec2">      0.00000000       1.00000000       0.00000000 </v>
   <v name="genvec3">      0.00000000       0.00000000       1.00000000 </v>
   <v name="shift">      0.00000000       0.00000000       0.00000000 </v>
  </generation>
  <varray name="kpointlist" >
   <v>       0.00000000       0.00000000       0.00000000 </v>
  </varray>
  <varray name="weights" >
   <v>       1.00000000 </v>
  </varray>
 </kpoints>
 <parameters>
  <separator name="general" >
   <i type="string" name="SYSTEM">6_Pd100_top_free_z(O)</i>
   <i type="logical" name="LCOMPAT"> F  </i>
  </separator>
  <separator name="electronic" >
   <i type="string" name="PREC">normal</i>
   <i name="ENMAX">    400.00000000</i>
   <i name="ENAUG">    644.87300000</i>
   <i name="EDIFF">      0.00010000</i>
   <i type="int" name="IALGO">    68</i>
   <i type="int" name="IWAVPR">    10</i>
   <i type="int" name="NBANDS">   336</i>
   <i name="NELECT">    560.00000000</i>
   <i type="int" name="TURBO">     0</i>
   <i type="int" name="IRESTART">     0</i>
   <i type="int" name="NREBOOT">     0</i>
   <i type="int" name="NMIN">     0</i>
   <i name="EREF">      0.00000000</i>
   <separator name="electronic smearing" >
    <i type="int" name="ISMEAR">     2</i>
    <i name="SIGMA">      0.20000000</i>
    <i name="KSPACING">      0.50000000</i>
    <i type="logical" name="KGAMMA"> T  </i>
   </separator>
   <separator name="electronic projectors" >
    <i type="logical" name="LREAL"> T  </i>
    <v name="ROPT">     -0.00050000     -0.00050000     -0.00050000</v>
    <i type="int" name="LMAXPAW">  -100</i>
    <i type="int" name="LMAXMIX">     2</i>
    <i type="logical" name="NLSPLINE"> F  </i>
   </separator>
   <separator name="electronic startup" >
    <i type="int" name="ISTART">     0</i>
    <i type="int" name="ICHARG">     2</i>
    <i type="int" name="INIWAV">     1</i>
   </separator>
   <separator name="electronic spin" >
    <i type="int" name="ISPIN">     1</i>
    <i type="logical" name="LNONCOLLINEAR"> F  </i>
    <v name="MAGMOM">      1.00000000      1.00000000      1.00000000      1.00000000      1.00000000      1.00000000      1.00000000      1.00000000      1.00000000      1.00000000      1.00000000      1.00000000      1.00000000      1.00000000      1.00000000      1.00000000      1.00000000      1.00000000      1.00000000      1.00000000
      1.00000000      1.00000000      1.00000000      1.00000000      1.00000000      1.00000000      1.00000000      1.00000000      1.00000000      1.00000000      1.00000000      1.00000000      1.00000000      1.00000000      1.00000000      1.00000000      1.00000000      1.00000000      1.00000000      1.00000000
      1.00000000      1.00000000      1.00000000      1.00000000      1.00000000      1.00000000      1.00000000      1.00000000      1.00000000      1.00000000      1.00000000      1.00000000      1.00000000      1.00000000      1.00000000      1.00000000      1.00000000</v>
    <i name="NUPDOWN">     -1.00000000</i>
    <i type="logical" name="LSORBIT"> F  </i>
    <v name="SAXIS">      0.00000000      0.00000000      1.00000000</v>
    <i type="logical" name="LSPIRAL"> F  </i>
    <v name="QSPIRAL">      0.00000000      0.00000000      0.00000000</v>
    <i type="logical" name="LZEROZ"> F  </i>
   </separator>
   <separator name="electronic exchange-correlation" >
    <i type="logical" name="LASPH"> F  </i>
    <i type="logical" name="LMETAGGA"> F  </i>
   </separator>
   <separator name="electronic convergence" >
    <i type="int" name="NELM">   100</i>
    <i type="int" name="NELMDL">    -5</i>
    <i type="int" name="NELMIN">     6</i>
    <i name="ENINI">    400.00000000</i>
    <separator name="electronic convergence detail" >
     <i type="logical" name="LDIAG"> T  </i>
     <i type="logical" name="LSUBROT"> F  </i>
     <i name="WEIMIN">      0.00000000</i>
     <i name="EBREAK">      0.00000007</i>
     <i name="DEPER">      0.30000000</i>
     <i type="int" name="NRMM">     4</i>
     <i name="TIME">      0.40000000</i>
    </separator>
   </separator>
   <separator name="electronic mixer" >
    <i name="AMIX">      0.40000000</i>
    <i name="BMIX">      1.00000000</i>
    <i name="AMIN">      0.10000000</i>
    <i name="AMIX_MAG">      1.60000000</i>
    <i name="BMIX_MAG">      1.00000000</i>
    <separator name="electronic mixer details" >
     <i type="int" name="IMIX">     4</i>
     <i type="logical" name="MIXFIRST"> F  </i>
     <i type="int" name="MAXMIX">   -45</i>
     <i name="WC">    100.00000000</i>
     <i type="int" name="INIMIX">     1</i>
     <i type="int" name="MIXPRE">     1</i>
     <i type="int" name="MREMOVE">     5</i>
    </separator>
   </separator>
   <separator name="electronic dipolcorrection" >
    <i type="logical" name="LDIPOL"> F  </i>
    <i type="logical" name="LMONO"> F  </i>
    <i type="int" name="IDIPOL">     0</i>
    <i name="EPSILON">      1.00000000</i>
    <v name="DIPOL">   -100.00000000   -100.00000000   -100.00000000</v>
    <i name="EFIELD">      0.00000000</i>
   </separator>
  </separator>
  <separator name="grids" >
   <i type="int" name="NGX">   150</i>
   <i type="int" name="NGY">   150</i>
   <i type="int" name="NGZ">   150</i>
   <i type="int" name="NGXF">   300</i>
   <i type="int" name="NGYF">   300</i>
   <i type="int" name="NGZF">   300</i>
   <i type="logical" name="ADDGRID"> F  </i>
  </separator>
  <separator name="ionic" >
   <i type="int" name="NSW">     0</i>
   <i type="int" name="IBRION">    -1</i>
   <i type="int" name="MDALGO">     0</i>
   <i type="int" name="ISIF">     2</i>
   <i name="PSTRESS">      0.00000000</i>
   <i name="EDIFFG">     -0.05000000</i>
   <i type="int" name="NFREE">     1</i>
   <i name="POTIM">      0.50000000</i>
   <i name="SMASS">     -3.00000000</i>
   <i name="SCALEE">      1.00000000</i>
  </separator>
  <separator name="ionic md" >
   <i name="TEBEG">      0.00010000</i>
   <i name="TEEND">      0.00010000</i>
   <i type="int" name="NBLOCK">     1</i>
   <i type="int" name="KBLOCK">     1</i>
   <i type="int" name="NPACO">   256</i>
   <i name="APACO">     16.00000000</i>
  </separator>
  <separator name="symmetry" >
   <i type="int" name="ISYM">     2</i>
   <i name="SYMPREC">      0.00001000</i>
  </separator>
  <separator name="dos" >
   <i type="int" name="LORBIT">     0</i>
   <v name="RWIGS">     -1.00000000     -1.00000000     -1.00000000</v>
   <i type="int" name="NEDOS">   301</i>
   <i name="EMIN">     10.00000000</i>
   <i name="EMAX">    -10.00000000</i>
   <i name="EFERMI">      0.00000000</i>
  </separator>
  <separator name="writing" >
   <i type="int" name="NWRITE">     2</i>
   <i type="logical" name="LWAVE"> F  </i>
   <i type="logical" name="LDOWNSAMPLE"> F  </i>
   <i type="logical" name="LCHARG"> F  </i>
   <i type="logical" name="LPARD"> F  </i>
   <i type="logical" name="LVTOT"> F  </i>
   <i type="logical" name="LVHAR"> F  </i>
   <i type="logical" name="LELF"> F  </i>
   <i type="logical" name="LOPTICS"> F  </i>
   <v name="STM">      0.00000000      0.00000000      0.00000000      0.00000000      0.00000000      0.00000000      0.00000000</v>
  </separator>
  <separator name="performance" >
   <i type="int" name="NPAR">     1</i>
   <i type="int" name="NSIM">     4</i>
   <i type="int" name="NBLK">    -1</i>
   <i type="logical" name="LPLANE"> T  </i>
   <i type="logical" name="LSCALAPACK"> T  </i>
   <i type="logical" name="LSCAAWARE"> F  </i>
   <i type="logical" name="LSCALU"> F  </i>
   <i type="logical" name="LASYNC"> F  </i>
   <i type="logical" name="LORBITALREAL"> F  </i>
  </separator>
  <separator name="miscellaneous" >
   <i type="int" name="IDIOT">     3</i>
   <i type="int" name="ISPECIAL">     0</i>
   <i type="logical" name="LMUSIC"> F  </i>
   <v name="POMASS">    106.42000000     12.01100000     16.00000000</v>
   <v name="DARWINR">      0.00000000      0.00000000      0.00000000</v>
   <v name="DARWINV">      1.00000000      1.00000000      1.00000000</v>
   <i type="logical" name="LCORR"> T  </i>
  </separator>
  <i type="logical" name="GGA_COMPAT"> T  </i>
  <i type="logical" name="LBERRY"> F  </i>
  <i type="int" name="ICORELEVEL">     0</i>
  <i type="logical" name="LDAU"> F  </i>
  <i type="int" name="I_CONSTRAINED_M">     0</i>
  <separator name="electronic exchange-correlation" >
   <i type="string" name="GGA">RP</i>
   <i type="int" name="VOSKOWN">     0</i>
   <i type="logical" name="LHFCALC"> F  </i>
   <i type="string" name="PRECFOCK"></i>
   <i type="logical" name="LSYMGRAD"> F  </i>
   <i type="logical" name="LHFONE"> F  </i>
   <i type="logical" name="LRHFCALC"> F  </i>
   <i type="logical" name="LTHOMAS"> F  </i>
   <i type="logical" name="LMODELHF"> F  </i>
   <i name="ENCUT4O">     -1.00000000</i>
   <i type="int" name="EXXOEP">     0</i>
   <i type="int" name="FOURORBIT">     0</i>
   <i name="AEXX">      0.00000000</i>
   <i name="HFALPHA">      0.00000000</i>
   <i name="MCALPHA">      0.00000000</i>
   <i name="ALDAX">      1.00000000</i>
   <i name="AGGAX">      1.00000000</i>
   <i name="ALDAC">      1.00000000</i>
   <i name="AGGAC">      1.00000000</i>
   <i type="int" name="NKREDX">     1</i>
   <i type="int" name="NKREDY">     1</i>
   <i type="int" name="NKREDZ">     1</i>
   <i type="logical" name="SHIFTRED"> F  </i>
   <i type="logical" name="ODDONLY"> F  </i>
   <i type="logical" name="EVENONLY"> F  </i>
   <i type="int" name="LMAXFOCK">     0</i>
   <i type="int" name="NMAXFOCKAE">     0</i>
   <i type="logical" name="LFOCKAEDFT"> F  </i>
   <i name="HFSCREEN">      0.00000000</i>
   <i name="HFSCREENC">      0.00000000</i>
   <i type="int" name="NBANDSGWLOW">     0</i>
  </separator>
  <separator name="vdW DFT" >
   <i type="logical" name="LUSE_VDW"> F  </i>
   <i name="Zab_VDW">     -0.84910000</i>
   <i name="PARAM1">      0.12340000</i>
   <i name="PARAM2">      1.00000000</i>
   <i name="PARAM3">      0.00000000</i>
  </separator>
  <separator name="model GW" >
   <i type="int" name="MODEL_GW">     0</i>
   <i name="MODEL_EPS0">    284.21052632</i>
   <i name="MODEL_ALPHA">      1.00000000</i>
  </separator>
  <separator name="linear response parameters" >
   <i type="logical" name="LEPSILON"> F  </i>
   <i type="logical" name="LRPA"> F  </i>
   <i type="logical" name="LNABLA"> F  </i>
   <i type="logical" name="LVEL"> F  </i>
   <i type="int" name="KINTER">     0</i>
   <i name="CSHIFT">      0.10000000</i>
   <i name="OMEGAMAX">     -1.00000000</i>
   <i name="DEG_THRESHOLD">      0.00200000</i>
   <i name="RTIME">     -0.10000000</i>
   <i name="WPLASMAI">      0.00000000</i>
   <v name="DFIELD">      0.00000000      0.00000000      0.00000000</v>
   <v name="WPLASMA">      0.00000000      0.00000000      0.00000000      0.00000000      0.00000000      0.00000000      0.00000000      0.00000000      0.00000000</v>
  </separator>
  <separator name="orbital magnetization" >
   <i type="logical" name="NUCIND"> F  </i>
   <v name="MAGPOS">      0.00000000      0.00000000      0.00000000</v>
   <i type="logical" name="LNICSALL"> T  </i>
   <i type="logical" name="ORBITALMAG"> F  </i>
   <i type="logical" name="LMAGBLOCH"> F  </i>
   <i type="logical" name="LCHIMAG"> F  </i>
   <i type="logical" name="LGAUGE"> T  </i>
   <i type="int" name="MAGATOM">     0</i>
   <v name="MAGDIPOL">      0.00000000      0.00000000      0.00000000</v>
   <v name="AVECCONST">      0.00000000      0.00000000      0.00000000</v>
  </separator>
  <separator name="response functions" >
   <i type="logical" name="LADDER"> F  </i>
   <i type="logical" name="LRPAFORCE"> F  </i>
   <i type="logical" name="LFXC"> F  </i>
   <i type="logical" name="LHARTREE"> T  </i>
   <i type="int" name="IBSE">     0</i>
   <v type="int" name="KPOINT">    -1     0     0     0</v>
   <i type="logical" name="LTCTE"> F  </i>
   <i type="logical" name="LTETE"> F  </i>
   <i type="logical" name="LTRIPLET"> F  </i>
   <i type="logical" name="LFXCEPS"> F  </i>
   <i type="logical" name="LFXHEG"> F  </i>
   <i type="int" name="NATURALO">     2</i>
   <i type="logical" name="L2ORDER"> F  </i>
   <i type="logical" name="LMP2LT"> F  </i>
   <i type="logical" name="LUSEW"> F  </i>
   <i name="ENCUTGW">     -2.00000000</i>
   <i name="ENCUTGWSOFT">     -2.00000000</i>
   <i name="ENCUTLF">     -1.00000000</i>
   <i type="int" name="LMAXMP2">    -1</i>
   <i name="SCISSOR">      0.00000000</i>
   <i type="int" name="NOMEGA">     0</i>
   <i type="int" name="NOMEGAR">     0</i>
   <i type="int" name="NBANDSGW">    -1</i>
   <i type="int" name="NBANDSO">    -1</i>
   <i type="int" name="NBANDSV">    -1</i>
   <i type="int" name="NELM">   100</i>
   <i type="int" name="NELMHF">     1</i>
   <i type="int" name="DIM">     3</i>
   <i type="int" name="ANTIRES">     0</i>
   <i name="OMEGAMAX">    -30.00000000</i>
   <i name="OMEGAMIN">    -30.00000000</i>
   <i name="OMEGATL">   -200.00000000</i>
   <i type="int" name="OMEGAGRID">   140</i>
   <i name="CSHIFT">     -0.10000000</i>
   <i type="logical" name="SELFENERGY"> F  </i>
   <i type="logical" name="LSPECTRAL"> F  </i>
   <i type="logical" name="LSPECTRALGW"> F  </i>
   <i type="logical" name="LSINGLES"> F  </i>
   <i type="logical" name="LFERMIGW"> F  </i>
   <i type="logical" name="ODDONLYGW"> F  </i>
   <i type="logical" name="EVENONLYGW"> F  </i>
   <i type="int" name="NKREDLFX">     1</i>
   <i type="int" name="NKREDLFY">     1</i>
   <i type="int" name="NKREDLFZ">     1</i>
   <i type="int" name="MAXMEM"> 10000</i>
   <i type="int" name="TELESCOPE">     0</i>
   <i type="int" name="TAUPAR">     1</i>
   <i type="int" name="OMEGAPAR">    -1</i>
   <i name="LAMBDA">      1.00000000</i>
  </separator>
  <separator name="External order field" >
   <i name="OFIELD_KAPPA">      0.00000000</i>
   <v name="OFIELD_K">      0.00000000      0.00000000      0.00000000</v>
   <i name="OFIELD_Q6_NEAR">      0.00000000</i>
   <i name="OFIELD_Q6_FAR">      0.00000000</i>
   <i name="OFIELD_A">      0.00000000</i>
  </separator>
 </parameters>
 <atominfo>
  <atoms>      57 </atoms>
  <types>       3 </types>
  <array name="atoms" >
   <dimension dim="1">ion</dimension>
   <field type="string">element</field>
   <field type="int">atomtype</field>
   <set>
    <rc><c>Pd</c><c>   1</c></rc>
    <rc><c>Pd</c><c>   1</c></rc>
    <rc><c>Pd</c><c>   1</c></rc>
    <rc><c>Pd</c><c>   1</c></rc>
    <rc><c>Pd</c><c>   1</c></rc>
    <rc><c>Pd</c><c>   1</c></rc>
    <rc><c>Pd</c><c>   1</c></rc>
    <rc><c>Pd</c><c>   1</c></rc>
    <rc><c>Pd</c><c>   1</c></rc>
    <rc><c>Pd</c><c>   1</c></rc>
    <rc><c>Pd</c><c>   1</c></rc>
    <rc><c>Pd</c><c>   1</c></rc>
    <rc><c>Pd</c><c>   1</c></rc>
    <rc><c>Pd</c><c>   1</c></rc>
    <rc><c>Pd</c><c>   1</c></rc>
    <rc><c>Pd</c><c>   1</c></rc>
    <rc><c>Pd</c><c>   1</c></rc>
    <rc><c>Pd</c><c>   1</c></rc>
    <rc><c>Pd</c><c>   1</c></rc>
    <rc><c>Pd</c><c>   1</c></rc>
    <rc><c>Pd</c><c>   1</c></rc>
    <rc><c>Pd</c><c>   1</c></rc>
    <rc><c>Pd</c><c>   1</c></rc>
    <rc><c>Pd</c><c>   1</c></rc>
    <rc><c>Pd</c><c>   1</c></rc>
    <rc><c>Pd</c><c>   1</c></rc>
    <rc><c>Pd</c><c>   1</c></rc>
    <rc><c>Pd</c><c>   1</c></rc>
    <rc><c>Pd</c><c>   1</c></rc>
    <rc><c>Pd</c><c>   1</c></rc>
    <rc><c>Pd</c><c>   1</c></rc>
    <rc><c>Pd</c><c>   1</c></rc>
    <rc><c>Pd</c><c>   1</c></rc>
    <rc><c>Pd</c><c>   1</c></rc>
    <rc><c>Pd</c><c>   1</c></rc>
    <rc><c>Pd</c><c>   1</c></rc>
    <rc><c>Pd</c><c>   1</c></rc>
    <rc><c>Pd</c><c>   1</c></rc>
    <rc><c>Pd</c><c>   1</c></rc>
    <rc><c>Pd</c><c>   1</c></rc>
    <rc><c>Pd</c><c>   1</c></rc>
    <rc><c>Pd</c><c>   1</c></rc>
    <rc><c>Pd</c><c>   1</c></rc>
    <rc><c>Pd</c><c>   1</c></rc>
    <rc><c>Pd</c><c>   1</c></rc>
    <rc><c>Pd</c><c>   1</c></rc>
    <rc><c>Pd</c><c>   1</c></rc>
    <rc><c>Pd</c><c>   1</c></rc>
    <rc><c>Pd</c><c>   1</c></rc>
    <rc><c>Pd</c><c>   1</c></rc>
    <rc><c>Pd</c><c>   1</c></rc>
    <rc><c>Pd</c><c>   1</c></rc>
    <rc><c>Pd</c><c>   1</c></rc>
    <rc><c>Pd</c><c>   1</c></rc>
    <rc><c>Pd</c><c>   1</c></rc>
    <rc><c>C </c><c>   2</c></rc>
    <rc><c>O </c><c>   3</c></rc>
   </set>
  </array>
  <array name="atomtypes" >
   <dimension dim="1">type</dimension>
   <field type="int">atomspertype</field>
   <field type="string">element</field>
   <field>mass</field>
   <field>valence</field>
   <field type="string">pseudopotential</field>
   <set>
    <rc><c>  55</c><c>Pd</c><c>    106.42000000</c><c>     10.00000000</c><c>  PAW_PBE Pd 04Jan2005                  </c></rc>
    <rc><c>   1</c><c>C </c><c>     12.01100000</c><c>      4.00000000</c><c>  PAW_PBE C 08Apr2002                   </c></rc>
    <rc><c>   1</c><c>O </c><c>     16.00000000</c><c>      6.00000000</c><c>  PAW_PBE O 08Apr2002                   </c></rc>
   </set>
  </array>
 </atominfo>
 <structure name="initialpos" >
  <crystal>
   <varray name="basis" >
    <v>      30.00000000       0.00000000       0.00000000 </v>
    <v>       0.00000000      30.00000000       0.00000000 </v>
    <v>       0.00000000       0.00000000      30.00000000 </v>
   </varray>
   <i name="volume">  27000.00000000 </i>
   <varray name="rec_basis" >
    <v>       0.03333333       0.00000000       0.00000000 </v>
    <v>       0.00000000       0.03333333       0.00000000 </v>
    <v>       0.00000000       0.00000000       0.03333333 </v>
   </varray>
  </crystal>
  <varray name="positions" >
   <v>       0.44576020       0.32826710       0.41691983 </v>
   <v>       0.67173288       0.55423978       0.41691983 </v>
   <v>       0.55423980       0.32826710       0.41691983 </v>
   <v>       0.32826712       0.55423978       0.41691983 </v>
   <v>       0.50000000       0.38250690       0.34021317 </v>
   <v>       0.50000000       0.38250690       0.65978680 </v>
   <v>       0.50000000       0.27609440       0.50000000 </v>
   <v>       0.27609443       0.49999998       0.50000000 </v>
   <v>       0.72390557       0.49999998       0.50000000 </v>
   <v>       0.50000000       0.72390555       0.50000000 </v>
   <v>       0.61195280       0.38804720       0.34167483 </v>
   <v>       0.61195280       0.38804720       0.65832513 </v>
   <v>       0.38804722       0.61195278       0.34167483 </v>
   <v>       0.38804722       0.61195278       0.65832513 </v>
   <v>       0.38804720       0.38804720       0.34167483 </v>
   <v>       0.38804720       0.38804720       0.65832513 </v>
   <v>       0.61195278       0.61195278       0.34167483 </v>
   <v>       0.61195278       0.61195278       0.65832513 </v>
   <v>       0.44576020       0.32826710       0.58308023 </v>
   <v>       0.67173288       0.55423978       0.58308023 </v>
   <v>       0.55791699       0.44208301       0.41809300 </v>
   <v>       0.32826705       0.44576024       0.41691983 </v>
   <v>       0.55423973       0.67173293       0.41691983 </v>
   <v>       0.55423980       0.32826710       0.58308023 </v>
   <v>       0.32826712       0.55423978       0.58308023 </v>
   <v>       0.67173295       0.44576024       0.41691983 </v>
   <v>       0.44576027       0.67173293       0.41691983 </v>
   <v>       0.44208301       0.44208301       0.41809300 </v>
   <v>       0.50000000       0.38416601       0.50000000 </v>
   <v>       0.61749315       0.50000005       0.34021317 </v>
   <v>       0.61749315       0.50000005       0.65978680 </v>
   <v>       0.38250685       0.50000005       0.34021317 </v>
   <v>       0.38250685       0.50000005       0.65978680 </v>
   <v>       0.38317830       0.38317830       0.50000000 </v>
   <v>       0.61682172       0.61682172       0.50000000 </v>
   <v>       0.61682170       0.38317830       0.50000000 </v>
   <v>       0.38317828       0.61682172       0.50000000 </v>
   <v>       0.50000000       0.50000000       0.33478917 </v>
   <v>       0.50000000       0.50000000       0.66521087 </v>
   <v>       0.32826705       0.44576024       0.58308023 </v>
   <v>       0.55423973       0.67173293       0.58308023 </v>
   <v>       0.55791699       0.44208301       0.58190703 </v>
   <v>       0.44208298       0.55791702       0.41809300 </v>
   <v>       0.44208301       0.44208301       0.58190703 </v>
   <v>       0.67173295       0.44576024       0.58308023 </v>
   <v>       0.44576027       0.67173293       0.58308023 </v>
   <v>       0.55791702       0.55791702       0.41809300 </v>
   <v>       0.38416599       0.50000002       0.50000000 </v>
   <v>       0.61583401       0.50000002       0.50000000 </v>
   <v>       0.50000000       0.61749319       0.34021317 </v>
   <v>       0.50000000       0.61749319       0.65978680 </v>
   <v>       0.50000000       0.50000000       0.50000000 </v>
   <v>       0.44208298       0.55791702       0.58190703 </v>
   <v>       0.55791702       0.55791702       0.58190703 </v>
   <v>       0.50000000       0.61583404       0.50000000 </v>
   <v>       0.42254087       0.51805593       0.70281437 </v>
   <v>       0.40917187       0.52117227       0.73781893 </v>
  </varray>
  <varray name="selective"  type="logical" >
   <v type="logical" >  F  F  F </v>
   <v type="logical" >  F  F  F </v>
   <v type="logical" >  F  F  F </v>
   <v type="logical" >  F  F  F </v>
   <v type="logical" >  F  F  F </v>
   <v type="logical" >  F  F  F </v>
   <v type="logical" >  F  F  F </v>
   <v type="logical" >  F  F  F </v>
   <v type="logical" >  F  F  F </v>
   <v type="logical" >  F  F  F </v>
   <v type="logical" >  F  F  F </v>
   <v type="logical" >  F  F  F </v>
   <v type="logical" >  F  F  F </v>
   <v type="logical" >  F  F  F </v>
   <v type="logical" >  F  F  F </v>
   <v type="logical" >  F  F  F </v>
   <v type="logical" >  F  F  F </v>
   <v type="logical" >  F  F  F </v>
   <v type="logical" >  F  F  F </v>
   <v type="logical" >  F  F  F </v>
   <v type="logical" >  F  F  F </v>
   <v type="logical" >  F  F  F </v>
   <v type="logical" >  F  F  F </v>
   <v type="logical" >  F  F  F </v>
   <v type="logical" >  F  F  F </v>
   <v type="logical" >  F  F  F </v>
   <v type="logical" >  F  F  F </v>
   <v type="logical" >  F  F  F </v>
   <v type="logical" >  F  F  F </v>
   <v type="logical" >  F  F  F </v>
   <v type="logical" >  F  F  F </v>
   <v type="logical" >  F  F  F </v>
   <v type="logical" >  F  F  F </v>
   <v type="logical" >  F  F  F </v>
   <v type="logical" >  F  F  F </v>
   <v type="logical" >  F  F  F </v>
   <v type="logical" >  F  F  F </v>
   <v type="logical" >  F  F  F </v>
   <v type="logical" >  F  F  F </v>
   <v type="logical" >  F  F  F </v>
   <v type="logical" >  F  F  F </v>
   <v type="logical" >  F  F  F </v>
   <v type="logical" >  F  F  F </v>
   <v type="logical" >  F  F  F </v>
   <v type="logical" >  F  F  F </v>
   <v type="logical" >  F  F  F </v>
   <v type="logical" >  F  F  F </v>
   <v type="logical" >  F  F  F </v>
   <v type="logical" >  F  F  F </v>
   <v type="logical" >  F  F  F </v>
   <v type="logical" >  F  F  F </v>
   <v type="logical" >  F  F  F </v>
   <v type="logical" >  F  F  F </v>
   <v type="logical" >  F  F  F </v>
   <v type="logical" >  F  F  F </v>
   <v type="logical" >  F  F  F </v>
   <v type="logical" >  F  F  F </v>
  </varray>
  <nose>
   <v>      -3.00000000       0.00000000       0.00010000       0.00010000 </v>
  </nose>
 </structure>
 <calculation>
  <scstep>
   <time name="dav">  370.38  370.44</time>
   <time name="total">  385.04  385.09</time>
   <energy>
    <i name="alphaZ">     75.25431677 </i>
    <i name="ewald"> 139119.01440796 </i>
    <i name="hartreedc">-182475.03909557 </i>
    <i name="XCdc">  -1702.49656552 </i>
    <i name="pawpsdc">  44873.02882129 </i>
    <i name="pawaedc"> -41398.84523641 </i>
    <i name="eentropy">      0.01186040 </i>
    <i name="bandstr">    815.84615127 </i>
    <i name="atom">  45086.50549395 </i>
    <i name="e_fr_energy">   4393.28015415 </i>
    <i name="e_wo_entrp">   4393.26829374 </i>
    <i name="e_0_energy">   4393.27718905 </i>
   </energy>
  </scstep>
  <scstep>
   <time name="dav">  594.92  594.92</time>
   <time name="total">  594.92  594.92</time>
   <energy>
    <i name="e_fr_energy">   2009.56548394 </i>
    <i name="e_wo_entrp">   2009.55941549 </i>
    <i name="e_0_energy">   2009.56396683 </i>
   </energy>
  </scstep>
  <scstep>
   <time name="dav">  490.68  490.67</time>
   <time name="total">  490.68  490.67</time>
   <energy>
    <i name="e_fr_energy">    235.92273367 </i>
    <i name="e_wo_entrp">    235.92576279 </i>
    <i name="e_0_energy">    235.92349095 </i>
   </energy>
  </scstep>
  <scstep>
   <time name="dav">  434.34  434.34</time>
   <time name="total">  434.34  434.34</time>
   <energy>
    <i name="e_fr_energy">   -135.33039595 </i>
    <i name="e_wo_entrp">   -135.36955689 </i>
    <i name="e_0_energy">   -135.34018619 </i>
   </energy>
  </scstep>
  <scstep>
   <time name="dav">  517.00  517.00</time>
   <time name="total">  543.57  543.58</time>
   <energy>
    <i name="e_fr_energy">   -180.13976958 </i>
    <i name="e_wo_entrp">   -180.61653068 </i>
    <i name="e_0_energy">   -180.25895986 </i>
   </energy>
  </scstep>
  <scstep>
   <time name="diag">   69.11   69.11</time>
   <time name="diis">  188.61  188.61</time>
   <time name="orth">   13.30   13.30</time>
   <time name="total">  311.35  311.36</time>
   <energy>
    <i name="e_fr_energy">   -179.09390477 </i>
    <i name="e_wo_entrp">   -179.00811423 </i>
    <i name="e_0_energy">   -179.07245713 </i>
   </energy>
  </scstep>
  <scstep>
   <time name="diag">   67.20   67.21</time>
   <time name="diis">  222.43  222.43</time>
   <time name="orth">   12.94   12.94</time>
   <time name="total">  342.46  342.46</time>
   <energy>
    <i name="e_fr_energy">   -183.41926846 </i>
    <i name="e_wo_entrp">   -183.33515871 </i>
    <i name="e_0_energy">   -183.39824102 </i>
   </energy>
  </scstep>
  <scstep>
   <time name="diag">   66.88   66.88</time>
   <time name="diis">  206.10  206.10</time>
   <time name="orth">   12.93   12.93</time>
   <time name="total">  325.96  325.96</time>
   <energy>
    <i name="e_fr_energy">   -185.13272784 </i>
    <i name="e_wo_entrp">   -184.96409382 </i>
    <i name="e_0_energy">   -185.09056933 </i>
   </energy>
  </scstep>
  <scstep>
   <time name="diag">   65.26   65.26</time>
   <time name="diis">  191.66  191.66</time>
   <time name="orth">   12.44   12.44</time>
   <time name="total">  307.08  307.09</time>
   <energy>
    <i name="e_fr_energy">   -184.19699221 </i>
    <i name="e_wo_entrp">   -184.05349998 </i>
    <i name="e_0_energy">   -184.16111915 </i>
   </energy>
  </scstep>
  <scstep>
   <time name="diag">   63.54   63.54</time>
   <time name="diis">  194.58  194.59</time>
   <time name="orth">   13.07   13.07</time>
   <time name="total">  310.18  310.19</time>
   <energy>
    <i name="e_fr_energy">   -181.89245679 </i>
    <i name="e_wo_entrp">   -181.87976588 </i>
    <i name="e_0_energy">   -181.88928406 </i>
   </energy>
  </scstep>
  <scstep>
   <time name="diag">   64.81   64.81</time>
   <time name="diis">  196.45  196.47</time>
   <time name="orth">   13.18   13.19</time>
   <time name="total">  313.42  313.44</time>
   <energy>
    <i name="e_fr_energy">   -179.54304412 </i>
    <i name="e_wo_entrp">   -179.52423270 </i>
    <i name="e_0_energy">   -179.53834127 </i>
   </energy>
  </scstep>
  <scstep>
   <time name="diag">   64.20   64.20</time>
   <time name="diis">  185.93  185.94</time>
   <time name="orth">   12.41   12.41</time>
   <time name="total">  300.31  300.31</time>
   <energy>
    <i name="e_fr_energy">   -177.48603242 </i>
    <i name="e_wo_entrp">   -177.44576863 </i>
    <i name="e_0_energy">   -177.47596647 </i>
   </energy>
  </scstep>
  <scstep>
   <time name="diag">   63.65   63.66</time>
   <time name="diis">  188.97  188.97</time>
   <time name="orth">   12.80   12.80</time>
   <time name="total">  303.69  303.69</time>
   <energy>
    <i name="e_fr_energy">   -176.58338375 </i>
    <i name="e_wo_entrp">   -176.53963125 </i>
    <i name="e_0_energy">   -176.57244563 </i>
   </energy>
  </scstep>
  <scstep>
   <time name="diag">   64.24   64.24</time>
   <time name="diis">  186.33  186.33</time>
   <time name="orth">   12.63   12.63</time>
   <time name="total">  301.67  301.67</time>
   <energy>
    <i name="e_fr_energy">   -176.89185635 </i>
    <i name="e_wo_entrp">   -176.83193727 </i>
    <i name="e_0_energy">   -176.87687658 </i>
   </energy>
  </scstep>
  <scstep>
   <time name="diag">   65.15   65.15</time>
   <time name="diis">  188.62  188.63</time>
   <time name="orth">   12.48   12.48</time>
   <time name="total">  304.80  304.81</time>
   <energy>
    <i name="e_fr_energy">   -176.83689808 </i>
    <i name="e_wo_entrp">   -176.94246929 </i>
    <i name="e_0_energy">   -176.86329088 </i>
   </energy>
  </scstep>
  <scstep>
   <time name="diag">   64.98   64.98</time>
   <time name="diis">  190.11  190.11</time>
   <time name="orth">   12.50   12.50</time>
   <time name="total">  306.43  306.44</time>
   <energy>
    <i name="e_fr_energy">   -176.26256875 </i>
    <i name="e_wo_entrp">   -176.27312135 </i>
    <i name="e_0_energy">   -176.26520690 </i>
   </energy>
  </scstep>
  <scstep>
   <time name="diag">   64.44   64.44</time>
   <time name="diis">  186.40  186.40</time>
   <time name="orth">   12.70   12.70</time>
   <time name="total">  301.94  301.94</time>
   <energy>
    <i name="e_fr_energy">   -175.56420060 </i>
    <i name="e_wo_entrp">   -175.54734987 </i>
    <i name="e_0_energy">   -175.55998792 </i>
   </energy>
  </scstep>
  <scstep>
   <time name="diag">   63.80   63.80</time>
   <time name="diis">  186.35  186.35</time>
   <time name="orth">   12.81   12.81</time>
   <time name="total">  301.80  301.80</time>
   <energy>
    <i name="e_fr_energy">   -175.60176966 </i>
    <i name="e_wo_entrp">   -175.62468518 </i>
    <i name="e_0_energy">   -175.60749854 </i>
   </energy>
  </scstep>
  <scstep>
   <time name="diag">   65.73   65.73</time>
   <time name="diis">  188.06  188.06</time>
   <time name="orth">   12.41   12.41</time>
   <time name="total">  305.68  305.68</time>
   <energy>
    <i name="e_fr_energy">   -175.78513780 </i>
    <i name="e_wo_entrp">   -175.93869184 </i>
    <i name="e_0_energy">   -175.82352631 </i>
   </energy>
  </scstep>
  <scstep>
   <time name="diag">   67.04   67.04</time>
   <time name="diis">  187.63  187.63</time>
   <time name="orth">   12.54   12.54</time>
   <time name="total">  306.72  306.72</time>
   <energy>
    <i name="e_fr_energy">   -175.48333623 </i>
    <i name="e_wo_entrp">   -175.52034267 </i>
    <i name="e_0_energy">   -175.49258784 </i>
   </energy>
  </scstep>
  <scstep>
   <time name="diag">   66.83   66.83</time>
   <time name="diis">  184.32  184.32</time>
   <time name="orth">   12.76   12.76</time>
   <time name="total">  304.69  304.69</time>
   <energy>
    <i name="e_fr_energy">   -175.23188728 </i>
    <i name="e_wo_entrp">   -175.26632522 </i>
    <i name="e_0_energy">   -175.24049676 </i>
   </energy>
  </scstep>
  <scstep>
   <time name="diag">   67.45   67.45</time>
   <time name="diis">  184.20  184.20</time>
   <time name="orth">   12.93   12.93</time>
   <time name="total">  305.71  305.71</time>
   <energy>
    <i name="e_fr_energy">   -175.15375034 </i>
    <i name="e_wo_entrp">   -175.17719341 </i>
    <i name="e_0_energy">   -175.15961111 </i>
   </energy>
  </scstep>
  <scstep>
   <time name="diag">   68.35   68.35</time>
   <time name="diis">  182.78  182.78</time>
   <time name="orth">   12.78   12.78</time>
   <time name="total">  304.16  304.16</time>
   <energy>
    <i name="e_fr_energy">   -175.05593211 </i>
    <i name="e_wo_entrp">   -175.02865461 </i>
    <i name="e_0_energy">   -175.04911274 </i>
   </energy>
  </scstep>
  <scstep>
   <time name="diag">   66.74   66.74</time>
   <time name="diis">  183.86  183.86</time>
   <time name="orth">   12.43   12.43</time>
   <time name="total">  302.45  302.46</time>
   <energy>
    <i name="e_fr_energy">   -174.89570691 </i>
    <i name="e_wo_entrp">   -174.86411339 </i>
    <i name="e_0_energy">   -174.88780853 </i>
   </energy>
  </scstep>
  <scstep>
   <time name="diag">   67.50   67.50</time>
   <time name="diis">  183.78  183.78</time>
   <time name="orth">   12.76   12.76</time>
   <time name="total">  304.22  304.23</time>
   <energy>
    <i name="e_fr_energy">   -174.89600663 </i>
    <i name="e_wo_entrp">   -174.87157184 </i>
    <i name="e_0_energy">   -174.88989793 </i>
   </energy>
  </scstep>
  <scstep>
   <time name="diag">   68.72   68.72</time>
   <time name="diis">  182.99  182.99</time>
   <time name="orth">   12.77   12.77</time>
   <time name="total">  305.11  305.12</time>
   <energy>
    <i name="e_fr_energy">   -174.84800810 </i>
    <i name="e_wo_entrp">   -174.80948107 </i>
    <i name="e_0_energy">   -174.83837634 </i>
   </energy>
  </scstep>
  <scstep>
   <time name="diag">   66.53   66.53</time>
   <time name="diis">  183.69  183.69</time>
   <time name="orth">   12.77   12.77</time>
   <time name="total">  302.76  302.76</time>
   <energy>
    <i name="e_fr_energy">   -174.79028876 </i>
    <i name="e_wo_entrp">   -174.77514694 </i>
    <i name="e_0_energy">   -174.78650330 </i>
   </energy>
  </scstep>
  <scstep>
   <time name="diag">   66.80   66.80</time>
   <time name="diis">  183.58  183.58</time>
   <time name="orth">   12.35   12.35</time>
   <time name="total">  301.70  301.71</time>
   <energy>
    <i name="e_fr_energy">   -174.77480654 </i>
    <i name="e_wo_entrp">   -174.74021982 </i>
    <i name="e_0_energy">   -174.76615986 </i>
   </energy>
  </scstep>
  <scstep>
   <time name="diag">   67.52   67.52</time>
   <time name="diis">  182.02  182.02</time>
   <time name="orth">   12.61   12.61</time>
   <time name="total">  302.41  302.42</time>
   <energy>
    <i name="e_fr_energy">   -174.77339775 </i>
    <i name="e_wo_entrp">   -174.73521378 </i>
    <i name="e_0_energy">   -174.76385176 </i>
   </energy>
  </scstep>
  <scstep>
   <time name="diag">   64.21   64.21</time>
   <time name="diis">  178.04  178.04</time>
   <time name="orth">   12.63   12.63</time>
   <time name="total">  294.80  294.81</time>
   <energy>
    <i name="e_fr_energy">   -174.75212592 </i>
    <i name="e_wo_entrp">   -174.71543361 </i>
    <i name="e_0_energy">   -174.74295284 </i>
   </energy>
  </scstep>
  <scstep>
   <time name="diag">   65.92   65.93</time>
   <time name="diis">  181.74  181.75</time>
   <time name="orth">   12.38   12.38</time>
   <time name="total">  299.98  299.99</time>
   <energy>
    <i name="e_fr_energy">   -174.74976220 </i>
    <i name="e_wo_entrp">   -174.70808174 </i>
    <i name="e_0_energy">   -174.73934209 </i>
   </energy>
  </scstep>
  <scstep>
   <time name="diag">   67.71   67.71</time>
   <time name="diis">  180.19  180.19</time>
   <time name="orth">   12.76   12.76</time>
   <time name="total">  300.76  300.76</time>
   <energy>
    <i name="e_fr_energy">   -174.74347619 </i>
    <i name="e_wo_entrp">   -174.70967626 </i>
    <i name="e_0_energy">   -174.73502621 </i>
   </energy>
  </scstep>
  <scstep>
   <time name="diag">   65.58   65.58</time>
   <time name="diis">  182.82  182.82</time>
   <time name="orth">   12.29   12.29</time>
   <time name="total">  300.62  300.62</time>
   <energy>
    <i name="e_fr_energy">   -174.74370610 </i>
    <i name="e_wo_entrp">   -174.70946057 </i>
    <i name="e_0_energy">   -174.73514472 </i>
   </energy>
  </scstep>
  <scstep>
   <time name="diag">   66.80   66.80</time>
   <time name="diis">  180.47  180.48</time>
   <time name="orth">   12.27   12.27</time>
   <time name="total">  299.39  299.40</time>
   <energy>
    <i name="e_fr_energy">   -174.74035011 </i>
    <i name="e_wo_entrp">   -174.70436356 </i>
    <i name="e_0_energy">   -174.73135347 </i>
   </energy>
  </scstep>
  <scstep>
   <time name="diag">   65.40   65.40</time>
   <time name="diis">  168.23  168.23</time>
   <time name="orth">   11.87   11.87</time>
   <time name="total">  284.02  284.02</time>
   <energy>
    <i name="e_fr_energy">   -174.74176176 </i>
    <i name="e_wo_entrp">   -174.70176732 </i>
    <i name="e_0_energy">   -174.73176315 </i>
   </energy>
  </scstep>
  <scstep>
   <time name="diag">   65.03   65.03</time>
   <time name="diis">  179.99  179.99</time>
   <time name="orth">   12.21   12.21</time>
   <time name="total">  296.83  296.84</time>
   <energy>
    <i name="e_fr_energy">   -174.74280800 </i>
    <i name="e_wo_entrp">   -174.70508017 </i>
    <i name="e_0_energy">   -174.73337604 </i>
   </energy>
  </scstep>
  <scstep>
   <time name="diag">   65.76   65.76</time>
   <time name="diis">  178.92  178.92</time>
   <time name="orth">   12.25   12.25</time>
   <time name="total">  297.09  297.09</time>
   <energy>
    <i name="e_fr_energy">   -174.74281084 </i>
    <i name="e_wo_entrp">   -174.70452371 </i>
    <i name="e_0_energy">   -174.73323906 </i>
   </energy>
  </scstep>
  <scstep>
   <time name="diag">   65.99   65.99</time>
   <time name="diis">  176.35  176.35</time>
   <time name="orth">   12.18   12.18</time>
   <time name="total">  294.82  294.82</time>
   <energy>
    <i name="e_fr_energy">   -174.74414802 </i>
    <i name="e_wo_entrp">   -174.70623304 </i>
    <i name="e_0_energy">   -174.73466927 </i>
   </energy>
  </scstep>
  <scstep>
   <time name="diag">   66.64   66.64</time>
   <time name="diis">  150.95  150.95</time>
   <time name="orth">   12.32   12.32</time>
   <time name="total">  270.24  270.24</time>
   <energy>
    <i name="e_fr_energy">   -174.74556150 </i>
    <i name="e_wo_entrp">   -174.70787837 </i>
    <i name="e_0_energy">   -174.73614072 </i>
   </energy>
  </scstep>
  <scstep>
   <time name="diag">   65.59   65.60</time>
   <time name="diis">  155.68  155.68</time>
   <time name="orth">   12.86   12.86</time>
   <time name="total">  273.84  273.84</time>
   <energy>
    <i name="e_fr_energy">   -174.74768042 </i>
    <i name="e_wo_entrp">   -174.70892888 </i>
    <i name="e_0_energy">   -174.73799254 </i>
   </energy>
  </scstep>
  <scstep>
   <time name="diag">   63.97   63.97</time>
   <time name="diis">  164.62  164.62</time>
   <time name="orth">   12.81   12.81</time>
   <time name="total">  283.00  283.00</time>
   <energy>
    <i name="e_fr_energy">   -174.75127231 </i>
    <i name="e_wo_entrp">   -174.71410641 </i>
    <i name="e_0_energy">   -174.74198084 </i>
   </energy>
  </scstep>
  <scstep>
   <time name="diag">   64.37   64.37</time>
   <time name="diis">  121.10  121.10</time>
   <time name="orth">   12.93   12.93</time>
   <time name="total">  240.85  240.86</time>
   <energy>
    <i name="e_fr_energy">   -174.75271026 </i>
    <i name="e_wo_entrp">   -174.71530322 </i>
    <i name="e_0_energy">   -174.74335850 </i>
   </energy>
  </scstep>
  <scstep>
   <time name="diag">   66.32   66.32</time>
   <time name="diis">  148.20  148.20</time>
   <time name="orth">   12.97   12.97</time>
   <time name="total">  270.48  270.49</time>
   <energy>
    <i name="e_fr_energy">   -174.75630019 </i>
    <i name="e_wo_entrp">   -174.71912075 </i>
    <i name="e_0_energy">   -174.74700533 </i>
   </energy>
  </scstep>
  <scstep>
   <time name="diag">   67.25   67.25</time>
   <time name="diis">  142.80  142.80</time>
   <time name="orth">   12.60   12.60</time>
   <time name="total">  265.87  265.87</time>
   <energy>
    <i name="e_fr_energy">   -174.75904316 </i>
    <i name="e_wo_entrp">   -174.72118529 </i>
    <i name="e_0_energy">   -174.74957870 </i>
   </energy>
  </scstep>
  <scstep>
   <time name="diag">   68.17   68.17</time>
   <time name="diis">  122.91  122.92</time>
   <time name="orth">   13.02   13.02</time>
   <time name="total">  246.69  246.70</time>
   <energy>
    <i name="e_fr_energy">   -174.76036284 </i>
    <i name="e_wo_entrp">   -174.72277046 </i>
    <i name="e_0_energy">   -174.75096475 </i>
   </energy>
  </scstep>
  <scstep>
   <time name="diag">   67.61   67.61</time>
   <time name="diis">  122.69  122.69</time>
   <time name="orth">   13.17   13.17</time>
   <time name="total">  246.43  246.43</time>
   <energy>
    <i name="e_fr_energy">   -174.76188556 </i>
    <i name="e_wo_entrp">   -174.72397688 </i>
    <i name="e_0_energy">   -174.75240839 </i>
   </energy>
  </scstep>
  <scstep>
   <time name="diag">   68.03   68.03</time>
   <time name="diis">  120.70  120.70</time>
   <time name="orth">   12.99   12.99</time>
   <time name="total">  245.48  245.49</time>
   <energy>
    <i name="e_fr_energy">   -174.76272925 </i>
    <i name="e_wo_entrp">   -174.72536143 </i>
    <i name="e_0_energy">   -174.75338730 </i>
   </energy>
  </scstep>
  <scstep>
   <time name="diag">   66.44   66.44</time>
   <time name="diis">  121.03  121.04</time>
   <time name="orth">   13.17   13.17</time>
   <time name="total">  244.94  244.95</time>
   <energy>
    <i name="e_fr_energy">   -174.76360933 </i>
    <i name="e_wo_entrp">   -174.72661055 </i>
    <i name="e_0_energy">   -174.75435963 </i>
   </energy>
  </scstep>
  <scstep>
   <time name="diag">   66.84   66.84</time>
   <time name="diis">  116.74  116.74</time>
   <time name="orth">   13.15   13.15</time>
   <time name="total">  240.82  240.82</time>
   <energy>
    <i name="e_fr_energy">   -174.76450875 </i>
    <i name="e_wo_entrp">   -174.72713964 </i>
    <i name="e_0_energy">   -174.75516648 </i>
   </energy>
  </scstep>
  <scstep>
   <time name="diag">   68.87   68.87</time>
   <time name="diis">  114.86  114.86</time>
   <time name="orth">   12.76   12.76</time>
   <time name="total">  240.48  240.48</time>
   <energy>
    <i name="e_fr_energy">   -174.76521207 </i>
    <i name="e_wo_entrp">   -174.72792658 </i>
    <i name="e_0_energy">   -174.75589070 </i>
   </energy>
  </scstep>
  <scstep>
   <time name="diag">   68.58   68.58</time>
   <time name="diis">  118.87  118.87</time>
   <time name="orth">   12.61   12.61</time>
   <time name="total">  243.28  243.28</time>
   <energy>
    <i name="e_fr_energy">   -174.76601523 </i>
    <i name="e_wo_entrp">   -174.72876435 </i>
    <i name="e_0_energy">   -174.75670251 </i>
   </energy>
  </scstep>
  <scstep>
   <time name="diag">   66.81   66.81</time>
   <time name="diis">  110.49  110.49</time>
   <time name="orth">   13.41   13.41</time>
   <time name="total">  234.11  234.11</time>
   <energy>
    <i name="e_fr_energy">   -174.76629438 </i>
    <i name="e_wo_entrp">   -174.72925218 </i>
    <i name="e_0_energy">   -174.75703383 </i>
   </energy>
  </scstep>
  <scstep>
   <time name="diag">   66.03   66.03</time>
   <time name="diis">  107.61  107.61</time>
   <time name="orth">   13.17   13.17</time>
   <time name="total">  231.27  231.26</time>
   <energy>
    <i name="e_fr_energy">   -174.76694808 </i>
    <i name="e_wo_entrp">   -174.72976808 </i>
    <i name="e_0_energy">   -174.75765308 </i>
   </energy>
  </scstep>
  <scstep>
   <time name="diag">   67.93   67.93</time>
   <time name="diis">   83.06   83.06</time>
   <time name="orth">   12.79   12.79</time>
   <time name="total">  207.70  207.70</time>
   <energy>
    <i name="e_fr_energy">   -174.76716178 </i>
    <i name="e_wo_entrp">   -174.72998334 </i>
    <i name="e_0_energy">   -174.75786717 </i>
   </energy>
  </scstep>
  <scstep>
   <time name="diag">   68.50   68.50</time>
   <time name="diis">   98.04   98.04</time>
   <time name="orth">   12.69   12.69</time>
   <time name="total">  222.25  222.25</time>
   <energy>
    <i name="e_fr_energy">   -174.76748523 </i>
    <i name="e_wo_entrp">   -174.73038236 </i>
    <i name="e_0_energy">   -174.75820951 </i>
   </energy>
  </scstep>
  <scstep>
   <time name="diag">   65.86   65.86</time>
   <time name="diis">   77.11   77.11</time>
   <time name="orth">   13.14   13.14</time>
   <time name="total">  200.54  200.53</time>
   <energy>
    <i name="e_fr_energy">   -174.76758686 </i>
    <i name="e_wo_entrp">   -174.73043303 </i>
    <i name="e_0_energy">   -174.75829840 </i>
   </energy>
  </scstep>
  <scstep>
   <time name="diag">   68.04   68.04</time>
   <time name="diis">   93.53   93.53</time>
   <time name="orth">   12.80   12.80</time>
   <time name="total">  219.11  219.11</time>
   <energy>
    <i name="e_fr_energy">   -174.76793631 </i>
    <i name="e_wo_entrp">   -174.73075523 </i>
    <i name="e_0_energy">   -174.75864104 </i>
   </energy>
  </scstep>
  <scstep>
   <time name="diag">   68.46   68.46</time>
   <time name="diis">   89.56   89.56</time>
   <time name="orth">   12.48   12.48</time>
   <time name="total">  213.84  213.85</time>
   <energy>
    <i name="e_fr_energy">   -174.76815836 </i>
    <i name="e_wo_entrp">   -174.73100493 </i>
    <i name="e_0_energy">   -174.75887000 </i>
   </energy>
  </scstep>
  <scstep>
   <time name="diag">   67.06   67.07</time>
   <time name="diis">   86.30   86.30</time>
   <time name="orth">   13.04   13.04</time>
   <time name="total">  209.54  209.55</time>
   <energy>
    <i name="e_fr_energy">   -174.76831336 </i>
    <i name="e_wo_entrp">   -174.73114818 </i>
    <i name="e_0_energy">   -174.75902206 </i>
   </energy>
  </scstep>
  <scstep>
   <time name="diag">   65.41   65.41</time>
   <time name="diis">   83.45   83.45</time>
   <time name="orth">   13.21   13.21</time>
   <time name="total">  207.18  207.18</time>
   <energy>
    <i name="e_fr_energy">   -174.76842460 </i>
    <i name="e_wo_entrp">   -174.73120781 </i>
    <i name="e_0_energy">   -174.75912040 </i>
   </energy>
  </scstep>
  <scstep>
   <time name="diag">   67.62   67.62</time>
   <time name="diis">   86.42   86.42</time>
   <time name="orth">   12.86   12.86</time>
   <time name="total">  210.92  210.92</time>
   <energy>
    <i name="e_fr_energy">   -174.76857506 </i>
    <i name="e_wo_entrp">   -174.73139357 </i>
    <i name="e_0_energy">   -174.75927969 </i>
   </energy>
  </scstep>
  <scstep>
   <time name="diag">   67.36   67.36</time>
   <time name="diis">   82.10   82.11</time>
   <time name="orth">   12.89   12.89</time>
   <time name="total">  176.47  176.48</time>
   <energy>
    <i name="alphaZ">     75.25431677 </i>
    <i name="ewald"> 139119.01440796 </i>
    <i name="hartreedc">-183478.35476750 </i>
    <i name="XCdc">  -1691.69534305 </i>
    <i name="pawpsdc">  46224.76621330 </i>
    <i name="pawaedc"> -42695.30545378 </i>
    <i name="eentropy">     -0.03719149 </i>
    <i name="bandstr">  -2814.91630979 </i>
    <i name="atom">  45086.50549395 </i>
    <i name="e_fr_energy">   -174.76863362 </i>
    <i name="e_wo_entrp">   -174.73144214 </i>
    <i name="e_0_energy">   -174.75933575 </i>
   </energy>
  </scstep>
  <structure>
   <crystal>
    <varray name="basis" >
     <v>      30.00000000       0.00000000       0.00000000 </v>
     <v>       0.00000000      30.00000000       0.00000000 </v>
     <v>       0.00000000       0.00000000      30.00000000 </v>
    </varray>
    <i name="volume">  27000.00000000 </i>
    <varray name="rec_basis" >
     <v>       0.03333333       0.00000000       0.00000000 </v>
     <v>       0.00000000       0.03333333       0.00000000 </v>
     <v>       0.00000000       0.00000000       0.03333333 </v>
    </varray>
   </crystal>
   <varray name="positions" >
    <v>       0.44576020       0.32826710       0.41691983 </v>
    <v>       0.67173288       0.55423978       0.41691983 </v>
    <v>       0.55423980       0.32826710       0.41691983 </v>
    <v>       0.32826712       0.55423978       0.41691983 </v>
    <v>       0.50000000       0.38250690       0.34021317 </v>
    <v>       0.50000000       0.38250690       0.65978680 </v>
    <v>       0.50000000       0.27609440       0.50000000 </v>
    <v>       0.27609443       0.49999998       0.50000000 </v>
    <v>       0.72390557       0.49999998       0.50000000 </v>
    <v>       0.50000000       0.72390555       0.50000000 </v>
    <v>       0.61195280       0.38804720       0.34167483 </v>
    <v>       0.61195280       0.38804720       0.65832513 </v>
    <v>       0.38804722       0.61195278       0.34167483 </v>
    <v>       0.38804722       0.61195278       0.65832513 </v>
    <v>       0.38804720       0.38804720       0.34167483 </v>
    <v>       0.38804720       0.38804720       0.65832513 </v>
    <v>       0.61195278       0.61195278       0.34167483 </v>
    <v>       0.61195278       0.61195278       0.65832513 </v>
    <v>       0.44576020       0.32826710       0.58308023 </v>
    <v>       0.67173288       0.55423978       0.58308023 </v>
    <v>       0.55791699       0.44208301       0.41809300 </v>
    <v>       0.32826705       0.44576024       0.41691983 </v>
    <v>       0.55423973       0.67173293       0.41691983 </v>
    <v>       0.55423980       0.32826710       0.58308023 </v>
    <v>       0.32826712       0.55423978       0.58308023 </v>
    <v>       0.67173295       0.44576024       0.41691983 </v>
    <v>       0.44576027       0.67173293       0.41691983 </v>
    <v>       0.44208301       0.44208301       0.41809300 </v>
    <v>       0.50000000       0.38416601       0.50000000 </v>
    <v>       0.61749315       0.50000005       0.34021317 </v>
    <v>       0.61749315       0.50000005       0.65978680 </v>
    <v>       0.38250685       0.50000005       0.34021317 </v>
    <v>       0.38250685       0.50000005       0.65978680 </v>
    <v>       0.38317830       0.38317830       0.50000000 </v>
    <v>       0.61682172       0.61682172       0.50000000 </v>
    <v>       0.61682170       0.38317830       0.50000000 </v>
    <v>       0.38317828       0.61682172       0.50000000 </v>
    <v>       0.50000000       0.50000000       0.33478917 </v>
    <v>       0.50000000       0.50000000       0.66521087 </v>
    <v>       0.32826705       0.44576024       0.58308023 </v>
    <v>       0.55423973       0.67173293       0.58308023 </v>
    <v>       0.55791699       0.44208301       0.58190703 </v>
    <v>       0.44208298       0.55791702       0.41809300 </v>
    <v>       0.44208301       0.44208301       0.58190703 </v>
    <v>       0.67173295       0.44576024       0.58308023 </v>
    <v>       0.44576027       0.67173293       0.58308023 </v>
    <v>       0.55791702       0.55791702       0.41809300 </v>
    <v>       0.38416599       0.50000002       0.50000000 </v>
    <v>       0.61583401       0.50000002       0.50000000 </v>
    <v>       0.50000000       0.61749319       0.34021317 </v>
    <v>       0.50000000       0.61749319       0.65978680 </v>
    <v>       0.50000000       0.50000000       0.50000000 </v>
    <v>       0.44208298       0.55791702       0.58190703 </v>
    <v>       0.55791702       0.55791702       0.58190703 </v>
    <v>       0.50000000       0.61583404       0.50000000 </v>
    <v>       0.42254087       0.51805593       0.70281437 </v>
    <v>       0.40917187       0.52117227       0.73781893 </v>
   </varray>
  </structure>
  <varray name="forces" >
   <v>       0.70198860       1.10976958       0.29083163 </v>
   <v>      -1.10562392      -0.69879347       0.28930491 </v>
   <v>      -0.69849810       1.10867609       0.29263880 </v>
   <v>       1.11627687      -0.69870351       0.29217954 </v>
   <v>      -0.00551141       0.40843733       1.27871705 </v>
   <v>       0.03478951       0.37761434      -1.30311515 </v>
   <v>      -0.00696422       1.50973485       0.00282148 </v>
   <v>       1.50902365       0.01610134       0.03750403 </v>
   <v>      -1.51144640       0.00251517       0.00038818 </v>
   <v>      -0.00923922      -1.50566228       0.00626712 </v>
   <v>      -0.75334994       0.74717642       1.07603582 </v>
   <v>      -0.75811559       0.75478694      -1.07211958 </v>
   <v>       0.75442060      -0.75530555       1.07186872 </v>
   <v>       0.72286681      -0.69975581      -1.03388109 </v>
   <v>       0.75270086       0.75530489       1.07247791 </v>
   <v>       0.72491090       0.68197309      -1.06815350 </v>
   <v>      -0.75509322      -0.74848605       1.07479380 </v>
   <v>      -0.75698458      -0.75292208      -1.07361426 </v>
   <v>       0.70053473       1.10459424      -0.29709863 </v>
   <v>      -1.10925692      -0.69780677      -0.28981124 </v>
   <v>       0.11306146      -0.11630862      -0.14770693 </v>
   <v>       1.11815736       0.69940329       0.28535148 </v>
   <v>      -0.69866408      -1.11036974       0.28471287 </v>
   <v>      -0.70383849       1.11280518      -0.28190134 </v>
   <v>       1.01891801      -0.69521040      -0.39944741 </v>
   <v>      -1.10635219       0.69878283       0.29278106 </v>
   <v>       0.70132971      -1.11290615       0.29309350 </v>
   <v>      -0.11047931      -0.11428239      -0.15853417 </v>
   <v>       0.00616531      -0.22574367      -0.01021526 </v>
   <v>      -0.40057320       0.00401862       1.28126443 </v>
   <v>      -0.41616508      -0.00518827      -1.28487964 </v>
   <v>       0.41516107      -0.00004486       1.27855323 </v>
   <v>      -0.19146233      -0.46481838      -2.92266877 </v>
   <v>       0.83683839       0.82838256       0.00450028 </v>
   <v>      -0.82250308      -0.83065889      -0.00642294 </v>
   <v>      -0.81705925       0.82473227      -0.01393382 </v>
   <v>       0.83770835      -0.83052234       0.00155698 </v>
   <v>      -0.01644506       0.00324802       1.18262149 </v>
   <v>      -0.83494613       0.26016656      -0.61633921 </v>
   <v>       1.05420495       0.68224012      -0.33514711 </v>
   <v>      -0.71073321      -1.11227885      -0.27419933 </v>
   <v>       0.12294878      -0.11492119       0.14942131 </v>
   <v>      -0.11189892       0.11538279      -0.15544679 </v>
   <v>      -0.11093449      -0.16565803       0.08336509 </v>
   <v>      -1.11516331       0.69596913      -0.28837232 </v>
   <v>       0.71554383      -1.08910244      -0.31624166 </v>
   <v>       0.11252553       0.11532109      -0.15009791 </v>
   <v>      -0.22494360       0.00051669       0.00668686 </v>
   <v>       0.21287837      -0.00439552       0.00106840 </v>
   <v>      -0.00239543      -0.40991597       1.27804605 </v>
   <v>       0.06172774      -0.37040983      -1.30727331 </v>
   <v>      -0.00638951       0.00470429      -0.00251934 </v>
   <v>      -0.08874383       0.16181523       0.02639795 </v>
   <v>       0.14174071       0.12818432       0.13491271 </v>
   <v>      -0.00294699       0.22253033      -0.00394038 </v>
   <v>       2.73753956      -0.76474606      -5.26691675 </v>
   <v>      -1.26124066       0.96002954       6.70983518 </v>
  </varray>
  <varray name="stress" >
   <v>      -6.75192669       0.04634090       0.02771061 </v>
   <v>       0.04634087      -6.67379411       0.07457507 </v>
   <v>       0.02771059       0.07457506      -6.18339083 </v>
  </varray>
  <energy>
   <i name="e_fr_energy">   -174.76863362 </i>
   <i name="e_wo_entrp">   -174.75933575 </i>
   <i name="e_0_energy">     -0.03719149 </i>
  </energy>
  <time name="totalsc">18488.2018488.51</time>
  <eigenvalues>
   <array>
    <dimension dim="1">band</dimension>
    <dimension dim="2">kpoint</dimension>
    <dimension dim="3">spin</dimension>
    <field>eigene</field>
    <field>occ</field>
    <set>
     <set comment="spin 1">
      <set comment="kpoint 1">
       <r>  -28.2141    1.0000 </r>
       <r>  -13.2638    1.0000 </r>
       <r>  -11.2631    1.0000 </r>
       <r>  -10.8062    1.0000 </r>
       <r>  -10.0585    1.0000 </r>
       <r>   -6.6605    1.0000 </r>
       <r>   -6.2598    1.0000 </r>
       <r>   -6.1978    1.0000 </r>
       <r>   -6.1350    1.0000 </r>
       <r>   -6.1304    1.0000 </r>
       <r>   -6.0285    1.0000 </r>
       <r>   -5.8432    1.0000 </r>
       <r>   -5.8263    1.0000 </r>
       <r>   -5.8044    1.0000 </r>
       <r>   -5.7632    1.0000 </r>
       <r>   -5.7481    1.0000 </r>
       <r>   -5.6960    1.0000 </r>
       <r>   -5.6920    1.0000 </r>
       <r>   -5.6840    1.0000 </r>
       <r>   -5.6620    1.0000 </r>
       <r>   -5.6582    1.0000 </r>
       <r>   -5.6293    1.0000 </r>
       <r>   -5.6140    1.0000 </r>
       <r>   -5.6007    1.0000 </r>
       <r>   -5.5959    1.0000 </r>
       <r>   -5.5737    1.0000 </r>
       <r>   -5.5667    1.0000 </r>
       <r>   -5.5601    1.0000 </r>
       <r>   -5.5490    1.0000 </r>
       <r>   -5.5455    1.0000 </r>
       <r>   -5.5427    1.0000 </r>
       <r>   -5.5252    1.0000 </r>
       <r>   -5.5206    1.0000 </r>
       <r>   -5.5190    1.0000 </r>
       <r>   -5.5148    1.0000 </r>
       <r>   -5.5131    1.0000 </r>
       <r>   -5.5066    1.0000 </r>
       <r>   -5.4945    1.0000 </r>
       <r>   -5.4884    1.0000 </r>
       <r>   -5.4823    1.0000 </r>
       <r>   -5.4729    1.0000 </r>
       <r>   -5.4715    1.0000 </r>
       <r>   -5.4675    1.0000 </r>
       <r>   -5.4660    1.0000 </r>
       <r>   -5.4635    1.0000 </r>
       <r>   -5.4460    1.0000 </r>
       <r>   -5.4390    1.0000 </r>
       <r>   -5.4345    1.0000 </r>
       <r>   -5.4285    1.0000 </r>
       <r>   -5.4268    1.0000 </r>
       <r>   -5.4239    1.0000 </r>
       <r>   -5.4109    1.0000 </r>
       <r>   -5.4049    1.0000 </r>
       <r>   -5.4037    1.0000 </r>
       <r>   -5.3947    1.0000 </r>
       <r>   -5.3821    1.0000 </r>
       <r>   -5.3667    1.0000 </r>
       <r>   -5.3465    1.0000 </r>
       <r>   -5.3347    1.0000 </r>
       <r>   -5.3285    1.0000 </r>
       <r>   -5.3267    1.0000 </r>
       <r>   -5.3228    1.0000 </r>
       <r>   -5.3148    1.0000 </r>
       <r>   -5.3089    1.0000 </r>
       <r>   -5.2997    1.0000 </r>
       <r>   -5.2991    1.0000 </r>
       <r>   -5.2919    1.0000 </r>
       <r>   -5.2654    1.0000 </r>
       <r>   -5.2534    1.0000 </r>
       <r>   -5.2350    1.0000 </r>
       <r>   -5.2212    1.0000 </r>
       <r>   -5.2104    1.0000 </r>
       <r>   -5.2012    1.0000 </r>
       <r>   -5.1986    1.0000 </r>
       <r>   -5.1866    1.0000 </r>
       <r>   -5.1802    1.0000 </r>
       <r>   -5.1760    1.0000 </r>
       <r>   -5.1744    1.0000 </r>
       <r>   -5.1683    1.0000 </r>
       <r>   -5.1641    1.0000 </r>
       <r>   -5.1596    1.0000 </r>
       <r>   -5.1411    1.0000 </r>
       <r>   -5.1332    1.0000 </r>
       <r>   -5.1275    1.0000 </r>
       <r>   -5.1192    1.0000 </r>
       <r>   -5.1152    1.0000 </r>
       <r>   -5.1101    1.0000 </r>
       <r>   -5.1014    1.0000 </r>
       <r>   -5.0812    1.0000 </r>
       <r>   -5.0760    1.0000 </r>
       <r>   -5.0730    1.0000 </r>
       <r>   -5.0618    1.0000 </r>
       <r>   -5.0571    1.0000 </r>
       <r>   -5.0532    1.0000 </r>
       <r>   -5.0527    1.0000 </r>
       <r>   -5.0484    1.0000 </r>
       <r>   -5.0466    1.0000 </r>
       <r>   -5.0379    1.0000 </r>
       <r>   -5.0347    1.0000 </r>
       <r>   -5.0307    1.0000 </r>
       <r>   -5.0235    1.0000 </r>
       <r>   -5.0197    1.0000 </r>
       <r>   -5.0192    1.0000 </r>
       <r>   -5.0096    1.0000 </r>
       <r>   -5.0022    1.0000 </r>
       <r>   -5.0014    1.0000 </r>
       <r>   -4.9937    1.0000 </r>
       <r>   -4.9909    1.0000 </r>
       <r>   -4.9902    1.0000 </r>
       <r>   -4.9784    1.0000 </r>
       <r>   -4.9762    1.0000 </r>
       <r>   -4.9752    1.0000 </r>
       <r>   -4.9702    1.0000 </r>
       <r>   -4.9620    1.0000 </r>
       <r>   -4.9577    1.0000 </r>
       <r>   -4.9546    1.0000 </r>
       <r>   -4.9423    1.0000 </r>
       <r>   -4.9418    1.0000 </r>
       <r>   -4.9346    1.0000 </r>
       <r>   -4.9321    1.0000 </r>
       <r>   -4.9197    1.0000 </r>
       <r>   -4.9116    1.0000 </r>
       <r>   -4.9084    1.0000 </r>
       <r>   -4.9068    1.0000 </r>
       <r>   -4.9031    1.0000 </r>
       <r>   -4.8995    1.0000 </r>
       <r>   -4.8796    1.0000 </r>
       <r>   -4.8738    1.0000 </r>
       <r>   -4.8660    1.0000 </r>
       <r>   -4.8588    1.0000 </r>
       <r>   -4.8487    1.0000 </r>
       <r>   -4.8460    1.0000 </r>
       <r>   -4.8387    1.0000 </r>
       <r>   -4.8356    1.0000 </r>
       <r>   -4.8317    1.0000 </r>
       <r>   -4.8286    1.0000 </r>
       <r>   -4.8146    0.9999 </r>
       <r>   -4.8089    0.9999 </r>
       <r>   -4.7971    0.9999 </r>
       <r>   -4.7888    0.9999 </r>
       <r>   -4.7813    0.9999 </r>
       <r>   -4.7704    0.9998 </r>
       <r>   -4.7565    0.9998 </r>
       <r>   -4.7536    0.9997 </r>
       <r>   -4.7431    0.9997 </r>
       <r>   -4.7366    0.9996 </r>
       <r>   -4.7355    0.9996 </r>
       <r>   -4.7325    0.9996 </r>
       <r>   -4.7181    0.9994 </r>
       <r>   -4.7038    0.9992 </r>
       <r>   -4.6996    0.9992 </r>
       <r>   -4.6953    0.9991 </r>
       <r>   -4.6878    0.9990 </r>
       <r>   -4.6854    0.9989 </r>
       <r>   -4.6808    0.9988 </r>
       <r>   -4.6772    0.9987 </r>
       <r>   -4.6723    0.9986 </r>
       <r>   -4.6706    0.9986 </r>
       <r>   -4.6681    0.9985 </r>
       <r>   -4.6623    0.9984 </r>
       <r>   -4.6575    0.9983 </r>
       <r>   -4.6570    0.9982 </r>
       <r>   -4.6500    0.9980 </r>
       <r>   -4.6490    0.9980 </r>
       <r>   -4.6470    0.9979 </r>
       <r>   -4.6454    0.9979 </r>
       <r>   -4.6419    0.9978 </r>
       <r>   -4.6387    0.9977 </r>
       <r>   -4.6378    0.9976 </r>
       <r>   -4.6303    0.9974 </r>
       <r>   -4.6195    0.9970 </r>
       <r>   -4.6141    0.9968 </r>
       <r>   -4.6077    0.9965 </r>
       <r>   -4.6058    0.9965 </r>
       <r>   -4.5995    0.9962 </r>
       <r>   -4.5970    0.9961 </r>
       <r>   -4.5949    0.9961 </r>
       <r>   -4.5903    0.9959 </r>
       <r>   -4.5894    0.9959 </r>
       <r>   -4.5860    0.9958 </r>
       <r>   -4.5789    0.9955 </r>
       <r>   -4.5659    0.9952 </r>
       <r>   -4.5644    0.9952 </r>
       <r>   -4.5605    0.9951 </r>
       <r>   -4.5580    0.9951 </r>
       <r>   -4.5541    0.9951 </r>
       <r>   -4.5523    0.9951 </r>
       <r>   -4.5479    0.9951 </r>
       <r>   -4.5468    0.9951 </r>
       <r>   -4.5335    0.9953 </r>
       <r>   -4.5318    0.9954 </r>
       <r>   -4.5221    0.9958 </r>
       <r>   -4.5142    0.9964 </r>
       <r>   -4.5110    0.9967 </r>
       <r>   -4.5017    0.9977 </r>
       <r>   -4.4989    0.9981 </r>
       <r>   -4.4957    0.9985 </r>
       <r>   -4.4884    0.9997 </r>
       <r>   -4.4847    1.0004 </r>
       <r>   -4.4767    1.0021 </r>
       <r>   -4.4741    1.0027 </r>
       <r>   -4.4658    1.0048 </r>
       <r>   -4.4615    1.0060 </r>
       <r>   -4.4576    1.0072 </r>
       <r>   -4.4558    1.0078 </r>
       <r>   -4.4520    1.0091 </r>
       <r>   -4.4488    1.0102 </r>
       <r>   -4.4438    1.0120 </r>
       <r>   -4.4417    1.0128 </r>
       <r>   -4.4383    1.0141 </r>
       <r>   -4.4373    1.0145 </r>
       <r>   -4.4200    1.0219 </r>
       <r>   -4.4183    1.0228 </r>
       <r>   -4.4144    1.0246 </r>
       <r>   -4.4124    1.0255 </r>
       <r>   -4.4047    1.0292 </r>
       <r>   -4.4043    1.0294 </r>
       <r>   -4.4021    1.0304 </r>
       <r>   -4.3983    1.0323 </r>
       <r>   -4.3930    1.0348 </r>
       <r>   -4.3855    1.0383 </r>
       <r>   -4.3788    1.0413 </r>
       <r>   -4.3709    1.0445 </r>
       <r>   -4.3618    1.0477 </r>
       <r>   -4.3549    1.0495 </r>
       <r>   -4.3433    1.0514 </r>
       <r>   -4.3387    1.0516 </r>
       <r>   -4.3366    1.0516 </r>
       <r>   -4.3348    1.0515 </r>
       <r>   -4.3329    1.0514 </r>
       <r>   -4.3312    1.0512 </r>
       <r>   -4.3308    1.0511 </r>
       <r>   -4.3283    1.0507 </r>
       <r>   -4.3234    1.0495 </r>
       <r>   -4.3211    1.0488 </r>
       <r>   -4.3206    1.0486 </r>
       <r>   -4.3196    1.0482 </r>
       <r>   -4.3166    1.0470 </r>
       <r>   -4.3147    1.0461 </r>
       <r>   -4.3095    1.0432 </r>
       <r>   -4.3060    1.0407 </r>
       <r>   -4.2993    1.0352 </r>
       <r>   -4.2965    1.0325 </r>
       <r>   -4.2928    1.0285 </r>
       <r>   -4.2875    1.0221 </r>
       <r>   -4.2868    1.0211 </r>
       <r>   -4.2836    1.0167 </r>
       <r>   -4.2823    1.0149 </r>
       <r>   -4.2785    1.0090 </r>
       <r>   -4.2771    1.0067 </r>
       <r>   -4.2660    0.9859 </r>
       <r>   -4.2641    0.9820 </r>
       <r>   -4.2625    0.9785 </r>
       <r>   -4.2561    0.9637 </r>
       <r>   -4.2550    0.9608 </r>
       <r>   -4.2515    0.9519 </r>
       <r>   -4.2479    0.9421 </r>
       <r>   -4.2462    0.9374 </r>
       <r>   -4.2422    0.9259 </r>
       <r>   -4.2417    0.9243 </r>
       <r>   -4.2406    0.9211 </r>
       <r>   -4.2369    0.9094 </r>
       <r>   -4.2335    0.8984 </r>
       <r>   -4.2331    0.8970 </r>
       <r>   -4.2316    0.8921 </r>
       <r>   -4.2222    0.8585 </r>
       <r>   -4.2213    0.8553 </r>
       <r>   -4.2193    0.8476 </r>
       <r>   -4.2183    0.8437 </r>
       <r>   -4.2145    0.8287 </r>
       <r>   -4.2120    0.8184 </r>
       <r>   -4.2071    0.7982 </r>
       <r>   -4.1982    0.7591 </r>
       <r>   -4.1898    0.7200 </r>
       <r>   -4.1841    0.6930 </r>
       <r>   -4.1829    0.6870 </r>
       <r>   -4.1752    0.6484 </r>
       <r>   -4.1705    0.6250 </r>
       <r>   -4.1700    0.6221 </r>
       <r>   -4.1659    0.6012 </r>
       <r>   -4.1622    0.5818 </r>
       <r>   -4.1548    0.5428 </r>
       <r>   -4.1423    0.4772 </r>
       <r>   -4.1271    0.3972 </r>
       <r>   -4.1254    0.3887 </r>
       <r>   -4.1249    0.3858 </r>
       <r>   -4.1164    0.3427 </r>
       <r>   -4.1070    0.2967 </r>
       <r>   -4.0197   -0.0006 </r>
       <r>   -3.9666   -0.0504 </r>
       <r>   -3.9066   -0.0378 </r>
       <r>   -3.8262   -0.0045 </r>
       <r>   -3.8155   -0.0018 </r>
       <r>   -3.7533    0.0048 </r>
       <r>   -3.4991    0.0001 </r>
       <r>   -3.4889    0.0001 </r>
       <r>   -3.3414    0.0000 </r>
       <r>   -3.0621    0.0000 </r>
       <r>   -3.0583    0.0000 </r>
       <r>   -3.0353    0.0000 </r>
       <r>   -3.0315    0.0000 </r>
       <r>   -3.0223    0.0000 </r>
       <r>   -2.9957    0.0000 </r>
       <r>   -2.9354    0.0000 </r>
       <r>   -2.8430    0.0000 </r>
       <r>   -2.5420    0.0000 </r>
       <r>   -2.5208    0.0000 </r>
       <r>   -2.4564    0.0000 </r>
       <r>   -2.2200    0.0000 </r>
       <r>   -2.1216    0.0000 </r>
       <r>   -2.1180    0.0000 </r>
       <r>   -2.1097    0.0000 </r>
       <r>   -2.0051    0.0000 </r>
       <r>   -1.9657    0.0000 </r>
       <r>   -1.9510    0.0000 </r>
       <r>   -1.8610    0.0000 </r>
       <r>   -1.8426    0.0000 </r>
       <r>   -1.7438    0.0000 </r>
       <r>   -1.6674    0.0000 </r>
       <r>   -1.6402    0.0000 </r>
       <r>   -1.6007    0.0000 </r>
       <r>   -1.5592    0.0000 </r>
       <r>   -1.4820    0.0000 </r>
       <r>   -1.3848    0.0000 </r>
       <r>   -1.2724    0.0000 </r>
       <r>   -1.1115    0.0000 </r>
       <r>   -1.0337    0.0000 </r>
       <r>   -0.9985    0.0000 </r>
       <r>   -0.9780    0.0000 </r>
       <r>   -0.9606    0.0000 </r>
       <r>   -0.9431    0.0000 </r>
       <r>   -0.9359    0.0000 </r>
       <r>   -0.9125    0.0000 </r>
       <r>   -0.8872    0.0000 </r>
       <r>   -0.8065    0.0000 </r>
       <r>   -0.7222    0.0000 </r>
      </set>
     </set>
    </set>
   </array>
  </eigenvalues>
  <separator name="orbital magnetization" >
   <v name="MAGDIPOLOUT">      0.00000000      0.00000000      0.00000000</v>
  </separator>
  <dos>
   <i name="efermi">     -4.14665277 </i>
   <total>
    <array>
     <dimension dim="1">gridpoints</dimension>
     <dimension dim="2">spin</dimension>
     <field>energy</field>
     <field>total</field>
     <field>integrated</field>
     <set>
      <set comment="spin 1">
       <r>   -30.2141     0.0000     0.0000 </r>
       <r>   -30.1092     0.0000     0.0000 </r>
       <r>   -30.0042     0.0000     0.0000 </r>
       <r>   -29.8992     0.0000     0.0000 </r>
       <r>   -29.7942     0.0000     0.0000 </r>
       <r>   -29.6893     0.0000     0.0000 </r>
       <r>   -29.5843     0.0000     0.0000 </r>
       <r>   -29.4793     0.0000     0.0000 </r>
       <r>   -29.3743     0.0000     0.0000 </r>
       <r>   -29.2694     0.0000     0.0000 </r>
       <r>   -29.1644     0.0000     0.0000 </r>
       <r>   -29.0594     0.0000     0.0000 </r>
       <r>   -28.9544     0.0001     0.0000 </r>
       <r>   -28.8495     0.0023     0.0003 </r>
       <r>   -28.7445     0.0215     0.0025 </r>
       <r>   -28.6395     0.0646     0.0093 </r>
       <r>   -28.5346    -0.1734    -0.0089 </r>
       <r>   -28.4296    -0.8212    -0.0951 </r>
       <r>   -28.3246     1.5515     0.0677 </r>
       <r>   -28.2196     8.3261     0.9418 </r>
       <r>   -28.1147     8.8853     1.8745 </r>
       <r>   -28.0097     2.1552     2.1007 </r>
       <r>   -27.9047    -0.8126     2.0154 </r>
       <r>   -27.7997    -0.2395     1.9903 </r>
       <r>   -27.6948     0.0636     1.9970 </r>
       <r>   -27.5898     0.0258     1.9997 </r>
       <r>   -27.4848     0.0030     2.0000 </r>
       <r>   -27.3798     0.0002     2.0000 </r>
       <r>   -27.2749     0.0000     2.0000 </r>
       <r>   -27.1699     0.0000     2.0000 </r>
       <r>   -27.0649     0.0000     2.0000 </r>
       <r>   -26.9600     0.0000     2.0000 </r>
       <r>   -26.8550     0.0000     2.0000 </r>
       <r>   -26.7500     0.0000     2.0000 </r>
       <r>   -26.6450     0.0000     2.0000 </r>
       <r>   -26.5401     0.0000     2.0000 </r>
       <r>   -26.4351     0.0000     2.0000 </r>
       <r>   -26.3301     0.0000     2.0000 </r>
       <r>   -26.2251     0.0000     2.0000 </r>
       <r>   -26.1202     0.0000     2.0000 </r>
       <r>   -26.0152     0.0000     2.0000 </r>
       <r>   -25.9102     0.0000     2.0000 </r>
       <r>   -25.8052     0.0000     2.0000 </r>
       <r>   -25.7003     0.0000     2.0000 </r>
       <r>   -25.5953     0.0000     2.0000 </r>
       <r>   -25.4903     0.0000     2.0000 </r>
       <r>   -25.3854     0.0000     2.0000 </r>
       <r>   -25.2804     0.0000     2.0000 </r>
       <r>   -25.1754     0.0000     2.0000 </r>
       <r>   -25.0704     0.0000     2.0000 </r>
       <r>   -24.9655     0.0000     2.0000 </r>
       <r>   -24.8605     0.0000     2.0000 </r>
       <r>   -24.7555     0.0000     2.0000 </r>
       <r>   -24.6505     0.0000     2.0000 </r>
       <r>   -24.5456     0.0000     2.0000 </r>
       <r>   -24.4406     0.0000     2.0000 </r>
       <r>   -24.3356     0.0000     2.0000 </r>
       <r>   -24.2306     0.0000     2.0000 </r>
       <r>   -24.1257     0.0000     2.0000 </r>
       <r>   -24.0207     0.0000     2.0000 </r>
       <r>   -23.9157     0.0000     2.0000 </r>
       <r>   -23.8108     0.0000     2.0000 </r>
       <r>   -23.7058     0.0000     2.0000 </r>
       <r>   -23.6008     0.0000     2.0000 </r>
       <r>   -23.4958     0.0000     2.0000 </r>
       <r>   -23.3909     0.0000     2.0000 </r>
       <r>   -23.2859     0.0000     2.0000 </r>
       <r>   -23.1809     0.0000     2.0000 </r>
       <r>   -23.0759     0.0000     2.0000 </r>
       <r>   -22.9710     0.0000     2.0000 </r>
       <r>   -22.8660     0.0000     2.0000 </r>
       <r>   -22.7610     0.0000     2.0000 </r>
       <r>   -22.6561     0.0000     2.0000 </r>
       <r>   -22.5511     0.0000     2.0000 </r>
       <r>   -22.4461     0.0000     2.0000 </r>
       <r>   -22.3411     0.0000     2.0000 </r>
       <r>   -22.2362     0.0000     2.0000 </r>
       <r>   -22.1312     0.0000     2.0000 </r>
       <r>   -22.0262     0.0000     2.0000 </r>
       <r>   -21.9212     0.0000     2.0000 </r>
       <r>   -21.8163     0.0000     2.0000 </r>
       <r>   -21.7113     0.0000     2.0000 </r>
       <r>   -21.6063     0.0000     2.0000 </r>
       <r>   -21.5013     0.0000     2.0000 </r>
       <r>   -21.3964     0.0000     2.0000 </r>
       <r>   -21.2914     0.0000     2.0000 </r>
       <r>   -21.1864     0.0000     2.0000 </r>
       <r>   -21.0815     0.0000     2.0000 </r>
       <r>   -20.9765     0.0000     2.0000 </r>
       <r>   -20.8715     0.0000     2.0000 </r>
       <r>   -20.7665     0.0000     2.0000 </r>
       <r>   -20.6616     0.0000     2.0000 </r>
       <r>   -20.5566     0.0000     2.0000 </r>
       <r>   -20.4516     0.0000     2.0000 </r>
       <r>   -20.3466     0.0000     2.0000 </r>
       <r>   -20.2417     0.0000     2.0000 </r>
       <r>   -20.1367     0.0000     2.0000 </r>
       <r>   -20.0317     0.0000     2.0000 </r>
       <r>   -19.9267     0.0000     2.0000 </r>
       <r>   -19.8218     0.0000     2.0000 </r>
       <r>   -19.7168     0.0000     2.0000 </r>
       <r>   -19.6118     0.0000     2.0000 </r>
       <r>   -19.5069     0.0000     2.0000 </r>
       <r>   -19.4019     0.0000     2.0000 </r>
       <r>   -19.2969     0.0000     2.0000 </r>
       <r>   -19.1919     0.0000     2.0000 </r>
       <r>   -19.0870     0.0000     2.0000 </r>
       <r>   -18.9820     0.0000     2.0000 </r>
       <r>   -18.8770     0.0000     2.0000 </r>
       <r>   -18.7720     0.0000     2.0000 </r>
       <r>   -18.6671     0.0000     2.0000 </r>
       <r>   -18.5621     0.0000     2.0000 </r>
       <r>   -18.4571     0.0000     2.0000 </r>
       <r>   -18.3521     0.0000     2.0000 </r>
       <r>   -18.2472     0.0000     2.0000 </r>
       <r>   -18.1422     0.0000     2.0000 </r>
       <r>   -18.0372     0.0000     2.0000 </r>
       <r>   -17.9323     0.0000     2.0000 </r>
       <r>   -17.8273     0.0000     2.0000 </r>
       <r>   -17.7223     0.0000     2.0000 </r>
       <r>   -17.6173     0.0000     2.0000 </r>
       <r>   -17.5124     0.0000     2.0000 </r>
       <r>   -17.4074     0.0000     2.0000 </r>
       <r>   -17.3024     0.0000     2.0000 </r>
       <r>   -17.1974     0.0000     2.0000 </r>
       <r>   -17.0925     0.0000     2.0000 </r>
       <r>   -16.9875     0.0000     2.0000 </r>
       <r>   -16.8825     0.0000     2.0000 </r>
       <r>   -16.7776     0.0000     2.0000 </r>
       <r>   -16.6726     0.0000     2.0000 </r>
       <r>   -16.5676     0.0000     2.0000 </r>
       <r>   -16.4626     0.0000     2.0000 </r>
       <r>   -16.3577     0.0000     2.0000 </r>
       <r>   -16.2527     0.0000     2.0000 </r>
       <r>   -16.1477     0.0000     2.0000 </r>
       <r>   -16.0427     0.0000     2.0000 </r>
       <r>   -15.9378     0.0000     2.0000 </r>
       <r>   -15.8328     0.0000     2.0000 </r>
       <r>   -15.7278     0.0000     2.0000 </r>
       <r>   -15.6228     0.0000     2.0000 </r>
       <r>   -15.5179     0.0000     2.0000 </r>
       <r>   -15.4129     0.0000     2.0000 </r>
       <r>   -15.3079     0.0000     2.0000 </r>
       <r>   -15.2030     0.0000     2.0000 </r>
       <r>   -15.0980     0.0000     2.0000 </r>
       <r>   -14.9930     0.0000     2.0000 </r>
       <r>   -14.8880     0.0000     2.0000 </r>
       <r>   -14.7831     0.0000     2.0000 </r>
       <r>   -14.6781     0.0000     2.0000 </r>
       <r>   -14.5731     0.0000     2.0000 </r>
       <r>   -14.4681     0.0000     2.0000 </r>
       <r>   -14.3632     0.0000     2.0000 </r>
       <r>   -14.2582     0.0000     2.0000 </r>
       <r>   -14.1532     0.0000     2.0000 </r>
       <r>   -14.0482     0.0000     2.0000 </r>
       <r>   -13.9433     0.0007     2.0001 </r>
       <r>   -13.8383     0.0093     2.0011 </r>
       <r>   -13.7333     0.0498     2.0063 </r>
       <r>   -13.6284     0.0035     2.0067 </r>
       <r>   -13.5234    -0.6054     1.9431 </r>
       <r>   -13.4184    -0.1620     1.9261 </r>
       <r>   -13.3134     5.4608     2.4993 </r>
       <r>   -13.2085    10.0280     3.5520 </r>
       <r>   -13.1035     5.0572     4.0829 </r>
       <r>   -12.9985    -0.2996     4.0514 </r>
       <r>   -12.8935    -0.5625     3.9924 </r>
       <r>   -12.7886     0.0167     3.9941 </r>
       <r>   -12.6836     0.0469     3.9991 </r>
       <r>   -12.5786     0.0083     3.9999 </r>
       <r>   -12.4736     0.0006     4.0000 </r>
       <r>   -12.3687     0.0000     4.0000 </r>
       <r>   -12.2637     0.0000     4.0000 </r>
       <r>   -12.1587     0.0000     4.0000 </r>
       <r>   -12.0538     0.0000     4.0000 </r>
       <r>   -11.9488     0.0006     4.0001 </r>
       <r>   -11.8438     0.0082     4.0009 </r>
       <r>   -11.7388     0.0467     4.0058 </r>
       <r>   -11.6339     0.0177     4.0077 </r>
       <r>   -11.5289    -0.5586     3.9490 </r>
       <r>   -11.4239    -0.3069     3.9168 </r>
       <r>   -11.3189     5.0518     4.4471 </r>
       <r>   -11.2140    10.0879     5.5061 </r>
       <r>   -11.1090     5.2120     6.0532 </r>
       <r>   -11.0040    -0.9382     5.9547 </r>
       <r>   -10.8991     1.9364     6.1580 </r>
       <r>   -10.7941     9.1765     7.1213 </r>
       <r>   -10.6891     8.0046     7.9615 </r>
       <r>   -10.5841     1.2550     8.0933 </r>
       <r>   -10.4792    -0.7453     8.0151 </r>
       <r>   -10.3742    -0.3391     7.9795 </r>
       <r>   -10.2692    -0.7579     7.8999 </r>
       <r>   -10.1642     1.8251     8.0915 </r>
       <r>   -10.0593     8.5819     8.9923 </r>
       <r>    -9.9543     8.6535     9.9007 </r>
       <r>    -9.8493     1.8851    10.0986 </r>
       <r>    -9.7443    -0.8208    10.0125 </r>
       <r>    -9.6394    -0.2098     9.9904 </r>
       <r>    -9.5344     0.0644     9.9972 </r>
       <r>    -9.4294     0.0239     9.9997 </r>
       <r>    -9.3245     0.0027    10.0000 </r>
       <r>    -9.2195     0.0001    10.0000 </r>
       <r>    -9.1145     0.0000    10.0000 </r>
       <r>    -9.0095     0.0000    10.0000 </r>
       <r>    -8.9046     0.0000    10.0000 </r>
       <r>    -8.7996     0.0000    10.0000 </r>
       <r>    -8.6946     0.0000    10.0000 </r>
       <r>    -8.5896     0.0000    10.0000 </r>
       <r>    -8.4847     0.0000    10.0000 </r>
       <r>    -8.3797     0.0000    10.0000 </r>
       <r>    -8.2747     0.0000    10.0000 </r>
       <r>    -8.1697     0.0000    10.0000 </r>
       <r>    -8.0648     0.0000    10.0000 </r>
       <r>    -7.9598     0.0000    10.0000 </r>
       <r>    -7.8548     0.0000    10.0000 </r>
       <r>    -7.7499     0.0000    10.0000 </r>
       <r>    -7.6449     0.0000    10.0000 </r>
       <r>    -7.5399     0.0000    10.0000 </r>
       <r>    -7.4349     0.0000    10.0000 </r>
       <r>    -7.3300     0.0009    10.0001 </r>
       <r>    -7.2250     0.0114    10.0013 </r>
       <r>    -7.1200     0.0546    10.0070 </r>
       <r>    -7.0150    -0.0245    10.0045 </r>
       <r>    -6.9101    -0.6743     9.9337 </r>
       <r>    -6.8051     0.1475     9.9492 </r>
       <r>    -6.7001     6.2805    10.6084 </r>
       <r>    -6.5951    10.0175    11.6600 </r>
       <r>    -6.4902     3.2411    12.0002 </r>
       <r>    -6.3852    -1.6571    11.8263 </r>
       <r>    -6.2802     9.8181    12.8569 </r>
       <r>    -6.1753    31.2991    16.1425 </r>
       <r>    -6.0703    34.6619    19.7811 </r>
       <r>    -5.9653    17.5925    21.6278 </r>
       <r>    -5.8603    18.9295    23.6149 </r>
       <r>    -5.7554    50.6642    28.9333 </r>
       <r>    -5.6504   106.4039    40.1028 </r>
       <r>    -5.5454   205.6496    61.6905 </r>
       <r>    -5.4404   287.4536    91.8655 </r>
       <r>    -5.3355   263.0086   119.4743 </r>
       <r>    -5.2305   211.6585   141.6928 </r>
       <r>    -5.1255   247.9599   167.7220 </r>
       <r>    -5.0205   338.6632   203.2725 </r>
       <r>    -4.9156   358.3853   240.8934 </r>
       <r>    -4.8106   299.5505   272.3382 </r>
       <r>    -4.7056   313.9848   305.2982 </r>
       <r>    -4.6007   402.7087   347.5718 </r>
       <r>    -4.4957   424.1994   392.1014 </r>
       <r>    -4.3907   439.7297   438.2612 </r>
       <r>    -4.2857   532.8275   494.1939 </r>
       <r>    -4.1808   509.0987   547.6356 </r>
       <r>    -4.0758   264.3230   575.3824 </r>
       <r>    -3.9708    52.8677   580.9321 </r>
       <r>    -3.8658    16.3302   582.6463 </r>
       <r>    -3.7609    31.1640   585.9177 </r>
       <r>    -3.6559    18.3022   587.8390 </r>
       <r>    -3.5509    10.6234   588.9542 </r>
       <r>    -3.4460    20.5933   591.1159 </r>
       <r>    -3.3410    18.1461   593.0208 </r>
       <r>    -3.2360     3.9582   593.4363 </r>
       <r>    -3.1310    14.0471   594.9108 </r>
       <r>    -3.0261    54.1216   600.5921 </r>
       <r>    -2.9211    60.8853   606.9835 </r>
       <r>    -2.8161    26.0575   609.7188 </r>
       <r>    -2.7111     1.8567   609.9137 </r>
       <r>    -2.6062     6.3091   610.5760 </r>
       <r>    -2.5012    24.4508   613.1427 </r>
       <r>    -2.3962    21.9676   615.4487 </r>
       <r>    -2.2912     7.5581   616.2421 </r>
       <r>    -2.1863    17.8211   618.1128 </r>
       <r>    -2.0813    39.5830   622.2680 </r>
       <r>    -1.9763    45.5982   627.0546 </r>
       <r>    -1.8714    39.3176   631.1819 </r>
       <r>    -1.7664    31.7597   634.5158 </r>
       <r>    -1.6614    35.2603   638.2172 </r>
       <r>    -1.5564    40.7063   642.4903 </r>
       <r>    -1.4515    31.4094   645.7874 </r>
       <r>    -1.3465    19.7186   647.8573 </r>
       <r>    -1.2415    12.0654   649.1239 </r>
       <r>    -1.1365    11.6613   650.3480 </r>
       <r>    -1.0316    39.3865   654.4825 </r>
       <r>    -0.9266    73.5937   662.2079 </r>
       <r>    -0.8216    61.7579   668.6908 </r>
       <r>    -0.7166    25.9458   671.4144 </r>
       <r>    -0.6117     6.3025   672.0760 </r>
       <r>    -0.5067    -0.1606   672.0592 </r>
       <r>    -0.4017    -0.7295   671.9826 </r>
       <r>    -0.2968     0.0259   671.9853 </r>
       <r>    -0.1918     0.1109   671.9970 </r>
       <r>    -0.0868     0.0262   671.9997 </r>
       <r>     0.0182     0.0025   672.0000 </r>
       <r>     0.1231     0.0001   672.0000 </r>
       <r>     0.2281     0.0000   672.0000 </r>
       <r>     0.3331     0.0000   672.0000 </r>
       <r>     0.4381     0.0000   672.0000 </r>
       <r>     0.5430     0.0000   672.0000 </r>
       <r>     0.6480     0.0000   672.0000 </r>
       <r>     0.7530     0.0000   672.0000 </r>
       <r>     0.8580     0.0000   672.0000 </r>
       <r>     0.9629     0.0000   672.0000 </r>
       <r>     1.0679     0.0000   672.0000 </r>
       <r>     1.1729     0.0000   672.0000 </r>
       <r>     1.2778     0.0000   672.0000 </r>
      </set>
     </set>
    </array>
   </total>
  </dos>
 </calculation>
 <structure name="finalpos" >
  <crystal>
   <varray name="basis" >
    <v>      30.00000000       0.00000000       0.00000000 </v>
    <v>       0.00000000      30.00000000       0.00000000 </v>
    <v>       0.00000000       0.00000000      30.00000000 </v>
   </varray>
   <i name="volume">  27000.00000000 </i>
   <varray name="rec_basis" >
    <v>       0.03333333       0.00000000       0.00000000 </v>
    <v>       0.00000000       0.03333333       0.00000000 </v>
    <v>       0.00000000       0.00000000       0.03333333 </v>
   </varray>
  </crystal>
  <varray name="positions" >
   <v>       0.44576020       0.32826710       0.41691983 </v>
   <v>       0.67173288       0.55423978       0.41691983 </v>
   <v>       0.55423980       0.32826710       0.41691983 </v>
   <v>       0.32826712       0.55423978       0.41691983 </v>
   <v>       0.50000000       0.38250690       0.34021317 </v>
   <v>       0.50000000       0.38250690       0.65978680 </v>
   <v>       0.50000000       0.27609440       0.50000000 </v>
   <v>       0.27609443       0.49999998       0.50000000 </v>
   <v>       0.72390557       0.49999998       0.50000000 </v>
   <v>       0.50000000       0.72390555       0.50000000 </v>
   <v>       0.61195280       0.38804720       0.34167483 </v>
   <v>       0.61195280       0.38804720       0.65832513 </v>
   <v>       0.38804722       0.61195278       0.34167483 </v>
   <v>       0.38804722       0.61195278       0.65832513 </v>
   <v>       0.38804720       0.38804720       0.34167483 </v>
   <v>       0.38804720       0.38804720       0.65832513 </v>
   <v>       0.61195278       0.61195278       0.34167483 </v>
   <v>       0.61195278       0.61195278       0.65832513 </v>
   <v>       0.44576020       0.32826710       0.58308023 </v>
   <v>       0.67173288       0.55423978       0.58308023 </v>
   <v>       0.55791699       0.44208301       0.41809300 </v>
   <v>       0.32826705       0.44576024       0.41691983 </v>
   <v>       0.55423973       0.67173293       0.41691983 </v>
   <v>       0.55423980       0.32826710       0.58308023 </v>
   <v>       0.32826712       0.55423978       0.58308023 </v>
   <v>       0.67173295       0.44576024       0.41691983 </v>
   <v>       0.44576027       0.67173293       0.41691983 </v>
   <v>       0.44208301       0.44208301       0.41809300 </v>
   <v>       0.50000000       0.38416601       0.50000000 </v>
   <v>       0.61749315       0.50000005       0.34021317 </v>
   <v>       0.61749315       0.50000005       0.65978680 </v>
   <v>       0.38250685       0.50000005       0.34021317 </v>
   <v>       0.38250685       0.50000005       0.65978680 </v>
   <v>       0.38317830       0.38317830       0.50000000 </v>
   <v>       0.61682172       0.61682172       0.50000000 </v>
   <v>       0.61682170       0.38317830       0.50000000 </v>
   <v>       0.38317828       0.61682172       0.50000000 </v>
   <v>       0.50000000       0.50000000       0.33478917 </v>
   <v>       0.50000000       0.50000000       0.66521087 </v>
   <v>       0.32826705       0.44576024       0.58308023 </v>
   <v>       0.55423973       0.67173293       0.58308023 </v>
   <v>       0.55791699       0.44208301       0.58190703 </v>
   <v>       0.44208298       0.55791702       0.41809300 </v>
   <v>       0.44208301       0.44208301       0.58190703 </v>
   <v>       0.67173295       0.44576024       0.58308023 </v>
   <v>       0.44576027       0.67173293       0.58308023 </v>
   <v>       0.55791702       0.55791702       0.41809300 </v>
   <v>       0.38416599       0.50000002       0.50000000 </v>
   <v>       0.61583401       0.50000002       0.50000000 </v>
   <v>       0.50000000       0.61749319       0.34021317 </v>
   <v>       0.50000000       0.61749319       0.65978680 </v>
   <v>       0.50000000       0.50000000       0.50000000 </v>
   <v>       0.44208298       0.55791702       0.58190703 </v>
   <v>       0.55791702       0.55791702       0.58190703 </v>
   <v>       0.50000000       0.61583404       0.50000000 </v>
   <v>       0.42254087       0.51805593       0.70281437 </v>
   <v>       0.40917187       0.52117227       0.73781893 </v>
  </varray>
  <varray name="selective"  type="logical" >
   <v type="logical" >  F  F  F </v>
   <v type="logical" >  F  F  F </v>
   <v type="logical" >  F  F  F </v>
   <v type="logical" >  F  F  F </v>
   <v type="logical" >  F  F  F </v>
   <v type="logical" >  F  F  F </v>
   <v type="logical" >  F  F  F </v>
   <v type="logical" >  F  F  F </v>
   <v type="logical" >  F  F  F </v>
   <v type="logical" >  F  F  F </v>
   <v type="logical" >  F  F  F </v>
   <v type="logical" >  F  F  F </v>
   <v type="logical" >  F  F  F </v>
   <v type="logical" >  F  F  F </v>
   <v type="logical" >  F  F  F </v>
   <v type="logical" >  F  F  F </v>
   <v type="logical" >  F  F  F </v>
   <v type="logical" >  F  F  F </v>
   <v type="logical" >  F  F  F </v>
   <v type="logical" >  F  F  F </v>
   <v type="logical" >  F  F  F </v>
   <v type="logical" >  F  F  F </v>
   <v type="logical" >  F  F  F </v>
   <v type="logical" >  F  F  F </v>
   <v type="logical" >  F  F  F </v>
   <v type="logical" >  F  F  F </v>
   <v type="logical" >  F  F  F </v>
   <v type="logical" >  F  F  F </v>
   <v type="logical" >  F  F  F </v>
   <v type="logical" >  F  F  F </v>
   <v type="logical" >  F  F  F </v>
   <v type="logical" >  F  F  F </v>
   <v type="logical" >  F  F  F </v>
   <v type="logical" >  F  F  F </v>
   <v type="logical" >  F  F  F </v>
   <v type="logical" >  F  F  F </v>
   <v type="logical" >  F  F  F </v>
   <v type="logical" >  F  F  F </v>
   <v type="logical" >  F  F  F </v>
   <v type="logical" >  F  F  F </v>
   <v type="logical" >  F  F  F </v>
   <v type="logical" >  F  F  F </v>
   <v type="logical" >  F  F  F </v>
   <v type="logical" >  F  F  F </v>
   <v type="logical" >  F  F  F </v>
   <v type="logical" >  F  F  F </v>
   <v type="logical" >  F  F  F </v>
   <v type="logical" >  F  F  F </v>
   <v type="logical" >  F  F  F </v>
   <v type="logical" >  F  F  F </v>
   <v type="logical" >  F  F  F </v>
   <v type="logical" >  F  F  F </v>
   <v type="logical" >  F  F  F </v>
   <v type="logical" >  F  F  F </v>
   <v type="logical" >  F  F  F </v>
   <v type="logical" >  F  F  F </v>
   <v type="logical" >  F  F  F </v>
  </varray>
  <nose>
   <v>      -3.00000000       0.00000000       0.00010000       0.00010000 </v>
  </nose>
 </structure>
</modeling>
