   57   57    1    1
  0.4736842E+03  0.3000000E-08  0.3000000E-08  0.3000000E-08  0.5000000E-15
  1.000000000000000E-004
  CAR 
 6_Pd100_top_free_z(O)                   
    560      1    336
 
  0.0000000E+00  0.0000000E+00  0.0000000E+00  0.1000000E+01
    1      -28.959964   1.000000
    2      -13.555056   1.000000
    3      -11.290643   1.000000
    4      -11.286255   1.000000
    5      -10.003214   1.000000
    6       -6.631874   1.000000
    7       -6.115313   1.000000
    8       -6.114910   1.000000
    9       -6.110704   1.000000
   10       -5.805436   1.000000
   11       -5.804324   1.000000
   12       -5.796894   1.000000
   13       -5.731013   1.000000
   14       -5.678969   1.000000
   15       -5.669859   1.000000
   16       -5.669795   1.000000
   17       -5.669586   1.000000
   18       -5.634809   1.000000
   19       -5.616990   1.000000
   20       -5.607873   1.000000
   21       -5.594163   1.000000
   22       -5.587508   1.000000
   23       -5.581110   1.000000
   24       -5.575836   1.000000
   25       -5.572501   1.000000
   26       -5.547883   1.000000
   27       -5.540019   1.000000
   28       -5.520050   1.000000
   29       -5.510958   1.000000
   30       -5.509975   1.000000
   31       -5.503090   1.000000
   32       -5.501626   1.000000
   33       -5.501173   1.000000
   34       -5.500656   1.000000
   35       -5.496311   1.000000
   36       -5.475859   1.000000
   37       -5.472852   1.000000
   38       -5.463855   1.000000
   39       -5.462452   1.000000
   40       -5.454660   1.000000
   41       -5.451858   1.000000
   42       -5.451622   1.000000
   43       -5.451496   1.000000
   44       -5.440991   1.000000
   45       -5.439168   1.000000
   46       -5.426493   1.000000
   47       -5.422932   1.000000
   48       -5.414412   1.000000
   49       -5.413388   1.000000
   50       -5.412849   1.000000
   51       -5.411318   1.000000
   52       -5.396033   1.000000
   53       -5.391867   1.000000
   54       -5.391758   1.000000
   55       -5.377772   1.000000
   56       -5.341002   1.000000
   57       -5.337903   1.000000
   58       -5.320273   1.000000
   59       -5.318165   1.000000
   60       -5.300730   1.000000
   61       -5.300143   1.000000
   62       -5.300075   1.000000
   63       -5.297080   1.000000
   64       -5.293848   1.000000
   65       -5.289356   1.000000
   66       -5.282368   1.000000
   67       -5.278353   1.000000
   68       -5.242948   1.000000
   69       -5.233602   1.000000
   70       -5.209555   1.000000
   71       -5.208306   1.000000
   72       -5.166505   1.000000
   73       -5.165198   1.000000
   74       -5.164966   1.000000
   75       -5.162370   1.000000
   76       -5.160079   1.000000
   77       -5.157622   1.000000
   78       -5.156171   1.000000
   79       -5.152560   1.000000
   80       -5.131438   1.000000
   81       -5.125466   1.000000
   82       -5.117122   1.000000
   83       -5.107671   1.000000
   84       -5.106997   1.000000
   85       -5.101627   1.000000
   86       -5.097055   1.000000
   87       -5.086808   1.000000
   88       -5.078459   1.000000
   89       -5.076613   1.000000
   90       -5.051142   1.000000
   91       -5.050137   1.000000
   92       -5.042389   1.000000
   93       -5.040463   1.000000
   94       -5.036115   1.000000
   95       -5.035975   1.000000
   96       -5.031838   1.000000
   97       -5.031654   1.000000
   98       -5.010896   1.000000
   99       -5.004543   1.000000
  100       -5.002382   1.000000
  101       -4.996237   1.000000
  102       -4.990737   1.000000
  103       -4.989408   1.000000
  104       -4.987188   1.000000
  105       -4.986966   1.000000
  106       -4.974200   1.000000
  107       -4.972523   1.000000
  108       -4.967125   1.000000
  109       -4.963551   1.000000
  110       -4.963511   1.000000
  111       -4.962230   1.000000
  112       -4.959499   1.000000
  113       -4.951872   1.000000
  114       -4.943930   0.999999
  115       -4.941641   0.999999
  116       -4.939976   0.999999
  117       -4.929664   0.999999
  118       -4.925630   0.999999
  119       -4.912764   0.999998
  120       -4.901230   0.999998
  121       -4.901141   0.999998
  122       -4.900428   0.999998
  123       -4.896804   0.999997
  124       -4.894974   0.999997
  125       -4.885672   0.999996
  126       -4.885530   0.999996
  127       -4.857265   0.999990
  128       -4.856008   0.999990
  129       -4.844078   0.999986
  130       -4.842699   0.999985
  131       -4.826675   0.999976
  132       -4.823933   0.999974
  133       -4.815932   0.999967
  134       -4.815624   0.999967
  135       -4.814088   0.999965
  136       -4.805925   0.999956
  137       -4.797999   0.999945
  138       -4.780313   0.999912
  139       -4.776346   0.999902
  140       -4.772685   0.999892
  141       -4.767355   0.999877
  142       -4.743939   0.999779
  143       -4.729664   0.999691
  144       -4.723466   0.999644
  145       -4.721419   0.999627
  146       -4.721225   0.999625
  147       -4.719590   0.999611
  148       -4.708887   0.999508
  149       -4.701777   0.999427
  150       -4.691162   0.999287
  151       -4.682116   0.999146
  152       -4.673821   0.998998
  153       -4.665922   0.998839
  154       -4.661014   0.998732
  155       -4.660486   0.998720
  156       -4.657789   0.998657
  157       -4.656101   0.998617
  158       -4.656031   0.998615
  159       -4.649277   0.998445
  160       -4.641705   0.998239
  161       -4.636891   0.998098
  162       -4.635029   0.998042
  163       -4.634845   0.998036
  164       -4.633621   0.997999
  165       -4.629185   0.997860
  166       -4.628550   0.997839
  167       -4.628459   0.997836
  168       -4.623180   0.997662
  169       -4.613053   0.997310
  170       -4.612360   0.997286
  171       -4.608845   0.997158
  172       -4.605317   0.997029
  173       -4.600632   0.996854
  174       -4.580550   0.996105
  175       -4.580419   0.996100
  176       -4.576814   0.995972
  177       -4.576559   0.995963
  178       -4.570020   0.995741
  179       -4.569570   0.995726
  180       -4.568696   0.995698
  181       -4.556619   0.995353
  182       -4.545277   0.995135
  183       -4.537069   0.995067
  184       -4.536759   0.995067
  185       -4.535175   0.995065
  186       -4.534296   0.995066
  187       -4.534181   0.995066
  188       -4.534049   0.995066
  189       -4.531338   0.995077
  190       -4.530937   0.995080
  191       -4.496238   0.996633
  192       -4.491808   0.997069
  193       -4.491620   0.997089
  194       -4.487698   0.997533
  195       -4.486494   0.997681
  196       -4.474056   0.999521
  197       -4.464745   1.001307
  198       -4.464299   1.001402
  199       -4.459429   1.002495
  200       -4.452087   1.004342
  201       -4.450970   1.004645
  202       -4.446228   1.005993
  203       -4.441188   1.007538
  204       -4.440631   1.007716
  205       -4.434528   1.009757
  206       -4.432572   1.010445
  207       -4.432214   1.010573
  208       -4.429472   1.011571
  209       -4.429023   1.011738
  210       -4.422309   1.014328
  211       -4.410906   1.019121
  212       -4.398493   1.024788
  213       -4.391885   1.027930
  214       -4.391478   1.028126
  215       -4.390432   1.028628
  216       -4.385131   1.031180
  217       -4.384175   1.031640
  218       -4.383751   1.031844
  219       -4.381311   1.033015
  220       -4.368585   1.038973
  221       -4.367259   1.039568
  222       -4.345605   1.047894
  223       -4.335505   1.050391
  224       -4.332001   1.050968
  225       -4.330690   1.051140
  226       -4.322285   1.051621
  227       -4.320559   1.051575
  228       -4.319622   1.051528
  229       -4.319472   1.051519
  230       -4.315622   1.051145
  231       -4.312194   1.050567
  232       -4.312024   1.050532
  233       -4.306551   1.049079
  234       -4.306062   1.048917
  235       -4.305323   1.048662
  236       -4.304729   1.048447
  237       -4.303724   1.048066
  238       -4.302210   1.047445
  239       -4.299343   1.046118
  240       -4.299181   1.046037
  241       -4.288868   1.039450
  242       -4.282880   1.034254
  243       -4.278454   1.029714
  244       -4.277610   1.028779
  245       -4.270854   1.020458
  246       -4.266620   1.014465
  247       -4.266196   1.013830
  248       -4.265684   1.013056
  249       -4.262024   1.007254
  250       -4.261729   1.006765
  251       -4.247350   0.979093
  252       -4.240175   0.962372
  253       -4.239716   0.961235
  254       -4.238905   0.959207
  255       -4.232730   0.942922
  256       -4.232237   0.941558
  257       -4.232150   0.941317
  258       -4.230098   0.935533
  259       -4.225970   0.923402
  260       -4.225959   0.923369
  261       -4.220262   0.905545
  262       -4.218839   0.900898
  263       -4.218771   0.900677
  264       -4.218411   0.899487
  265       -4.215709   0.890410
  266       -4.203719   0.846876
  267       -4.201397   0.837847
  268       -4.200984   0.836224
  269       -4.200538   0.834460
  270       -4.197489   0.822233
  271       -4.196312   0.817433
  272       -4.187901   0.781806
  273       -4.176696   0.731069
  274       -4.174977   0.722986
  275       -4.173886   0.717816
  276       -4.165750   0.678409
  277       -4.165451   0.676934
  278       -4.159645   0.647947
  279       -4.151494   0.606315
  280       -4.150981   0.603663
  281       -4.150621   0.601801
  282       -4.136991   0.530438
  283       -4.117588   0.428087
  284       -4.112918   0.403754
  285       -4.112573   0.401968
  286       -4.107684   0.376776
  287       -4.099400   0.334900
  288       -4.092829   0.302583
  289       -4.053896   0.134880
  290       -3.948425  -0.050908
  291       -3.883431  -0.034104
  292       -3.804120  -0.002752
  293       -3.802991  -0.002484
  294       -3.800125  -0.001829
  295       -3.476387   0.000075
  296       -3.475995   0.000075
  297       -3.397914   0.000008
  298       -3.043200   0.000000
  299       -3.042361   0.000000
  300       -3.002669   0.000000
  301       -2.998802   0.000000
  302       -2.996279   0.000000
  303       -2.995660   0.000000
  304       -2.913553   0.000000
  305       -2.830227   0.000000
  306       -2.548290   0.000000
  307       -2.541498   0.000000
  308       -2.502384   0.000000
  309       -2.236431   0.000000
  310       -2.115903   0.000000
  311       -2.112069   0.000000
  312       -2.100865   0.000000
  313       -1.939520   0.000000
  314       -1.934738   0.000000
  315       -1.861748   0.000000
  316       -1.847584   0.000000
  317       -1.832488   0.000000
  318       -1.741839   0.000000
  319       -1.736243   0.000000
  320       -1.697106   0.000000
  321       -1.625719   0.000000
  322       -1.535164   0.000000
  323       -1.493629   0.000000
  324       -1.424334   0.000000
  325       -1.400221   0.000000
  326       -1.105086   0.000000
  327       -1.092549   0.000000
  328       -1.021061   0.000000
  329       -0.966556   0.000000
  330       -0.959577   0.000000
  331       -0.941792   0.000000
  332       -0.925484   0.000000
  333       -0.914634   0.000000
  334       -0.906381   0.000000
  335       -0.790593   0.000000
  336       -0.775003   0.000000
