 running on    1 total cores
 distrk:  each k-point on    1 cores,    1 groups
 distr:  one band on    1 cores,    1 groups
 using from now: INCAR     
 vasp.5.4.4.18Apr17-6-g9f103f2a35 (build Sep 03 2018 23:53:05) complex          
  
 POSCAR found type information on POSCAR  Pd C  O 
 POSCAR found :  3 types and      57 ions
 scaLAPACK will be used

 ----------------------------------------------------------------------------- 
|                                                                             |
|  ADVICE TO THIS USER RUNNING 'VASP/VAMP'   (HEAR YOUR MASTER'S VOICE ...):  |
|                                                                             |
|      You enforced a specific xc-type in the INCAR file,                     |
|      a different type was found on the POTCAR file                          |
|          I HOPE YOU KNOW, WHAT YOU ARE  DOING                               |
|                                                                             |
 ----------------------------------------------------------------------------- 

 LDA part: xc-table for Pade appr. of Perdew
 POSCAR, INCAR and KPOINTS ok, starting setup
 FFT: planning ...
 WAVECAR not read
 entering main loop
       N       E                     dE             d eps       ncg     rms          rms(c)
DAV:   1     0.438560054337E+04    0.43856E+04   -0.10049E+05   688   0.815E+02
DAV:   2     0.202871658875E+04   -0.23569E+04   -0.21188E+04  1208   0.105E+02
DAV:   3     0.244739154287E+03   -0.17840E+04   -0.16767E+04   984   0.920E+01
DAV:   4    -0.131682064248E+03   -0.37642E+03   -0.31880E+03   824   0.440E+01
DAV:   5    -0.179183240692E+03   -0.47501E+02   -0.38556E+02  1048   0.147E+01    0.143E+01
RMM:   6    -0.179730715266E+03   -0.54747E+00   -0.57546E+01   734   0.903E+00    0.215E+01
RMM:   7    -0.182629711223E+03   -0.28990E+01   -0.19273E+01   847   0.478E+00    0.261E+01
RMM:   8    -0.182480221946E+03    0.14949E+00   -0.64904E+00   829   0.320E+00    0.230E+01
RMM:   9    -0.180854699003E+03    0.16255E+01   -0.52027E+00   727   0.325E+00    0.242E+01
RMM:  10    -0.178789543082E+03    0.20652E+01   -0.30689E+00   734   0.255E+00    0.190E+01
RMM:  11    -0.177758998200E+03    0.10305E+01   -0.20876E+00   727   0.214E+00    0.181E+01
RMM:  12    -0.176928798407E+03    0.83020E+00   -0.10167E+00   730   0.151E+00    0.155E+01
RMM:  13    -0.176090574975E+03    0.83822E+00   -0.99696E-01   722   0.148E+00    0.141E+01
RMM:  14    -0.176244986345E+03   -0.15441E+00   -0.10560E+00   709   0.150E+00    0.177E+01
RMM:  15    -0.175995909042E+03    0.24908E+00   -0.99015E-01   713   0.146E+00    0.128E+01
RMM:  16    -0.175756705272E+03    0.23920E+00   -0.86230E-01   711   0.139E+00    0.127E+01
RMM:  17    -0.175488993192E+03    0.26771E+00   -0.49977E-01   709   0.108E+00    0.113E+01
RMM:  18    -0.175342192740E+03    0.14680E+00   -0.46592E-01   702   0.103E+00    0.105E+01
RMM:  19    -0.175151225469E+03    0.19097E+00   -0.44280E-01   703   0.997E-01    0.855E+00
RMM:  20    -0.175116798735E+03    0.34427E-01   -0.27116E-01   710   0.809E-01    0.994E+00
RMM:  21    -0.175161468143E+03   -0.44669E-01   -0.15786E-01   717   0.634E-01    0.113E+01
RMM:  22    -0.174932033923E+03    0.22943E+00   -0.15043E-01   713   0.633E-01    0.921E+00
RMM:  23    -0.174752680278E+03    0.17935E+00   -0.13193E-01   701   0.574E-01    0.454E+00
RMM:  24    -0.174736195023E+03    0.16485E-01   -0.13045E-01   700   0.545E-01    0.529E+00
RMM:  25    -0.174669890149E+03    0.66305E-01   -0.72217E-02   702   0.430E-01    0.382E+00
RMM:  26    -0.174659048802E+03    0.10841E-01   -0.60969E-02   699   0.384E-01    0.394E+00
RMM:  27    -0.174627407807E+03    0.31641E-01   -0.46458E-02   700   0.341E-01    0.277E+00
RMM:  28    -0.174603712024E+03    0.23696E-01   -0.25460E-02   704   0.258E-01    0.212E+00
RMM:  29    -0.174594517673E+03    0.91944E-02   -0.20377E-02   700   0.229E-01    0.219E+00
RMM:  30    -0.174577584592E+03    0.16933E-01   -0.12155E-02   698   0.187E-01    0.141E+00
RMM:  31    -0.174570744163E+03    0.68404E-02   -0.74393E-03   700   0.139E-01    0.105E+00
RMM:  32    -0.174568196577E+03    0.25476E-02   -0.50063E-03   701   0.114E-01    0.974E-01
RMM:  33    -0.174565224504E+03    0.29721E-02   -0.42381E-03   697   0.103E-01    0.741E-01
RMM:  34    -0.174563774393E+03    0.14501E-02   -0.29384E-03   698   0.913E-02    0.555E-01
RMM:  35    -0.174565192690E+03   -0.14183E-02   -0.26269E-03   697   0.815E-02    0.601E-01
RMM:  36    -0.174565244468E+03   -0.51778E-04   -0.15276E-03   695   0.646E-02    0.418E-01
RMM:  37    -0.174567252213E+03   -0.20077E-02   -0.12792E-03   696   0.564E-02    0.348E-01
RMM:  38    -0.174568544909E+03   -0.12927E-02   -0.79576E-04   692   0.454E-02    0.207E-01
RMM:  39    -0.174571644426E+03   -0.30995E-02   -0.80017E-04   688   0.419E-02    0.283E-01
RMM:  40    -0.174574020221E+03   -0.23758E-02   -0.56638E-04   583   0.358E-02    0.174E-01
RMM:  41    -0.174575952054E+03   -0.19318E-02   -0.34521E-04   451   0.281E-02    0.214E-01
RMM:  42    -0.174580225152E+03   -0.42731E-02   -0.68742E-04   584   0.347E-02    0.193E-01
RMM:  43    -0.174581993965E+03   -0.17688E-02   -0.38426E-04   477   0.258E-02    0.119E-01
RMM:  44    -0.174583527660E+03   -0.15337E-02   -0.25676E-04   434   0.213E-02    0.132E-01
RMM:  45    -0.174585563553E+03   -0.20359E-02   -0.31534E-04   447   0.216E-02    0.906E-02
RMM:  46    -0.174586203304E+03   -0.63975E-03   -0.11710E-04   422   0.141E-02    0.701E-02
RMM:  47    -0.174587954334E+03   -0.17510E-02   -0.13220E-04   419   0.136E-02    0.728E-02
RMM:  48    -0.174588556024E+03   -0.60169E-03   -0.71605E-05   414   0.107E-02    0.366E-02
RMM:  49    -0.174589267045E+03   -0.71102E-03   -0.46919E-05   412   0.835E-03    0.494E-02
RMM:  50    -0.174590062425E+03   -0.79538E-03   -0.36647E-05   408   0.713E-03    0.219E-02
RMM:  51    -0.174590402597E+03   -0.34017E-03   -0.15142E-05   277   0.505E-03    0.220E-02
RMM:  52    -0.174591194516E+03   -0.79192E-03   -0.23173E-05   362   0.557E-03    0.192E-02
RMM:  53    -0.174591441411E+03   -0.24690E-03   -0.49689E-06   163   0.399E-03    0.120E-02
RMM:  54    -0.174591772031E+03   -0.33062E-03   -0.11824E-05   252   0.451E-03    0.179E-02
RMM:  55    -0.174592160354E+03   -0.38832E-03   -0.13456E-05   242   0.453E-03    0.102E-02
RMM:  56    -0.174592307330E+03   -0.14698E-03   -0.89007E-06   203   0.392E-03    0.124E-02
RMM:  57    -0.174592516405E+03   -0.20908E-03   -0.77431E-06   165   0.379E-03    0.711E-03
RMM:  58    -0.174592582918E+03   -0.66513E-04   -0.21134E-06   116   0.355E-03
   1 F= -.17459258E+03 E0= -.17457721E+03  d E =-.614886E-01
================================= SLURM INFO ===================================
Command: run-cluster -n 1 -m 10000 -j 000494_vasp --same-node /opt/VASP/vasp
Exit code: 0
Job name: 000494_vasp
Job time: 0 days 4h:58m:8s
MPI task count: 1
Working dir: /home/pashkov/pyFitIt/pyfitit/data/adaptive_pd_co_new_2/sample/000494
Job was running on nodes: h5
Task per node: 1
       JobID     MaxRSS  MaxDiskRead MaxDiskWrite    Elapsed    JobName 
------------ ---------- ------------ ------------ ---------- ---------- 
107107                                              04:58:08 000494_va+ 
107107.batch                                        04:58:08      batch 
