   57   57    1    1
  0.4736842E+03  0.3000000E-08  0.3000000E-08  0.3000000E-08  0.5000000E-15
  1.000000000000000E-004
  CAR 
 6_Pd100_top_free_z(O)                   
    560      1    336
 
  0.0000000E+00  0.0000000E+00  0.0000000E+00  0.1000000E+01
    1      -28.002517   1.000000
    2      -13.551001   1.000000
    3      -11.385338   1.000000
    4      -10.839061   1.000000
    5      -10.694409   1.000000
    6       -6.699125   1.000000
    7       -6.571750   1.000000
    8       -6.519549   1.000000
    9       -6.168820   1.000000
   10       -6.145255   1.000000
   11       -6.137428   1.000000
   12       -6.105739   1.000000
   13       -5.918157   1.000000
   14       -5.871171   1.000000
   15       -5.839666   1.000000
   16       -5.824195   1.000000
   17       -5.781042   1.000000
   18       -5.750888   1.000000
   19       -5.711488   1.000000
   20       -5.701336   1.000000
   21       -5.694047   1.000000
   22       -5.689976   1.000000
   23       -5.669354   1.000000
   24       -5.637915   1.000000
   25       -5.622264   1.000000
   26       -5.615305   1.000000
   27       -5.604574   1.000000
   28       -5.599636   1.000000
   29       -5.587086   1.000000
   30       -5.573523   1.000000
   31       -5.566191   1.000000
   32       -5.558929   1.000000
   33       -5.551972   1.000000
   34       -5.540285   1.000000
   35       -5.531203   1.000000
   36       -5.529224   1.000000
   37       -5.522649   1.000000
   38       -5.518416   1.000000
   39       -5.516033   1.000000
   40       -5.506571   1.000000
   41       -5.503075   1.000000
   42       -5.485542   1.000000
   43       -5.484226   1.000000
   44       -5.480892   1.000000
   45       -5.477137   1.000000
   46       -5.476653   1.000000
   47       -5.474645   1.000000
   48       -5.461488   1.000000
   49       -5.454457   1.000000
   50       -5.447066   1.000000
   51       -5.439687   1.000000
   52       -5.437304   1.000000
   53       -5.427980   1.000000
   54       -5.418769   1.000000
   55       -5.415816   1.000000
   56       -5.414429   1.000000
   57       -5.410431   1.000000
   58       -5.392309   1.000000
   59       -5.388272   1.000000
   60       -5.360541   1.000000
   61       -5.348786   1.000000
   62       -5.336791   1.000000
   63       -5.333916   1.000000
   64       -5.326797   1.000000
   65       -5.325024   1.000000
   66       -5.312443   1.000000
   67       -5.309323   1.000000
   68       -5.306538   1.000000
   69       -5.303112   1.000000
   70       -5.297905   1.000000
   71       -5.258711   1.000000
   72       -5.248285   1.000000
   73       -5.231833   1.000000
   74       -5.216991   1.000000
   75       -5.211180   1.000000
   76       -5.208701   1.000000
   77       -5.201802   1.000000
   78       -5.187283   1.000000
   79       -5.186714   1.000000
   80       -5.186215   1.000000
   81       -5.175426   1.000000
   82       -5.172701   1.000000
   83       -5.172192   1.000000
   84       -5.161612   1.000000
   85       -5.145703   1.000000
   86       -5.137676   1.000000
   87       -5.130875   1.000000
   88       -5.121161   1.000000
   89       -5.116562   1.000000
   90       -5.095113   1.000000
   91       -5.093038   1.000000
   92       -5.082831   1.000000
   93       -5.076311   1.000000
   94       -5.065746   1.000000
   95       -5.063031   1.000000
   96       -5.060244   1.000000
   97       -5.059329   1.000000
   98       -5.054891   1.000000
   99       -5.049910   1.000000
  100       -5.047749   1.000000
  101       -5.043895   1.000000
  102       -5.037991   1.000000
  103       -5.032423   1.000000
  104       -5.028969   1.000000
  105       -5.015663   1.000000
  106       -5.013295   1.000000
  107       -5.012568   1.000000
  108       -5.006251   1.000000
  109       -5.000640   1.000000
  110       -4.994506   1.000000
  111       -4.990892   1.000000
  112       -4.987007   1.000000
  113       -4.979755   1.000000
  114       -4.975548   1.000000
  115       -4.971504   0.999999
  116       -4.968477   0.999999
  117       -4.961445   0.999999
  118       -4.957494   0.999999
  119       -4.948536   0.999999
  120       -4.942534   0.999999
  121       -4.931322   0.999998
  122       -4.921092   0.999997
  123       -4.919297   0.999997
  124       -4.917313   0.999997
  125       -4.913171   0.999996
  126       -4.911832   0.999996
  127       -4.907235   0.999995
  128       -4.898380   0.999994
  129       -4.895375   0.999993
  130       -4.867378   0.999983
  131       -4.862645   0.999981
  132       -4.853385   0.999975
  133       -4.848908   0.999971
  134       -4.846845   0.999969
  135       -4.844966   0.999968
  136       -4.838691   0.999961
  137       -4.821700   0.999938
  138       -4.821004   0.999937
  139       -4.807035   0.999908
  140       -4.804511   0.999902
  141       -4.791778   0.999864
  142       -4.783589   0.999833
  143       -4.778667   0.999811
  144       -4.760378   0.999707
  145       -4.754124   0.999662
  146       -4.752658   0.999651
  147       -4.749152   0.999622
  148       -4.743918   0.999575
  149       -4.738381   0.999520
  150       -4.722231   0.999326
  151       -4.713897   0.999202
  152       -4.712325   0.999177
  153       -4.694690   0.998849
  154       -4.692283   0.998797
  155       -4.689813   0.998743
  156       -4.686552   0.998668
  157       -4.683215   0.998588
  158       -4.676739   0.998423
  159       -4.675938   0.998402
  160       -4.675827   0.998399
  161       -4.672366   0.998304
  162       -4.666598   0.998139
  163       -4.658328   0.997886
  164       -4.656845   0.997838
  165       -4.655471   0.997794
  166       -4.654320   0.997756
  167       -4.652767   0.997705
  168       -4.651573   0.997665
  169       -4.648000   0.997543
  170       -4.643616   0.997390
  171       -4.629605   0.996878
  172       -4.621945   0.996590
  173       -4.617966   0.996441
  174       -4.615253   0.996340
  175       -4.610372   0.996160
  176       -4.606971   0.996037
  177       -4.604621   0.995954
  178       -4.600286   0.995805
  179       -4.595743   0.995657
  180       -4.591709   0.995535
  181       -4.589251   0.995465
  182       -4.582354   0.995293
  183       -4.578472   0.995213
  184       -4.569241   0.995088
  185       -4.568951   0.995086
  186       -4.565629   0.995068
  187       -4.563218   0.995065
  188       -4.558961   0.995082
  189       -4.557025   0.995100
  190       -4.554493   0.995133
  191       -4.552236   0.995173
  192       -4.539433   0.995604
  193       -4.520649   0.997015
  194       -4.518154   0.997285
  195       -4.515924   0.997545
  196       -4.507102   0.998752
  197       -4.504047   0.999239
  198       -4.501754   0.999630
  199       -4.493210   1.001278
  200       -4.490129   1.001949
  201       -4.487046   1.002662
  202       -4.479219   1.004666
  203       -4.477432   1.005162
  204       -4.470633   1.007185
  205       -4.466621   1.008477
  206       -4.460542   1.010572
  207       -4.458777   1.011211
  208       -4.456211   1.012164
  209       -4.454295   1.012893
  210       -4.450300   1.014462
  211       -4.435422   1.020818
  212       -4.433878   1.021517
  213       -4.428765   1.023876
  214       -4.423376   1.026418
  215       -4.419985   1.028038
  216       -4.415612   1.030141
  217       -4.414934   1.030468
  218       -4.414415   1.030718
  219       -4.411219   1.032256
  220       -4.406201   1.034656
  221       -4.392673   1.040850
  222       -4.387855   1.042884
  223       -4.379950   1.045913
  224       -4.376821   1.046983
  225       -4.369409   1.049153
  226       -4.363592   1.050436
  227       -4.357666   1.051291
  228       -4.348301   1.051548
  229       -4.348203   1.051543
  230       -4.344596   1.051228
  231       -4.343576   1.051094
  232       -4.342145   1.050871
  233       -4.340410   1.050545
  234       -4.335442   1.049260
  235       -4.334279   1.048880
  236       -4.333551   1.048627
  237       -4.332851   1.048372
  238       -4.330847   1.047577
  239       -4.326033   1.045268
  240       -4.320947   1.042181
  241       -4.318098   1.040145
  242       -4.317943   1.040027
  243       -4.301258   1.023178
  244       -4.300051   1.021616
  245       -4.298011   1.018866
  246       -4.297763   1.018521
  247       -4.293418   1.012150
  248       -4.291128   1.008528
  249       -4.282990   0.994127
  250       -4.281338   0.990906
  251       -4.277746   0.983553
  252       -4.274573   0.976653
  253       -4.273372   0.973941
  254       -4.272069   0.970935
  255       -4.270207   0.966529
  256       -4.262868   0.947857
  257       -4.262083   0.945736
  258       -4.260170   0.940467
  259       -4.256791   0.930816
  260       -4.254662   0.924506
  261       -4.253272   0.920291
  262       -4.251356   0.914362
  263       -4.247787   0.902941
  264       -4.247525   0.902083
  265       -4.245628   0.895798
  266       -4.235501   0.859962
  267       -4.234393   0.855815
  268       -4.233927   0.854055
  269       -4.228280   0.832145
  270       -4.227049   0.827224
  271       -4.225639   0.821521
  272       -4.215835   0.780092
  273       -4.211359   0.760197
  274       -4.201737   0.715560
  275       -4.195723   0.686507
  276       -4.189862   0.657460
  277       -4.188999   0.653125
  278       -4.183834   0.626944
  279       -4.183740   0.626462
  280       -4.181656   0.615781
  281       -4.168760   0.548592
  282       -4.150744   0.453452
  283       -4.143102   0.413417
  284       -4.142377   0.409644
  285       -4.140949   0.402228
  286       -4.134765   0.370419
  287       -4.126602   0.329315
  288       -4.125511   0.323913
  289       -4.095084   0.185053
  290       -3.972788  -0.051409
  291       -3.849653  -0.007554
  292       -3.843624  -0.005718
  293       -3.824835  -0.001054
  294       -3.639635   0.001506
  295       -3.523839   0.000125
  296       -3.506686   0.000080
  297       -3.289551   0.000000
  298       -3.092811   0.000000
  299       -3.072287   0.000000
  300       -3.064183   0.000000
  301       -3.039561   0.000000
  302       -3.036290   0.000000
  303       -2.954244   0.000000
  304       -2.951689   0.000000
  305       -2.632527   0.000000
  306       -2.614563   0.000000
  307       -2.529563   0.000000
  308       -2.519136   0.000000
  309       -2.265682   0.000000
  310       -2.124211   0.000000
  311       -2.122018   0.000000
  312       -2.096425   0.000000
  313       -2.007992   0.000000
  314       -1.986860   0.000000
  315       -1.936660   0.000000
  316       -1.890068   0.000000
  317       -1.807044   0.000000
  318       -1.689676   0.000000
  319       -1.661336   0.000000
  320       -1.654610   0.000000
  321       -1.584896   0.000000
  322       -1.568209   0.000000
  323       -1.555059   0.000000
  324       -1.360757   0.000000
  325       -1.255705   0.000000
  326       -1.128445   0.000000
  327       -1.057319   0.000000
  328       -0.993935   0.000000
  329       -0.980976   0.000000
  330       -0.965787   0.000000
  331       -0.957880   0.000000
  332       -0.936123   0.000000
  333       -0.933008   0.000000
  334       -0.889869   0.000000
  335       -0.822500   0.000000
  336       -0.681618   0.000000
