  57  57   0   0
  0.4736842E+03  0.3000000E-08  0.3000000E-08  0.3000000E-08  0.5000000E-15
  1.000000000000000E-004
  CAR 
 6_Pd100_top_free_z(O)                   
      1.43249868    -30.81600051  301     -4.15234784      1.00000000
    -30.816  0.0000E+00  0.0000E+00
    -30.709  0.0000E+00  0.0000E+00
    -30.601  0.0000E+00  0.0000E+00
    -30.494  0.4116E-27  0.4425E-28
    -30.386  0.2066E-23  0.2221E-24
    -30.279  0.5728E-20  0.6159E-21
    -30.171  0.8745E-17  0.9407E-18
    -30.064  0.7325E-14  0.7884E-15
    -29.956  0.3357E-11  0.3616E-12
    -29.849  0.8329E-09  0.8989E-10
    -29.741  0.1109E-06  0.1201E-07
    -29.634  0.7798E-05  0.8503E-06
    -29.526  0.2816E-03  0.3112E-04
    -29.419  0.4938E-02  0.5619E-03
    -29.311  0.3634E-01  0.4468E-02
    -29.204  0.4587E-01  0.9399E-02
    -29.096 -0.4399E+00 -0.3788E-01
    -28.989 -0.5425E+00 -0.9620E-01
    -28.881  0.4291E+01  0.3650E+00
    -28.774  0.9937E+01  0.1433E+01
    -28.666  0.5877E+01  0.2065E+01
    -28.559 -0.5653E-01  0.2059E+01
    -28.451 -0.6112E+00  0.1993E+01
    -28.344  0.6001E-02  0.1994E+01
    -28.236  0.4773E-01  0.1999E+01
    -28.129  0.8157E-02  0.2000E+01
    -28.021  0.5488E-03  0.2000E+01
    -27.914  0.1759E-04  0.2000E+01
    -27.806  0.2872E-06  0.2000E+01
    -27.699  0.2464E-08  0.2000E+01
    -27.591  0.1131E-10  0.2000E+01
    -27.484  0.2892E-13  0.2000E+01
    -27.376  0.0000E+00  0.2000E+01
    -27.269  0.0000E+00  0.2000E+01
    -27.161  0.0000E+00  0.2000E+01
    -27.054  0.0000E+00  0.2000E+01
    -26.946  0.0000E+00  0.2000E+01
    -26.839  0.0000E+00  0.2000E+01
    -26.731  0.0000E+00  0.2000E+01
    -26.624  0.0000E+00  0.2000E+01
    -26.516  0.0000E+00  0.2000E+01
    -26.409  0.0000E+00  0.2000E+01
    -26.301  0.0000E+00  0.2000E+01
    -26.194  0.0000E+00  0.2000E+01
    -26.086  0.0000E+00  0.2000E+01
    -25.979  0.0000E+00  0.2000E+01
    -25.871  0.0000E+00  0.2000E+01
    -25.764  0.0000E+00  0.2000E+01
    -25.656  0.0000E+00  0.2000E+01
    -25.549  0.0000E+00  0.2000E+01
    -25.441  0.0000E+00  0.2000E+01
    -25.334  0.0000E+00  0.2000E+01
    -25.226  0.0000E+00  0.2000E+01
    -25.119  0.0000E+00  0.2000E+01
    -25.011  0.0000E+00  0.2000E+01
    -24.904  0.0000E+00  0.2000E+01
    -24.796  0.0000E+00  0.2000E+01
    -24.689  0.0000E+00  0.2000E+01
    -24.581  0.0000E+00  0.2000E+01
    -24.474  0.0000E+00  0.2000E+01
    -24.366  0.0000E+00  0.2000E+01
    -24.259  0.0000E+00  0.2000E+01
    -24.151  0.0000E+00  0.2000E+01
    -24.044  0.0000E+00  0.2000E+01
    -23.936  0.0000E+00  0.2000E+01
    -23.829  0.0000E+00  0.2000E+01
    -23.721  0.0000E+00  0.2000E+01
    -23.614  0.0000E+00  0.2000E+01
    -23.506  0.0000E+00  0.2000E+01
    -23.399  0.0000E+00  0.2000E+01
    -23.291  0.0000E+00  0.2000E+01
    -23.184  0.0000E+00  0.2000E+01
    -23.076  0.0000E+00  0.2000E+01
    -22.969  0.0000E+00  0.2000E+01
    -22.861  0.0000E+00  0.2000E+01
    -22.754  0.0000E+00  0.2000E+01
    -22.646  0.0000E+00  0.2000E+01
    -22.539  0.0000E+00  0.2000E+01
    -22.431  0.0000E+00  0.2000E+01
    -22.324  0.0000E+00  0.2000E+01
    -22.216  0.0000E+00  0.2000E+01
    -22.109  0.0000E+00  0.2000E+01
    -22.001  0.0000E+00  0.2000E+01
    -21.894  0.0000E+00  0.2000E+01
    -21.786  0.0000E+00  0.2000E+01
    -21.679  0.0000E+00  0.2000E+01
    -21.571  0.0000E+00  0.2000E+01
    -21.464  0.0000E+00  0.2000E+01
    -21.356  0.0000E+00  0.2000E+01
    -21.249  0.0000E+00  0.2000E+01
    -21.141  0.0000E+00  0.2000E+01
    -21.034  0.0000E+00  0.2000E+01
    -20.926  0.0000E+00  0.2000E+01
    -20.819  0.0000E+00  0.2000E+01
    -20.711  0.0000E+00  0.2000E+01
    -20.604  0.0000E+00  0.2000E+01
    -20.496  0.0000E+00  0.2000E+01
    -20.389  0.0000E+00  0.2000E+01
    -20.281  0.0000E+00  0.2000E+01
    -20.174  0.0000E+00  0.2000E+01
    -20.067  0.0000E+00  0.2000E+01
    -19.959  0.0000E+00  0.2000E+01
    -19.852  0.0000E+00  0.2000E+01
    -19.744  0.0000E+00  0.2000E+01
    -19.637  0.0000E+00  0.2000E+01
    -19.529  0.0000E+00  0.2000E+01
    -19.422  0.0000E+00  0.2000E+01
    -19.314  0.0000E+00  0.2000E+01
    -19.207  0.0000E+00  0.2000E+01
    -19.099  0.0000E+00  0.2000E+01
    -18.992  0.0000E+00  0.2000E+01
    -18.884  0.0000E+00  0.2000E+01
    -18.777  0.0000E+00  0.2000E+01
    -18.669  0.0000E+00  0.2000E+01
    -18.562  0.0000E+00  0.2000E+01
    -18.454  0.0000E+00  0.2000E+01
    -18.347  0.0000E+00  0.2000E+01
    -18.239  0.0000E+00  0.2000E+01
    -18.132  0.0000E+00  0.2000E+01
    -18.024  0.0000E+00  0.2000E+01
    -17.917  0.0000E+00  0.2000E+01
    -17.809  0.0000E+00  0.2000E+01
    -17.702  0.0000E+00  0.2000E+01
    -17.594  0.0000E+00  0.2000E+01
    -17.487  0.0000E+00  0.2000E+01
    -17.379  0.0000E+00  0.2000E+01
    -17.272  0.0000E+00  0.2000E+01
    -17.164  0.0000E+00  0.2000E+01
    -17.057  0.0000E+00  0.2000E+01
    -16.949  0.0000E+00  0.2000E+01
    -16.842  0.0000E+00  0.2000E+01
    -16.734  0.0000E+00  0.2000E+01
    -16.627  0.0000E+00  0.2000E+01
    -16.519  0.0000E+00  0.2000E+01
    -16.412  0.0000E+00  0.2000E+01
    -16.304  0.0000E+00  0.2000E+01
    -16.197  0.0000E+00  0.2000E+01
    -16.089  0.0000E+00  0.2000E+01
    -15.982  0.0000E+00  0.2000E+01
    -15.874  0.0000E+00  0.2000E+01
    -15.767  0.0000E+00  0.2000E+01
    -15.659  0.0000E+00  0.2000E+01
    -15.552  0.0000E+00  0.2000E+01
    -15.444  0.0000E+00  0.2000E+01
    -15.337  0.0000E+00  0.2000E+01
    -15.229  0.0000E+00  0.2000E+01
    -15.122  0.1775E-25  0.2000E+01
    -15.014  0.6890E-22  0.2000E+01
    -14.907  0.1476E-18  0.2000E+01
    -14.799  0.1738E-15  0.2000E+01
    -14.692  0.1121E-12  0.2000E+01
    -14.584  0.3945E-10  0.2000E+01
    -14.477  0.7487E-08  0.2000E+01
    -14.369  0.7580E-06  0.2000E+01
    -14.262  0.4011E-04  0.2000E+01
    -14.154  0.1070E-02  0.2000E+01
    -14.047  0.1325E-01  0.2002E+01
    -13.939  0.5865E-01  0.2008E+01
    -13.832 -0.7004E-01  0.2000E+01
    -13.724 -0.7598E+00  0.1919E+01
    -13.617  0.7760E+00  0.2002E+01
    -13.509  0.7473E+01  0.2805E+01
    -13.402  0.9353E+01  0.3811E+01
    -13.294  0.2718E+01  0.4103E+01
    -13.187 -0.7798E+00  0.4019E+01
    -13.079 -0.2683E+00  0.3990E+01
    -12.972  0.6260E-01  0.3997E+01
    -12.864  0.2555E-01  0.4000E+01
    -12.757  0.2795E-02  0.4000E+01
    -12.649  0.1348E-03  0.4000E+01
    -12.542  0.3207E-05  0.4000E+01
    -12.434  0.3951E-07  0.4000E+01
    -12.327  0.2742E-09  0.4000E+01
    -12.219  0.3535E-08  0.4000E+01
    -12.112  0.4165E-06  0.4000E+01
    -12.004  0.2598E-04  0.4000E+01
    -11.897  0.8334E-03  0.4000E+01
    -11.789  0.1293E-01  0.4001E+01
    -11.682  0.8197E-01  0.4010E+01
    -11.574  0.5010E-01  0.4016E+01
    -11.467 -0.1015E+01  0.3907E+01
    -11.359 -0.5958E+00  0.3842E+01
    -11.252  0.9862E+01  0.4903E+01
    -11.144  0.1967E+02  0.7017E+01
    -11.037  0.1049E+02  0.8144E+01
    -10.929 -0.3923E+00  0.8102E+01
    -10.822 -0.1055E+01  0.7989E+01
    -10.714  0.9597E-01  0.7999E+01
    -10.607 -0.1768E+00  0.7980E+01
    -10.499 -0.7693E+00  0.7897E+01
    -10.392  0.2671E+01  0.8184E+01
    -10.284  0.9324E+01  0.9187E+01
    -10.177  0.7522E+01  0.9995E+01
    -10.069  0.8092E+00  0.1008E+02
     -9.962 -0.7635E+00  0.1000E+02
     -9.854 -0.7322E-01  0.9992E+01
     -9.747  0.5894E-01  0.9998E+01
     -9.639  0.1346E-01  0.1000E+02
     -9.532  0.1093E-02  0.1000E+02
     -9.424  0.4119E-04  0.1000E+02
     -9.317  0.7822E-06  0.1000E+02
     -9.210  0.7762E-08  0.1000E+02
     -9.102  0.4109E-10  0.1000E+02
     -8.995  0.1177E-12  0.1000E+02
     -8.887  0.0000E+00  0.1000E+02
     -8.780  0.0000E+00  0.1000E+02
     -8.672  0.0000E+00  0.1000E+02
     -8.565  0.0000E+00  0.1000E+02
     -8.457  0.0000E+00  0.1000E+02
     -8.350  0.6610E-28  0.1000E+02
     -8.242  0.3748E-24  0.1000E+02
     -8.135  0.1175E-20  0.1000E+02
     -8.027  0.2028E-17  0.1000E+02
     -7.920  0.1923E-14  0.1000E+02
     -7.812  0.9989E-12  0.1000E+02
     -7.705  0.2813E-09  0.1000E+02
     -7.597  0.4263E-07  0.1000E+02
     -7.490  0.3425E-05  0.1000E+02
     -7.382  0.1423E-03  0.1000E+02
     -7.275  0.2917E-02  0.1000E+02
     -7.167  0.2626E-01  0.1000E+02
     -7.060  0.6206E-01  0.1001E+02
     -6.952 -0.2799E+00  0.9980E+01
     -6.845 -0.7698E+00  0.9897E+01
     -6.737  0.2840E+01  0.1020E+02
     -6.630  0.9522E+01  0.1123E+02
     -6.522  0.7516E+01  0.1203E+02
     -6.415 -0.5041E+00  0.1198E+02
     -6.307 -0.2249E+01  0.1174E+02
     -6.200  0.1219E+02  0.1305E+02
     -6.092  0.2848E+02  0.1611E+02
     -5.985  0.2205E+02  0.1848E+02
     -5.877  0.2419E+02  0.2108E+02
     -5.770  0.4923E+02  0.2637E+02
     -5.662  0.9483E+02  0.3657E+02
     -5.555  0.1997E+03  0.5804E+02
     -5.447  0.2985E+03  0.9012E+02
     -5.340  0.2715E+03  0.1193E+03
     -5.232  0.2060E+03  0.1414E+03
     -5.125  0.2429E+03  0.1676E+03
     -5.017  0.3402E+03  0.2041E+03
     -4.910  0.3534E+03  0.2421E+03
     -4.802  0.2912E+03  0.2734E+03
     -4.695  0.3228E+03  0.3081E+03
     -4.587  0.4169E+03  0.3529E+03
     -4.480  0.4265E+03  0.3988E+03
     -4.372  0.4549E+03  0.4477E+03
     -4.265  0.5542E+03  0.5073E+03
     -4.157  0.4752E+03  0.5584E+03
     -4.050  0.1941E+03  0.5792E+03
     -3.942  0.1829E+02  0.5812E+03
     -3.835  0.1803E+02  0.5831E+03
     -3.727  0.3224E+02  0.5866E+03
     -3.620  0.1442E+02  0.5881E+03
     -3.512  0.1653E+02  0.5899E+03
     -3.405  0.2647E+02  0.5928E+03
     -3.297  0.1020E+02  0.5939E+03
     -3.190 -0.8877E+00  0.5938E+03
     -3.082  0.2924E+02  0.5969E+03
     -2.975  0.6303E+02  0.6037E+03
     -2.867  0.4793E+02  0.6088E+03
     -2.760  0.1173E+02  0.6101E+03
     -2.652 -0.8568E+00  0.6100E+03
     -2.545  0.1626E+02  0.6117E+03
     -2.437  0.3032E+02  0.6150E+03
     -2.330  0.1885E+02  0.6170E+03
     -2.222  0.9912E+01  0.6181E+03
     -2.115  0.2659E+02  0.6210E+03
     -2.007  0.4327E+02  0.6256E+03
     -1.900  0.3851E+02  0.6298E+03
     -1.792  0.3279E+02  0.6333E+03
     -1.685  0.4004E+02  0.6376E+03
     -1.577  0.4408E+02  0.6423E+03
     -1.470  0.3205E+02  0.6458E+03
     -1.362  0.2076E+02  0.6480E+03
     -1.255  0.2221E+02  0.6504E+03
     -1.147  0.2392E+02  0.6530E+03
     -1.040  0.3373E+02  0.6566E+03
     -0.932  0.5270E+02  0.6622E+03
     -0.825  0.3991E+02  0.6665E+03
     -0.717  0.1613E+02  0.6683E+03
     -0.610  0.1594E+02  0.6700E+03
     -0.502  0.1568E+02  0.6717E+03
     -0.395  0.4490E+01  0.6721E+03
     -0.287 -0.1113E+01  0.6720E+03
     -0.180 -0.4270E+00  0.6720E+03
     -0.072  0.1035E+00  0.6720E+03
      0.035  0.4689E-01  0.6720E+03
      0.143  0.5701E-02  0.6720E+03
      0.250  0.3078E-03  0.6720E+03
      0.358  0.8256E-05  0.6720E+03
      0.465  0.1151E-06  0.6720E+03
      0.573  0.8534E-09  0.6720E+03
      0.680  0.3410E-11  0.6720E+03
      0.788  0.8263E-14  0.6720E+03
      0.895  0.0000E+00  0.6720E+03
      1.003  0.0000E+00  0.6720E+03
      1.110  0.0000E+00  0.6720E+03
      1.218  0.0000E+00  0.6720E+03
      1.325  0.0000E+00  0.6720E+03
      1.432  0.0000E+00  0.6720E+03
