   57   57    1    1
  0.4736842E+03  0.3000000E-08  0.3000000E-08  0.3000000E-08  0.5000000E-15
  1.000000000000000E-004
  CAR 
 6_Pd100_top_free_z(O)                   
    560      1    336
 
  0.0000000E+00  0.0000000E+00  0.0000000E+00  0.1000000E+01
    1      -28.816001   1.000000
    2      -13.490781   1.000000
    3      -11.213605   1.000000
    4      -11.178146   1.000000
    5      -10.302195   1.000000
    6       -6.649885   1.000000
    7       -6.138279   1.000000
    8       -6.131801   1.000000
    9       -6.129001   1.000000
   10       -5.945938   1.000000
   11       -5.846123   1.000000
   12       -5.830863   1.000000
   13       -5.814672   1.000000
   14       -5.788738   1.000000
   15       -5.740772   1.000000
   16       -5.703905   1.000000
   17       -5.694336   1.000000
   18       -5.687755   1.000000
   19       -5.675141   1.000000
   20       -5.640413   1.000000
   21       -5.626235   1.000000
   22       -5.617192   1.000000
   23       -5.599921   1.000000
   24       -5.594108   1.000000
   25       -5.581760   1.000000
   26       -5.568701   1.000000
   27       -5.551985   1.000000
   28       -5.550875   1.000000
   29       -5.550097   1.000000
   30       -5.539484   1.000000
   31       -5.527856   1.000000
   32       -5.522542   1.000000
   33       -5.521471   1.000000
   34       -5.516608   1.000000
   35       -5.515657   1.000000
   36       -5.513979   1.000000
   37       -5.499588   1.000000
   38       -5.493948   1.000000
   39       -5.488750   1.000000
   40       -5.477661   1.000000
   41       -5.476426   1.000000
   42       -5.473398   1.000000
   43       -5.472331   1.000000
   44       -5.470234   1.000000
   45       -5.459954   1.000000
   46       -5.449158   1.000000
   47       -5.435526   1.000000
   48       -5.432779   1.000000
   49       -5.431181   1.000000
   50       -5.428730   1.000000
   51       -5.425354   1.000000
   52       -5.425161   1.000000
   53       -5.410523   1.000000
   54       -5.409126   1.000000
   55       -5.402202   1.000000
   56       -5.387891   1.000000
   57       -5.364033   1.000000
   58       -5.349063   1.000000
   59       -5.334299   1.000000
   60       -5.329318   1.000000
   61       -5.328432   1.000000
   62       -5.322650   1.000000
   63       -5.320231   1.000000
   64       -5.310147   1.000000
   65       -5.305580   1.000000
   66       -5.303160   1.000000
   67       -5.294612   1.000000
   68       -5.284636   1.000000
   69       -5.267924   1.000000
   70       -5.223525   1.000000
   71       -5.210307   1.000000
   72       -5.206515   1.000000
   73       -5.194175   1.000000
   74       -5.190052   1.000000
   75       -5.185013   1.000000
   76       -5.182396   1.000000
   77       -5.182043   1.000000
   78       -5.169741   1.000000
   79       -5.167302   1.000000
   80       -5.161639   1.000000
   81       -5.156144   1.000000
   82       -5.146346   1.000000
   83       -5.134726   1.000000
   84       -5.129101   1.000000
   85       -5.121255   1.000000
   86       -5.113011   1.000000
   87       -5.107682   1.000000
   88       -5.103194   1.000000
   89       -5.079322   1.000000
   90       -5.071986   1.000000
   91       -5.061215   1.000000
   92       -5.058184   1.000000
   93       -5.057609   1.000000
   94       -5.055468   1.000000
   95       -5.053412   1.000000
   96       -5.047232   1.000000
   97       -5.041424   1.000000
   98       -5.036864   1.000000
   99       -5.032539   1.000000
  100       -5.028466   1.000000
  101       -5.024167   1.000000
  102       -5.018102   1.000000
  103       -5.015249   1.000000
  104       -5.007024   1.000000
  105       -5.003884   1.000000
  106       -4.998755   1.000000
  107       -4.996473   1.000000
  108       -4.993295   1.000000
  109       -4.989514   1.000000
  110       -4.979614   1.000000
  111       -4.978778   1.000000
  112       -4.972891   1.000000
  113       -4.964530   0.999999
  114       -4.960927   0.999999
  115       -4.959573   0.999999
  116       -4.956910   0.999999
  117       -4.953099   0.999999
  118       -4.932948   0.999998
  119       -4.928863   0.999998
  120       -4.928589   0.999998
  121       -4.918753   0.999997
  122       -4.912182   0.999997
  123       -4.909947   0.999997
  124       -4.905322   0.999996
  125       -4.905114   0.999996
  126       -4.903146   0.999996
  127       -4.876001   0.999990
  128       -4.870563   0.999988
  129       -4.852441   0.999979
  130       -4.845355   0.999974
  131       -4.844107   0.999973
  132       -4.843283   0.999973
  133       -4.838936   0.999969
  134       -4.837696   0.999968
  135       -4.832931   0.999963
  136       -4.818527   0.999945
  137       -4.801937   0.999913
  138       -4.795676   0.999898
  139       -4.792435   0.999889
  140       -4.778589   0.999842
  141       -4.778004   0.999839
  142       -4.766989   0.999789
  143       -4.752637   0.999704
  144       -4.744489   0.999643
  145       -4.740077   0.999606
  146       -4.735934   0.999568
  147       -4.728756   0.999495
  148       -4.724936   0.999452
  149       -4.718665   0.999374
  150       -4.705175   0.999178
  151       -4.690843   0.998918
  152       -4.688460   0.998869
  153       -4.684886   0.998793
  154       -4.682372   0.998737
  155       -4.675675   0.998580
  156       -4.674833   0.998559
  157       -4.673220   0.998518
  158       -4.672348   0.998496
  159       -4.669219   0.998415
  160       -4.661971   0.998214
  161       -4.655325   0.998017
  162       -4.650535   0.997867
  163       -4.649402   0.997831
  164       -4.649010   0.997818
  165       -4.648588   0.997804
  166       -4.646482   0.997735
  167       -4.643914   0.997650
  168       -4.636560   0.997396
  169       -4.633866   0.997300
  170       -4.626626   0.997036
  171       -4.611163   0.996456
  172       -4.607138   0.996306
  173       -4.603207   0.996161
  174       -4.599129   0.996014
  175       -4.598427   0.995989
  176       -4.596269   0.995914
  177       -4.591936   0.995767
  178       -4.589672   0.995694
  179       -4.588347   0.995652
  180       -4.584122   0.995524
  181       -4.577630   0.995351
  182       -4.573385   0.995255
  183       -4.565323   0.995121
  184       -4.558771   0.995069
  185       -4.557653   0.995066
  186       -4.556770   0.995065
  187       -4.553141   0.995073
  188       -4.550747   0.995090
  189       -4.549750   0.995100
  190       -4.546327   0.995149
  191       -4.531891   0.995620
  192       -4.514635   0.996893
  193       -4.511994   0.997169
  194       -4.509116   0.997497
  195       -4.507316   0.997717
  196       -4.500642   0.998638
  197       -4.494017   0.999723
  198       -4.491342   1.000211
  199       -4.481644   1.002239
  200       -4.478068   1.003091
  201       -4.474795   1.003921
  202       -4.467155   1.006048
  203       -4.463659   1.007111
  204       -4.460842   1.008008
  205       -4.456452   1.009476
  206       -4.451564   1.011212
  207       -4.449695   1.011903
  208       -4.446719   1.013034
  209       -4.444915   1.013737
  210       -4.441327   1.015174
  211       -4.425079   1.022244
  212       -4.423008   1.023199
  213       -4.420437   1.024399
  214       -4.412067   1.028378
  215       -4.410431   1.029164
  216       -4.408567   1.030061
  217       -4.407320   1.030662
  218       -4.406779   1.030923
  219       -4.404824   1.031864
  220       -4.377563   1.044115
  221       -4.371976   1.046182
  222       -4.368117   1.047463
  223       -4.365917   1.048133
  224       -4.360005   1.049684
  225       -4.349926   1.051343
  226       -4.341289   1.051558
  227       -4.339431   1.051436
  228       -4.338458   1.051347
  229       -4.336905   1.051167
  230       -4.335111   1.050900
  231       -4.334875   1.050861
  232       -4.333481   1.050602
  233       -4.331079   1.050062
  234       -4.328293   1.049279
  235       -4.326610   1.048722
  236       -4.324667   1.047998
  237       -4.323375   1.047466
  238       -4.320256   1.046016
  239       -4.318934   1.045328
  240       -4.317666   1.044626
  241       -4.307777   1.037658
  242       -4.303355   1.033634
  243       -4.296329   1.025999
  244       -4.291862   1.020315
  245       -4.288804   1.016036
  246       -4.287830   1.014606
  247       -4.285463   1.010993
  248       -4.282746   1.006602
  249       -4.281743   1.004914
  250       -4.271214   0.984979
  251       -4.266724   0.975217
  252       -4.262744   0.965920
  253       -4.259665   0.958310
  254       -4.257129   0.951768
  255       -4.255561   0.947598
  256       -4.253536   0.942069
  257       -4.250132   0.932420
  258       -4.249615   0.930916
  259       -4.246198   0.920710
  260       -4.245469   0.918472
  261       -4.243868   0.913492
  262       -4.241576   0.906188
  263       -4.240097   0.901372
  264       -4.239569   0.899630
  265       -4.237482   0.892647
  266       -4.228314   0.860048
  267       -4.226125   0.851813
  268       -4.225083   0.847831
  269       -4.222299   0.837010
  270       -4.220890   0.831431
  271       -4.218573   0.822110
  272       -4.212041   0.794876
  273       -4.201469   0.748016
  274       -4.195361   0.719525
  275       -4.184758   0.667972
  276       -4.183317   0.660789
  277       -4.178050   0.634213
  278       -4.177659   0.632226
  279       -4.175908   0.623279
  280       -4.172112   0.603749
  281       -4.164126   0.562132
  282       -4.158942   0.534848
  283       -4.135568   0.411730
  284       -4.130381   0.384897
  285       -4.129253   0.379100
  286       -4.128399   0.374731
  287       -4.120266   0.333659
  288       -4.117014   0.317569
  289       -4.111558   0.291075
  290       -3.963799  -0.051538
  291       -3.872158  -0.018894
  292       -3.825877  -0.002907
  293       -3.815819  -0.000688
  294       -3.746093   0.004931
  295       -3.502739   0.000087
  296       -3.487942   0.000058
  297       -3.415291   0.000007
  298       -3.068522   0.000000
  299       -3.058272   0.000000
  300       -3.046376   0.000000
  301       -3.033626   0.000000
  302       -3.016067   0.000000
  303       -2.947690   0.000000
  304       -2.934750   0.000000
  305       -2.863168   0.000000
  306       -2.529679   0.000000
  307       -2.519728   0.000000
  308       -2.467532   0.000000
  309       -2.336042   0.000000
  310       -2.131914   0.000000
  311       -2.114720   0.000000
  312       -2.072375   0.000000
  313       -2.051214   0.000000
  314       -1.958194   0.000000
  315       -1.930180   0.000000
  316       -1.873860   0.000000
  317       -1.791312   0.000000
  318       -1.734220   0.000000
  319       -1.692768   0.000000
  320       -1.639032   0.000000
  321       -1.635087   0.000000
  322       -1.555027   0.000000
  323       -1.510939   0.000000
  324       -1.412094   0.000000
  325       -1.295078   0.000000
  326       -1.231121   0.000000
  327       -1.183826   0.000000
  328       -1.055320   0.000000
  329       -0.990765   0.000000
  330       -0.977259   0.000000
  331       -0.957910   0.000000
  332       -0.934828   0.000000
  333       -0.925198   0.000000
  334       -0.790291   0.000000
  335       -0.640965   0.000000
  336       -0.567501   0.000000
