<?xml version="1.0" encoding="ISO-8859-1"?>
<modeling>
 <generator>
  <i name="program" type="string">vasp </i>
  <i name="version" type="string">5.4.4.18Apr17-6-g9f103f2a35  </i>
  <i name="subversion" type="string">(build Sep 03 2018 23:53:05) complex            parallel </i>
  <i name="platform" type="string">LinuxIFC </i>
  <i name="date" type="string">2021 11 27 </i>
  <i name="time" type="string">19:06:54 </i>
 </generator>
 <incar>
  <i type="string" name="SYSTEM"> 6_Pd100_top_free_z(O)</i>
  <i type="int" name="ISTART">     0</i>
  <i type="string" name="PREC">normal   			! encut=max(enmax), ngx,y,z</i>
  <i type="string" name="ALGO"> Fast     			! Mix RMM-DIIS and Dav</i>
  <i type="logical" name="ADDGRID"> F  </i>
  <i type="int" name="ISPIN">     1</i>
  <i type="int" name="ICHARG">     2</i>
  <i type="int" name="NELM">   100</i>
  <i type="int" name="NELMIN">     6</i>
  <i type="int" name="IBRION">     2</i>
  <i name="EDIFF">      0.00010000</i>
  <i name="EDIFFG">     -0.05000000</i>
  <i type="int" name="NSW">     0</i>
  <i type="int" name="ISIF">     2</i>
  <i type="int" name="ISYM">     2</i>
  <i name="ENCUT">    400.00000000</i>
  <i type="string" name="LREAL"> Auto     			! Auto or A projection done</i>
  <i type="int" name="ISMEAR">     2</i>
  <i name="SIGMA">      0.20000000</i>
  <i type="logical" name="LWAVE"> F  </i>
  <i type="logical" name="LCHARG"> F  </i>
  <v type="int" name="KPOINT_BSE">    -1     0     0     0</v>
  <i type="int" name="MAXMEM"> 10000</i>
  <i type="int" name="NELM">   100</i>
  <i type="string" name="GGA"> RP         			! Revised PBE</i>
 </incar>
 <structure name="primitive_cell" >
  <crystal>
   <varray name="basis" >
    <v>      30.00000000       0.00000000       0.00000000 </v>
    <v>       0.00000000      30.00000000       0.00000000 </v>
    <v>       0.00000000       0.00000000      30.00000000 </v>
   </varray>
   <i name="volume">  27000.00000000 </i>
   <varray name="rec_basis" >
    <v>       0.03333333       0.00000000       0.00000000 </v>
    <v>       0.00000000       0.03333333       0.00000000 </v>
    <v>       0.00000000       0.00000000       0.03333333 </v>
   </varray>
  </crystal>
  <varray name="positions" >
   <v>       0.44576020       0.32826710       0.41691983 </v>
   <v>      -0.44576020       0.32826710       0.41691983 </v>
   <v>      -0.50000000       0.38250690       0.34021317 </v>
   <v>      -0.50000000       0.27609440      -0.50000000 </v>
   <v>       0.38804720       0.38804720       0.34167483 </v>
   <v>      -0.50000000       0.38416601      -0.50000000 </v>
   <v>       0.44208300       0.44208300       0.41809300 </v>
   <v>       0.38317830       0.38317830      -0.50000000 </v>
   <v>      -0.44208300       0.44208300       0.41809300 </v>
   <v>       0.44576020       0.32826710      -0.41691977 </v>
   <v>       0.32826705       0.44576024       0.41691983 </v>
   <v>      -0.38804720       0.38804720       0.34167483 </v>
   <v>      -0.38317830       0.38317830      -0.50000000 </v>
   <v>      -0.50000000      -0.50000000       0.33478917 </v>
   <v>      -0.50000000      -0.50000000      -0.50000000 </v>
   <v>      -0.44576020       0.32826710      -0.41691977 </v>
   <v>       0.38250685      -0.49999995       0.34021317 </v>
   <v>       0.44208300       0.44208300      -0.41809297 </v>
   <v>       0.38416599      -0.49999998      -0.50000000 </v>
   <v>      -0.44208300       0.44208300      -0.41809297 </v>
   <v>       0.44208298      -0.44208298       0.41809300 </v>
   <v>       0.32826705       0.44576024      -0.41691977 </v>
   <v>      -0.50000000       0.38250690      -0.34021320 </v>
   <v>       0.32826712      -0.44576022       0.41691983 </v>
   <v>      -0.38250685      -0.49999995       0.34021317 </v>
   <v>      -0.32826705       0.44576024       0.41691983 </v>
   <v>       0.27609443       0.49999998      -0.50000000 </v>
   <v>       0.38804720       0.38804720      -0.34167487 </v>
   <v>      -0.38416599      -0.49999998      -0.50000000 </v>
   <v>      -0.44208298      -0.44208298       0.41809300 </v>
   <v>       0.44208298      -0.44208298      -0.41809297 </v>
   <v>      -0.38804720       0.38804720      -0.34167487 </v>
   <v>       0.38804722      -0.38804722       0.34167483 </v>
   <v>       0.38250685      -0.49999995      -0.34021320 </v>
   <v>       0.32826712      -0.44576022      -0.41691977 </v>
   <v>      -0.32826705       0.44576024      -0.41691977 </v>
   <v>       0.50000000      -0.38250681       0.34021317 </v>
   <v>      -0.50000000      -0.38416596      -0.50000000 </v>
   <v>      -0.44208298      -0.44208298      -0.41809297 </v>
   <v>      -0.50000000      -0.50000000      -0.33478913 </v>
   <v>       0.38317828      -0.38317828      -0.50000000 </v>
   <v>      -0.32826712      -0.44576022       0.41691983 </v>
   <v>      -0.27609443       0.49999998      -0.50000000 </v>
   <v>      -0.38804722      -0.38804722       0.34167483 </v>
   <v>      -0.38250685      -0.49999995      -0.34021320 </v>
   <v>       0.44576027      -0.32826707       0.41691983 </v>
   <v>      -0.38317828      -0.38317828      -0.50000000 </v>
   <v>      -0.47081890       0.49266617      -0.28652513 </v>
   <v>      -0.32826712      -0.44576022      -0.41691977 </v>
   <v>      -0.44576027      -0.32826707       0.41691983 </v>
   <v>       0.38804722      -0.38804722      -0.34167487 </v>
   <v>      -0.50000000      -0.38250681      -0.34021320 </v>
   <v>       0.44576027      -0.32826707      -0.41691977 </v>
   <v>      -0.46572943       0.49138707      -0.24929313 </v>
   <v>      -0.44576027      -0.32826707      -0.41691977 </v>
   <v>      -0.50000000      -0.27609445       0.50000000 </v>
   <v>      -0.38804722      -0.38804722      -0.34167487 </v>
  </varray>
 </structure>
 <varray name="primitive_index" >
  <v type="int" >        1 </v>
  <v type="int" >        3 </v>
  <v type="int" >        5 </v>
  <v type="int" >        7 </v>
  <v type="int" >       15 </v>
  <v type="int" >       29 </v>
  <v type="int" >       28 </v>
  <v type="int" >       34 </v>
  <v type="int" >       21 </v>
  <v type="int" >       19 </v>
  <v type="int" >       22 </v>
  <v type="int" >       11 </v>
  <v type="int" >       36 </v>
  <v type="int" >       38 </v>
  <v type="int" >       52 </v>
  <v type="int" >       24 </v>
  <v type="int" >       32 </v>
  <v type="int" >       44 </v>
  <v type="int" >       48 </v>
  <v type="int" >       42 </v>
  <v type="int" >       43 </v>
  <v type="int" >       40 </v>
  <v type="int" >        6 </v>
  <v type="int" >        4 </v>
  <v type="int" >       30 </v>
  <v type="int" >       26 </v>
  <v type="int" >        8 </v>
  <v type="int" >       16 </v>
  <v type="int" >       49 </v>
  <v type="int" >       47 </v>
  <v type="int" >       53 </v>
  <v type="int" >       12 </v>
  <v type="int" >       13 </v>
  <v type="int" >       33 </v>
  <v type="int" >       25 </v>
  <v type="int" >       45 </v>
  <v type="int" >       50 </v>
  <v type="int" >       55 </v>
  <v type="int" >       54 </v>
  <v type="int" >       39 </v>
  <v type="int" >       37 </v>
  <v type="int" >        2 </v>
  <v type="int" >        9 </v>
  <v type="int" >       17 </v>
  <v type="int" >       31 </v>
  <v type="int" >       27 </v>
  <v type="int" >       35 </v>
  <v type="int" >       56 </v>
  <v type="int" >       20 </v>
  <v type="int" >       23 </v>
  <v type="int" >       14 </v>
  <v type="int" >       51 </v>
  <v type="int" >       46 </v>
  <v type="int" >       57 </v>
  <v type="int" >       41 </v>
  <v type="int" >       10 </v>
  <v type="int" >       18 </v>
 </varray>
 <kpoints>
  <generation param="Monkhorst-Pack">
   <v type="int" name="divisions">       1        1        1 </v>
   <v name="usershift">      0.00000000       0.00000000       0.00000000 </v>
   <v name="genvec1">      1.00000000       0.00000000       0.00000000 </v>
   <v name="genvec2">      0.00000000       1.00000000       0.00000000 </v>
   <v name="genvec3">      0.00000000       0.00000000       1.00000000 </v>
   <v name="shift">      0.00000000       0.00000000       0.00000000 </v>
  </generation>
  <varray name="kpointlist" >
   <v>       0.00000000       0.00000000       0.00000000 </v>
  </varray>
  <varray name="weights" >
   <v>       1.00000000 </v>
  </varray>
 </kpoints>
 <parameters>
  <separator name="general" >
   <i type="string" name="SYSTEM">6_Pd100_top_free_z(O)</i>
   <i type="logical" name="LCOMPAT"> F  </i>
  </separator>
  <separator name="electronic" >
   <i type="string" name="PREC">normal</i>
   <i name="ENMAX">    400.00000000</i>
   <i name="ENAUG">    644.87300000</i>
   <i name="EDIFF">      0.00010000</i>
   <i type="int" name="IALGO">    68</i>
   <i type="int" name="IWAVPR">    10</i>
   <i type="int" name="NBANDS">   336</i>
   <i name="NELECT">    560.00000000</i>
   <i type="int" name="TURBO">     0</i>
   <i type="int" name="IRESTART">     0</i>
   <i type="int" name="NREBOOT">     0</i>
   <i type="int" name="NMIN">     0</i>
   <i name="EREF">      0.00000000</i>
   <separator name="electronic smearing" >
    <i type="int" name="ISMEAR">     2</i>
    <i name="SIGMA">      0.20000000</i>
    <i name="KSPACING">      0.50000000</i>
    <i type="logical" name="KGAMMA"> T  </i>
   </separator>
   <separator name="electronic projectors" >
    <i type="logical" name="LREAL"> T  </i>
    <v name="ROPT">     -0.00050000     -0.00050000     -0.00050000</v>
    <i type="int" name="LMAXPAW">  -100</i>
    <i type="int" name="LMAXMIX">     2</i>
    <i type="logical" name="NLSPLINE"> F  </i>
   </separator>
   <separator name="electronic startup" >
    <i type="int" name="ISTART">     0</i>
    <i type="int" name="ICHARG">     2</i>
    <i type="int" name="INIWAV">     1</i>
   </separator>
   <separator name="electronic spin" >
    <i type="int" name="ISPIN">     1</i>
    <i type="logical" name="LNONCOLLINEAR"> F  </i>
    <v name="MAGMOM">      1.00000000      1.00000000      1.00000000      1.00000000      1.00000000      1.00000000      1.00000000      1.00000000      1.00000000      1.00000000      1.00000000      1.00000000      1.00000000      1.00000000      1.00000000      1.00000000      1.00000000      1.00000000      1.00000000      1.00000000
      1.00000000      1.00000000      1.00000000      1.00000000      1.00000000      1.00000000      1.00000000      1.00000000      1.00000000      1.00000000      1.00000000      1.00000000      1.00000000      1.00000000      1.00000000      1.00000000      1.00000000      1.00000000      1.00000000      1.00000000
      1.00000000      1.00000000      1.00000000      1.00000000      1.00000000      1.00000000      1.00000000      1.00000000      1.00000000      1.00000000      1.00000000      1.00000000      1.00000000      1.00000000      1.00000000      1.00000000      1.00000000</v>
    <i name="NUPDOWN">     -1.00000000</i>
    <i type="logical" name="LSORBIT"> F  </i>
    <v name="SAXIS">      0.00000000      0.00000000      1.00000000</v>
    <i type="logical" name="LSPIRAL"> F  </i>
    <v name="QSPIRAL">      0.00000000      0.00000000      0.00000000</v>
    <i type="logical" name="LZEROZ"> F  </i>
   </separator>
   <separator name="electronic exchange-correlation" >
    <i type="logical" name="LASPH"> F  </i>
    <i type="logical" name="LMETAGGA"> F  </i>
   </separator>
   <separator name="electronic convergence" >
    <i type="int" name="NELM">   100</i>
    <i type="int" name="NELMDL">    -5</i>
    <i type="int" name="NELMIN">     6</i>
    <i name="ENINI">    400.00000000</i>
    <separator name="electronic convergence detail" >
     <i type="logical" name="LDIAG"> T  </i>
     <i type="logical" name="LSUBROT"> F  </i>
     <i name="WEIMIN">      0.00000000</i>
     <i name="EBREAK">      0.00000007</i>
     <i name="DEPER">      0.30000000</i>
     <i type="int" name="NRMM">     4</i>
     <i name="TIME">      0.40000000</i>
    </separator>
   </separator>
   <separator name="electronic mixer" >
    <i name="AMIX">      0.40000000</i>
    <i name="BMIX">      1.00000000</i>
    <i name="AMIN">      0.10000000</i>
    <i name="AMIX_MAG">      1.60000000</i>
    <i name="BMIX_MAG">      1.00000000</i>
    <separator name="electronic mixer details" >
     <i type="int" name="IMIX">     4</i>
     <i type="logical" name="MIXFIRST"> F  </i>
     <i type="int" name="MAXMIX">   -45</i>
     <i name="WC">    100.00000000</i>
     <i type="int" name="INIMIX">     1</i>
     <i type="int" name="MIXPRE">     1</i>
     <i type="int" name="MREMOVE">     5</i>
    </separator>
   </separator>
   <separator name="electronic dipolcorrection" >
    <i type="logical" name="LDIPOL"> F  </i>
    <i type="logical" name="LMONO"> F  </i>
    <i type="int" name="IDIPOL">     0</i>
    <i name="EPSILON">      1.00000000</i>
    <v name="DIPOL">   -100.00000000   -100.00000000   -100.00000000</v>
    <i name="EFIELD">      0.00000000</i>
   </separator>
  </separator>
  <separator name="grids" >
   <i type="int" name="NGX">   150</i>
   <i type="int" name="NGY">   150</i>
   <i type="int" name="NGZ">   150</i>
   <i type="int" name="NGXF">   300</i>
   <i type="int" name="NGYF">   300</i>
   <i type="int" name="NGZF">   300</i>
   <i type="logical" name="ADDGRID"> F  </i>
  </separator>
  <separator name="ionic" >
   <i type="int" name="NSW">     0</i>
   <i type="int" name="IBRION">    -1</i>
   <i type="int" name="MDALGO">     0</i>
   <i type="int" name="ISIF">     2</i>
   <i name="PSTRESS">      0.00000000</i>
   <i name="EDIFFG">     -0.05000000</i>
   <i type="int" name="NFREE">     1</i>
   <i name="POTIM">      0.50000000</i>
   <i name="SMASS">     -3.00000000</i>
   <i name="SCALEE">      1.00000000</i>
  </separator>
  <separator name="ionic md" >
   <i name="TEBEG">      0.00010000</i>
   <i name="TEEND">      0.00010000</i>
   <i type="int" name="NBLOCK">     1</i>
   <i type="int" name="KBLOCK">     1</i>
   <i type="int" name="NPACO">   256</i>
   <i name="APACO">     16.00000000</i>
  </separator>
  <separator name="symmetry" >
   <i type="int" name="ISYM">     2</i>
   <i name="SYMPREC">      0.00001000</i>
  </separator>
  <separator name="dos" >
   <i type="int" name="LORBIT">     0</i>
   <v name="RWIGS">     -1.00000000     -1.00000000     -1.00000000</v>
   <i type="int" name="NEDOS">   301</i>
   <i name="EMIN">     10.00000000</i>
   <i name="EMAX">    -10.00000000</i>
   <i name="EFERMI">      0.00000000</i>
  </separator>
  <separator name="writing" >
   <i type="int" name="NWRITE">     2</i>
   <i type="logical" name="LWAVE"> F  </i>
   <i type="logical" name="LDOWNSAMPLE"> F  </i>
   <i type="logical" name="LCHARG"> F  </i>
   <i type="logical" name="LPARD"> F  </i>
   <i type="logical" name="LVTOT"> F  </i>
   <i type="logical" name="LVHAR"> F  </i>
   <i type="logical" name="LELF"> F  </i>
   <i type="logical" name="LOPTICS"> F  </i>
   <v name="STM">      0.00000000      0.00000000      0.00000000      0.00000000      0.00000000      0.00000000      0.00000000</v>
  </separator>
  <separator name="performance" >
   <i type="int" name="NPAR">     1</i>
   <i type="int" name="NSIM">     4</i>
   <i type="int" name="NBLK">    -1</i>
   <i type="logical" name="LPLANE"> T  </i>
   <i type="logical" name="LSCALAPACK"> T  </i>
   <i type="logical" name="LSCAAWARE"> F  </i>
   <i type="logical" name="LSCALU"> F  </i>
   <i type="logical" name="LASYNC"> F  </i>
   <i type="logical" name="LORBITALREAL"> F  </i>
  </separator>
  <separator name="miscellaneous" >
   <i type="int" name="IDIOT">     3</i>
   <i type="int" name="ISPECIAL">     0</i>
   <i type="logical" name="LMUSIC"> F  </i>
   <v name="POMASS">    106.42000000     12.01100000     16.00000000</v>
   <v name="DARWINR">      0.00000000      0.00000000      0.00000000</v>
   <v name="DARWINV">      1.00000000      1.00000000      1.00000000</v>
   <i type="logical" name="LCORR"> T  </i>
  </separator>
  <i type="logical" name="GGA_COMPAT"> T  </i>
  <i type="logical" name="LBERRY"> F  </i>
  <i type="int" name="ICORELEVEL">     0</i>
  <i type="logical" name="LDAU"> F  </i>
  <i type="int" name="I_CONSTRAINED_M">     0</i>
  <separator name="electronic exchange-correlation" >
   <i type="string" name="GGA">RP</i>
   <i type="int" name="VOSKOWN">     0</i>
   <i type="logical" name="LHFCALC"> F  </i>
   <i type="string" name="PRECFOCK"></i>
   <i type="logical" name="LSYMGRAD"> F  </i>
   <i type="logical" name="LHFONE"> F  </i>
   <i type="logical" name="LRHFCALC"> F  </i>
   <i type="logical" name="LTHOMAS"> F  </i>
   <i type="logical" name="LMODELHF"> F  </i>
   <i name="ENCUT4O">     -1.00000000</i>
   <i type="int" name="EXXOEP">     0</i>
   <i type="int" name="FOURORBIT">     0</i>
   <i name="AEXX">      0.00000000</i>
   <i name="HFALPHA">      0.00000000</i>
   <i name="MCALPHA">      0.00000000</i>
   <i name="ALDAX">      1.00000000</i>
   <i name="AGGAX">      1.00000000</i>
   <i name="ALDAC">      1.00000000</i>
   <i name="AGGAC">      1.00000000</i>
   <i type="int" name="NKREDX">     1</i>
   <i type="int" name="NKREDY">     1</i>
   <i type="int" name="NKREDZ">     1</i>
   <i type="logical" name="SHIFTRED"> F  </i>
   <i type="logical" name="ODDONLY"> F  </i>
   <i type="logical" name="EVENONLY"> F  </i>
   <i type="int" name="LMAXFOCK">     0</i>
   <i type="int" name="NMAXFOCKAE">     0</i>
   <i type="logical" name="LFOCKAEDFT"> F  </i>
   <i name="HFSCREEN">      0.00000000</i>
   <i name="HFSCREENC">      0.00000000</i>
   <i type="int" name="NBANDSGWLOW">     0</i>
  </separator>
  <separator name="vdW DFT" >
   <i type="logical" name="LUSE_VDW"> F  </i>
   <i name="Zab_VDW">     -0.84910000</i>
   <i name="PARAM1">      0.12340000</i>
   <i name="PARAM2">      1.00000000</i>
   <i name="PARAM3">      0.00000000</i>
  </separator>
  <separator name="model GW" >
   <i type="int" name="MODEL_GW">     0</i>
   <i name="MODEL_EPS0">    284.21052632</i>
   <i name="MODEL_ALPHA">      1.00000000</i>
  </separator>
  <separator name="linear response parameters" >
   <i type="logical" name="LEPSILON"> F  </i>
   <i type="logical" name="LRPA"> F  </i>
   <i type="logical" name="LNABLA"> F  </i>
   <i type="logical" name="LVEL"> F  </i>
   <i type="int" name="KINTER">     0</i>
   <i name="CSHIFT">      0.10000000</i>
   <i name="OMEGAMAX">     -1.00000000</i>
   <i name="DEG_THRESHOLD">      0.00200000</i>
   <i name="RTIME">     -0.10000000</i>
   <i name="WPLASMAI">      0.00000000</i>
   <v name="DFIELD">      0.00000000      0.00000000      0.00000000</v>
   <v name="WPLASMA">      0.00000000      0.00000000      0.00000000      0.00000000      0.00000000      0.00000000      0.00000000      0.00000000      0.00000000</v>
  </separator>
  <separator name="orbital magnetization" >
   <i type="logical" name="NUCIND"> F  </i>
   <v name="MAGPOS">      0.00000000      0.00000000      0.00000000</v>
   <i type="logical" name="LNICSALL"> T  </i>
   <i type="logical" name="ORBITALMAG"> F  </i>
   <i type="logical" name="LMAGBLOCH"> F  </i>
   <i type="logical" name="LCHIMAG"> F  </i>
   <i type="logical" name="LGAUGE"> T  </i>
   <i type="int" name="MAGATOM">     0</i>
   <v name="MAGDIPOL">      0.00000000      0.00000000      0.00000000</v>
   <v name="AVECCONST">      0.00000000      0.00000000      0.00000000</v>
  </separator>
  <separator name="response functions" >
   <i type="logical" name="LADDER"> F  </i>
   <i type="logical" name="LRPAFORCE"> F  </i>
   <i type="logical" name="LFXC"> F  </i>
   <i type="logical" name="LHARTREE"> T  </i>
   <i type="int" name="IBSE">     0</i>
   <v type="int" name="KPOINT">    -1     0     0     0</v>
   <i type="logical" name="LTCTE"> F  </i>
   <i type="logical" name="LTETE"> F  </i>
   <i type="logical" name="LTRIPLET"> F  </i>
   <i type="logical" name="LFXCEPS"> F  </i>
   <i type="logical" name="LFXHEG"> F  </i>
   <i type="int" name="NATURALO">     2</i>
   <i type="logical" name="L2ORDER"> F  </i>
   <i type="logical" name="LMP2LT"> F  </i>
   <i type="logical" name="LUSEW"> F  </i>
   <i name="ENCUTGW">     -2.00000000</i>
   <i name="ENCUTGWSOFT">     -2.00000000</i>
   <i name="ENCUTLF">     -1.00000000</i>
   <i type="int" name="LMAXMP2">    -1</i>
   <i name="SCISSOR">      0.00000000</i>
   <i type="int" name="NOMEGA">     0</i>
   <i type="int" name="NOMEGAR">     0</i>
   <i type="int" name="NBANDSGW">    -1</i>
   <i type="int" name="NBANDSO">    -1</i>
   <i type="int" name="NBANDSV">    -1</i>
   <i type="int" name="NELM">   100</i>
   <i type="int" name="NELMHF">     1</i>
   <i type="int" name="DIM">     3</i>
   <i type="int" name="ANTIRES">     0</i>
   <i name="OMEGAMAX">    -30.00000000</i>
   <i name="OMEGAMIN">    -30.00000000</i>
   <i name="OMEGATL">   -200.00000000</i>
   <i type="int" name="OMEGAGRID">   140</i>
   <i name="CSHIFT">     -0.10000000</i>
   <i type="logical" name="SELFENERGY"> F  </i>
   <i type="logical" name="LSPECTRAL"> F  </i>
   <i type="logical" name="LSPECTRALGW"> F  </i>
   <i type="logical" name="LSINGLES"> F  </i>
   <i type="logical" name="LFERMIGW"> F  </i>
   <i type="logical" name="ODDONLYGW"> F  </i>
   <i type="logical" name="EVENONLYGW"> F  </i>
   <i type="int" name="NKREDLFX">     1</i>
   <i type="int" name="NKREDLFY">     1</i>
   <i type="int" name="NKREDLFZ">     1</i>
   <i type="int" name="MAXMEM"> 10000</i>
   <i type="int" name="TELESCOPE">     0</i>
   <i type="int" name="TAUPAR">     1</i>
   <i type="int" name="OMEGAPAR">    -1</i>
   <i name="LAMBDA">      1.00000000</i>
  </separator>
  <separator name="External order field" >
   <i name="OFIELD_KAPPA">      0.00000000</i>
   <v name="OFIELD_K">      0.00000000      0.00000000      0.00000000</v>
   <i name="OFIELD_Q6_NEAR">      0.00000000</i>
   <i name="OFIELD_Q6_FAR">      0.00000000</i>
   <i name="OFIELD_A">      0.00000000</i>
  </separator>
 </parameters>
 <atominfo>
  <atoms>      57 </atoms>
  <types>       3 </types>
  <array name="atoms" >
   <dimension dim="1">ion</dimension>
   <field type="string">element</field>
   <field type="int">atomtype</field>
   <set>
    <rc><c>Pd</c><c>   1</c></rc>
    <rc><c>Pd</c><c>   1</c></rc>
    <rc><c>Pd</c><c>   1</c></rc>
    <rc><c>Pd</c><c>   1</c></rc>
    <rc><c>Pd</c><c>   1</c></rc>
    <rc><c>Pd</c><c>   1</c></rc>
    <rc><c>Pd</c><c>   1</c></rc>
    <rc><c>Pd</c><c>   1</c></rc>
    <rc><c>Pd</c><c>   1</c></rc>
    <rc><c>Pd</c><c>   1</c></rc>
    <rc><c>Pd</c><c>   1</c></rc>
    <rc><c>Pd</c><c>   1</c></rc>
    <rc><c>Pd</c><c>   1</c></rc>
    <rc><c>Pd</c><c>   1</c></rc>
    <rc><c>Pd</c><c>   1</c></rc>
    <rc><c>Pd</c><c>   1</c></rc>
    <rc><c>Pd</c><c>   1</c></rc>
    <rc><c>Pd</c><c>   1</c></rc>
    <rc><c>Pd</c><c>   1</c></rc>
    <rc><c>Pd</c><c>   1</c></rc>
    <rc><c>Pd</c><c>   1</c></rc>
    <rc><c>Pd</c><c>   1</c></rc>
    <rc><c>Pd</c><c>   1</c></rc>
    <rc><c>Pd</c><c>   1</c></rc>
    <rc><c>Pd</c><c>   1</c></rc>
    <rc><c>Pd</c><c>   1</c></rc>
    <rc><c>Pd</c><c>   1</c></rc>
    <rc><c>Pd</c><c>   1</c></rc>
    <rc><c>Pd</c><c>   1</c></rc>
    <rc><c>Pd</c><c>   1</c></rc>
    <rc><c>Pd</c><c>   1</c></rc>
    <rc><c>Pd</c><c>   1</c></rc>
    <rc><c>Pd</c><c>   1</c></rc>
    <rc><c>Pd</c><c>   1</c></rc>
    <rc><c>Pd</c><c>   1</c></rc>
    <rc><c>Pd</c><c>   1</c></rc>
    <rc><c>Pd</c><c>   1</c></rc>
    <rc><c>Pd</c><c>   1</c></rc>
    <rc><c>Pd</c><c>   1</c></rc>
    <rc><c>Pd</c><c>   1</c></rc>
    <rc><c>Pd</c><c>   1</c></rc>
    <rc><c>Pd</c><c>   1</c></rc>
    <rc><c>Pd</c><c>   1</c></rc>
    <rc><c>Pd</c><c>   1</c></rc>
    <rc><c>Pd</c><c>   1</c></rc>
    <rc><c>Pd</c><c>   1</c></rc>
    <rc><c>Pd</c><c>   1</c></rc>
    <rc><c>Pd</c><c>   1</c></rc>
    <rc><c>Pd</c><c>   1</c></rc>
    <rc><c>Pd</c><c>   1</c></rc>
    <rc><c>Pd</c><c>   1</c></rc>
    <rc><c>Pd</c><c>   1</c></rc>
    <rc><c>Pd</c><c>   1</c></rc>
    <rc><c>Pd</c><c>   1</c></rc>
    <rc><c>Pd</c><c>   1</c></rc>
    <rc><c>C </c><c>   2</c></rc>
    <rc><c>O </c><c>   3</c></rc>
   </set>
  </array>
  <array name="atomtypes" >
   <dimension dim="1">type</dimension>
   <field type="int">atomspertype</field>
   <field type="string">element</field>
   <field>mass</field>
   <field>valence</field>
   <field type="string">pseudopotential</field>
   <set>
    <rc><c>  55</c><c>Pd</c><c>    106.42000000</c><c>     10.00000000</c><c>  PAW_PBE Pd 04Jan2005                  </c></rc>
    <rc><c>   1</c><c>C </c><c>     12.01100000</c><c>      4.00000000</c><c>  PAW_PBE C 08Apr2002                   </c></rc>
    <rc><c>   1</c><c>O </c><c>     16.00000000</c><c>      6.00000000</c><c>  PAW_PBE O 08Apr2002                   </c></rc>
   </set>
  </array>
 </atominfo>
 <structure name="initialpos" >
  <crystal>
   <varray name="basis" >
    <v>      30.00000000       0.00000000       0.00000000 </v>
    <v>       0.00000000      30.00000000       0.00000000 </v>
    <v>       0.00000000       0.00000000      30.00000000 </v>
   </varray>
   <i name="volume">  27000.00000000 </i>
   <varray name="rec_basis" >
    <v>       0.03333333       0.00000000       0.00000000 </v>
    <v>       0.00000000       0.03333333       0.00000000 </v>
    <v>       0.00000000       0.00000000       0.03333333 </v>
   </varray>
  </crystal>
  <varray name="positions" >
   <v>       0.44576020       0.32826710       0.41691983 </v>
   <v>       0.67173288       0.55423978       0.41691983 </v>
   <v>       0.55423980       0.32826710       0.41691983 </v>
   <v>       0.32826712       0.55423978       0.41691983 </v>
   <v>       0.50000000       0.38250690       0.34021317 </v>
   <v>       0.50000000       0.38250690       0.65978680 </v>
   <v>       0.50000000       0.27609440       0.50000000 </v>
   <v>       0.27609443       0.49999998       0.50000000 </v>
   <v>       0.72390557       0.49999998       0.50000000 </v>
   <v>       0.50000000       0.72390555       0.50000000 </v>
   <v>       0.61195280       0.38804720       0.34167483 </v>
   <v>       0.61195280       0.38804720       0.65832513 </v>
   <v>       0.38804722       0.61195278       0.34167483 </v>
   <v>       0.38804722       0.61195278       0.65832513 </v>
   <v>       0.38804720       0.38804720       0.34167483 </v>
   <v>       0.38804720       0.38804720       0.65832513 </v>
   <v>       0.61195278       0.61195278       0.34167483 </v>
   <v>       0.61195278       0.61195278       0.65832513 </v>
   <v>       0.44576020       0.32826710       0.58308023 </v>
   <v>       0.67173288       0.55423978       0.58308023 </v>
   <v>       0.55791699       0.44208301       0.41809300 </v>
   <v>       0.32826705       0.44576024       0.41691983 </v>
   <v>       0.55423973       0.67173293       0.41691983 </v>
   <v>       0.55423980       0.32826710       0.58308023 </v>
   <v>       0.32826712       0.55423978       0.58308023 </v>
   <v>       0.67173295       0.44576024       0.41691983 </v>
   <v>       0.44576027       0.67173293       0.41691983 </v>
   <v>       0.44208301       0.44208301       0.41809300 </v>
   <v>       0.50000000       0.38416601       0.50000000 </v>
   <v>       0.61749315       0.50000005       0.34021317 </v>
   <v>       0.61749315       0.50000005       0.65978680 </v>
   <v>       0.38250685       0.50000005       0.34021317 </v>
   <v>       0.38250685       0.50000005       0.65978680 </v>
   <v>       0.38317830       0.38317830       0.50000000 </v>
   <v>       0.61682172       0.61682172       0.50000000 </v>
   <v>       0.61682170       0.38317830       0.50000000 </v>
   <v>       0.38317828       0.61682172       0.50000000 </v>
   <v>       0.50000000       0.50000000       0.33478917 </v>
   <v>       0.50000000       0.50000000       0.66521087 </v>
   <v>       0.32826705       0.44576024       0.58308023 </v>
   <v>       0.55423973       0.67173293       0.58308023 </v>
   <v>       0.55791699       0.44208301       0.58190703 </v>
   <v>       0.44208298       0.55791702       0.41809300 </v>
   <v>       0.44208301       0.44208301       0.58190703 </v>
   <v>       0.67173295       0.44576024       0.58308023 </v>
   <v>       0.44576027       0.67173293       0.58308023 </v>
   <v>       0.55791702       0.55791702       0.41809300 </v>
   <v>       0.38416599       0.50000002       0.50000000 </v>
   <v>       0.61583401       0.50000002       0.50000000 </v>
   <v>       0.50000000       0.61749319       0.34021317 </v>
   <v>       0.50000000       0.61749319       0.65978680 </v>
   <v>       0.50000000       0.50000000       0.50000000 </v>
   <v>       0.44208298       0.55791702       0.58190703 </v>
   <v>       0.55791702       0.55791702       0.58190703 </v>
   <v>       0.50000000       0.61583404       0.50000000 </v>
   <v>       0.52918110       0.49266617       0.71347487 </v>
   <v>       0.53427057       0.49138707       0.75070687 </v>
  </varray>
  <varray name="selective"  type="logical" >
   <v type="logical" >  F  F  F </v>
   <v type="logical" >  F  F  F </v>
   <v type="logical" >  F  F  F </v>
   <v type="logical" >  F  F  F </v>
   <v type="logical" >  F  F  F </v>
   <v type="logical" >  F  F  F </v>
   <v type="logical" >  F  F  F </v>
   <v type="logical" >  F  F  F </v>
   <v type="logical" >  F  F  F </v>
   <v type="logical" >  F  F  F </v>
   <v type="logical" >  F  F  F </v>
   <v type="logical" >  F  F  F </v>
   <v type="logical" >  F  F  F </v>
   <v type="logical" >  F  F  F </v>
   <v type="logical" >  F  F  F </v>
   <v type="logical" >  F  F  F </v>
   <v type="logical" >  F  F  F </v>
   <v type="logical" >  F  F  F </v>
   <v type="logical" >  F  F  F </v>
   <v type="logical" >  F  F  F </v>
   <v type="logical" >  F  F  F </v>
   <v type="logical" >  F  F  F </v>
   <v type="logical" >  F  F  F </v>
   <v type="logical" >  F  F  F </v>
   <v type="logical" >  F  F  F </v>
   <v type="logical" >  F  F  F </v>
   <v type="logical" >  F  F  F </v>
   <v type="logical" >  F  F  F </v>
   <v type="logical" >  F  F  F </v>
   <v type="logical" >  F  F  F </v>
   <v type="logical" >  F  F  F </v>
   <v type="logical" >  F  F  F </v>
   <v type="logical" >  F  F  F </v>
   <v type="logical" >  F  F  F </v>
   <v type="logical" >  F  F  F </v>
   <v type="logical" >  F  F  F </v>
   <v type="logical" >  F  F  F </v>
   <v type="logical" >  F  F  F </v>
   <v type="logical" >  F  F  F </v>
   <v type="logical" >  F  F  F </v>
   <v type="logical" >  F  F  F </v>
   <v type="logical" >  F  F  F </v>
   <v type="logical" >  F  F  F </v>
   <v type="logical" >  F  F  F </v>
   <v type="logical" >  F  F  F </v>
   <v type="logical" >  F  F  F </v>
   <v type="logical" >  F  F  F </v>
   <v type="logical" >  F  F  F </v>
   <v type="logical" >  F  F  F </v>
   <v type="logical" >  F  F  F </v>
   <v type="logical" >  F  F  F </v>
   <v type="logical" >  F  F  F </v>
   <v type="logical" >  F  F  F </v>
   <v type="logical" >  F  F  F </v>
   <v type="logical" >  F  F  F </v>
   <v type="logical" >  F  F  F </v>
   <v type="logical" >  F  F  F </v>
  </varray>
  <nose>
   <v>      -3.00000000       0.00000000       0.00010000       0.00010000 </v>
  </nose>
 </structure>
 <calculation>
  <scstep>
   <time name="dav">  363.01  363.07</time>
   <time name="total">  377.44  377.51</time>
   <energy>
    <i name="alphaZ">     75.25431677 </i>
    <i name="ewald"> 139081.97786224 </i>
    <i name="hartreedc">-182434.90967263 </i>
    <i name="XCdc">  -1702.50577323 </i>
    <i name="pawpsdc">  44873.02882129 </i>
    <i name="pawaedc"> -41398.84523641 </i>
    <i name="eentropy">     -0.01328694 </i>
    <i name="bandstr">    818.56205585 </i>
    <i name="atom">  45086.50549395 </i>
    <i name="e_fr_energy">   4399.05458089 </i>
    <i name="e_wo_entrp">   4399.06786783 </i>
    <i name="e_0_energy">   4399.05790263 </i>
   </energy>
  </scstep>
  <scstep>
   <time name="dav">  582.15  582.16</time>
   <time name="total">  582.15  582.16</time>
   <energy>
    <i name="e_fr_energy">   2009.95636478 </i>
    <i name="e_wo_entrp">   2009.98902688 </i>
    <i name="e_0_energy">   2009.96453030 </i>
   </energy>
  </scstep>
  <scstep>
   <time name="dav">  492.14  492.14</time>
   <time name="total">  492.14  492.15</time>
   <energy>
    <i name="e_fr_energy">    229.29689201 </i>
    <i name="e_wo_entrp">    229.29251038 </i>
    <i name="e_0_energy">    229.29579660 </i>
   </energy>
  </scstep>
  <scstep>
   <time name="dav">  429.57  429.58</time>
   <time name="total">  429.57  429.58</time>
   <energy>
    <i name="e_fr_energy">   -136.79557170 </i>
    <i name="e_wo_entrp">   -136.81017190 </i>
    <i name="e_0_energy">   -136.79922175 </i>
   </energy>
  </scstep>
  <scstep>
   <time name="dav">  511.01  511.02</time>
   <time name="total">  536.90  536.92</time>
   <energy>
    <i name="e_fr_energy">   -180.58441627 </i>
    <i name="e_wo_entrp">   -181.07049980 </i>
    <i name="e_0_energy">   -180.70593715 </i>
   </energy>
  </scstep>
  <scstep>
   <time name="diag">   67.34   67.34</time>
   <time name="diis">  177.88  177.89</time>
   <time name="orth">   13.05   13.05</time>
   <time name="total">  296.96  296.96</time>
   <energy>
    <i name="e_fr_energy">   -179.59337453 </i>
    <i name="e_wo_entrp">   -179.33518602 </i>
    <i name="e_0_energy">   -179.52882740 </i>
   </energy>
  </scstep>
  <scstep>
   <time name="diag">   66.96   66.96</time>
   <time name="diis">  212.10  212.11</time>
   <time name="orth">   13.70   13.70</time>
   <time name="total">  332.05  332.06</time>
   <energy>
    <i name="e_fr_energy">   -182.70226418 </i>
    <i name="e_wo_entrp">   -182.61272379 </i>
    <i name="e_0_energy">   -182.67987908 </i>
   </energy>
  </scstep>
  <scstep>
   <time name="diag">   67.60   67.61</time>
   <time name="diis">  198.59  198.60</time>
   <time name="orth">   13.32   13.32</time>
   <time name="total">  318.44  318.45</time>
   <energy>
    <i name="e_fr_energy">   -187.04845926 </i>
    <i name="e_wo_entrp">   -187.00128224 </i>
    <i name="e_0_energy">   -187.03666501 </i>
   </energy>
  </scstep>
  <scstep>
   <time name="diag">   66.55   66.55</time>
   <time name="diis">  199.11  199.12</time>
   <time name="orth">   13.68   13.68</time>
   <time name="total">  318.36  318.37</time>
   <energy>
    <i name="e_fr_energy">   -184.39723499 </i>
    <i name="e_wo_entrp">   -184.18388034 </i>
    <i name="e_0_energy">   -184.34389633 </i>
   </energy>
  </scstep>
  <scstep>
   <time name="diag">   67.34   67.34</time>
   <time name="diis">  189.62  189.63</time>
   <time name="orth">   13.68   13.68</time>
   <time name="total">  309.80  309.81</time>
   <energy>
    <i name="e_fr_energy">   -181.84964545 </i>
    <i name="e_wo_entrp">   -181.73894312 </i>
    <i name="e_0_energy">   -181.82196987 </i>
   </energy>
  </scstep>
  <scstep>
   <time name="diag">   67.32   67.32</time>
   <time name="diis">  191.00  191.01</time>
   <time name="orth">   13.56   13.56</time>
   <time name="total">  310.72  310.72</time>
   <energy>
    <i name="e_fr_energy">   -179.00188258 </i>
    <i name="e_wo_entrp">   -178.97903517 </i>
    <i name="e_0_energy">   -178.99617072 </i>
   </energy>
  </scstep>
  <scstep>
   <time name="diag">   67.24   67.24</time>
   <time name="diis">  187.40  187.41</time>
   <time name="orth">   13.54   13.54</time>
   <time name="total">  307.10  307.12</time>
   <energy>
    <i name="e_fr_energy">   -177.69883047 </i>
    <i name="e_wo_entrp">   -177.74281094 </i>
    <i name="e_0_energy">   -177.70982558 </i>
   </energy>
  </scstep>
  <scstep>
   <time name="diag">   67.47   67.47</time>
   <time name="diis">  188.59  188.59</time>
   <time name="orth">   13.67   13.67</time>
   <time name="total">  308.76  308.77</time>
   <energy>
    <i name="e_fr_energy">   -178.26031406 </i>
    <i name="e_wo_entrp">   -178.27105115 </i>
    <i name="e_0_energy">   -178.26299834 </i>
   </energy>
  </scstep>
  <scstep>
   <time name="diag">   67.42   67.43</time>
   <time name="diis">  186.36  186.36</time>
   <time name="orth">   13.79   13.79</time>
   <time name="total">  306.36  306.37</time>
   <energy>
    <i name="e_fr_energy">   -178.27136080 </i>
    <i name="e_wo_entrp">   -178.32660059 </i>
    <i name="e_0_energy">   -178.28517075 </i>
   </energy>
  </scstep>
  <scstep>
   <time name="diag">   67.62   67.63</time>
   <time name="diis">  187.43  187.44</time>
   <time name="orth">   13.73   13.73</time>
   <time name="total">  307.88  307.89</time>
   <energy>
    <i name="e_fr_energy">   -177.35171675 </i>
    <i name="e_wo_entrp">   -177.36612633 </i>
    <i name="e_0_energy">   -177.35531915 </i>
   </energy>
  </scstep>
  <scstep>
   <time name="diag">   68.58   68.58</time>
   <time name="diis">  190.29  190.29</time>
   <time name="orth">   13.58   13.58</time>
   <time name="total">  311.87  311.88</time>
   <energy>
    <i name="e_fr_energy">   -175.87779393 </i>
    <i name="e_wo_entrp">   -175.87846733 </i>
    <i name="e_0_energy">   -175.87796228 </i>
   </energy>
  </scstep>
  <scstep>
   <time name="diag">   68.48   68.48</time>
   <time name="diis">  191.28  191.28</time>
   <time name="orth">   13.80   13.80</time>
   <time name="total">  313.33  313.34</time>
   <energy>
    <i name="e_fr_energy">   -175.91647079 </i>
    <i name="e_wo_entrp">   -175.95056259 </i>
    <i name="e_0_energy">   -175.92499374 </i>
   </energy>
  </scstep>
  <scstep>
   <time name="diag">   68.00   68.00</time>
   <time name="diis">  192.31  192.31</time>
   <time name="orth">   13.69   13.69</time>
   <time name="total">  313.92  313.92</time>
   <energy>
    <i name="e_fr_energy">   -175.56108255 </i>
    <i name="e_wo_entrp">   -175.60278860 </i>
    <i name="e_0_energy">   -175.57150906 </i>
   </energy>
  </scstep>
  <scstep>
   <time name="diag">   68.28   68.28</time>
   <time name="diis">  188.99  188.99</time>
   <time name="orth">   13.43   13.43</time>
   <time name="total">  310.34  310.35</time>
   <energy>
    <i name="e_fr_energy">   -175.48663077 </i>
    <i name="e_wo_entrp">   -175.53555407 </i>
    <i name="e_0_energy">   -175.49886159 </i>
   </energy>
  </scstep>
  <scstep>
   <time name="diag">   68.42   68.42</time>
   <time name="diis">  186.77  186.77</time>
   <time name="orth">   13.66   13.66</time>
   <time name="total">  308.70  308.71</time>
   <energy>
    <i name="e_fr_energy">   -175.32439226 </i>
    <i name="e_wo_entrp">   -175.35704259 </i>
    <i name="e_0_energy">   -175.33255484 </i>
   </energy>
  </scstep>
  <scstep>
   <time name="diag">   68.30   68.30</time>
   <time name="diis">  187.13  187.13</time>
   <time name="orth">   13.74   13.74</time>
   <time name="total">  308.60  308.61</time>
   <energy>
    <i name="e_fr_energy">   -175.23506493 </i>
    <i name="e_wo_entrp">   -175.22632661 </i>
    <i name="e_0_energy">   -175.23288035 </i>
   </energy>
  </scstep>
  <scstep>
   <time name="diag">   68.20   68.20</time>
   <time name="diis">  186.96  186.96</time>
   <time name="orth">   13.90   13.90</time>
   <time name="total">  308.62  308.62</time>
   <energy>
    <i name="e_fr_energy">   -175.11854871 </i>
    <i name="e_wo_entrp">   -175.09863353 </i>
    <i name="e_0_energy">   -175.11356991 </i>
   </energy>
  </scstep>
  <scstep>
   <time name="diag">   68.16   68.16</time>
   <time name="diis">  185.99  186.00</time>
   <time name="orth">   14.13   14.13</time>
   <time name="total">  308.13  308.14</time>
   <energy>
    <i name="e_fr_energy">   -175.06418026 </i>
    <i name="e_wo_entrp">   -175.02816283 </i>
    <i name="e_0_energy">   -175.05517590 </i>
   </energy>
  </scstep>
  <scstep>
   <time name="diag">   67.74   67.74</time>
   <time name="diis">  186.01  186.02</time>
   <time name="orth">   13.94   13.94</time>
   <time name="total">  307.48  307.49</time>
   <energy>
    <i name="e_fr_energy">   -175.02766862 </i>
    <i name="e_wo_entrp">   -174.98166579 </i>
    <i name="e_0_energy">   -175.01616791 </i>
   </energy>
  </scstep>
  <scstep>
   <time name="diag">   67.64   67.64</time>
   <time name="diis">  184.21  184.21</time>
   <time name="orth">   13.64   13.64</time>
   <time name="total">  305.27  305.28</time>
   <energy>
    <i name="e_fr_energy">   -174.97163672 </i>
    <i name="e_wo_entrp">   -174.93060748 </i>
    <i name="e_0_energy">   -174.96137941 </i>
   </energy>
  </scstep>
  <scstep>
   <time name="diag">   67.70   67.71</time>
   <time name="diis">  185.48  185.49</time>
   <time name="orth">   14.18   14.18</time>
   <time name="total">  307.65  307.66</time>
   <energy>
    <i name="e_fr_energy">   -174.90927472 </i>
    <i name="e_wo_entrp">   -174.87102408 </i>
    <i name="e_0_energy">   -174.89971206 </i>
   </energy>
  </scstep>
  <scstep>
   <time name="diag">   67.67   67.67</time>
   <time name="diis">  185.38  185.38</time>
   <time name="orth">   13.88   13.88</time>
   <time name="total">  306.97  306.98</time>
   <energy>
    <i name="e_fr_energy">   -174.90730894 </i>
    <i name="e_wo_entrp">   -174.86161755 </i>
    <i name="e_0_energy">   -174.89588609 </i>
   </energy>
  </scstep>
  <scstep>
   <time name="diag">   67.71   67.71</time>
   <time name="diis">  184.73  184.74</time>
   <time name="orth">   13.88   13.88</time>
   <time name="total">  306.58  306.59</time>
   <energy>
    <i name="e_fr_energy">   -174.89733567 </i>
    <i name="e_wo_entrp">   -174.86688679 </i>
    <i name="e_0_energy">   -174.88972345 </i>
   </energy>
  </scstep>
  <scstep>
   <time name="diag">   67.46   67.46</time>
   <time name="diis">  185.16  185.16</time>
   <time name="orth">   13.86   13.86</time>
   <time name="total">  306.90  306.90</time>
   <energy>
    <i name="e_fr_energy">   -174.87558313 </i>
    <i name="e_wo_entrp">   -174.84565505 </i>
    <i name="e_0_energy">   -174.86810111 </i>
   </energy>
  </scstep>
  <scstep>
   <time name="diag">   67.73   67.73</time>
   <time name="diis">  184.84  184.84</time>
   <time name="orth">   13.95   13.95</time>
   <time name="total">  306.98  306.99</time>
   <energy>
    <i name="e_fr_energy">   -174.87330521 </i>
    <i name="e_wo_entrp">   -174.83922702 </i>
    <i name="e_0_energy">   -174.86478566 </i>
   </energy>
  </scstep>
  <scstep>
   <time name="diag">   67.71   67.71</time>
   <time name="diis">  184.75  184.75</time>
   <time name="orth">   13.90   13.90</time>
   <time name="total">  306.89  306.90</time>
   <energy>
    <i name="e_fr_energy">   -174.86654276 </i>
    <i name="e_wo_entrp">   -174.82631151 </i>
    <i name="e_0_energy">   -174.85648495 </i>
   </energy>
  </scstep>
  <scstep>
   <time name="diag">   67.53   67.53</time>
   <time name="diis">  185.21  185.21</time>
   <time name="orth">   13.74   13.74</time>
   <time name="total">  306.90  306.91</time>
   <energy>
    <i name="e_fr_energy">   -174.86306050 </i>
    <i name="e_wo_entrp">   -174.82571484 </i>
    <i name="e_0_energy">   -174.85372408 </i>
   </energy>
  </scstep>
  <scstep>
   <time name="diag">   67.87   67.87</time>
   <time name="diis">  182.50  182.50</time>
   <time name="orth">   13.76   13.76</time>
   <time name="total">  304.73  304.74</time>
   <energy>
    <i name="e_fr_energy">   -174.86295691 </i>
    <i name="e_wo_entrp">   -174.82426029 </i>
    <i name="e_0_energy">   -174.85328275 </i>
   </energy>
  </scstep>
  <scstep>
   <time name="diag">   68.16   68.16</time>
   <time name="diis">  185.44  185.44</time>
   <time name="orth">   13.40   13.40</time>
   <time name="total">  307.82  307.83</time>
   <energy>
    <i name="e_fr_energy">   -174.86225345 </i>
    <i name="e_wo_entrp">   -174.82530956 </i>
    <i name="e_0_energy">   -174.85301748 </i>
   </energy>
  </scstep>
  <scstep>
   <time name="diag">   68.41   68.41</time>
   <time name="diis">  183.83  183.84</time>
   <time name="orth">   14.00   14.00</time>
   <time name="total">  308.02  308.04</time>
   <energy>
    <i name="e_fr_energy">   -174.86171910 </i>
    <i name="e_wo_entrp">   -174.82459011 </i>
    <i name="e_0_energy">   -174.85243685 </i>
   </energy>
  </scstep>
  <scstep>
   <time name="diag">   68.32   68.33</time>
   <time name="diis">  182.30  182.30</time>
   <time name="orth">   13.93   13.93</time>
   <time name="total">  306.57  306.58</time>
   <energy>
    <i name="e_fr_energy">   -174.86235562 </i>
    <i name="e_wo_entrp">   -174.82126173 </i>
    <i name="e_0_energy">   -174.85208215 </i>
   </energy>
  </scstep>
  <scstep>
   <time name="diag">   68.34   68.34</time>
   <time name="diis">  182.78  182.78</time>
   <time name="orth">   13.73   13.73</time>
   <time name="total">  306.74  306.75</time>
   <energy>
    <i name="e_fr_energy">   -174.86344638 </i>
    <i name="e_wo_entrp">   -174.82309395 </i>
    <i name="e_0_energy">   -174.85335827 </i>
   </energy>
  </scstep>
  <scstep>
   <time name="diag">   67.96   67.96</time>
   <time name="diis">  181.21  181.21</time>
   <time name="orth">   13.76   13.76</time>
   <time name="total">  304.94  304.95</time>
   <energy>
    <i name="e_fr_energy">   -174.86581472 </i>
    <i name="e_wo_entrp">   -174.82714386 </i>
    <i name="e_0_energy">   -174.85614701 </i>
   </energy>
  </scstep>
  <scstep>
   <time name="diag">   68.56   68.57</time>
   <time name="diis">  165.87  165.87</time>
   <time name="orth">   13.54   13.54</time>
   <time name="total">  290.23  290.24</time>
   <energy>
    <i name="e_fr_energy">   -174.86708340 </i>
    <i name="e_wo_entrp">   -174.82868227 </i>
    <i name="e_0_energy">   -174.85748312 </i>
   </energy>
  </scstep>
  <scstep>
   <time name="diag">   68.92   68.92</time>
   <time name="diis">  168.86  168.87</time>
   <time name="orth">   13.67   13.67</time>
   <time name="total">  294.28  294.29</time>
   <energy>
    <i name="e_fr_energy">   -174.86972991 </i>
    <i name="e_wo_entrp">   -174.83257756 </i>
    <i name="e_0_energy">   -174.86044182 </i>
   </energy>
  </scstep>
  <scstep>
   <time name="diag">   69.03   69.04</time>
   <time name="diis">  152.25  152.26</time>
   <time name="orth">   13.92   13.92</time>
   <time name="total">  278.22  278.22</time>
   <energy>
    <i name="e_fr_energy">   -174.87233336 </i>
    <i name="e_wo_entrp">   -174.83533407 </i>
    <i name="e_0_energy">   -174.86308353 </i>
   </energy>
  </scstep>
  <scstep>
   <time name="diag">   68.83   68.83</time>
   <time name="diis">  149.81  149.81</time>
   <time name="orth">   13.61   13.61</time>
   <time name="total">  274.84  274.84</time>
   <energy>
    <i name="e_fr_energy">   -174.87512711 </i>
    <i name="e_wo_entrp">   -174.83695843 </i>
    <i name="e_0_energy">   -174.86558494 </i>
   </energy>
  </scstep>
  <scstep>
   <time name="diag">   68.69   68.69</time>
   <time name="diis">  121.16  121.16</time>
   <time name="orth">   13.89   13.89</time>
   <time name="total">  246.29  246.29</time>
   <energy>
    <i name="e_fr_energy">   -174.87655375 </i>
    <i name="e_wo_entrp">   -174.83835628 </i>
    <i name="e_0_energy">   -174.86700438 </i>
   </energy>
  </scstep>
  <scstep>
   <time name="diag">   68.73   68.73</time>
   <time name="diis">  143.21  143.21</time>
   <time name="orth">   13.59   13.59</time>
   <time name="total">  267.94  267.94</time>
   <energy>
    <i name="e_fr_energy">   -174.87994910 </i>
    <i name="e_wo_entrp">   -174.84097799 </i>
    <i name="e_0_energy">   -174.87020632 </i>
   </energy>
  </scstep>
  <scstep>
   <time name="diag">   68.84   68.84</time>
   <time name="diis">  122.25  122.25</time>
   <time name="orth">   13.54   13.54</time>
   <time name="total">  247.51  247.51</time>
   <energy>
    <i name="e_fr_energy">   -174.88142908 </i>
    <i name="e_wo_entrp">   -174.84306290 </i>
    <i name="e_0_energy">   -174.87183753 </i>
   </energy>
  </scstep>
  <scstep>
   <time name="diag">   69.32   69.33</time>
   <time name="diis">  118.81  118.81</time>
   <time name="orth">   13.99   13.99</time>
   <time name="total">  245.97  245.98</time>
   <energy>
    <i name="e_fr_energy">   -174.88265565 </i>
    <i name="e_wo_entrp">   -174.84510117 </i>
    <i name="e_0_energy">   -174.87326703 </i>
   </energy>
  </scstep>
  <scstep>
   <time name="diag">   69.04   69.04</time>
   <time name="diis">  118.92  118.92</time>
   <time name="orth">   13.54   13.54</time>
   <time name="total">  244.89  244.90</time>
   <energy>
    <i name="e_fr_energy">   -174.88406915 </i>
    <i name="e_wo_entrp">   -174.84636671 </i>
    <i name="e_0_energy">   -174.87464354 </i>
   </energy>
  </scstep>
  <scstep>
   <time name="diag">   68.68   68.68</time>
   <time name="diis">  116.33  116.33</time>
   <time name="orth">   13.11   13.11</time>
   <time name="total">  240.59  240.60</time>
   <energy>
    <i name="e_fr_energy">   -174.88465006 </i>
    <i name="e_wo_entrp">   -174.84725167 </i>
    <i name="e_0_energy">   -174.87530047 </i>
   </energy>
  </scstep>
  <scstep>
   <time name="diag">   66.35   66.36</time>
   <time name="diis">  112.83  112.84</time>
   <time name="orth">   13.50   13.50</time>
   <time name="total">  234.92  234.94</time>
   <energy>
    <i name="e_fr_energy">   -174.88564822 </i>
    <i name="e_wo_entrp">   -174.84803918 </i>
    <i name="e_0_energy">   -174.87624596 </i>
   </energy>
  </scstep>
  <scstep>
   <time name="diag">   66.57   66.58</time>
   <time name="diis">  108.46  108.46</time>
   <time name="orth">   13.38   13.38</time>
   <time name="total">  230.40  230.41</time>
   <energy>
    <i name="e_fr_energy">   -174.88603167 </i>
    <i name="e_wo_entrp">   -174.84837827 </i>
    <i name="e_0_energy">   -174.87661832 </i>
   </energy>
  </scstep>
  <scstep>
   <time name="diag">   67.07   67.07</time>
   <time name="diis">  108.88  108.88</time>
   <time name="orth">   13.27   13.27</time>
   <time name="total">  231.40  231.41</time>
   <energy>
    <i name="e_fr_energy">   -174.88699289 </i>
    <i name="e_wo_entrp">   -174.84931780 </i>
    <i name="e_0_energy">   -174.87757412 </i>
   </energy>
  </scstep>
  <scstep>
   <time name="diag">   66.80   66.80</time>
   <time name="diis">   96.83   96.84</time>
   <time name="orth">   13.35   13.35</time>
   <time name="total">  218.63  218.64</time>
   <energy>
    <i name="e_fr_energy">   -174.88728152 </i>
    <i name="e_wo_entrp">   -174.84959489 </i>
    <i name="e_0_energy">   -174.87785986 </i>
   </energy>
  </scstep>
  <scstep>
   <time name="diag">   66.55   66.55</time>
   <time name="diis">   97.36   97.37</time>
   <time name="orth">   13.67   13.67</time>
   <time name="total">  219.81  219.83</time>
   <energy>
    <i name="e_fr_energy">   -174.88775645 </i>
    <i name="e_wo_entrp">   -174.85021459 </i>
    <i name="e_0_energy">   -174.87837099 </i>
   </energy>
  </scstep>
  <scstep>
   <time name="diag">   66.49   66.49</time>
   <time name="diis">   92.11   92.11</time>
   <time name="orth">   13.40   13.40</time>
   <time name="total">  214.61  214.63</time>
   <energy>
    <i name="e_fr_energy">   -174.88819720 </i>
    <i name="e_wo_entrp">   -174.85054964 </i>
    <i name="e_0_energy">   -174.87878531 </i>
   </energy>
  </scstep>
  <scstep>
   <time name="diag">   67.43   67.43</time>
   <time name="diis">   81.69   81.69</time>
   <time name="orth">   12.98   12.98</time>
   <time name="total">  204.17  204.18</time>
   <energy>
    <i name="e_fr_energy">   -174.88841264 </i>
    <i name="e_wo_entrp">   -174.85074953 </i>
    <i name="e_0_energy">   -174.87899687 </i>
   </energy>
  </scstep>
  <scstep>
   <time name="diag">   67.33   67.33</time>
   <time name="diis">   91.52   91.53</time>
   <time name="orth">   13.18   13.18</time>
   <time name="total">  213.52  213.54</time>
   <energy>
    <i name="e_fr_energy">   -174.88879294 </i>
    <i name="e_wo_entrp">   -174.85112518 </i>
    <i name="e_0_energy">   -174.87937600 </i>
   </energy>
  </scstep>
  <scstep>
   <time name="diag">   65.83   65.83</time>
   <time name="diis">   81.35   81.36</time>
   <time name="orth">   13.59   13.59</time>
   <time name="total">  202.61  202.63</time>
   <energy>
    <i name="e_fr_energy">   -174.88894351 </i>
    <i name="e_wo_entrp">   -174.85128130 </i>
    <i name="e_0_energy">   -174.87952796 </i>
   </energy>
  </scstep>
  <scstep>
   <time name="diag">   66.10   66.11</time>
   <time name="diis">   83.28   83.29</time>
   <time name="orth">   13.46   13.46</time>
   <time name="total">  205.39  205.41</time>
   <energy>
    <i name="e_fr_energy">   -174.88912619 </i>
    <i name="e_wo_entrp">   -174.85146528 </i>
    <i name="e_0_energy">   -174.87971096 </i>
   </energy>
  </scstep>
  <scstep>
   <time name="diag">   66.98   66.98</time>
   <time name="diis">   79.48   79.48</time>
   <time name="orth">   13.19   13.19</time>
   <time name="total">  201.69  201.69</time>
   <energy>
    <i name="e_fr_energy">   -174.88924145 </i>
    <i name="e_wo_entrp">   -174.85154791 </i>
    <i name="e_0_energy">   -174.87981806 </i>
   </energy>
  </scstep>
  <scstep>
   <time name="diag">   66.42   66.42</time>
   <time name="diis">   76.53   76.53</time>
   <time name="orth">   13.19   13.19</time>
   <time name="total">  169.72  169.72</time>
   <energy>
    <i name="alphaZ">     75.25431677 </i>
    <i name="ewald"> 139081.97786224 </i>
    <i name="hartreedc">-183432.28330336 </i>
    <i name="XCdc">  -1691.66646268 </i>
    <i name="pawpsdc">  46339.32732302 </i>
    <i name="pawaedc"> -42811.24755803 </i>
    <i name="eentropy">     -0.03770488 </i>
    <i name="bandstr">  -2822.71928196 </i>
    <i name="atom">  45086.50549395 </i>
    <i name="e_fr_energy">   -174.88931492 </i>
    <i name="e_wo_entrp">   -174.85161004 </i>
    <i name="e_0_energy">   -174.87988870 </i>
   </energy>
  </scstep>
  <structure>
   <crystal>
    <varray name="basis" >
     <v>      30.00000000       0.00000000       0.00000000 </v>
     <v>       0.00000000      30.00000000       0.00000000 </v>
     <v>       0.00000000       0.00000000      30.00000000 </v>
    </varray>
    <i name="volume">  27000.00000000 </i>
    <varray name="rec_basis" >
     <v>       0.03333333       0.00000000       0.00000000 </v>
     <v>       0.00000000       0.03333333       0.00000000 </v>
     <v>       0.00000000       0.00000000       0.03333333 </v>
    </varray>
   </crystal>
   <varray name="positions" >
    <v>       0.44576020       0.32826710       0.41691983 </v>
    <v>       0.67173288       0.55423978       0.41691983 </v>
    <v>       0.55423980       0.32826710       0.41691983 </v>
    <v>       0.32826712       0.55423978       0.41691983 </v>
    <v>       0.50000000       0.38250690       0.34021317 </v>
    <v>       0.50000000       0.38250690       0.65978680 </v>
    <v>       0.50000000       0.27609440       0.50000000 </v>
    <v>       0.27609443       0.49999998       0.50000000 </v>
    <v>       0.72390557       0.49999998       0.50000000 </v>
    <v>       0.50000000       0.72390555       0.50000000 </v>
    <v>       0.61195280       0.38804720       0.34167483 </v>
    <v>       0.61195280       0.38804720       0.65832513 </v>
    <v>       0.38804722       0.61195278       0.34167483 </v>
    <v>       0.38804722       0.61195278       0.65832513 </v>
    <v>       0.38804720       0.38804720       0.34167483 </v>
    <v>       0.38804720       0.38804720       0.65832513 </v>
    <v>       0.61195278       0.61195278       0.34167483 </v>
    <v>       0.61195278       0.61195278       0.65832513 </v>
    <v>       0.44576020       0.32826710       0.58308023 </v>
    <v>       0.67173288       0.55423978       0.58308023 </v>
    <v>       0.55791699       0.44208301       0.41809300 </v>
    <v>       0.32826705       0.44576024       0.41691983 </v>
    <v>       0.55423973       0.67173293       0.41691983 </v>
    <v>       0.55423980       0.32826710       0.58308023 </v>
    <v>       0.32826712       0.55423978       0.58308023 </v>
    <v>       0.67173295       0.44576024       0.41691983 </v>
    <v>       0.44576027       0.67173293       0.41691983 </v>
    <v>       0.44208301       0.44208301       0.41809300 </v>
    <v>       0.50000000       0.38416601       0.50000000 </v>
    <v>       0.61749315       0.50000005       0.34021317 </v>
    <v>       0.61749315       0.50000005       0.65978680 </v>
    <v>       0.38250685       0.50000005       0.34021317 </v>
    <v>       0.38250685       0.50000005       0.65978680 </v>
    <v>       0.38317830       0.38317830       0.50000000 </v>
    <v>       0.61682172       0.61682172       0.50000000 </v>
    <v>       0.61682170       0.38317830       0.50000000 </v>
    <v>       0.38317828       0.61682172       0.50000000 </v>
    <v>       0.50000000       0.50000000       0.33478917 </v>
    <v>       0.50000000       0.50000000       0.66521087 </v>
    <v>       0.32826705       0.44576024       0.58308023 </v>
    <v>       0.55423973       0.67173293       0.58308023 </v>
    <v>       0.55791699       0.44208301       0.58190703 </v>
    <v>       0.44208298       0.55791702       0.41809300 </v>
    <v>       0.44208301       0.44208301       0.58190703 </v>
    <v>       0.67173295       0.44576024       0.58308023 </v>
    <v>       0.44576027       0.67173293       0.58308023 </v>
    <v>       0.55791702       0.55791702       0.41809300 </v>
    <v>       0.38416599       0.50000002       0.50000000 </v>
    <v>       0.61583401       0.50000002       0.50000000 </v>
    <v>       0.50000000       0.61749319       0.34021317 </v>
    <v>       0.50000000       0.61749319       0.65978680 </v>
    <v>       0.50000000       0.50000000       0.50000000 </v>
    <v>       0.44208298       0.55791702       0.58190703 </v>
    <v>       0.55791702       0.55791702       0.58190703 </v>
    <v>       0.50000000       0.61583404       0.50000000 </v>
    <v>       0.52918110       0.49266617       0.71347487 </v>
    <v>       0.53427057       0.49138707       0.75070687 </v>
   </varray>
  </structure>
  <varray name="forces" >
   <v>       0.69421978       1.11214670       0.28435136 </v>
   <v>      -1.11381057      -0.69630512       0.28352208 </v>
   <v>      -0.69781625       1.11094537       0.28717651 </v>
   <v>       1.10857780      -0.69569673       0.28773212 </v>
   <v>       0.00233907       0.40648223       1.27977650 </v>
   <v>      -0.02513646       0.39138381      -1.32338085 </v>
   <v>       0.00630424       1.50516968       0.01651206 </v>
   <v>       1.50958065      -0.00167811       0.00737032 </v>
   <v>      -1.50356820      -0.00241276       0.02421319 </v>
   <v>       0.00644569      -1.50691629       0.01307374 </v>
   <v>      -0.75191531       0.75424886       1.07310570 </v>
   <v>      -0.71767074       0.71521018      -1.06977086 </v>
   <v>       0.75240413      -0.74939467       1.07567173 </v>
   <v>       0.74928118      -0.74887634      -1.06869096 </v>
   <v>       0.75348444       0.74913599       1.07539116 </v>
   <v>       0.74412650       0.74460516      -1.07027612 </v>
   <v>      -0.75069717      -0.75451164       1.07383448 </v>
   <v>      -0.72542107      -0.72343486      -1.06975096 </v>
   <v>       0.70647574       1.10404340      -0.28840134 </v>
   <v>      -1.08865647      -0.70219138      -0.30685345 </v>
   <v>       0.11236808      -0.11451179      -0.15283315 </v>
   <v>       1.10848591       0.69644941       0.28729482 </v>
   <v>      -0.69748835      -1.10958996       0.28725308 </v>
   <v>      -0.70256771       1.09572826      -0.30666248 </v>
   <v>       1.10844111      -0.69866798      -0.28881822 </v>
   <v>      -1.11343235       0.69733626       0.28476030 </v>
   <v>       0.69424147      -1.11097813       0.28595105 </v>
   <v>      -0.11448042      -0.11460445      -0.14866376 </v>
   <v>       0.00108865      -0.21625802       0.00036819 </v>
   <v>      -0.40906555      -0.00055797       1.27906010 </v>
   <v>      -0.56739080      -0.00920227      -1.22967793 </v>
   <v>       0.39927441      -0.00105108       1.28141674 </v>
   <v>       0.39306589       0.00531326      -1.32550187 </v>
   <v>       0.81445747       0.81919111      -0.02037803 </v>
   <v>      -0.83101080      -0.82634769       0.00218908 </v>
   <v>      -0.83375603       0.83092576       0.00862092 </v>
   <v>       0.81129817      -0.81462220      -0.02741611 </v>
   <v>       0.01203848      -0.00288849       1.18543187 </v>
   <v>      -1.90192237       0.45931386      -4.61815604 </v>
   <v>       1.10732139       0.69744683      -0.29160627 </v>
   <v>      -0.70112053      -1.09970395      -0.30230236 </v>
   <v>       0.15724050      -0.17755315       0.08293712 </v>
   <v>      -0.11446943       0.11504811      -0.14714760 </v>
   <v>      -0.14720996      -0.10397482       0.13556058 </v>
   <v>      -1.08636598       0.70207032      -0.31209118 </v>
   <v>       0.70519296      -1.10642380      -0.28604969 </v>
   <v>       0.11217786       0.11487971      -0.15256872 </v>
   <v>      -0.20951984       0.00037502       0.00078575 </v>
   <v>       0.21920247      -0.00085196       0.00077494 </v>
   <v>       0.00276786      -0.40422309       1.28033428 </v>
   <v>      -0.02377688      -0.38025081      -1.32600843 </v>
   <v>      -0.00115112      -0.00001595       0.00828177 </v>
   <v>      -0.10912142       0.07810847       0.17357906 </v>
   <v>       0.14845255       0.18117435       0.09345266 </v>
   <v>      -0.00031603       0.21420382       0.00001623 </v>
   <v>       0.80337690      -0.09079668      -1.69772897 </v>
   <v>       1.19512646      -0.33644377       5.37093586 </v>
  </varray>
  <varray name="stress" >
   <v>      -6.61847397      -0.02617192       0.24690316 </v>
   <v>      -0.02617194      -6.69127081      -0.05610404 </v>
   <v>       0.24690314      -0.05610400      -6.06531898 </v>
  </varray>
  <energy>
   <i name="e_fr_energy">   -174.88931492 </i>
   <i name="e_wo_entrp">   -174.87988870 </i>
   <i name="e_0_energy">     -0.03770488 </i>
  </energy>
  <time name="totalsc">18136.7918137.42</time>
  <eigenvalues>
   <array>
    <dimension dim="1">band</dimension>
    <dimension dim="2">kpoint</dimension>
    <dimension dim="3">spin</dimension>
    <field>eigene</field>
    <field>occ</field>
    <set>
     <set comment="spin 1">
      <set comment="kpoint 1">
       <r>  -28.1703    1.0000 </r>
       <r>  -13.5918    1.0000 </r>
       <r>  -11.3171    1.0000 </r>
       <r>  -10.8560    1.0000 </r>
       <r>  -10.7710    1.0000 </r>
       <r>   -6.8791    1.0000 </r>
       <r>   -6.8465    1.0000 </r>
       <r>   -6.6712    1.0000 </r>
       <r>   -6.2068    1.0000 </r>
       <r>   -6.1392    1.0000 </r>
       <r>   -6.1330    1.0000 </r>
       <r>   -5.9519    1.0000 </r>
       <r>   -5.9050    1.0000 </r>
       <r>   -5.8488    1.0000 </r>
       <r>   -5.8120    1.0000 </r>
       <r>   -5.7991    1.0000 </r>
       <r>   -5.7661    1.0000 </r>
       <r>   -5.7232    1.0000 </r>
       <r>   -5.6932    1.0000 </r>
       <r>   -5.6865    1.0000 </r>
       <r>   -5.6861    1.0000 </r>
       <r>   -5.6848    1.0000 </r>
       <r>   -5.6170    1.0000 </r>
       <r>   -5.6019    1.0000 </r>
       <r>   -5.5984    1.0000 </r>
       <r>   -5.5971    1.0000 </r>
       <r>   -5.5961    1.0000 </r>
       <r>   -5.5924    1.0000 </r>
       <r>   -5.5489    1.0000 </r>
       <r>   -5.5375    1.0000 </r>
       <r>   -5.5357    1.0000 </r>
       <r>   -5.5316    1.0000 </r>
       <r>   -5.5223    1.0000 </r>
       <r>   -5.5202    1.0000 </r>
       <r>   -5.5193    1.0000 </r>
       <r>   -5.5137    1.0000 </r>
       <r>   -5.5098    1.0000 </r>
       <r>   -5.5074    1.0000 </r>
       <r>   -5.5041    1.0000 </r>
       <r>   -5.4867    1.0000 </r>
       <r>   -5.4797    1.0000 </r>
       <r>   -5.4764    1.0000 </r>
       <r>   -5.4719    1.0000 </r>
       <r>   -5.4697    1.0000 </r>
       <r>   -5.4686    1.0000 </r>
       <r>   -5.4671    1.0000 </r>
       <r>   -5.4602    1.0000 </r>
       <r>   -5.4476    1.0000 </r>
       <r>   -5.4309    1.0000 </r>
       <r>   -5.4302    1.0000 </r>
       <r>   -5.4277    1.0000 </r>
       <r>   -5.4193    1.0000 </r>
       <r>   -5.4103    1.0000 </r>
       <r>   -5.4099    1.0000 </r>
       <r>   -5.3986    1.0000 </r>
       <r>   -5.3978    1.0000 </r>
       <r>   -5.3941    1.0000 </r>
       <r>   -5.3864    1.0000 </r>
       <r>   -5.3567    1.0000 </r>
       <r>   -5.3323    1.0000 </r>
       <r>   -5.3240    1.0000 </r>
       <r>   -5.3190    1.0000 </r>
       <r>   -5.3174    1.0000 </r>
       <r>   -5.3164    1.0000 </r>
       <r>   -5.3151    1.0000 </r>
       <r>   -5.3115    1.0000 </r>
       <r>   -5.3111    1.0000 </r>
       <r>   -5.3024    1.0000 </r>
       <r>   -5.2928    1.0000 </r>
       <r>   -5.2884    1.0000 </r>
       <r>   -5.2587    1.0000 </r>
       <r>   -5.2056    1.0000 </r>
       <r>   -5.1903    1.0000 </r>
       <r>   -5.1875    1.0000 </r>
       <r>   -5.1841    1.0000 </r>
       <r>   -5.1820    1.0000 </r>
       <r>   -5.1818    1.0000 </r>
       <r>   -5.1791    1.0000 </r>
       <r>   -5.1786    1.0000 </r>
       <r>   -5.1599    1.0000 </r>
       <r>   -5.1545    1.0000 </r>
       <r>   -5.1494    1.0000 </r>
       <r>   -5.1486    1.0000 </r>
       <r>   -5.1433    1.0000 </r>
       <r>   -5.1244    1.0000 </r>
       <r>   -5.1242    1.0000 </r>
       <r>   -5.1129    1.0000 </r>
       <r>   -5.1048    1.0000 </r>
       <r>   -5.1022    1.0000 </r>
       <r>   -5.1011    1.0000 </r>
       <r>   -5.0823    1.0000 </r>
       <r>   -5.0600    1.0000 </r>
       <r>   -5.0585    1.0000 </r>
       <r>   -5.0541    1.0000 </r>
       <r>   -5.0531    1.0000 </r>
       <r>   -5.0499    1.0000 </r>
       <r>   -5.0484    1.0000 </r>
       <r>   -5.0410    1.0000 </r>
       <r>   -5.0298    1.0000 </r>
       <r>   -5.0240    1.0000 </r>
       <r>   -5.0227    1.0000 </r>
       <r>   -5.0179    1.0000 </r>
       <r>   -5.0141    1.0000 </r>
       <r>   -5.0106    1.0000 </r>
       <r>   -5.0068    1.0000 </r>
       <r>   -5.0065    1.0000 </r>
       <r>   -5.0056    1.0000 </r>
       <r>   -4.9914    1.0000 </r>
       <r>   -4.9876    1.0000 </r>
       <r>   -4.9827    1.0000 </r>
       <r>   -4.9809    1.0000 </r>
       <r>   -4.9790    1.0000 </r>
       <r>   -4.9739    1.0000 </r>
       <r>   -4.9681    1.0000 </r>
       <r>   -4.9649    1.0000 </r>
       <r>   -4.9602    1.0000 </r>
       <r>   -4.9507    1.0000 </r>
       <r>   -4.9505    1.0000 </r>
       <r>   -4.9323    1.0000 </r>
       <r>   -4.9268    1.0000 </r>
       <r>   -4.9190    1.0000 </r>
       <r>   -4.9181    1.0000 </r>
       <r>   -4.9150    1.0000 </r>
       <r>   -4.9118    1.0000 </r>
       <r>   -4.9093    1.0000 </r>
       <r>   -4.9023    1.0000 </r>
       <r>   -4.9010    1.0000 </r>
       <r>   -4.8817    1.0000 </r>
       <r>   -4.8796    1.0000 </r>
       <r>   -4.8713    1.0000 </r>
       <r>   -4.8445    1.0000 </r>
       <r>   -4.8388    1.0000 </r>
       <r>   -4.8383    1.0000 </r>
       <r>   -4.8336    1.0000 </r>
       <r>   -4.8317    1.0000 </r>
       <r>   -4.8312    1.0000 </r>
       <r>   -4.8224    1.0000 </r>
       <r>   -4.8032    0.9999 </r>
       <r>   -4.8013    0.9999 </r>
       <r>   -4.7929    0.9999 </r>
       <r>   -4.7889    0.9999 </r>
       <r>   -4.7768    0.9999 </r>
       <r>   -4.7653    0.9998 </r>
       <r>   -4.7569    0.9998 </r>
       <r>   -4.7391    0.9996 </r>
       <r>   -4.7382    0.9996 </r>
       <r>   -4.7356    0.9996 </r>
       <r>   -4.7349    0.9996 </r>
       <r>   -4.7195    0.9994 </r>
       <r>   -4.7104    0.9993 </r>
       <r>   -4.7069    0.9993 </r>
       <r>   -4.7046    0.9992 </r>
       <r>   -4.6839    0.9989 </r>
       <r>   -4.6834    0.9989 </r>
       <r>   -4.6798    0.9988 </r>
       <r>   -4.6782    0.9988 </r>
       <r>   -4.6738    0.9987 </r>
       <r>   -4.6730    0.9986 </r>
       <r>   -4.6679    0.9985 </r>
       <r>   -4.6622    0.9984 </r>
       <r>   -4.6592    0.9983 </r>
       <r>   -4.6545    0.9981 </r>
       <r>   -4.6527    0.9981 </r>
       <r>   -4.6515    0.9981 </r>
       <r>   -4.6494    0.9980 </r>
       <r>   -4.6451    0.9979 </r>
       <r>   -4.6442    0.9978 </r>
       <r>   -4.6356    0.9975 </r>
       <r>   -4.6345    0.9975 </r>
       <r>   -4.6312    0.9974 </r>
       <r>   -4.6299    0.9973 </r>
       <r>   -4.6243    0.9971 </r>
       <r>   -4.6194    0.9969 </r>
       <r>   -4.5974    0.9961 </r>
       <r>   -4.5965    0.9961 </r>
       <r>   -4.5921    0.9959 </r>
       <r>   -4.5919    0.9959 </r>
       <r>   -4.5878    0.9958 </r>
       <r>   -4.5870    0.9958 </r>
       <r>   -4.5807    0.9956 </r>
       <r>   -4.5750    0.9954 </r>
       <r>   -4.5679    0.9952 </r>
       <r>   -4.5550    0.9951 </r>
       <r>   -4.5542    0.9951 </r>
       <r>   -4.5519    0.9951 </r>
       <r>   -4.5517    0.9951 </r>
       <r>   -4.5514    0.9951 </r>
       <r>   -4.5499    0.9951 </r>
       <r>   -4.5479    0.9951 </r>
       <r>   -4.5458    0.9951 </r>
       <r>   -4.5163    0.9963 </r>
       <r>   -4.5148    0.9964 </r>
       <r>   -4.5104    0.9968 </r>
       <r>   -4.5075    0.9971 </r>
       <r>   -4.5027    0.9977 </r>
       <r>   -4.4905    0.9995 </r>
       <r>   -4.4828    1.0009 </r>
       <r>   -4.4815    1.0012 </r>
       <r>   -4.4767    1.0023 </r>
       <r>   -4.4736    1.0030 </r>
       <r>   -4.4674    1.0046 </r>
       <r>   -4.4660    1.0050 </r>
       <r>   -4.4658    1.0050 </r>
       <r>   -4.4609    1.0065 </r>
       <r>   -4.4593    1.0070 </r>
       <r>   -4.4582    1.0073 </r>
       <r>   -4.4516    1.0095 </r>
       <r>   -4.4457    1.0116 </r>
       <r>   -4.4444    1.0121 </r>
       <r>   -4.4393    1.0140 </r>
       <r>   -4.4307    1.0176 </r>
       <r>   -4.4211    1.0218 </r>
       <r>   -4.4113    1.0264 </r>
       <r>   -4.4083    1.0278 </r>
       <r>   -4.4060    1.0290 </r>
       <r>   -4.4043    1.0298 </r>
       <r>   -4.4027    1.0305 </r>
       <r>   -4.3999    1.0319 </r>
       <r>   -4.3979    1.0329 </r>
       <r>   -4.3970    1.0333 </r>
       <r>   -4.3929    1.0352 </r>
       <r>   -4.3913    1.0360 </r>
       <r>   -4.3640    1.0472 </r>
       <r>   -4.3543    1.0499 </r>
       <r>   -4.3515    1.0504 </r>
       <r>   -4.3421    1.0516 </r>
       <r>   -4.3374    1.0516 </r>
       <r>   -4.3368    1.0516 </r>
       <r>   -4.3353    1.0515 </r>
       <r>   -4.3336    1.0513 </r>
       <r>   -4.3288    1.0506 </r>
       <r>   -4.3288    1.0506 </r>
       <r>   -4.3261    1.0500 </r>
       <r>   -4.3250    1.0497 </r>
       <r>   -4.3241    1.0495 </r>
       <r>   -4.3205    1.0483 </r>
       <r>   -4.3198    1.0480 </r>
       <r>   -4.3148    1.0457 </r>
       <r>   -4.3139    1.0453 </r>
       <r>   -4.3094    1.0425 </r>
       <r>   -4.3083    1.0418 </r>
       <r>   -4.3005    1.0355 </r>
       <r>   -4.2989    1.0341 </r>
       <r>   -4.2978    1.0329 </r>
       <r>   -4.2921    1.0268 </r>
       <r>   -4.2884    1.0222 </r>
       <r>   -4.2832    1.0150 </r>
       <r>   -4.2830    1.0146 </r>
       <r>   -4.2816    1.0125 </r>
       <r>   -4.2812    1.0120 </r>
       <r>   -4.2679    0.9883 </r>
       <r>   -4.2591    0.9689 </r>
       <r>   -4.2585    0.9673 </r>
       <r>   -4.2548    0.9583 </r>
       <r>   -4.2504    0.9468 </r>
       <r>   -4.2498    0.9452 </r>
       <r>   -4.2491    0.9433 </r>
       <r>   -4.2486    0.9420 </r>
       <r>   -4.2427    0.9247 </r>
       <r>   -4.2422    0.9234 </r>
       <r>   -4.2370    0.9071 </r>
       <r>   -4.2367    0.9062 </r>
       <r>   -4.2347    0.8995 </r>
       <r>   -4.2342    0.8979 </r>
       <r>   -4.2321    0.8910 </r>
       <r>   -4.2199    0.8467 </r>
       <r>   -4.2196    0.8454 </r>
       <r>   -4.2168    0.8346 </r>
       <r>   -4.2165    0.8335 </r>
       <r>   -4.2140    0.8232 </r>
       <r>   -4.2135    0.8211 </r>
       <r>   -4.1989    0.7585 </r>
       <r>   -4.1947    0.7392 </r>
       <r>   -4.1943    0.7374 </r>
       <r>   -4.1871    0.7032 </r>
       <r>   -4.1827    0.6818 </r>
       <r>   -4.1795    0.6659 </r>
       <r>   -4.1782    0.6595 </r>
       <r>   -4.1680    0.6077 </r>
       <r>   -4.1675    0.6053 </r>
       <r>   -4.1670    0.6026 </r>
       <r>   -4.1536    0.5322 </r>
       <r>   -4.1495    0.5108 </r>
       <r>   -4.1308    0.4125 </r>
       <r>   -4.1303    0.4097 </r>
       <r>   -4.1247    0.3807 </r>
       <r>   -4.1187    0.3503 </r>
       <r>   -4.1086    0.3003 </r>
       <r>   -4.0137   -0.0120 </r>
       <r>   -3.9616   -0.0513 </r>
       <r>   -3.9058   -0.0370 </r>
       <r>   -3.8269   -0.0044 </r>
       <r>   -3.8207   -0.0028 </r>
       <r>   -3.8054    0.0003 </r>
       <r>   -3.4987    0.0001 </r>
       <r>   -3.4931    0.0001 </r>
       <r>   -3.3472    0.0000 </r>
       <r>   -3.0661    0.0000 </r>
       <r>   -3.0643    0.0000 </r>
       <r>   -3.0291    0.0000 </r>
       <r>   -3.0236    0.0000 </r>
       <r>   -3.0134    0.0000 </r>
       <r>   -3.0123    0.0000 </r>
       <r>   -2.9333    0.0000 </r>
       <r>   -2.7980    0.0000 </r>
       <r>   -2.5602    0.0000 </r>
       <r>   -2.5446    0.0000 </r>
       <r>   -2.5190    0.0000 </r>
       <r>   -2.2132    0.0000 </r>
       <r>   -2.1471    0.0000 </r>
       <r>   -2.1179    0.0000 </r>
       <r>   -2.1176    0.0000 </r>
       <r>   -1.9549    0.0000 </r>
       <r>   -1.9497    0.0000 </r>
       <r>   -1.8840    0.0000 </r>
       <r>   -1.8485    0.0000 </r>
       <r>   -1.8458    0.0000 </r>
       <r>   -1.7424    0.0000 </r>
       <r>   -1.7033    0.0000 </r>
       <r>   -1.6618    0.0000 </r>
       <r>   -1.6387    0.0000 </r>
       <r>   -1.5534    0.0000 </r>
       <r>   -1.4999    0.0000 </r>
       <r>   -1.3560    0.0000 </r>
       <r>   -1.2940    0.0000 </r>
       <r>   -1.0403    0.0000 </r>
       <r>   -1.0229    0.0000 </r>
       <r>   -1.0175    0.0000 </r>
       <r>   -0.9578    0.0000 </r>
       <r>   -0.9449    0.0000 </r>
       <r>   -0.9396    0.0000 </r>
       <r>   -0.9343    0.0000 </r>
       <r>   -0.9135    0.0000 </r>
       <r>   -0.8576    0.0000 </r>
       <r>   -0.8263    0.0000 </r>
       <r>   -0.7045    0.0000 </r>
      </set>
     </set>
    </set>
   </array>
  </eigenvalues>
  <separator name="orbital magnetization" >
   <v name="MAGDIPOLOUT">      0.00000000      0.00000000      0.00000000</v>
  </separator>
  <dos>
   <i name="efermi">     -4.14747843 </i>
   <total>
    <array>
     <dimension dim="1">gridpoints</dimension>
     <dimension dim="2">spin</dimension>
     <field>energy</field>
     <field>total</field>
     <field>integrated</field>
     <set>
      <set comment="spin 1">
       <r>   -30.1703     0.0000     0.0000 </r>
       <r>   -30.0654     0.0000     0.0000 </r>
       <r>   -29.9605     0.0000     0.0000 </r>
       <r>   -29.8556     0.0000     0.0000 </r>
       <r>   -29.7508     0.0000     0.0000 </r>
       <r>   -29.6459     0.0000     0.0000 </r>
       <r>   -29.5410     0.0000     0.0000 </r>
       <r>   -29.4361     0.0000     0.0000 </r>
       <r>   -29.3312     0.0000     0.0000 </r>
       <r>   -29.2263     0.0000     0.0000 </r>
       <r>   -29.1214     0.0000     0.0000 </r>
       <r>   -29.0166     0.0000     0.0000 </r>
       <r>   -28.9117     0.0001     0.0000 </r>
       <r>   -28.8068     0.0022     0.0002 </r>
       <r>   -28.7019     0.0211     0.0025 </r>
       <r>   -28.5970     0.0646     0.0092 </r>
       <r>   -28.4921    -0.1659    -0.0082 </r>
       <r>   -28.3872    -0.8200    -0.0942 </r>
       <r>   -28.2824     1.4725     0.0603 </r>
       <r>   -28.1775     8.2374     0.9243 </r>
       <r>   -28.0726     8.9640     1.8645 </r>
       <r>   -27.9677     2.2587     2.1014 </r>
       <r>   -27.8628    -0.8076     2.0167 </r>
       <r>   -27.7579    -0.2521     1.9902 </r>
       <r>   -27.6530     0.0631     1.9968 </r>
       <r>   -27.5482     0.0267     1.9996 </r>
       <r>   -27.4433     0.0032     2.0000 </r>
       <r>   -27.3384     0.0002     2.0000 </r>
       <r>   -27.2335     0.0000     2.0000 </r>
       <r>   -27.1286     0.0000     2.0000 </r>
       <r>   -27.0237     0.0000     2.0000 </r>
       <r>   -26.9188     0.0000     2.0000 </r>
       <r>   -26.8139     0.0000     2.0000 </r>
       <r>   -26.7091     0.0000     2.0000 </r>
       <r>   -26.6042     0.0000     2.0000 </r>
       <r>   -26.4993     0.0000     2.0000 </r>
       <r>   -26.3944     0.0000     2.0000 </r>
       <r>   -26.2895     0.0000     2.0000 </r>
       <r>   -26.1846     0.0000     2.0000 </r>
       <r>   -26.0797     0.0000     2.0000 </r>
       <r>   -25.9749     0.0000     2.0000 </r>
       <r>   -25.8700     0.0000     2.0000 </r>
       <r>   -25.7651     0.0000     2.0000 </r>
       <r>   -25.6602     0.0000     2.0000 </r>
       <r>   -25.5553     0.0000     2.0000 </r>
       <r>   -25.4504     0.0000     2.0000 </r>
       <r>   -25.3455     0.0000     2.0000 </r>
       <r>   -25.2407     0.0000     2.0000 </r>
       <r>   -25.1358     0.0000     2.0000 </r>
       <r>   -25.0309     0.0000     2.0000 </r>
       <r>   -24.9260     0.0000     2.0000 </r>
       <r>   -24.8211     0.0000     2.0000 </r>
       <r>   -24.7162     0.0000     2.0000 </r>
       <r>   -24.6113     0.0000     2.0000 </r>
       <r>   -24.5065     0.0000     2.0000 </r>
       <r>   -24.4016     0.0000     2.0000 </r>
       <r>   -24.2967     0.0000     2.0000 </r>
       <r>   -24.1918     0.0000     2.0000 </r>
       <r>   -24.0869     0.0000     2.0000 </r>
       <r>   -23.9820     0.0000     2.0000 </r>
       <r>   -23.8771     0.0000     2.0000 </r>
       <r>   -23.7723     0.0000     2.0000 </r>
       <r>   -23.6674     0.0000     2.0000 </r>
       <r>   -23.5625     0.0000     2.0000 </r>
       <r>   -23.4576     0.0000     2.0000 </r>
       <r>   -23.3527     0.0000     2.0000 </r>
       <r>   -23.2478     0.0000     2.0000 </r>
       <r>   -23.1429     0.0000     2.0000 </r>
       <r>   -23.0381     0.0000     2.0000 </r>
       <r>   -22.9332     0.0000     2.0000 </r>
       <r>   -22.8283     0.0000     2.0000 </r>
       <r>   -22.7234     0.0000     2.0000 </r>
       <r>   -22.6185     0.0000     2.0000 </r>
       <r>   -22.5136     0.0000     2.0000 </r>
       <r>   -22.4087     0.0000     2.0000 </r>
       <r>   -22.3039     0.0000     2.0000 </r>
       <r>   -22.1990     0.0000     2.0000 </r>
       <r>   -22.0941     0.0000     2.0000 </r>
       <r>   -21.9892     0.0000     2.0000 </r>
       <r>   -21.8843     0.0000     2.0000 </r>
       <r>   -21.7794     0.0000     2.0000 </r>
       <r>   -21.6745     0.0000     2.0000 </r>
       <r>   -21.5697     0.0000     2.0000 </r>
       <r>   -21.4648     0.0000     2.0000 </r>
       <r>   -21.3599     0.0000     2.0000 </r>
       <r>   -21.2550     0.0000     2.0000 </r>
       <r>   -21.1501     0.0000     2.0000 </r>
       <r>   -21.0452     0.0000     2.0000 </r>
       <r>   -20.9403     0.0000     2.0000 </r>
       <r>   -20.8354     0.0000     2.0000 </r>
       <r>   -20.7306     0.0000     2.0000 </r>
       <r>   -20.6257     0.0000     2.0000 </r>
       <r>   -20.5208     0.0000     2.0000 </r>
       <r>   -20.4159     0.0000     2.0000 </r>
       <r>   -20.3110     0.0000     2.0000 </r>
       <r>   -20.2061     0.0000     2.0000 </r>
       <r>   -20.1012     0.0000     2.0000 </r>
       <r>   -19.9964     0.0000     2.0000 </r>
       <r>   -19.8915     0.0000     2.0000 </r>
       <r>   -19.7866     0.0000     2.0000 </r>
       <r>   -19.6817     0.0000     2.0000 </r>
       <r>   -19.5768     0.0000     2.0000 </r>
       <r>   -19.4719     0.0000     2.0000 </r>
       <r>   -19.3670     0.0000     2.0000 </r>
       <r>   -19.2622     0.0000     2.0000 </r>
       <r>   -19.1573     0.0000     2.0000 </r>
       <r>   -19.0524     0.0000     2.0000 </r>
       <r>   -18.9475     0.0000     2.0000 </r>
       <r>   -18.8426     0.0000     2.0000 </r>
       <r>   -18.7377     0.0000     2.0000 </r>
       <r>   -18.6328     0.0000     2.0000 </r>
       <r>   -18.5280     0.0000     2.0000 </r>
       <r>   -18.4231     0.0000     2.0000 </r>
       <r>   -18.3182     0.0000     2.0000 </r>
       <r>   -18.2133     0.0000     2.0000 </r>
       <r>   -18.1084     0.0000     2.0000 </r>
       <r>   -18.0035     0.0000     2.0000 </r>
       <r>   -17.8986     0.0000     2.0000 </r>
       <r>   -17.7938     0.0000     2.0000 </r>
       <r>   -17.6889     0.0000     2.0000 </r>
       <r>   -17.5840     0.0000     2.0000 </r>
       <r>   -17.4791     0.0000     2.0000 </r>
       <r>   -17.3742     0.0000     2.0000 </r>
       <r>   -17.2693     0.0000     2.0000 </r>
       <r>   -17.1644     0.0000     2.0000 </r>
       <r>   -17.0596     0.0000     2.0000 </r>
       <r>   -16.9547     0.0000     2.0000 </r>
       <r>   -16.8498     0.0000     2.0000 </r>
       <r>   -16.7449     0.0000     2.0000 </r>
       <r>   -16.6400     0.0000     2.0000 </r>
       <r>   -16.5351     0.0000     2.0000 </r>
       <r>   -16.4302     0.0000     2.0000 </r>
       <r>   -16.3254     0.0000     2.0000 </r>
       <r>   -16.2205     0.0000     2.0000 </r>
       <r>   -16.1156     0.0000     2.0000 </r>
       <r>   -16.0107     0.0000     2.0000 </r>
       <r>   -15.9058     0.0000     2.0000 </r>
       <r>   -15.8009     0.0000     2.0000 </r>
       <r>   -15.6960     0.0000     2.0000 </r>
       <r>   -15.5912     0.0000     2.0000 </r>
       <r>   -15.4863     0.0000     2.0000 </r>
       <r>   -15.3814     0.0000     2.0000 </r>
       <r>   -15.2765     0.0000     2.0000 </r>
       <r>   -15.1716     0.0000     2.0000 </r>
       <r>   -15.0667     0.0000     2.0000 </r>
       <r>   -14.9618     0.0000     2.0000 </r>
       <r>   -14.8569     0.0000     2.0000 </r>
       <r>   -14.7521     0.0000     2.0000 </r>
       <r>   -14.6472     0.0000     2.0000 </r>
       <r>   -14.5423     0.0000     2.0000 </r>
       <r>   -14.4374     0.0000     2.0000 </r>
       <r>   -14.3325     0.0001     2.0000 </r>
       <r>   -14.2276     0.0023     2.0002 </r>
       <r>   -14.1227     0.0213     2.0025 </r>
       <r>   -14.0179     0.0646     2.0093 </r>
       <r>   -13.9130    -0.1695     1.9915 </r>
       <r>   -13.8081    -0.8207     1.9054 </r>
       <r>   -13.7032     1.5065     2.0634 </r>
       <r>   -13.5983     8.2743     2.9313 </r>
       <r>   -13.4934     8.9339     3.8683 </r>
       <r>   -13.3885     2.2200     4.1011 </r>
       <r>   -13.2837    -0.8095     4.0162 </r>
       <r>   -13.1788    -0.2478     3.9902 </r>
       <r>   -13.0739     0.0633     3.9969 </r>
       <r>   -12.9690     0.0264     3.9997 </r>
       <r>   -12.8641     0.0031     4.0000 </r>
       <r>   -12.7592     0.0002     4.0000 </r>
       <r>   -12.6543     0.0000     4.0000 </r>
       <r>   -12.5495     0.0000     4.0000 </r>
       <r>   -12.4446     0.0000     4.0000 </r>
       <r>   -12.3397     0.0000     4.0000 </r>
       <r>   -12.2348     0.0000     4.0000 </r>
       <r>   -12.1299     0.0000     4.0000 </r>
       <r>   -12.0250     0.0003     4.0000 </r>
       <r>   -11.9201     0.0050     4.0006 </r>
       <r>   -11.8153     0.0354     4.0043 </r>
       <r>   -11.7104     0.0516     4.0097 </r>
       <r>   -11.6055    -0.3861     3.9692 </r>
       <r>   -11.5006    -0.6770     3.8982 </r>
       <r>   -11.3957     3.4765     4.2628 </r>
       <r>   -11.2908     9.7544     5.2859 </r>
       <r>   -11.1859     7.0103     6.0212 </r>
       <r>   -11.0811    -0.4331     5.9758 </r>
       <r>   -10.9762    -0.4936     5.9240 </r>
       <r>   -10.8713     9.7996     6.9518 </r>
       <r>   -10.7664    18.2065     8.8614 </r>
       <r>   -10.6615    11.1433    10.0302 </r>
       <r>   -10.5566     0.8378    10.1181 </r>
       <r>   -10.4517    -1.1288     9.9997 </r>
       <r>   -10.3469    -0.1206     9.9870 </r>
       <r>   -10.2420     0.0949     9.9970 </r>
       <r>   -10.1371     0.0259     9.9997 </r>
       <r>   -10.0322     0.0026    10.0000 </r>
       <r>    -9.9273     0.0001    10.0000 </r>
       <r>    -9.8224     0.0000    10.0000 </r>
       <r>    -9.7175     0.0000    10.0000 </r>
       <r>    -9.6127     0.0000    10.0000 </r>
       <r>    -9.5078     0.0000    10.0000 </r>
       <r>    -9.4029     0.0000    10.0000 </r>
       <r>    -9.2980     0.0000    10.0000 </r>
       <r>    -9.1931     0.0000    10.0000 </r>
       <r>    -9.0882     0.0000    10.0000 </r>
       <r>    -8.9833     0.0000    10.0000 </r>
       <r>    -8.8784     0.0000    10.0000 </r>
       <r>    -8.7736     0.0000    10.0000 </r>
       <r>    -8.6687     0.0000    10.0000 </r>
       <r>    -8.5638     0.0000    10.0000 </r>
       <r>    -8.4589     0.0000    10.0000 </r>
       <r>    -8.3540     0.0000    10.0000 </r>
       <r>    -8.2491     0.0000    10.0000 </r>
       <r>    -8.1442     0.0000    10.0000 </r>
       <r>    -8.0394     0.0000    10.0000 </r>
       <r>    -7.9345     0.0000    10.0000 </r>
       <r>    -7.8296     0.0000    10.0000 </r>
       <r>    -7.7247     0.0000    10.0000 </r>
       <r>    -7.6198     0.0001    10.0000 </r>
       <r>    -7.5149     0.0032    10.0004 </r>
       <r>    -7.4100     0.0331    10.0038 </r>
       <r>    -7.3052     0.1220    10.0166 </r>
       <r>    -7.2003    -0.1743     9.9983 </r>
       <r>    -7.0954    -1.4371     9.8476 </r>
       <r>    -6.9905     1.4674    10.0015 </r>
       <r>    -6.8856    13.6502    11.4332 </r>
       <r>    -6.7807    20.4921    13.5826 </r>
       <r>    -6.6758    15.0183    15.1578 </r>
       <r>    -6.5710     7.6672    15.9620 </r>
       <r>    -6.4661     0.5691    16.0216 </r>
       <r>    -6.3612    -2.2871    15.7818 </r>
       <r>    -6.2563     7.4462    16.5628 </r>
       <r>    -6.1514    24.1770    19.0986 </r>
       <r>    -6.0465    24.1904    21.6358 </r>
       <r>    -5.9416    21.0311    23.8417 </r>
       <r>    -5.8368    37.9718    27.8244 </r>
       <r>    -5.7319    62.6662    34.3972 </r>
       <r>    -5.6270   115.2459    46.4849 </r>
       <r>    -5.5221   224.9761    70.0817 </r>
       <r>    -5.4172   298.1597   101.3545 </r>
       <r>    -5.3123   252.0584   127.7919 </r>
       <r>    -5.2074   201.4156   148.9175 </r>
       <r>    -5.1026   258.6765   176.0491 </r>
       <r>    -4.9977   352.0089   212.9699 </r>
       <r>    -4.8928   348.1933   249.4905 </r>
       <r>    -4.7879   289.1941   279.8229 </r>
       <r>    -4.6830   326.6195   314.0807 </r>
       <r>    -4.5781   406.4062   356.7070 </r>
       <r>    -4.4732   419.4510   400.7015 </r>
       <r>    -4.3684   460.7778   449.0306 </r>
       <r>    -4.2635   550.8985   506.8121 </r>
       <r>    -4.1586   471.9824   556.3164 </r>
       <r>    -4.0537   204.5896   577.7750 </r>
       <r>    -3.9488    32.0941   581.1412 </r>
       <r>    -3.8439    24.5521   583.7164 </r>
       <r>    -3.7390    31.6019   587.0310 </r>
       <r>    -3.6342    10.9313   588.1775 </r>
       <r>    -3.5293    10.7057   589.3004 </r>
       <r>    -3.4244    22.5048   591.6609 </r>
       <r>    -3.3195    15.3553   593.2714 </r>
       <r>    -3.2146     2.4480   593.5282 </r>
       <r>    -3.1097    21.4648   595.7795 </r>
       <r>    -3.0048    59.6506   602.0360 </r>
       <r>    -2.8999    52.3321   607.5249 </r>
       <r>    -2.7951    17.1842   609.3273 </r>
       <r>    -2.6902     4.8951   609.8408 </r>
       <r>    -2.5853    18.2409   611.7540 </r>
       <r>    -2.4804    28.3909   614.7318 </r>
       <r>    -2.3755    11.8540   615.9751 </r>
       <r>    -2.2706     4.5273   616.4499 </r>
       <r>    -2.1657    24.9317   619.0649 </r>
       <r>    -2.0609    36.1816   622.8599 </r>
       <r>    -1.9560    35.0403   626.5351 </r>
       <r>    -1.8511    42.0614   630.9468 </r>
       <r>    -1.7462    44.7279   635.6381 </r>
       <r>    -1.6413    42.4149   640.0868 </r>
       <r>    -1.5364    34.6746   643.7237 </r>
       <r>    -1.4315    23.1907   646.1561 </r>
       <r>    -1.3267    18.8066   648.1286 </r>
       <r>    -1.2218    10.8870   649.2705 </r>
       <r>    -1.1169     8.4368   650.1554 </r>
       <r>    -1.0120    44.4195   654.8144 </r>
       <r>    -0.9071    79.2169   663.1231 </r>
       <r>    -0.8022    58.9979   669.3112 </r>
       <r>    -0.6973    21.3583   671.5514 </r>
       <r>    -0.5925     4.6679   672.0410 </r>
       <r>    -0.4876     0.0134   672.0424 </r>
       <r>    -0.3827    -0.5434   671.9854 </r>
       <r>    -0.2778     0.0184   671.9873 </r>
       <r>    -0.1729     0.0951   671.9973 </r>
       <r>    -0.0680     0.0234   671.9997 </r>
       <r>     0.0369     0.0023   672.0000 </r>
       <r>     0.1417     0.0001   672.0000 </r>
       <r>     0.2466     0.0000   672.0000 </r>
       <r>     0.3515     0.0000   672.0000 </r>
       <r>     0.4564     0.0000   672.0000 </r>
       <r>     0.5613     0.0000   672.0000 </r>
       <r>     0.6662     0.0000   672.0000 </r>
       <r>     0.7711     0.0000   672.0000 </r>
       <r>     0.8759     0.0000   672.0000 </r>
       <r>     0.9808     0.0000   672.0000 </r>
       <r>     1.0857     0.0000   672.0000 </r>
       <r>     1.1906     0.0000   672.0000 </r>
       <r>     1.2955     0.0000   672.0000 </r>
      </set>
     </set>
    </array>
   </total>
  </dos>
 </calculation>
 <structure name="finalpos" >
  <crystal>
   <varray name="basis" >
    <v>      30.00000000       0.00000000       0.00000000 </v>
    <v>       0.00000000      30.00000000       0.00000000 </v>
    <v>       0.00000000       0.00000000      30.00000000 </v>
   </varray>
   <i name="volume">  27000.00000000 </i>
   <varray name="rec_basis" >
    <v>       0.03333333       0.00000000       0.00000000 </v>
    <v>       0.00000000       0.03333333       0.00000000 </v>
    <v>       0.00000000       0.00000000       0.03333333 </v>
   </varray>
  </crystal>
  <varray name="positions" >
   <v>       0.44576020       0.32826710       0.41691983 </v>
   <v>       0.67173288       0.55423978       0.41691983 </v>
   <v>       0.55423980       0.32826710       0.41691983 </v>
   <v>       0.32826712       0.55423978       0.41691983 </v>
   <v>       0.50000000       0.38250690       0.34021317 </v>
   <v>       0.50000000       0.38250690       0.65978680 </v>
   <v>       0.50000000       0.27609440       0.50000000 </v>
   <v>       0.27609443       0.49999998       0.50000000 </v>
   <v>       0.72390557       0.49999998       0.50000000 </v>
   <v>       0.50000000       0.72390555       0.50000000 </v>
   <v>       0.61195280       0.38804720       0.34167483 </v>
   <v>       0.61195280       0.38804720       0.65832513 </v>
   <v>       0.38804722       0.61195278       0.34167483 </v>
   <v>       0.38804722       0.61195278       0.65832513 </v>
   <v>       0.38804720       0.38804720       0.34167483 </v>
   <v>       0.38804720       0.38804720       0.65832513 </v>
   <v>       0.61195278       0.61195278       0.34167483 </v>
   <v>       0.61195278       0.61195278       0.65832513 </v>
   <v>       0.44576020       0.32826710       0.58308023 </v>
   <v>       0.67173288       0.55423978       0.58308023 </v>
   <v>       0.55791699       0.44208301       0.41809300 </v>
   <v>       0.32826705       0.44576024       0.41691983 </v>
   <v>       0.55423973       0.67173293       0.41691983 </v>
   <v>       0.55423980       0.32826710       0.58308023 </v>
   <v>       0.32826712       0.55423978       0.58308023 </v>
   <v>       0.67173295       0.44576024       0.41691983 </v>
   <v>       0.44576027       0.67173293       0.41691983 </v>
   <v>       0.44208301       0.44208301       0.41809300 </v>
   <v>       0.50000000       0.38416601       0.50000000 </v>
   <v>       0.61749315       0.50000005       0.34021317 </v>
   <v>       0.61749315       0.50000005       0.65978680 </v>
   <v>       0.38250685       0.50000005       0.34021317 </v>
   <v>       0.38250685       0.50000005       0.65978680 </v>
   <v>       0.38317830       0.38317830       0.50000000 </v>
   <v>       0.61682172       0.61682172       0.50000000 </v>
   <v>       0.61682170       0.38317830       0.50000000 </v>
   <v>       0.38317828       0.61682172       0.50000000 </v>
   <v>       0.50000000       0.50000000       0.33478917 </v>
   <v>       0.50000000       0.50000000       0.66521087 </v>
   <v>       0.32826705       0.44576024       0.58308023 </v>
   <v>       0.55423973       0.67173293       0.58308023 </v>
   <v>       0.55791699       0.44208301       0.58190703 </v>
   <v>       0.44208298       0.55791702       0.41809300 </v>
   <v>       0.44208301       0.44208301       0.58190703 </v>
   <v>       0.67173295       0.44576024       0.58308023 </v>
   <v>       0.44576027       0.67173293       0.58308023 </v>
   <v>       0.55791702       0.55791702       0.41809300 </v>
   <v>       0.38416599       0.50000002       0.50000000 </v>
   <v>       0.61583401       0.50000002       0.50000000 </v>
   <v>       0.50000000       0.61749319       0.34021317 </v>
   <v>       0.50000000       0.61749319       0.65978680 </v>
   <v>       0.50000000       0.50000000       0.50000000 </v>
   <v>       0.44208298       0.55791702       0.58190703 </v>
   <v>       0.55791702       0.55791702       0.58190703 </v>
   <v>       0.50000000       0.61583404       0.50000000 </v>
   <v>       0.52918110       0.49266617       0.71347487 </v>
   <v>       0.53427057       0.49138707       0.75070687 </v>
  </varray>
  <varray name="selective"  type="logical" >
   <v type="logical" >  F  F  F </v>
   <v type="logical" >  F  F  F </v>
   <v type="logical" >  F  F  F </v>
   <v type="logical" >  F  F  F </v>
   <v type="logical" >  F  F  F </v>
   <v type="logical" >  F  F  F </v>
   <v type="logical" >  F  F  F </v>
   <v type="logical" >  F  F  F </v>
   <v type="logical" >  F  F  F </v>
   <v type="logical" >  F  F  F </v>
   <v type="logical" >  F  F  F </v>
   <v type="logical" >  F  F  F </v>
   <v type="logical" >  F  F  F </v>
   <v type="logical" >  F  F  F </v>
   <v type="logical" >  F  F  F </v>
   <v type="logical" >  F  F  F </v>
   <v type="logical" >  F  F  F </v>
   <v type="logical" >  F  F  F </v>
   <v type="logical" >  F  F  F </v>
   <v type="logical" >  F  F  F </v>
   <v type="logical" >  F  F  F </v>
   <v type="logical" >  F  F  F </v>
   <v type="logical" >  F  F  F </v>
   <v type="logical" >  F  F  F </v>
   <v type="logical" >  F  F  F </v>
   <v type="logical" >  F  F  F </v>
   <v type="logical" >  F  F  F </v>
   <v type="logical" >  F  F  F </v>
   <v type="logical" >  F  F  F </v>
   <v type="logical" >  F  F  F </v>
   <v type="logical" >  F  F  F </v>
   <v type="logical" >  F  F  F </v>
   <v type="logical" >  F  F  F </v>
   <v type="logical" >  F  F  F </v>
   <v type="logical" >  F  F  F </v>
   <v type="logical" >  F  F  F </v>
   <v type="logical" >  F  F  F </v>
   <v type="logical" >  F  F  F </v>
   <v type="logical" >  F  F  F </v>
   <v type="logical" >  F  F  F </v>
   <v type="logical" >  F  F  F </v>
   <v type="logical" >  F  F  F </v>
   <v type="logical" >  F  F  F </v>
   <v type="logical" >  F  F  F </v>
   <v type="logical" >  F  F  F </v>
   <v type="logical" >  F  F  F </v>
   <v type="logical" >  F  F  F </v>
   <v type="logical" >  F  F  F </v>
   <v type="logical" >  F  F  F </v>
   <v type="logical" >  F  F  F </v>
   <v type="logical" >  F  F  F </v>
   <v type="logical" >  F  F  F </v>
   <v type="logical" >  F  F  F </v>
   <v type="logical" >  F  F  F </v>
   <v type="logical" >  F  F  F </v>
   <v type="logical" >  F  F  F </v>
   <v type="logical" >  F  F  F </v>
  </varray>
  <nose>
   <v>      -3.00000000       0.00000000       0.00010000       0.00010000 </v>
  </nose>
 </structure>
</modeling>
