<?xml version="1.0" encoding="ISO-8859-1"?>
<modeling>
 <generator>
  <i name="program" type="string">vasp </i>
  <i name="version" type="string">5.4.4.18Apr17-6-g9f103f2a35  </i>
  <i name="subversion" type="string">(build Sep 03 2018 23:53:05) complex            parallel </i>
  <i name="platform" type="string">LinuxIFC </i>
  <i name="date" type="string">2021 12 02 </i>
  <i name="time" type="string">04:49:44 </i>
 </generator>
 <incar>
  <i type="string" name="SYSTEM"> 6_Pd100_top_free_z(O)</i>
  <i type="int" name="ISTART">     0</i>
  <i type="string" name="PREC">normal   			! encut=max(enmax), ngx,y,z</i>
  <i type="string" name="ALGO"> Fast     			! Mix RMM-DIIS and Dav</i>
  <i type="logical" name="ADDGRID"> F  </i>
  <i type="int" name="ISPIN">     1</i>
  <i type="int" name="ICHARG">     2</i>
  <i type="int" name="NELM">   100</i>
  <i type="int" name="NELMIN">     6</i>
  <i type="int" name="IBRION">     2</i>
  <i name="EDIFF">      0.00010000</i>
  <i name="EDIFFG">     -0.05000000</i>
  <i type="int" name="NSW">     0</i>
  <i type="int" name="ISIF">     2</i>
  <i type="int" name="ISYM">     2</i>
  <i name="ENCUT">    400.00000000</i>
  <i type="string" name="LREAL"> Auto     			! Auto or A projection done</i>
  <i type="int" name="ISMEAR">     2</i>
  <i name="SIGMA">      0.20000000</i>
  <i type="logical" name="LWAVE"> F  </i>
  <i type="logical" name="LCHARG"> F  </i>
  <v type="int" name="KPOINT_BSE">    -1     0     0     0</v>
  <i type="int" name="MAXMEM"> 10000</i>
  <i type="int" name="NELM">   100</i>
  <i type="string" name="GGA"> RP         			! Revised PBE</i>
 </incar>
 <structure name="primitive_cell" >
  <crystal>
   <varray name="basis" >
    <v>      30.00000000       0.00000000       0.00000000 </v>
    <v>       0.00000000      30.00000000       0.00000000 </v>
    <v>       0.00000000       0.00000000      30.00000000 </v>
   </varray>
   <i name="volume">  27000.00000000 </i>
   <varray name="rec_basis" >
    <v>       0.03333333       0.00000000       0.00000000 </v>
    <v>       0.00000000       0.03333333       0.00000000 </v>
    <v>       0.00000000       0.00000000       0.03333333 </v>
   </varray>
  </crystal>
  <varray name="positions" >
   <v>       0.44576020       0.32826710       0.41691983 </v>
   <v>      -0.44576020       0.32826710       0.41691983 </v>
   <v>      -0.50000000       0.38250690       0.34021317 </v>
   <v>      -0.50000000       0.27609440      -0.50000000 </v>
   <v>       0.38804720       0.38804720       0.34167483 </v>
   <v>      -0.50000000       0.38416601      -0.50000000 </v>
   <v>       0.44208300       0.44208300       0.41809300 </v>
   <v>       0.38317830       0.38317830      -0.50000000 </v>
   <v>      -0.44208300       0.44208300       0.41809300 </v>
   <v>       0.44576020       0.32826710      -0.41691977 </v>
   <v>       0.32826705       0.44576024       0.41691983 </v>
   <v>      -0.38804720       0.38804720       0.34167483 </v>
   <v>      -0.38317830       0.38317830      -0.50000000 </v>
   <v>      -0.50000000      -0.50000000       0.33478917 </v>
   <v>      -0.50000000      -0.50000000      -0.50000000 </v>
   <v>      -0.44576020       0.32826710      -0.41691977 </v>
   <v>       0.38250685      -0.49999995       0.34021317 </v>
   <v>       0.44208300       0.44208300      -0.41809297 </v>
   <v>       0.38416599      -0.49999998      -0.50000000 </v>
   <v>      -0.44208300       0.44208300      -0.41809297 </v>
   <v>       0.44208298      -0.44208298       0.41809300 </v>
   <v>       0.32826705       0.44576024      -0.41691977 </v>
   <v>      -0.50000000       0.38250690      -0.34021320 </v>
   <v>       0.32826712      -0.44576022       0.41691983 </v>
   <v>      -0.38250685      -0.49999995       0.34021317 </v>
   <v>      -0.32826705       0.44576024       0.41691983 </v>
   <v>       0.27609443       0.49999998      -0.50000000 </v>
   <v>       0.38804720       0.38804720      -0.34167487 </v>
   <v>      -0.38416599      -0.49999998      -0.50000000 </v>
   <v>      -0.44208298      -0.44208298       0.41809300 </v>
   <v>       0.44208298      -0.44208298      -0.41809297 </v>
   <v>      -0.38804720       0.38804720      -0.34167487 </v>
   <v>       0.38804722      -0.38804722       0.34167483 </v>
   <v>      -0.46335520       0.45607643      -0.32577223 </v>
   <v>       0.38250685      -0.49999995      -0.34021320 </v>
   <v>       0.32826712      -0.44576022      -0.41691977 </v>
   <v>      -0.32826705       0.44576024      -0.41691977 </v>
   <v>       0.50000000      -0.38250681       0.34021317 </v>
   <v>      -0.50000000      -0.38416596      -0.50000000 </v>
   <v>      -0.44208298      -0.44208298      -0.41809297 </v>
   <v>      -0.50000000      -0.50000000      -0.33478913 </v>
   <v>       0.38317828      -0.38317828      -0.50000000 </v>
   <v>      -0.32826712      -0.44576022       0.41691983 </v>
   <v>      -0.45584150       0.44707030      -0.29004840 </v>
   <v>      -0.27609443       0.49999998      -0.50000000 </v>
   <v>      -0.38804722      -0.38804722       0.34167483 </v>
   <v>      -0.38250685      -0.49999995      -0.34021320 </v>
   <v>       0.44576027      -0.32826707       0.41691983 </v>
   <v>      -0.38317828      -0.38317828      -0.50000000 </v>
   <v>      -0.32826712      -0.44576022      -0.41691977 </v>
   <v>      -0.44576027      -0.32826707       0.41691983 </v>
   <v>       0.38804722      -0.38804722      -0.34167487 </v>
   <v>      -0.50000000      -0.38250681      -0.34021320 </v>
   <v>       0.44576027      -0.32826707      -0.41691977 </v>
   <v>      -0.44576027      -0.32826707      -0.41691977 </v>
   <v>      -0.50000000      -0.27609445       0.50000000 </v>
   <v>      -0.38804722      -0.38804722      -0.34167487 </v>
  </varray>
 </structure>
 <varray name="primitive_index" >
  <v type="int" >        1 </v>
  <v type="int" >        3 </v>
  <v type="int" >        5 </v>
  <v type="int" >        7 </v>
  <v type="int" >       15 </v>
  <v type="int" >       29 </v>
  <v type="int" >       28 </v>
  <v type="int" >       34 </v>
  <v type="int" >       21 </v>
  <v type="int" >       19 </v>
  <v type="int" >       22 </v>
  <v type="int" >       11 </v>
  <v type="int" >       36 </v>
  <v type="int" >       38 </v>
  <v type="int" >       52 </v>
  <v type="int" >       24 </v>
  <v type="int" >       32 </v>
  <v type="int" >       44 </v>
  <v type="int" >       48 </v>
  <v type="int" >       42 </v>
  <v type="int" >       43 </v>
  <v type="int" >       40 </v>
  <v type="int" >        6 </v>
  <v type="int" >        4 </v>
  <v type="int" >       30 </v>
  <v type="int" >       26 </v>
  <v type="int" >        8 </v>
  <v type="int" >       16 </v>
  <v type="int" >       49 </v>
  <v type="int" >       47 </v>
  <v type="int" >       53 </v>
  <v type="int" >       12 </v>
  <v type="int" >       13 </v>
  <v type="int" >       56 </v>
  <v type="int" >       33 </v>
  <v type="int" >       25 </v>
  <v type="int" >       45 </v>
  <v type="int" >       50 </v>
  <v type="int" >       55 </v>
  <v type="int" >       54 </v>
  <v type="int" >       39 </v>
  <v type="int" >       37 </v>
  <v type="int" >        2 </v>
  <v type="int" >       57 </v>
  <v type="int" >        9 </v>
  <v type="int" >       17 </v>
  <v type="int" >       31 </v>
  <v type="int" >       27 </v>
  <v type="int" >       35 </v>
  <v type="int" >       20 </v>
  <v type="int" >       23 </v>
  <v type="int" >       14 </v>
  <v type="int" >       51 </v>
  <v type="int" >       46 </v>
  <v type="int" >       41 </v>
  <v type="int" >       10 </v>
  <v type="int" >       18 </v>
 </varray>
 <kpoints>
  <generation param="Monkhorst-Pack">
   <v type="int" name="divisions">       1        1        1 </v>
   <v name="usershift">      0.00000000       0.00000000       0.00000000 </v>
   <v name="genvec1">      1.00000000       0.00000000       0.00000000 </v>
   <v name="genvec2">      0.00000000       1.00000000       0.00000000 </v>
   <v name="genvec3">      0.00000000       0.00000000       1.00000000 </v>
   <v name="shift">      0.00000000       0.00000000       0.00000000 </v>
  </generation>
  <varray name="kpointlist" >
   <v>       0.00000000       0.00000000       0.00000000 </v>
  </varray>
  <varray name="weights" >
   <v>       1.00000000 </v>
  </varray>
 </kpoints>
 <parameters>
  <separator name="general" >
   <i type="string" name="SYSTEM">6_Pd100_top_free_z(O)</i>
   <i type="logical" name="LCOMPAT"> F  </i>
  </separator>
  <separator name="electronic" >
   <i type="string" name="PREC">normal</i>
   <i name="ENMAX">    400.00000000</i>
   <i name="ENAUG">    644.87300000</i>
   <i name="EDIFF">      0.00010000</i>
   <i type="int" name="IALGO">    68</i>
   <i type="int" name="IWAVPR">    10</i>
   <i type="int" name="NBANDS">   336</i>
   <i name="NELECT">    560.00000000</i>
   <i type="int" name="TURBO">     0</i>
   <i type="int" name="IRESTART">     0</i>
   <i type="int" name="NREBOOT">     0</i>
   <i type="int" name="NMIN">     0</i>
   <i name="EREF">      0.00000000</i>
   <separator name="electronic smearing" >
    <i type="int" name="ISMEAR">     2</i>
    <i name="SIGMA">      0.20000000</i>
    <i name="KSPACING">      0.50000000</i>
    <i type="logical" name="KGAMMA"> T  </i>
   </separator>
   <separator name="electronic projectors" >
    <i type="logical" name="LREAL"> T  </i>
    <v name="ROPT">     -0.00050000     -0.00050000     -0.00050000</v>
    <i type="int" name="LMAXPAW">  -100</i>
    <i type="int" name="LMAXMIX">     2</i>
    <i type="logical" name="NLSPLINE"> F  </i>
   </separator>
   <separator name="electronic startup" >
    <i type="int" name="ISTART">     0</i>
    <i type="int" name="ICHARG">     2</i>
    <i type="int" name="INIWAV">     1</i>
   </separator>
   <separator name="electronic spin" >
    <i type="int" name="ISPIN">     1</i>
    <i type="logical" name="LNONCOLLINEAR"> F  </i>
    <v name="MAGMOM">      1.00000000      1.00000000      1.00000000      1.00000000      1.00000000      1.00000000      1.00000000      1.00000000      1.00000000      1.00000000      1.00000000      1.00000000      1.00000000      1.00000000      1.00000000      1.00000000      1.00000000      1.00000000      1.00000000      1.00000000
      1.00000000      1.00000000      1.00000000      1.00000000      1.00000000      1.00000000      1.00000000      1.00000000      1.00000000      1.00000000      1.00000000      1.00000000      1.00000000      1.00000000      1.00000000      1.00000000      1.00000000      1.00000000      1.00000000      1.00000000
      1.00000000      1.00000000      1.00000000      1.00000000      1.00000000      1.00000000      1.00000000      1.00000000      1.00000000      1.00000000      1.00000000      1.00000000      1.00000000      1.00000000      1.00000000      1.00000000      1.00000000</v>
    <i name="NUPDOWN">     -1.00000000</i>
    <i type="logical" name="LSORBIT"> F  </i>
    <v name="SAXIS">      0.00000000      0.00000000      1.00000000</v>
    <i type="logical" name="LSPIRAL"> F  </i>
    <v name="QSPIRAL">      0.00000000      0.00000000      0.00000000</v>
    <i type="logical" name="LZEROZ"> F  </i>
   </separator>
   <separator name="electronic exchange-correlation" >
    <i type="logical" name="LASPH"> F  </i>
    <i type="logical" name="LMETAGGA"> F  </i>
   </separator>
   <separator name="electronic convergence" >
    <i type="int" name="NELM">   100</i>
    <i type="int" name="NELMDL">    -5</i>
    <i type="int" name="NELMIN">     6</i>
    <i name="ENINI">    400.00000000</i>
    <separator name="electronic convergence detail" >
     <i type="logical" name="LDIAG"> T  </i>
     <i type="logical" name="LSUBROT"> F  </i>
     <i name="WEIMIN">      0.00000000</i>
     <i name="EBREAK">      0.00000007</i>
     <i name="DEPER">      0.30000000</i>
     <i type="int" name="NRMM">     4</i>
     <i name="TIME">      0.40000000</i>
    </separator>
   </separator>
   <separator name="electronic mixer" >
    <i name="AMIX">      0.40000000</i>
    <i name="BMIX">      1.00000000</i>
    <i name="AMIN">      0.10000000</i>
    <i name="AMIX_MAG">      1.60000000</i>
    <i name="BMIX_MAG">      1.00000000</i>
    <separator name="electronic mixer details" >
     <i type="int" name="IMIX">     4</i>
     <i type="logical" name="MIXFIRST"> F  </i>
     <i type="int" name="MAXMIX">   -45</i>
     <i name="WC">    100.00000000</i>
     <i type="int" name="INIMIX">     1</i>
     <i type="int" name="MIXPRE">     1</i>
     <i type="int" name="MREMOVE">     5</i>
    </separator>
   </separator>
   <separator name="electronic dipolcorrection" >
    <i type="logical" name="LDIPOL"> F  </i>
    <i type="logical" name="LMONO"> F  </i>
    <i type="int" name="IDIPOL">     0</i>
    <i name="EPSILON">      1.00000000</i>
    <v name="DIPOL">   -100.00000000   -100.00000000   -100.00000000</v>
    <i name="EFIELD">      0.00000000</i>
   </separator>
  </separator>
  <separator name="grids" >
   <i type="int" name="NGX">   150</i>
   <i type="int" name="NGY">   150</i>
   <i type="int" name="NGZ">   150</i>
   <i type="int" name="NGXF">   300</i>
   <i type="int" name="NGYF">   300</i>
   <i type="int" name="NGZF">   300</i>
   <i type="logical" name="ADDGRID"> F  </i>
  </separator>
  <separator name="ionic" >
   <i type="int" name="NSW">     0</i>
   <i type="int" name="IBRION">    -1</i>
   <i type="int" name="MDALGO">     0</i>
   <i type="int" name="ISIF">     2</i>
   <i name="PSTRESS">      0.00000000</i>
   <i name="EDIFFG">     -0.05000000</i>
   <i type="int" name="NFREE">     1</i>
   <i name="POTIM">      0.50000000</i>
   <i name="SMASS">     -3.00000000</i>
   <i name="SCALEE">      1.00000000</i>
  </separator>
  <separator name="ionic md" >
   <i name="TEBEG">      0.00010000</i>
   <i name="TEEND">      0.00010000</i>
   <i type="int" name="NBLOCK">     1</i>
   <i type="int" name="KBLOCK">     1</i>
   <i type="int" name="NPACO">   256</i>
   <i name="APACO">     16.00000000</i>
  </separator>
  <separator name="symmetry" >
   <i type="int" name="ISYM">     2</i>
   <i name="SYMPREC">      0.00001000</i>
  </separator>
  <separator name="dos" >
   <i type="int" name="LORBIT">     0</i>
   <v name="RWIGS">     -1.00000000     -1.00000000     -1.00000000</v>
   <i type="int" name="NEDOS">   301</i>
   <i name="EMIN">     10.00000000</i>
   <i name="EMAX">    -10.00000000</i>
   <i name="EFERMI">      0.00000000</i>
  </separator>
  <separator name="writing" >
   <i type="int" name="NWRITE">     2</i>
   <i type="logical" name="LWAVE"> F  </i>
   <i type="logical" name="LDOWNSAMPLE"> F  </i>
   <i type="logical" name="LCHARG"> F  </i>
   <i type="logical" name="LPARD"> F  </i>
   <i type="logical" name="LVTOT"> F  </i>
   <i type="logical" name="LVHAR"> F  </i>
   <i type="logical" name="LELF"> F  </i>
   <i type="logical" name="LOPTICS"> F  </i>
   <v name="STM">      0.00000000      0.00000000      0.00000000      0.00000000      0.00000000      0.00000000      0.00000000</v>
  </separator>
  <separator name="performance" >
   <i type="int" name="NPAR">     1</i>
   <i type="int" name="NSIM">     4</i>
   <i type="int" name="NBLK">    -1</i>
   <i type="logical" name="LPLANE"> T  </i>
   <i type="logical" name="LSCALAPACK"> T  </i>
   <i type="logical" name="LSCAAWARE"> F  </i>
   <i type="logical" name="LSCALU"> F  </i>
   <i type="logical" name="LASYNC"> F  </i>
   <i type="logical" name="LORBITALREAL"> F  </i>
  </separator>
  <separator name="miscellaneous" >
   <i type="int" name="IDIOT">     3</i>
   <i type="int" name="ISPECIAL">     0</i>
   <i type="logical" name="LMUSIC"> F  </i>
   <v name="POMASS">    106.42000000     12.01100000     16.00000000</v>
   <v name="DARWINR">      0.00000000      0.00000000      0.00000000</v>
   <v name="DARWINV">      1.00000000      1.00000000      1.00000000</v>
   <i type="logical" name="LCORR"> T  </i>
  </separator>
  <i type="logical" name="GGA_COMPAT"> T  </i>
  <i type="logical" name="LBERRY"> F  </i>
  <i type="int" name="ICORELEVEL">     0</i>
  <i type="logical" name="LDAU"> F  </i>
  <i type="int" name="I_CONSTRAINED_M">     0</i>
  <separator name="electronic exchange-correlation" >
   <i type="string" name="GGA">RP</i>
   <i type="int" name="VOSKOWN">     0</i>
   <i type="logical" name="LHFCALC"> F  </i>
   <i type="string" name="PRECFOCK"></i>
   <i type="logical" name="LSYMGRAD"> F  </i>
   <i type="logical" name="LHFONE"> F  </i>
   <i type="logical" name="LRHFCALC"> F  </i>
   <i type="logical" name="LTHOMAS"> F  </i>
   <i type="logical" name="LMODELHF"> F  </i>
   <i name="ENCUT4O">     -1.00000000</i>
   <i type="int" name="EXXOEP">     0</i>
   <i type="int" name="FOURORBIT">     0</i>
   <i name="AEXX">      0.00000000</i>
   <i name="HFALPHA">      0.00000000</i>
   <i name="MCALPHA">      0.00000000</i>
   <i name="ALDAX">      1.00000000</i>
   <i name="AGGAX">      1.00000000</i>
   <i name="ALDAC">      1.00000000</i>
   <i name="AGGAC">      1.00000000</i>
   <i type="int" name="NKREDX">     1</i>
   <i type="int" name="NKREDY">     1</i>
   <i type="int" name="NKREDZ">     1</i>
   <i type="logical" name="SHIFTRED"> F  </i>
   <i type="logical" name="ODDONLY"> F  </i>
   <i type="logical" name="EVENONLY"> F  </i>
   <i type="int" name="LMAXFOCK">     0</i>
   <i type="int" name="NMAXFOCKAE">     0</i>
   <i type="logical" name="LFOCKAEDFT"> F  </i>
   <i name="HFSCREEN">      0.00000000</i>
   <i name="HFSCREENC">      0.00000000</i>
   <i type="int" name="NBANDSGWLOW">     0</i>
  </separator>
  <separator name="vdW DFT" >
   <i type="logical" name="LUSE_VDW"> F  </i>
   <i name="Zab_VDW">     -0.84910000</i>
   <i name="PARAM1">      0.12340000</i>
   <i name="PARAM2">      1.00000000</i>
   <i name="PARAM3">      0.00000000</i>
  </separator>
  <separator name="model GW" >
   <i type="int" name="MODEL_GW">     0</i>
   <i name="MODEL_EPS0">    284.21052632</i>
   <i name="MODEL_ALPHA">      1.00000000</i>
  </separator>
  <separator name="linear response parameters" >
   <i type="logical" name="LEPSILON"> F  </i>
   <i type="logical" name="LRPA"> F  </i>
   <i type="logical" name="LNABLA"> F  </i>
   <i type="logical" name="LVEL"> F  </i>
   <i type="int" name="KINTER">     0</i>
   <i name="CSHIFT">      0.10000000</i>
   <i name="OMEGAMAX">     -1.00000000</i>
   <i name="DEG_THRESHOLD">      0.00200000</i>
   <i name="RTIME">     -0.10000000</i>
   <i name="WPLASMAI">      0.00000000</i>
   <v name="DFIELD">      0.00000000      0.00000000      0.00000000</v>
   <v name="WPLASMA">      0.00000000      0.00000000      0.00000000      0.00000000      0.00000000      0.00000000      0.00000000      0.00000000      0.00000000</v>
  </separator>
  <separator name="orbital magnetization" >
   <i type="logical" name="NUCIND"> F  </i>
   <v name="MAGPOS">      0.00000000      0.00000000      0.00000000</v>
   <i type="logical" name="LNICSALL"> T  </i>
   <i type="logical" name="ORBITALMAG"> F  </i>
   <i type="logical" name="LMAGBLOCH"> F  </i>
   <i type="logical" name="LCHIMAG"> F  </i>
   <i type="logical" name="LGAUGE"> T  </i>
   <i type="int" name="MAGATOM">     0</i>
   <v name="MAGDIPOL">      0.00000000      0.00000000      0.00000000</v>
   <v name="AVECCONST">      0.00000000      0.00000000      0.00000000</v>
  </separator>
  <separator name="response functions" >
   <i type="logical" name="LADDER"> F  </i>
   <i type="logical" name="LRPAFORCE"> F  </i>
   <i type="logical" name="LFXC"> F  </i>
   <i type="logical" name="LHARTREE"> T  </i>
   <i type="int" name="IBSE">     0</i>
   <v type="int" name="KPOINT">    -1     0     0     0</v>
   <i type="logical" name="LTCTE"> F  </i>
   <i type="logical" name="LTETE"> F  </i>
   <i type="logical" name="LTRIPLET"> F  </i>
   <i type="logical" name="LFXCEPS"> F  </i>
   <i type="logical" name="LFXHEG"> F  </i>
   <i type="int" name="NATURALO">     2</i>
   <i type="logical" name="L2ORDER"> F  </i>
   <i type="logical" name="LMP2LT"> F  </i>
   <i type="logical" name="LUSEW"> F  </i>
   <i name="ENCUTGW">     -2.00000000</i>
   <i name="ENCUTGWSOFT">     -2.00000000</i>
   <i name="ENCUTLF">     -1.00000000</i>
   <i type="int" name="LMAXMP2">    -1</i>
   <i name="SCISSOR">      0.00000000</i>
   <i type="int" name="NOMEGA">     0</i>
   <i type="int" name="NOMEGAR">     0</i>
   <i type="int" name="NBANDSGW">    -1</i>
   <i type="int" name="NBANDSO">    -1</i>
   <i type="int" name="NBANDSV">    -1</i>
   <i type="int" name="NELM">   100</i>
   <i type="int" name="NELMHF">     1</i>
   <i type="int" name="DIM">     3</i>
   <i type="int" name="ANTIRES">     0</i>
   <i name="OMEGAMAX">    -30.00000000</i>
   <i name="OMEGAMIN">    -30.00000000</i>
   <i name="OMEGATL">   -200.00000000</i>
   <i type="int" name="OMEGAGRID">   140</i>
   <i name="CSHIFT">     -0.10000000</i>
   <i type="logical" name="SELFENERGY"> F  </i>
   <i type="logical" name="LSPECTRAL"> F  </i>
   <i type="logical" name="LSPECTRALGW"> F  </i>
   <i type="logical" name="LSINGLES"> F  </i>
   <i type="logical" name="LFERMIGW"> F  </i>
   <i type="logical" name="ODDONLYGW"> F  </i>
   <i type="logical" name="EVENONLYGW"> F  </i>
   <i type="int" name="NKREDLFX">     1</i>
   <i type="int" name="NKREDLFY">     1</i>
   <i type="int" name="NKREDLFZ">     1</i>
   <i type="int" name="MAXMEM"> 10000</i>
   <i type="int" name="TELESCOPE">     0</i>
   <i type="int" name="TAUPAR">     1</i>
   <i type="int" name="OMEGAPAR">    -1</i>
   <i name="LAMBDA">      1.00000000</i>
  </separator>
  <separator name="External order field" >
   <i name="OFIELD_KAPPA">      0.00000000</i>
   <v name="OFIELD_K">      0.00000000      0.00000000      0.00000000</v>
   <i name="OFIELD_Q6_NEAR">      0.00000000</i>
   <i name="OFIELD_Q6_FAR">      0.00000000</i>
   <i name="OFIELD_A">      0.00000000</i>
  </separator>
 </parameters>
 <atominfo>
  <atoms>      57 </atoms>
  <types>       3 </types>
  <array name="atoms" >
   <dimension dim="1">ion</dimension>
   <field type="string">element</field>
   <field type="int">atomtype</field>
   <set>
    <rc><c>Pd</c><c>   1</c></rc>
    <rc><c>Pd</c><c>   1</c></rc>
    <rc><c>Pd</c><c>   1</c></rc>
    <rc><c>Pd</c><c>   1</c></rc>
    <rc><c>Pd</c><c>   1</c></rc>
    <rc><c>Pd</c><c>   1</c></rc>
    <rc><c>Pd</c><c>   1</c></rc>
    <rc><c>Pd</c><c>   1</c></rc>
    <rc><c>Pd</c><c>   1</c></rc>
    <rc><c>Pd</c><c>   1</c></rc>
    <rc><c>Pd</c><c>   1</c></rc>
    <rc><c>Pd</c><c>   1</c></rc>
    <rc><c>Pd</c><c>   1</c></rc>
    <rc><c>Pd</c><c>   1</c></rc>
    <rc><c>Pd</c><c>   1</c></rc>
    <rc><c>Pd</c><c>   1</c></rc>
    <rc><c>Pd</c><c>   1</c></rc>
    <rc><c>Pd</c><c>   1</c></rc>
    <rc><c>Pd</c><c>   1</c></rc>
    <rc><c>Pd</c><c>   1</c></rc>
    <rc><c>Pd</c><c>   1</c></rc>
    <rc><c>Pd</c><c>   1</c></rc>
    <rc><c>Pd</c><c>   1</c></rc>
    <rc><c>Pd</c><c>   1</c></rc>
    <rc><c>Pd</c><c>   1</c></rc>
    <rc><c>Pd</c><c>   1</c></rc>
    <rc><c>Pd</c><c>   1</c></rc>
    <rc><c>Pd</c><c>   1</c></rc>
    <rc><c>Pd</c><c>   1</c></rc>
    <rc><c>Pd</c><c>   1</c></rc>
    <rc><c>Pd</c><c>   1</c></rc>
    <rc><c>Pd</c><c>   1</c></rc>
    <rc><c>Pd</c><c>   1</c></rc>
    <rc><c>Pd</c><c>   1</c></rc>
    <rc><c>Pd</c><c>   1</c></rc>
    <rc><c>Pd</c><c>   1</c></rc>
    <rc><c>Pd</c><c>   1</c></rc>
    <rc><c>Pd</c><c>   1</c></rc>
    <rc><c>Pd</c><c>   1</c></rc>
    <rc><c>Pd</c><c>   1</c></rc>
    <rc><c>Pd</c><c>   1</c></rc>
    <rc><c>Pd</c><c>   1</c></rc>
    <rc><c>Pd</c><c>   1</c></rc>
    <rc><c>Pd</c><c>   1</c></rc>
    <rc><c>Pd</c><c>   1</c></rc>
    <rc><c>Pd</c><c>   1</c></rc>
    <rc><c>Pd</c><c>   1</c></rc>
    <rc><c>Pd</c><c>   1</c></rc>
    <rc><c>Pd</c><c>   1</c></rc>
    <rc><c>Pd</c><c>   1</c></rc>
    <rc><c>Pd</c><c>   1</c></rc>
    <rc><c>Pd</c><c>   1</c></rc>
    <rc><c>Pd</c><c>   1</c></rc>
    <rc><c>Pd</c><c>   1</c></rc>
    <rc><c>Pd</c><c>   1</c></rc>
    <rc><c>C </c><c>   2</c></rc>
    <rc><c>O </c><c>   3</c></rc>
   </set>
  </array>
  <array name="atomtypes" >
   <dimension dim="1">type</dimension>
   <field type="int">atomspertype</field>
   <field type="string">element</field>
   <field>mass</field>
   <field>valence</field>
   <field type="string">pseudopotential</field>
   <set>
    <rc><c>  55</c><c>Pd</c><c>    106.42000000</c><c>     10.00000000</c><c>  PAW_PBE Pd 04Jan2005                  </c></rc>
    <rc><c>   1</c><c>C </c><c>     12.01100000</c><c>      4.00000000</c><c>  PAW_PBE C 08Apr2002                   </c></rc>
    <rc><c>   1</c><c>O </c><c>     16.00000000</c><c>      6.00000000</c><c>  PAW_PBE O 08Apr2002                   </c></rc>
   </set>
  </array>
 </atominfo>
 <structure name="initialpos" >
  <crystal>
   <varray name="basis" >
    <v>      30.00000000       0.00000000       0.00000000 </v>
    <v>       0.00000000      30.00000000       0.00000000 </v>
    <v>       0.00000000       0.00000000      30.00000000 </v>
   </varray>
   <i name="volume">  27000.00000000 </i>
   <varray name="rec_basis" >
    <v>       0.03333333       0.00000000       0.00000000 </v>
    <v>       0.00000000       0.03333333       0.00000000 </v>
    <v>       0.00000000       0.00000000       0.03333333 </v>
   </varray>
  </crystal>
  <varray name="positions" >
   <v>       0.44576020       0.32826710       0.41691983 </v>
   <v>       0.67173288       0.55423978       0.41691983 </v>
   <v>       0.55423980       0.32826710       0.41691983 </v>
   <v>       0.32826712       0.55423978       0.41691983 </v>
   <v>       0.50000000       0.38250690       0.34021317 </v>
   <v>       0.50000000       0.38250690       0.65978680 </v>
   <v>       0.50000000       0.27609440       0.50000000 </v>
   <v>       0.27609443       0.49999998       0.50000000 </v>
   <v>       0.72390557       0.49999998       0.50000000 </v>
   <v>       0.50000000       0.72390555       0.50000000 </v>
   <v>       0.61195280       0.38804720       0.34167483 </v>
   <v>       0.61195280       0.38804720       0.65832513 </v>
   <v>       0.38804722       0.61195278       0.34167483 </v>
   <v>       0.38804722       0.61195278       0.65832513 </v>
   <v>       0.38804720       0.38804720       0.34167483 </v>
   <v>       0.38804720       0.38804720       0.65832513 </v>
   <v>       0.61195278       0.61195278       0.34167483 </v>
   <v>       0.61195278       0.61195278       0.65832513 </v>
   <v>       0.44576020       0.32826710       0.58308023 </v>
   <v>       0.67173288       0.55423978       0.58308023 </v>
   <v>       0.55791699       0.44208301       0.41809300 </v>
   <v>       0.32826705       0.44576024       0.41691983 </v>
   <v>       0.55423973       0.67173293       0.41691983 </v>
   <v>       0.55423980       0.32826710       0.58308023 </v>
   <v>       0.32826712       0.55423978       0.58308023 </v>
   <v>       0.67173295       0.44576024       0.41691983 </v>
   <v>       0.44576027       0.67173293       0.41691983 </v>
   <v>       0.44208301       0.44208301       0.41809300 </v>
   <v>       0.50000000       0.38416601       0.50000000 </v>
   <v>       0.61749315       0.50000005       0.34021317 </v>
   <v>       0.61749315       0.50000005       0.65978680 </v>
   <v>       0.38250685       0.50000005       0.34021317 </v>
   <v>       0.38250685       0.50000005       0.65978680 </v>
   <v>       0.38317830       0.38317830       0.50000000 </v>
   <v>       0.61682172       0.61682172       0.50000000 </v>
   <v>       0.61682170       0.38317830       0.50000000 </v>
   <v>       0.38317828       0.61682172       0.50000000 </v>
   <v>       0.50000000       0.50000000       0.33478917 </v>
   <v>       0.50000000       0.50000000       0.66521087 </v>
   <v>       0.32826705       0.44576024       0.58308023 </v>
   <v>       0.55423973       0.67173293       0.58308023 </v>
   <v>       0.55791699       0.44208301       0.58190703 </v>
   <v>       0.44208298       0.55791702       0.41809300 </v>
   <v>       0.44208301       0.44208301       0.58190703 </v>
   <v>       0.67173295       0.44576024       0.58308023 </v>
   <v>       0.44576027       0.67173293       0.58308023 </v>
   <v>       0.55791702       0.55791702       0.41809300 </v>
   <v>       0.38416599       0.50000002       0.50000000 </v>
   <v>       0.61583401       0.50000002       0.50000000 </v>
   <v>       0.50000000       0.61749319       0.34021317 </v>
   <v>       0.50000000       0.61749319       0.65978680 </v>
   <v>       0.50000000       0.50000000       0.50000000 </v>
   <v>       0.44208298       0.55791702       0.58190703 </v>
   <v>       0.55791702       0.55791702       0.58190703 </v>
   <v>       0.50000000       0.61583404       0.50000000 </v>
   <v>       0.53664480       0.45607643       0.67422777 </v>
   <v>       0.54415850       0.44707030       0.70995160 </v>
  </varray>
  <varray name="selective"  type="logical" >
   <v type="logical" >  F  F  F </v>
   <v type="logical" >  F  F  F </v>
   <v type="logical" >  F  F  F </v>
   <v type="logical" >  F  F  F </v>
   <v type="logical" >  F  F  F </v>
   <v type="logical" >  F  F  F </v>
   <v type="logical" >  F  F  F </v>
   <v type="logical" >  F  F  F </v>
   <v type="logical" >  F  F  F </v>
   <v type="logical" >  F  F  F </v>
   <v type="logical" >  F  F  F </v>
   <v type="logical" >  F  F  F </v>
   <v type="logical" >  F  F  F </v>
   <v type="logical" >  F  F  F </v>
   <v type="logical" >  F  F  F </v>
   <v type="logical" >  F  F  F </v>
   <v type="logical" >  F  F  F </v>
   <v type="logical" >  F  F  F </v>
   <v type="logical" >  F  F  F </v>
   <v type="logical" >  F  F  F </v>
   <v type="logical" >  F  F  F </v>
   <v type="logical" >  F  F  F </v>
   <v type="logical" >  F  F  F </v>
   <v type="logical" >  F  F  F </v>
   <v type="logical" >  F  F  F </v>
   <v type="logical" >  F  F  F </v>
   <v type="logical" >  F  F  F </v>
   <v type="logical" >  F  F  F </v>
   <v type="logical" >  F  F  F </v>
   <v type="logical" >  F  F  F </v>
   <v type="logical" >  F  F  F </v>
   <v type="logical" >  F  F  F </v>
   <v type="logical" >  F  F  F </v>
   <v type="logical" >  F  F  F </v>
   <v type="logical" >  F  F  F </v>
   <v type="logical" >  F  F  F </v>
   <v type="logical" >  F  F  F </v>
   <v type="logical" >  F  F  F </v>
   <v type="logical" >  F  F  F </v>
   <v type="logical" >  F  F  F </v>
   <v type="logical" >  F  F  F </v>
   <v type="logical" >  F  F  F </v>
   <v type="logical" >  F  F  F </v>
   <v type="logical" >  F  F  F </v>
   <v type="logical" >  F  F  F </v>
   <v type="logical" >  F  F  F </v>
   <v type="logical" >  F  F  F </v>
   <v type="logical" >  F  F  F </v>
   <v type="logical" >  F  F  F </v>
   <v type="logical" >  F  F  F </v>
   <v type="logical" >  F  F  F </v>
   <v type="logical" >  F  F  F </v>
   <v type="logical" >  F  F  F </v>
   <v type="logical" >  F  F  F </v>
   <v type="logical" >  F  F  F </v>
   <v type="logical" >  F  F  F </v>
   <v type="logical" >  F  F  F </v>
  </varray>
  <nose>
   <v>      -3.00000000       0.00000000       0.00010000       0.00010000 </v>
  </nose>
 </structure>
 <calculation>
  <scstep>
   <time name="dav">  364.62  364.72</time>
   <time name="total">  378.87  378.97</time>
   <energy>
    <i name="alphaZ">     75.25431677 </i>
    <i name="ewald"> 140281.99809532 </i>
    <i name="hartreedc">-183630.90420869 </i>
    <i name="XCdc">  -1701.61888864 </i>
    <i name="pawpsdc">  44873.02882129 </i>
    <i name="pawaedc"> -41398.84523641 </i>
    <i name="eentropy">      0.01836393 </i>
    <i name="bandstr">    817.52597928 </i>
    <i name="atom">  45086.50549395 </i>
    <i name="e_fr_energy">   4402.96273680 </i>
    <i name="e_wo_entrp">   4402.94437287 </i>
    <i name="e_0_energy">   4402.95814582 </i>
   </energy>
  </scstep>
  <scstep>
   <time name="dav">  576.78  576.82</time>
   <time name="total">  576.78  576.82</time>
   <energy>
    <i name="e_fr_energy">   2031.14203927 </i>
    <i name="e_wo_entrp">   2031.16808374 </i>
    <i name="e_0_energy">   2031.14855039 </i>
   </energy>
  </scstep>
  <scstep>
   <time name="dav">  487.42  487.44</time>
   <time name="total">  487.42  487.44</time>
   <energy>
    <i name="e_fr_energy">    247.39642961 </i>
    <i name="e_wo_entrp">    247.38339022 </i>
    <i name="e_0_energy">    247.39316976 </i>
   </energy>
  </scstep>
  <scstep>
   <time name="dav">  430.23  430.24</time>
   <time name="total">  430.23  430.24</time>
   <energy>
    <i name="e_fr_energy">   -132.27340252 </i>
    <i name="e_wo_entrp">   -132.25089874 </i>
    <i name="e_0_energy">   -132.26777657 </i>
   </energy>
  </scstep>
  <scstep>
   <time name="dav">  531.14  531.14</time>
   <time name="total">  557.54  557.54</time>
   <energy>
    <i name="e_fr_energy">   -179.58051181 </i>
    <i name="e_wo_entrp">   -180.05682726 </i>
    <i name="e_0_energy">   -179.69959067 </i>
   </energy>
  </scstep>
  <scstep>
   <time name="diag">   65.59   65.59</time>
   <time name="diis">  197.98  197.98</time>
   <time name="orth">   13.12   13.12</time>
   <time name="total">  316.72  316.73</time>
   <energy>
    <i name="e_fr_energy">   -178.99162236 </i>
    <i name="e_wo_entrp">   -178.64794354 </i>
    <i name="e_0_energy">   -178.90570265 </i>
   </energy>
  </scstep>
  <scstep>
   <time name="diag">   64.97   64.97</time>
   <time name="diis">  220.17  220.17</time>
   <time name="orth">   12.93   12.92</time>
   <time name="total">  337.18  337.18</time>
   <energy>
    <i name="e_fr_energy">   -181.31713143 </i>
    <i name="e_wo_entrp">   -181.21378482 </i>
    <i name="e_0_energy">   -181.29129478 </i>
   </energy>
  </scstep>
  <scstep>
   <time name="diag">   65.69   65.69</time>
   <time name="diis">  198.63  198.63</time>
   <time name="orth">   13.32   13.32</time>
   <time name="total">  316.54  316.54</time>
   <energy>
    <i name="e_fr_energy">   -183.81731731 </i>
    <i name="e_wo_entrp">   -183.77972779 </i>
    <i name="e_0_energy">   -183.80791993 </i>
   </energy>
  </scstep>
  <scstep>
   <time name="diag">   65.57   65.57</time>
   <time name="diis">  207.96  207.96</time>
   <time name="orth">   12.59   12.59</time>
   <time name="total">  324.80  324.81</time>
   <energy>
    <i name="e_fr_energy">   -181.54113284 </i>
    <i name="e_wo_entrp">   -181.31059262 </i>
    <i name="e_0_energy">   -181.48349778 </i>
   </energy>
  </scstep>
  <scstep>
   <time name="diag">   65.26   65.27</time>
   <time name="diis">  198.29  198.29</time>
   <time name="orth">   12.47   12.47</time>
   <time name="total">  314.57  314.57</time>
   <energy>
    <i name="e_fr_energy">   -178.27258918 </i>
    <i name="e_wo_entrp">   -178.21183229 </i>
    <i name="e_0_energy">   -178.25739996 </i>
   </energy>
  </scstep>
  <scstep>
   <time name="diag">   65.94   65.94</time>
   <time name="diis">  197.85  197.85</time>
   <time name="orth">   13.14   13.14</time>
   <time name="total">  315.64  315.64</time>
   <energy>
    <i name="e_fr_energy">   -177.38836263 </i>
    <i name="e_wo_entrp">   -177.45831103 </i>
    <i name="e_0_energy">   -177.40584973 </i>
   </energy>
  </scstep>
  <scstep>
   <time name="diag">   66.57   66.57</time>
   <time name="diis">  196.92  196.93</time>
   <time name="orth">   12.75   12.75</time>
   <time name="total">  314.99  315.00</time>
   <energy>
    <i name="e_fr_energy">   -176.50881114 </i>
    <i name="e_wo_entrp">   -176.48881083 </i>
    <i name="e_0_energy">   -176.50381107 </i>
   </energy>
  </scstep>
  <scstep>
   <time name="diag">   65.68   65.68</time>
   <time name="diis">  197.13  197.13</time>
   <time name="orth">   12.42   12.42</time>
   <time name="total">  313.27  313.28</time>
   <energy>
    <i name="e_fr_energy">   -176.45244181 </i>
    <i name="e_wo_entrp">   -176.43624161 </i>
    <i name="e_0_energy">   -176.44839176 </i>
   </energy>
  </scstep>
  <scstep>
   <time name="diag">   66.95   66.95</time>
   <time name="diis">  193.15  193.16</time>
   <time name="orth">   12.34   12.34</time>
   <time name="total">  310.77  310.79</time>
   <energy>
    <i name="e_fr_energy">   -176.80561116 </i>
    <i name="e_wo_entrp">   -176.85819914 </i>
    <i name="e_0_energy">   -176.81875815 </i>
   </energy>
  </scstep>
  <scstep>
   <time name="diag">   66.09   66.09</time>
   <time name="diis">  193.60  193.61</time>
   <time name="orth">   12.46   12.46</time>
   <time name="total">  310.53  310.55</time>
   <energy>
    <i name="e_fr_energy">   -175.92382161 </i>
    <i name="e_wo_entrp">   -175.98408830 </i>
    <i name="e_0_energy">   -175.93888828 </i>
   </energy>
  </scstep>
  <scstep>
   <time name="diag">   66.90   66.91</time>
   <time name="diis">  192.73  192.74</time>
   <time name="orth">   12.61   12.61</time>
   <time name="total">  310.48  310.50</time>
   <energy>
    <i name="e_fr_energy">   -175.37314692 </i>
    <i name="e_wo_entrp">   -175.47752363 </i>
    <i name="e_0_energy">   -175.39924109 </i>
   </energy>
  </scstep>
  <scstep>
   <time name="diag">   65.93   65.93</time>
   <time name="diis">  187.56  187.57</time>
   <time name="orth">   12.52   12.52</time>
   <time name="total">  305.14  305.16</time>
   <energy>
    <i name="e_fr_energy">   -174.88722415 </i>
    <i name="e_wo_entrp">   -174.90170196 </i>
    <i name="e_0_energy">   -174.89084360 </i>
   </energy>
  </scstep>
  <scstep>
   <time name="diag">   67.01   67.01</time>
   <time name="diis">  185.48  185.49</time>
   <time name="orth">   12.90   12.90</time>
   <time name="total">  304.40  304.42</time>
   <energy>
    <i name="e_fr_energy">   -174.86752475 </i>
    <i name="e_wo_entrp">   -174.90201091 </i>
    <i name="e_0_energy">   -174.87614629 </i>
   </energy>
  </scstep>
  <scstep>
   <time name="diag">   65.61   65.61</time>
   <time name="diis">  185.68  185.69</time>
   <time name="orth">   12.31   12.31</time>
   <time name="total">  302.58  302.60</time>
   <energy>
    <i name="e_fr_energy">   -174.69792147 </i>
    <i name="e_wo_entrp">   -174.68185053 </i>
    <i name="e_0_energy">   -174.69390374 </i>
   </energy>
  </scstep>
  <scstep>
   <time name="diag">   63.98   63.99</time>
   <time name="diis">  179.35  179.37</time>
   <time name="orth">   12.63   12.63</time>
   <time name="total">  294.70  294.72</time>
   <energy>
    <i name="e_fr_energy">   -174.70755100 </i>
    <i name="e_wo_entrp">   -174.70543379 </i>
    <i name="e_0_energy">   -174.70702170 </i>
   </energy>
  </scstep>
  <scstep>
   <time name="diag">   66.26   66.26</time>
   <time name="diis">  185.25  185.26</time>
   <time name="orth">   12.67   12.67</time>
   <time name="total">  303.73  303.75</time>
   <energy>
    <i name="e_fr_energy">   -174.52062962 </i>
    <i name="e_wo_entrp">   -174.51842868 </i>
    <i name="e_0_energy">   -174.52007938 </i>
   </energy>
  </scstep>
  <scstep>
   <time name="diag">   66.78   66.78</time>
   <time name="diis">  183.13  183.14</time>
   <time name="orth">   12.87   12.87</time>
   <time name="total">  302.85  302.87</time>
   <energy>
    <i name="e_fr_energy">   -174.46125812 </i>
    <i name="e_wo_entrp">   -174.42397018 </i>
    <i name="e_0_energy">   -174.45193614 </i>
   </energy>
  </scstep>
  <scstep>
   <time name="diag">   66.41   66.41</time>
   <time name="diis">  182.15  182.16</time>
   <time name="orth">   12.75   12.75</time>
   <time name="total">  301.33  301.35</time>
   <energy>
    <i name="e_fr_energy">   -174.40004507 </i>
    <i name="e_wo_entrp">   -174.36792875 </i>
    <i name="e_0_energy">   -174.39201599 </i>
   </energy>
  </scstep>
  <scstep>
   <time name="diag">   65.12   65.12</time>
   <time name="diis">  184.42  184.42</time>
   <time name="orth">   12.65   12.65</time>
   <time name="total">  301.44  301.45</time>
   <energy>
    <i name="e_fr_energy">   -174.34918321 </i>
    <i name="e_wo_entrp">   -174.32833257 </i>
    <i name="e_0_energy">   -174.34397055 </i>
   </energy>
  </scstep>
  <scstep>
   <time name="diag">   65.70   65.71</time>
   <time name="diis">  182.30  182.31</time>
   <time name="orth">   12.77   12.77</time>
   <time name="total">  299.99  300.02</time>
   <energy>
    <i name="e_fr_energy">   -174.31940500 </i>
    <i name="e_wo_entrp">   -174.29465257 </i>
    <i name="e_0_energy">   -174.31321690 </i>
   </energy>
  </scstep>
  <scstep>
   <time name="diag">   66.79   66.79</time>
   <time name="diis">  183.23  183.25</time>
   <time name="orth">   12.94   12.94</time>
   <time name="total">  303.20  303.23</time>
   <energy>
    <i name="e_fr_energy">   -174.28393250 </i>
    <i name="e_wo_entrp">   -174.24589825 </i>
    <i name="e_0_energy">   -174.27442394 </i>
   </energy>
  </scstep>
  <scstep>
   <time name="diag">   65.97   65.98</time>
   <time name="diis">  183.33  183.34</time>
   <time name="orth">   13.05   13.05</time>
   <time name="total">  301.58  301.60</time>
   <energy>
    <i name="e_fr_energy">   -174.28395286 </i>
    <i name="e_wo_entrp">   -174.24440908 </i>
    <i name="e_0_energy">   -174.27406691 </i>
   </energy>
  </scstep>
  <scstep>
   <time name="diag">   65.11   65.12</time>
   <time name="diis">  182.26  182.27</time>
   <time name="orth">   12.67   12.67</time>
   <time name="total">  299.53  299.54</time>
   <energy>
    <i name="e_fr_energy">   -174.26961115 </i>
    <i name="e_wo_entrp">   -174.23052191 </i>
    <i name="e_0_energy">   -174.25983884 </i>
   </energy>
  </scstep>
  <scstep>
   <time name="diag">   65.84   65.84</time>
   <time name="diis">  185.70  185.70</time>
   <time name="orth">   12.71   12.71</time>
   <time name="total">  304.48  304.48</time>
   <energy>
    <i name="e_fr_energy">   -174.25914675 </i>
    <i name="e_wo_entrp">   -174.22582839 </i>
    <i name="e_0_energy">   -174.25081716 </i>
   </energy>
  </scstep>
  <scstep>
   <time name="diag">   65.67   65.67</time>
   <time name="diis">  186.49  186.49</time>
   <time name="orth">   12.99   12.99</time>
   <time name="total">  305.69  305.70</time>
   <energy>
    <i name="e_fr_energy">   -174.25723743 </i>
    <i name="e_wo_entrp">   -174.22389649 </i>
    <i name="e_0_energy">   -174.24890220 </i>
   </energy>
  </scstep>
  <scstep>
   <time name="diag">   64.71   64.71</time>
   <time name="diis">  184.07  184.07</time>
   <time name="orth">   12.89   12.89</time>
   <time name="total">  302.44  302.44</time>
   <energy>
    <i name="e_fr_energy">   -174.25232939 </i>
    <i name="e_wo_entrp">   -174.21014782 </i>
    <i name="e_0_energy">   -174.24178399 </i>
   </energy>
  </scstep>
  <scstep>
   <time name="diag">   66.10   66.10</time>
   <time name="diis">  182.83  182.83</time>
   <time name="orth">   12.75   12.75</time>
   <time name="total">  302.59  302.59</time>
   <energy>
    <i name="e_fr_energy">   -174.24981723 </i>
    <i name="e_wo_entrp">   -174.20646358 </i>
    <i name="e_0_energy">   -174.23897882 </i>
   </energy>
  </scstep>
  <scstep>
   <time name="diag">   65.36   65.36</time>
   <time name="diis">  179.06  179.06</time>
   <time name="orth">   12.74   12.74</time>
   <time name="total">  297.22  297.22</time>
   <energy>
    <i name="e_fr_energy">   -174.25052544 </i>
    <i name="e_wo_entrp">   -174.20926631 </i>
    <i name="e_0_energy">   -174.24021066 </i>
   </energy>
  </scstep>
  <scstep>
   <time name="diag">   61.40   61.40</time>
   <time name="diis">  174.12  174.12</time>
   <time name="orth">   12.95   12.95</time>
   <time name="total">  289.03  289.04</time>
   <energy>
    <i name="e_fr_energy">   -174.24985635 </i>
    <i name="e_wo_entrp">   -174.21322927 </i>
    <i name="e_0_energy">   -174.24069958 </i>
   </energy>
  </scstep>
  <scstep>
   <time name="diag">   66.28   66.28</time>
   <time name="diis">  179.36  179.37</time>
   <time name="orth">   12.87   12.87</time>
   <time name="total">  299.49  299.51</time>
   <energy>
    <i name="e_fr_energy">   -174.25091874 </i>
    <i name="e_wo_entrp">   -174.21342936 </i>
    <i name="e_0_energy">   -174.24154639 </i>
   </energy>
  </scstep>
  <scstep>
   <time name="diag">   65.98   65.98</time>
   <time name="diis">  178.75  178.76</time>
   <time name="orth">   12.92   12.92</time>
   <time name="total">  298.81  298.82</time>
   <energy>
    <i name="e_fr_energy">   -174.25294240 </i>
    <i name="e_wo_entrp">   -174.21565969 </i>
    <i name="e_0_energy">   -174.24362172 </i>
   </energy>
  </scstep>
  <scstep>
   <time name="diag">   66.14   66.14</time>
   <time name="diis">  172.84  172.85</time>
   <time name="orth">   12.88   12.88</time>
   <time name="total">  293.10  293.11</time>
   <energy>
    <i name="e_fr_energy">   -174.25436943 </i>
    <i name="e_wo_entrp">   -174.21638222 </i>
    <i name="e_0_energy">   -174.24487263 </i>
   </energy>
  </scstep>
  <scstep>
   <time name="diag">   65.84   65.84</time>
   <time name="diis">  160.19  160.20</time>
   <time name="orth">   12.89   12.89</time>
   <time name="total">  280.40  280.42</time>
   <energy>
    <i name="e_fr_energy">   -174.25664650 </i>
    <i name="e_wo_entrp">   -174.21681444 </i>
    <i name="e_0_energy">   -174.24668848 </i>
   </energy>
  </scstep>
  <scstep>
   <time name="diag">   66.04   66.04</time>
   <time name="diis">  162.37  162.37</time>
   <time name="orth">   12.48   12.48</time>
   <time name="total">  282.66  282.67</time>
   <energy>
    <i name="e_fr_energy">   -174.25989094 </i>
    <i name="e_wo_entrp">   -174.22176802 </i>
    <i name="e_0_energy">   -174.25036021 </i>
   </energy>
  </scstep>
  <scstep>
   <time name="diag">   65.73   65.73</time>
   <time name="diis">  134.50  134.50</time>
   <time name="orth">   12.64   12.64</time>
   <time name="total">  254.26  254.27</time>
   <energy>
    <i name="e_fr_energy">   -174.26195968 </i>
    <i name="e_wo_entrp">   -174.22383862 </i>
    <i name="e_0_energy">   -174.25242942 </i>
   </energy>
  </scstep>
  <scstep>
   <time name="diag">   65.60   65.60</time>
   <time name="diis">  149.93  149.93</time>
   <time name="orth">   12.39   12.39</time>
   <time name="total">  269.43  269.44</time>
   <energy>
    <i name="e_fr_energy">   -174.26500409 </i>
    <i name="e_wo_entrp">   -174.22577843 </i>
    <i name="e_0_energy">   -174.25519768 </i>
   </energy>
  </scstep>
  <scstep>
   <time name="diag">   64.91   64.92</time>
   <time name="diis">  120.41  120.41</time>
   <time name="orth">   12.35   12.35</time>
   <time name="total">  239.07  239.08</time>
   <energy>
    <i name="e_fr_energy">   -174.26634712 </i>
    <i name="e_wo_entrp">   -174.22792125 </i>
    <i name="e_0_energy">   -174.25674065 </i>
   </energy>
  </scstep>
  <scstep>
   <time name="diag">   63.99   63.99</time>
   <time name="diis">  125.20  125.20</time>
   <time name="orth">   12.82   12.82</time>
   <time name="total">  244.95  244.96</time>
   <energy>
    <i name="e_fr_energy">   -174.26856063 </i>
    <i name="e_wo_entrp">   -174.23015151 </i>
    <i name="e_0_energy">   -174.25895835 </i>
   </energy>
  </scstep>
  <scstep>
   <time name="diag">   66.99   66.99</time>
   <time name="diis">  120.33  120.34</time>
   <time name="orth">   12.68   12.69</time>
   <time name="total">  242.80  242.82</time>
   <energy>
    <i name="e_fr_energy">   -174.27007601 </i>
    <i name="e_wo_entrp">   -174.23211424 </i>
    <i name="e_0_energy">   -174.26058557 </i>
   </energy>
  </scstep>
  <scstep>
   <time name="diag">   67.29   67.30</time>
   <time name="diis">  119.74  119.74</time>
   <time name="orth">   13.17   13.17</time>
   <time name="total">  244.17  244.18</time>
   <energy>
    <i name="e_fr_energy">   -174.27145729 </i>
    <i name="e_wo_entrp">   -174.23385480 </i>
    <i name="e_0_energy">   -174.26205667 </i>
   </energy>
  </scstep>
  <scstep>
   <time name="diag">   65.80   65.80</time>
   <time name="diis">  122.85  122.86</time>
   <time name="orth">   12.92   12.92</time>
   <time name="total">  245.32  245.33</time>
   <energy>
    <i name="e_fr_energy">   -174.27322359 </i>
    <i name="e_wo_entrp">   -174.23525403 </i>
    <i name="e_0_energy">   -174.26373120 </i>
   </energy>
  </scstep>
  <scstep>
   <time name="diag">   67.58   67.59</time>
   <time name="diis">  118.37  118.37</time>
   <time name="orth">   12.89   12.89</time>
   <time name="total">  241.69  241.70</time>
   <energy>
    <i name="e_fr_energy">   -174.27366784 </i>
    <i name="e_wo_entrp">   -174.23589431 </i>
    <i name="e_0_energy">   -174.26422446 </i>
   </energy>
  </scstep>
  <scstep>
   <time name="diag">   66.55   66.55</time>
   <time name="diis">  118.29  118.29</time>
   <time name="orth">   12.82   12.82</time>
   <time name="total">  240.55  240.56</time>
   <energy>
    <i name="e_fr_energy">   -174.27473189 </i>
    <i name="e_wo_entrp">   -174.23662603 </i>
    <i name="e_0_energy">   -174.26520543 </i>
   </energy>
  </scstep>
  <scstep>
   <time name="diag">   66.09   66.09</time>
   <time name="diis">  114.51  114.51</time>
   <time name="orth">   13.22   13.22</time>
   <time name="total">  237.63  237.64</time>
   <energy>
    <i name="e_fr_energy">   -174.27528876 </i>
    <i name="e_wo_entrp">   -174.23730772 </i>
    <i name="e_0_energy">   -174.26579350 </i>
   </energy>
  </scstep>
  <scstep>
   <time name="diag">   65.50   65.51</time>
   <time name="diis">  100.44  100.44</time>
   <time name="orth">   12.97   12.97</time>
   <time name="total">  222.82  222.83</time>
   <energy>
    <i name="e_fr_energy">   -174.27569248 </i>
    <i name="e_wo_entrp">   -174.23777259 </i>
    <i name="e_0_energy">   -174.26621251 </i>
   </energy>
  </scstep>
  <scstep>
   <time name="diag">   67.59   67.60</time>
   <time name="diis">  107.53  107.53</time>
   <time name="orth">   12.57   12.57</time>
   <time name="total">  230.58  230.59</time>
   <energy>
    <i name="e_fr_energy">   -174.27655261 </i>
    <i name="e_wo_entrp">   -174.23862952 </i>
    <i name="e_0_energy">   -174.26707184 </i>
   </energy>
  </scstep>
  <scstep>
   <time name="diag">   66.83   66.83</time>
   <time name="diis">   86.42   86.43</time>
   <time name="orth">   12.99   12.99</time>
   <time name="total">  209.06  209.06</time>
   <energy>
    <i name="e_fr_energy">   -174.27679321 </i>
    <i name="e_wo_entrp">   -174.23894825 </i>
    <i name="e_0_energy">   -174.26733197 </i>
   </energy>
  </scstep>
  <scstep>
   <time name="diag">   65.26   65.26</time>
   <time name="diis">  102.70  102.71</time>
   <time name="orth">   13.05   13.05</time>
   <time name="total">  224.87  224.88</time>
   <energy>
    <i name="e_fr_energy">   -174.27736518 </i>
    <i name="e_wo_entrp">   -174.23945576 </i>
    <i name="e_0_energy">   -174.26788783 </i>
   </energy>
  </scstep>
  <scstep>
   <time name="diag">   66.33   66.33</time>
   <time name="diis">   86.50   86.50</time>
   <time name="orth">   12.27   12.27</time>
   <time name="total">  208.43  208.43</time>
   <energy>
    <i name="e_fr_energy">   -174.27757910 </i>
    <i name="e_wo_entrp">   -174.23965149 </i>
    <i name="e_0_energy">   -174.26809720 </i>
   </energy>
  </scstep>
  <scstep>
   <time name="diag">   66.96   66.97</time>
   <time name="diis">   84.61   84.62</time>
   <time name="orth">   11.98   11.98</time>
   <time name="total">  204.76  204.76</time>
   <energy>
    <i name="e_fr_energy">   -174.27772742 </i>
    <i name="e_wo_entrp">   -174.23977503 </i>
    <i name="e_0_energy">   -174.26823933 </i>
   </energy>
  </scstep>
  <scstep>
   <time name="diag">   64.60   64.60</time>
   <time name="diis">   84.35   84.36</time>
   <time name="orth">   13.04   13.04</time>
   <time name="total">  204.38  204.39</time>
   <energy>
    <i name="e_fr_energy">   -174.27787867 </i>
    <i name="e_wo_entrp">   -174.23994840 </i>
    <i name="e_0_energy">   -174.26839610 </i>
   </energy>
  </scstep>
  <scstep>
   <time name="diag">   65.56   65.56</time>
   <time name="diis">   77.02   77.02</time>
   <time name="orth">   12.42   12.42</time>
   <time name="total">  168.73  168.73</time>
   <energy>
    <i name="alphaZ">     75.25431677 </i>
    <i name="ewald"> 140281.99809532 </i>
    <i name="hartreedc">-184642.55180895 </i>
    <i name="XCdc">  -1690.83067676 </i>
    <i name="pawpsdc">  46312.74308448 </i>
    <i name="pawaedc"> -42783.45808402 </i>
    <i name="eentropy">     -0.03790798 </i>
    <i name="bandstr">  -2813.90046409 </i>
    <i name="atom">  45086.50549395 </i>
    <i name="e_fr_energy">   -174.27795128 </i>
    <i name="e_wo_entrp">   -174.24004330 </i>
    <i name="e_0_energy">   -174.26847428 </i>
   </energy>
  </scstep>
  <structure>
   <crystal>
    <varray name="basis" >
     <v>      30.00000000       0.00000000       0.00000000 </v>
     <v>       0.00000000      30.00000000       0.00000000 </v>
     <v>       0.00000000       0.00000000      30.00000000 </v>
    </varray>
    <i name="volume">  27000.00000000 </i>
    <varray name="rec_basis" >
     <v>       0.03333333       0.00000000       0.00000000 </v>
     <v>       0.00000000       0.03333333       0.00000000 </v>
     <v>       0.00000000       0.00000000       0.03333333 </v>
    </varray>
   </crystal>
   <varray name="positions" >
    <v>       0.44576020       0.32826710       0.41691983 </v>
    <v>       0.67173288       0.55423978       0.41691983 </v>
    <v>       0.55423980       0.32826710       0.41691983 </v>
    <v>       0.32826712       0.55423978       0.41691983 </v>
    <v>       0.50000000       0.38250690       0.34021317 </v>
    <v>       0.50000000       0.38250690       0.65978680 </v>
    <v>       0.50000000       0.27609440       0.50000000 </v>
    <v>       0.27609443       0.49999998       0.50000000 </v>
    <v>       0.72390557       0.49999998       0.50000000 </v>
    <v>       0.50000000       0.72390555       0.50000000 </v>
    <v>       0.61195280       0.38804720       0.34167483 </v>
    <v>       0.61195280       0.38804720       0.65832513 </v>
    <v>       0.38804722       0.61195278       0.34167483 </v>
    <v>       0.38804722       0.61195278       0.65832513 </v>
    <v>       0.38804720       0.38804720       0.34167483 </v>
    <v>       0.38804720       0.38804720       0.65832513 </v>
    <v>       0.61195278       0.61195278       0.34167483 </v>
    <v>       0.61195278       0.61195278       0.65832513 </v>
    <v>       0.44576020       0.32826710       0.58308023 </v>
    <v>       0.67173288       0.55423978       0.58308023 </v>
    <v>       0.55791699       0.44208301       0.41809300 </v>
    <v>       0.32826705       0.44576024       0.41691983 </v>
    <v>       0.55423973       0.67173293       0.41691983 </v>
    <v>       0.55423980       0.32826710       0.58308023 </v>
    <v>       0.32826712       0.55423978       0.58308023 </v>
    <v>       0.67173295       0.44576024       0.41691983 </v>
    <v>       0.44576027       0.67173293       0.41691983 </v>
    <v>       0.44208301       0.44208301       0.41809300 </v>
    <v>       0.50000000       0.38416601       0.50000000 </v>
    <v>       0.61749315       0.50000005       0.34021317 </v>
    <v>       0.61749315       0.50000005       0.65978680 </v>
    <v>       0.38250685       0.50000005       0.34021317 </v>
    <v>       0.38250685       0.50000005       0.65978680 </v>
    <v>       0.38317830       0.38317830       0.50000000 </v>
    <v>       0.61682172       0.61682172       0.50000000 </v>
    <v>       0.61682170       0.38317830       0.50000000 </v>
    <v>       0.38317828       0.61682172       0.50000000 </v>
    <v>       0.50000000       0.50000000       0.33478917 </v>
    <v>       0.50000000       0.50000000       0.66521087 </v>
    <v>       0.32826705       0.44576024       0.58308023 </v>
    <v>       0.55423973       0.67173293       0.58308023 </v>
    <v>       0.55791699       0.44208301       0.58190703 </v>
    <v>       0.44208298       0.55791702       0.41809300 </v>
    <v>       0.44208301       0.44208301       0.58190703 </v>
    <v>       0.67173295       0.44576024       0.58308023 </v>
    <v>       0.44576027       0.67173293       0.58308023 </v>
    <v>       0.55791702       0.55791702       0.41809300 </v>
    <v>       0.38416599       0.50000002       0.50000000 </v>
    <v>       0.61583401       0.50000002       0.50000000 </v>
    <v>       0.50000000       0.61749319       0.34021317 </v>
    <v>       0.50000000       0.61749319       0.65978680 </v>
    <v>       0.50000000       0.50000000       0.50000000 </v>
    <v>       0.44208298       0.55791702       0.58190703 </v>
    <v>       0.55791702       0.55791702       0.58190703 </v>
    <v>       0.50000000       0.61583404       0.50000000 </v>
    <v>       0.53664480       0.45607643       0.67422777 </v>
    <v>       0.54415850       0.44707030       0.70995160 </v>
   </varray>
  </structure>
  <varray name="forces" >
   <v>       0.69638677       1.11295511       0.28321274 </v>
   <v>      -1.11224362      -0.69510498       0.28165908 </v>
   <v>      -0.70026155       1.11338122       0.29264342 </v>
   <v>       1.10802541      -0.69623879       0.29171838 </v>
   <v>      -0.00057573       0.41851987       1.27803381 </v>
   <v>       0.10542673       0.67882097      -1.35711031 </v>
   <v>       0.01401157       1.50696651       0.02335656 </v>
   <v>       1.51185308      -0.00428187       0.00449488 </v>
   <v>      -1.50474468      -0.01137598       0.02077074 </v>
   <v>       0.00410929      -1.51201691       0.00329743 </v>
   <v>      -0.75462995       0.75469107       1.07134696 </v>
   <v>      -0.57499050       0.60285706      -1.09550828 </v>
   <v>       0.74946850      -0.75032989       1.07697835 </v>
   <v>       0.76477023      -0.76488124      -1.05841726 </v>
   <v>       0.75520044       0.75162465       1.07212317 </v>
   <v>       0.71639499       0.73857700      -1.07168015 </v>
   <v>      -0.75042835      -0.75521347       1.07228881 </v>
   <v>      -0.74281949      -0.73303877      -1.07023483 </v>
   <v>       0.69333582       1.08891700      -0.30772739 </v>
   <v>      -1.09296443      -0.69505807      -0.30331680 </v>
   <v>       0.11158411      -0.11101951      -0.15640932 </v>
   <v>       1.10934176       0.69845204       0.28858214 </v>
   <v>      -0.69784420      -1.10855660       0.28878044 </v>
   <v>      -0.71458003       1.06593793      -0.35618853 </v>
   <v>       1.11725129      -0.70014886      -0.29080571 </v>
   <v>      -1.11362409       0.70042465       0.29233838 </v>
   <v>       0.69598594      -1.10705796       0.29150379 </v>
   <v>      -0.11044219      -0.10824466      -0.15702069 </v>
   <v>       0.00053101      -0.23200805       0.00147282 </v>
   <v>      -0.41748480       0.00067598       1.27731909 </v>
   <v>      -0.47764979      -0.00979230      -1.32298979 </v>
   <v>       0.40886274      -0.00787424       1.27913835 </v>
   <v>       0.32726541       0.02103877      -1.29481326 </v>
   <v>       0.82905316       0.83398369       0.00647196 </v>
   <v>      -0.83259393      -0.82865751       0.00482659 </v>
   <v>      -0.84378861       0.84719223       0.01675564 </v>
   <v>       0.82252050      -0.82181732      -0.01303290 </v>
   <v>       0.00927559      -0.01070289       1.18010330 </v>
   <v>      -2.90118692       3.58013585      -2.62902589 </v>
   <v>       1.10975239       0.69553008      -0.29921307 </v>
   <v>      -0.69543608      -1.10934804      -0.29953475 </v>
   <v>       0.11310789      -0.11152961       0.35211311 </v>
   <v>      -0.11500748       0.11453490      -0.14964684 </v>
   <v>      -0.21493046      -0.12877046       0.07778647 </v>
   <v>      -1.07852011       0.71625283      -0.33864305 </v>
   <v>       0.69942124      -1.11802108      -0.29161759 </v>
   <v>       0.10945609       0.10991967      -0.15532206 </v>
   <v>      -0.22423159       0.00371873      -0.00245243 </v>
   <v>       0.23056296      -0.00295712       0.00312965 </v>
   <v>       0.00787704      -0.40778928       1.27979417 </v>
   <v>      -0.01847629      -0.32782605      -1.29082288 </v>
   <v>       0.00336239      -0.00322994      -0.01282791 </v>
   <v>      -0.13359962       0.13650503       0.13483300 </v>
   <v>       0.13034641       0.19956749       0.09605384 </v>
   <v>      -0.00343781       0.22387313      -0.00088248 </v>
   <v>       0.30576393      -1.08171841      -6.59593662 </v>
   <v>       2.56618762      -2.76044362       8.27825372 </v>
  </varray>
  <varray name="stress" >
   <v>      -6.45827997      -0.30067871       0.22157017 </v>
   <v>      -0.30067873      -6.38412758      -0.24967737 </v>
   <v>       0.22157020      -0.24967738      -6.19641140 </v>
  </varray>
  <energy>
   <i name="e_fr_energy">   -174.27795128 </i>
   <i name="e_wo_entrp">   -174.26847428 </i>
   <i name="e_0_energy">     -0.03790798 </i>
  </energy>
  <time name="totalsc">17266.8017267.55</time>
  <eigenvalues>
   <array>
    <dimension dim="1">band</dimension>
    <dimension dim="2">kpoint</dimension>
    <dimension dim="3">spin</dimension>
    <field>eigene</field>
    <field>occ</field>
    <set>
     <set comment="spin 1">
      <set comment="kpoint 1">
       <r>  -28.3507    1.0000 </r>
       <r>  -13.6229    1.0000 </r>
       <r>  -11.5891    1.0000 </r>
       <r>  -11.3131    1.0000 </r>
       <r>  -10.5575    1.0000 </r>
       <r>   -6.6991    1.0000 </r>
       <r>   -6.5735    1.0000 </r>
       <r>   -6.4717    1.0000 </r>
       <r>   -6.1428    1.0000 </r>
       <r>   -6.1225    1.0000 </r>
       <r>   -6.0846    1.0000 </r>
       <r>   -5.8611    1.0000 </r>
       <r>   -5.8460    1.0000 </r>
       <r>   -5.7963    1.0000 </r>
       <r>   -5.7894    1.0000 </r>
       <r>   -5.7489    1.0000 </r>
       <r>   -5.7252    1.0000 </r>
       <r>   -5.7088    1.0000 </r>
       <r>   -5.6830    1.0000 </r>
       <r>   -5.6724    1.0000 </r>
       <r>   -5.6678    1.0000 </r>
       <r>   -5.6655    1.0000 </r>
       <r>   -5.6182    1.0000 </r>
       <r>   -5.5933    1.0000 </r>
       <r>   -5.5885    1.0000 </r>
       <r>   -5.5827    1.0000 </r>
       <r>   -5.5794    1.0000 </r>
       <r>   -5.5577    1.0000 </r>
       <r>   -5.5324    1.0000 </r>
       <r>   -5.5270    1.0000 </r>
       <r>   -5.5197    1.0000 </r>
       <r>   -5.5141    1.0000 </r>
       <r>   -5.5122    1.0000 </r>
       <r>   -5.5050    1.0000 </r>
       <r>   -5.5021    1.0000 </r>
       <r>   -5.4977    1.0000 </r>
       <r>   -5.4913    1.0000 </r>
       <r>   -5.4884    1.0000 </r>
       <r>   -5.4763    1.0000 </r>
       <r>   -5.4754    1.0000 </r>
       <r>   -5.4681    1.0000 </r>
       <r>   -5.4623    1.0000 </r>
       <r>   -5.4595    1.0000 </r>
       <r>   -5.4555    1.0000 </r>
       <r>   -5.4504    1.0000 </r>
       <r>   -5.4467    1.0000 </r>
       <r>   -5.4355    1.0000 </r>
       <r>   -5.4253    1.0000 </r>
       <r>   -5.4152    1.0000 </r>
       <r>   -5.4109    1.0000 </r>
       <r>   -5.4033    1.0000 </r>
       <r>   -5.3973    1.0000 </r>
       <r>   -5.3961    1.0000 </r>
       <r>   -5.3892    1.0000 </r>
       <r>   -5.3797    1.0000 </r>
       <r>   -5.3732    1.0000 </r>
       <r>   -5.3610    1.0000 </r>
       <r>   -5.3556    1.0000 </r>
       <r>   -5.3509    1.0000 </r>
       <r>   -5.3279    1.0000 </r>
       <r>   -5.3143    1.0000 </r>
       <r>   -5.3051    1.0000 </r>
       <r>   -5.3025    1.0000 </r>
       <r>   -5.3002    1.0000 </r>
       <r>   -5.2982    1.0000 </r>
       <r>   -5.2910    1.0000 </r>
       <r>   -5.2891    1.0000 </r>
       <r>   -5.2868    1.0000 </r>
       <r>   -5.2643    1.0000 </r>
       <r>   -5.2610    1.0000 </r>
       <r>   -5.2414    1.0000 </r>
       <r>   -5.2153    1.0000 </r>
       <r>   -5.1851    1.0000 </r>
       <r>   -5.1811    1.0000 </r>
       <r>   -5.1737    1.0000 </r>
       <r>   -5.1659    1.0000 </r>
       <r>   -5.1657    1.0000 </r>
       <r>   -5.1634    1.0000 </r>
       <r>   -5.1617    1.0000 </r>
       <r>   -5.1563    1.0000 </r>
       <r>   -5.1400    1.0000 </r>
       <r>   -5.1374    1.0000 </r>
       <r>   -5.1313    1.0000 </r>
       <r>   -5.1296    1.0000 </r>
       <r>   -5.1125    1.0000 </r>
       <r>   -5.1083    1.0000 </r>
       <r>   -5.1049    1.0000 </r>
       <r>   -5.0897    1.0000 </r>
       <r>   -5.0873    1.0000 </r>
       <r>   -5.0771    1.0000 </r>
       <r>   -5.0724    1.0000 </r>
       <r>   -5.0536    1.0000 </r>
       <r>   -5.0496    1.0000 </r>
       <r>   -5.0397    1.0000 </r>
       <r>   -5.0373    1.0000 </r>
       <r>   -5.0349    1.0000 </r>
       <r>   -5.0330    1.0000 </r>
       <r>   -5.0254    1.0000 </r>
       <r>   -5.0129    1.0000 </r>
       <r>   -5.0098    1.0000 </r>
       <r>   -5.0060    1.0000 </r>
       <r>   -5.0029    1.0000 </r>
       <r>   -4.9999    1.0000 </r>
       <r>   -4.9962    1.0000 </r>
       <r>   -4.9926    1.0000 </r>
       <r>   -4.9902    1.0000 </r>
       <r>   -4.9889    1.0000 </r>
       <r>   -4.9845    1.0000 </r>
       <r>   -4.9729    1.0000 </r>
       <r>   -4.9657    1.0000 </r>
       <r>   -4.9645    1.0000 </r>
       <r>   -4.9636    1.0000 </r>
       <r>   -4.9591    1.0000 </r>
       <r>   -4.9554    1.0000 </r>
       <r>   -4.9455    1.0000 </r>
       <r>   -4.9417    1.0000 </r>
       <r>   -4.9386    1.0000 </r>
       <r>   -4.9364    1.0000 </r>
       <r>   -4.9163    1.0000 </r>
       <r>   -4.9125    1.0000 </r>
       <r>   -4.9066    1.0000 </r>
       <r>   -4.9058    1.0000 </r>
       <r>   -4.8989    1.0000 </r>
       <r>   -4.8959    1.0000 </r>
       <r>   -4.8862    1.0000 </r>
       <r>   -4.8859    1.0000 </r>
       <r>   -4.8708    1.0000 </r>
       <r>   -4.8681    1.0000 </r>
       <r>   -4.8585    1.0000 </r>
       <r>   -4.8546    1.0000 </r>
       <r>   -4.8350    1.0000 </r>
       <r>   -4.8266    1.0000 </r>
       <r>   -4.8233    1.0000 </r>
       <r>   -4.8217    1.0000 </r>
       <r>   -4.8206    1.0000 </r>
       <r>   -4.8152    1.0000 </r>
       <r>   -4.8079    1.0000 </r>
       <r>   -4.8009    1.0000 </r>
       <r>   -4.7944    0.9999 </r>
       <r>   -4.7869    0.9999 </r>
       <r>   -4.7842    0.9999 </r>
       <r>   -4.7569    0.9998 </r>
       <r>   -4.7432    0.9998 </r>
       <r>   -4.7349    0.9997 </r>
       <r>   -4.7221    0.9996 </r>
       <r>   -4.7218    0.9996 </r>
       <r>   -4.7208    0.9996 </r>
       <r>   -4.7192    0.9996 </r>
       <r>   -4.7111    0.9995 </r>
       <r>   -4.7011    0.9994 </r>
       <r>   -4.6966    0.9994 </r>
       <r>   -4.6880    0.9993 </r>
       <r>   -4.6835    0.9992 </r>
       <r>   -4.6699    0.9989 </r>
       <r>   -4.6660    0.9989 </r>
       <r>   -4.6639    0.9988 </r>
       <r>   -4.6575    0.9987 </r>
       <r>   -4.6568    0.9987 </r>
       <r>   -4.6550    0.9986 </r>
       <r>   -4.6475    0.9984 </r>
       <r>   -4.6425    0.9983 </r>
       <r>   -4.6420    0.9983 </r>
       <r>   -4.6369    0.9981 </r>
       <r>   -4.6349    0.9981 </r>
       <r>   -4.6331    0.9980 </r>
       <r>   -4.6282    0.9979 </r>
       <r>   -4.6271    0.9978 </r>
       <r>   -4.6246    0.9978 </r>
       <r>   -4.6176    0.9975 </r>
       <r>   -4.6166    0.9975 </r>
       <r>   -4.6111    0.9973 </r>
       <r>   -4.6093    0.9972 </r>
       <r>   -4.5914    0.9966 </r>
       <r>   -4.5829    0.9962 </r>
       <r>   -4.5804    0.9961 </r>
       <r>   -4.5794    0.9961 </r>
       <r>   -4.5766    0.9960 </r>
       <r>   -4.5738    0.9959 </r>
       <r>   -4.5711    0.9958 </r>
       <r>   -4.5628    0.9956 </r>
       <r>   -4.5562    0.9954 </r>
       <r>   -4.5511    0.9953 </r>
       <r>   -4.5443    0.9951 </r>
       <r>   -4.5405    0.9951 </r>
       <r>   -4.5362    0.9951 </r>
       <r>   -4.5350    0.9951 </r>
       <r>   -4.5337    0.9951 </r>
       <r>   -4.5318    0.9951 </r>
       <r>   -4.5317    0.9951 </r>
       <r>   -4.5186    0.9953 </r>
       <r>   -4.5029    0.9960 </r>
       <r>   -4.5018    0.9961 </r>
       <r>   -4.5001    0.9962 </r>
       <r>   -4.4913    0.9970 </r>
       <r>   -4.4890    0.9972 </r>
       <r>   -4.4789    0.9985 </r>
       <r>   -4.4754    0.9991 </r>
       <r>   -4.4682    1.0004 </r>
       <r>   -4.4661    1.0008 </r>
       <r>   -4.4620    1.0016 </r>
       <r>   -4.4590    1.0023 </r>
       <r>   -4.4544    1.0034 </r>
       <r>   -4.4533    1.0037 </r>
       <r>   -4.4499    1.0046 </r>
       <r>   -4.4452    1.0059 </r>
       <r>   -4.4418    1.0069 </r>
       <r>   -4.4395    1.0077 </r>
       <r>   -4.4350    1.0092 </r>
       <r>   -4.4281    1.0116 </r>
       <r>   -4.4234    1.0134 </r>
       <r>   -4.4139    1.0173 </r>
       <r>   -4.4050    1.0212 </r>
       <r>   -4.3995    1.0237 </r>
       <r>   -4.3971    1.0248 </r>
       <r>   -4.3936    1.0265 </r>
       <r>   -4.3917    1.0274 </r>
       <r>   -4.3883    1.0290 </r>
       <r>   -4.3851    1.0306 </r>
       <r>   -4.3843    1.0310 </r>
       <r>   -4.3823    1.0319 </r>
       <r>   -4.3734    1.0361 </r>
       <r>   -4.3721    1.0368 </r>
       <r>   -4.3462    1.0473 </r>
       <r>   -4.3393    1.0493 </r>
       <r>   -4.3350    1.0502 </r>
       <r>   -4.3320    1.0508 </r>
       <r>   -4.3253    1.0515 </r>
       <r>   -4.3203    1.0516 </r>
       <r>   -4.3181    1.0515 </r>
       <r>   -4.3171    1.0514 </r>
       <r>   -4.3130    1.0509 </r>
       <r>   -4.3120    1.0508 </r>
       <r>   -4.3103    1.0504 </r>
       <r>   -4.3088    1.0501 </r>
       <r>   -4.3077    1.0498 </r>
       <r>   -4.3038    1.0486 </r>
       <r>   -4.3022    1.0480 </r>
       <r>   -4.2987    1.0465 </r>
       <r>   -4.2980    1.0461 </r>
       <r>   -4.2937    1.0437 </r>
       <r>   -4.2880    1.0398 </r>
       <r>   -4.2827    1.0353 </r>
       <r>   -4.2823    1.0349 </r>
       <r>   -4.2787    1.0313 </r>
       <r>   -4.2753    1.0276 </r>
       <r>   -4.2714    1.0228 </r>
       <r>   -4.2677    1.0179 </r>
       <r>   -4.2663    1.0158 </r>
       <r>   -4.2629    1.0107 </r>
       <r>   -4.2549    0.9969 </r>
       <r>   -4.2519    0.9912 </r>
       <r>   -4.2494    0.9862 </r>
       <r>   -4.2448    0.9762 </r>
       <r>   -4.2380    0.9603 </r>
       <r>   -4.2358    0.9545 </r>
       <r>   -4.2328    0.9466 </r>
       <r>   -4.2316    0.9433 </r>
       <r>   -4.2305    0.9403 </r>
       <r>   -4.2250    0.9243 </r>
       <r>   -4.2229    0.9181 </r>
       <r>   -4.2222    0.9157 </r>
       <r>   -4.2198    0.9081 </r>
       <r>   -4.2190    0.9058 </r>
       <r>   -4.2183    0.9034 </r>
       <r>   -4.2158    0.8950 </r>
       <r>   -4.2081    0.8680 </r>
       <r>   -4.2029    0.8488 </r>
       <r>   -4.2019    0.8450 </r>
       <r>   -4.1995    0.8355 </r>
       <r>   -4.1963    0.8227 </r>
       <r>   -4.1959    0.8212 </r>
       <r>   -4.1816    0.7598 </r>
       <r>   -4.1807    0.7553 </r>
       <r>   -4.1735    0.7224 </r>
       <r>   -4.1712    0.7113 </r>
       <r>   -4.1662    0.6868 </r>
       <r>   -4.1626    0.6690 </r>
       <r>   -4.1536    0.6237 </r>
       <r>   -4.1511    0.6110 </r>
       <r>   -4.1499    0.6048 </r>
       <r>   -4.1449    0.5788 </r>
       <r>   -4.1368    0.5365 </r>
       <r>   -4.1327    0.5149 </r>
       <r>   -4.1155    0.4242 </r>
       <r>   -4.1117    0.4041 </r>
       <r>   -4.1085    0.3877 </r>
       <r>   -4.1006    0.3472 </r>
       <r>   -4.0906    0.2981 </r>
       <r>   -3.9711   -0.0403 </r>
       <r>   -3.9331   -0.0514 </r>
       <r>   -3.8940   -0.0396 </r>
       <r>   -3.8129   -0.0054 </r>
       <r>   -3.8003   -0.0022 </r>
       <r>   -3.7147    0.0048 </r>
       <r>   -3.4856    0.0001 </r>
       <r>   -3.4718    0.0001 </r>
       <r>   -3.2252    0.0000 </r>
       <r>   -3.0536    0.0000 </r>
       <r>   -3.0504    0.0000 </r>
       <r>   -3.0356    0.0000 </r>
       <r>   -3.0117    0.0000 </r>
       <r>   -2.9971    0.0000 </r>
       <r>   -2.9832    0.0000 </r>
       <r>   -2.9276    0.0000 </r>
       <r>   -2.7908    0.0000 </r>
       <r>   -2.5416    0.0000 </r>
       <r>   -2.5028    0.0000 </r>
       <r>   -2.4234    0.0000 </r>
       <r>   -2.2478    0.0000 </r>
       <r>   -2.1397    0.0000 </r>
       <r>   -2.1014    0.0000 </r>
       <r>   -2.0410    0.0000 </r>
       <r>   -1.9597    0.0000 </r>
       <r>   -1.9328    0.0000 </r>
       <r>   -1.8620    0.0000 </r>
       <r>   -1.8387    0.0000 </r>
       <r>   -1.8364    0.0000 </r>
       <r>   -1.7634    0.0000 </r>
       <r>   -1.6963    0.0000 </r>
       <r>   -1.6202    0.0000 </r>
       <r>   -1.5629    0.0000 </r>
       <r>   -1.5404    0.0000 </r>
       <r>   -1.4677    0.0000 </r>
       <r>   -1.3797    0.0000 </r>
       <r>   -1.2810    0.0000 </r>
       <r>   -1.1603    0.0000 </r>
       <r>   -1.0315    0.0000 </r>
       <r>   -1.0054    0.0000 </r>
       <r>   -0.9562    0.0000 </r>
       <r>   -0.9505    0.0000 </r>
       <r>   -0.9155    0.0000 </r>
       <r>   -0.9096    0.0000 </r>
       <r>   -0.8455    0.0000 </r>
       <r>   -0.8189    0.0000 </r>
       <r>   -0.7799    0.0000 </r>
       <r>   -0.7285    0.0000 </r>
      </set>
     </set>
    </set>
   </array>
  </eigenvalues>
  <separator name="orbital magnetization" >
   <v name="MAGDIPOLOUT">      0.00000000      0.00000000      0.00000000</v>
  </separator>
  <dos>
   <i name="efermi">     -4.12993844 </i>
   <total>
    <array>
     <dimension dim="1">gridpoints</dimension>
     <dimension dim="2">spin</dimension>
     <field>energy</field>
     <field>total</field>
     <field>integrated</field>
     <set>
      <set comment="spin 1">
       <r>   -30.3507     0.0000     0.0000 </r>
       <r>   -30.2453     0.0000     0.0000 </r>
       <r>   -30.1399     0.0000     0.0000 </r>
       <r>   -30.0345     0.0000     0.0000 </r>
       <r>   -29.9291     0.0000     0.0000 </r>
       <r>   -29.8237     0.0000     0.0000 </r>
       <r>   -29.7183     0.0000     0.0000 </r>
       <r>   -29.6129     0.0000     0.0000 </r>
       <r>   -29.5075     0.0000     0.0000 </r>
       <r>   -29.4021     0.0000     0.0000 </r>
       <r>   -29.2967     0.0000     0.0000 </r>
       <r>   -29.1913     0.0000     0.0000 </r>
       <r>   -29.0858     0.0001     0.0000 </r>
       <r>   -28.9804     0.0026     0.0003 </r>
       <r>   -28.8750     0.0237     0.0028 </r>
       <r>   -28.7696     0.0643     0.0096 </r>
       <r>   -28.6642    -0.2131    -0.0129 </r>
       <r>   -28.5588    -0.8186    -0.0992 </r>
       <r>   -28.4534     1.9633     0.1078 </r>
       <r>   -28.3480     8.7399     1.0290 </r>
       <r>   -28.2426     8.4604     1.9208 </r>
       <r>   -28.1372     1.6645     2.0963 </r>
       <r>   -28.0318    -0.8212     2.0097 </r>
       <r>   -27.9264    -0.1808     1.9907 </r>
       <r>   -27.8210     0.0646     1.9975 </r>
       <r>   -27.7155     0.0217     1.9997 </r>
       <r>   -27.6101     0.0023     2.0000 </r>
       <r>   -27.5047     0.0001     2.0000 </r>
       <r>   -27.3993     0.0000     2.0000 </r>
       <r>   -27.2939     0.0000     2.0000 </r>
       <r>   -27.1885     0.0000     2.0000 </r>
       <r>   -27.0831     0.0000     2.0000 </r>
       <r>   -26.9777     0.0000     2.0000 </r>
       <r>   -26.8723     0.0000     2.0000 </r>
       <r>   -26.7669     0.0000     2.0000 </r>
       <r>   -26.6615     0.0000     2.0000 </r>
       <r>   -26.5561     0.0000     2.0000 </r>
       <r>   -26.4507     0.0000     2.0000 </r>
       <r>   -26.3452     0.0000     2.0000 </r>
       <r>   -26.2398     0.0000     2.0000 </r>
       <r>   -26.1344     0.0000     2.0000 </r>
       <r>   -26.0290     0.0000     2.0000 </r>
       <r>   -25.9236     0.0000     2.0000 </r>
       <r>   -25.8182     0.0000     2.0000 </r>
       <r>   -25.7128     0.0000     2.0000 </r>
       <r>   -25.6074     0.0000     2.0000 </r>
       <r>   -25.5020     0.0000     2.0000 </r>
       <r>   -25.3966     0.0000     2.0000 </r>
       <r>   -25.2912     0.0000     2.0000 </r>
       <r>   -25.1858     0.0000     2.0000 </r>
       <r>   -25.0804     0.0000     2.0000 </r>
       <r>   -24.9750     0.0000     2.0000 </r>
       <r>   -24.8695     0.0000     2.0000 </r>
       <r>   -24.7641     0.0000     2.0000 </r>
       <r>   -24.6587     0.0000     2.0000 </r>
       <r>   -24.5533     0.0000     2.0000 </r>
       <r>   -24.4479     0.0000     2.0000 </r>
       <r>   -24.3425     0.0000     2.0000 </r>
       <r>   -24.2371     0.0000     2.0000 </r>
       <r>   -24.1317     0.0000     2.0000 </r>
       <r>   -24.0263     0.0000     2.0000 </r>
       <r>   -23.9209     0.0000     2.0000 </r>
       <r>   -23.8155     0.0000     2.0000 </r>
       <r>   -23.7101     0.0000     2.0000 </r>
       <r>   -23.6047     0.0000     2.0000 </r>
       <r>   -23.4992     0.0000     2.0000 </r>
       <r>   -23.3938     0.0000     2.0000 </r>
       <r>   -23.2884     0.0000     2.0000 </r>
       <r>   -23.1830     0.0000     2.0000 </r>
       <r>   -23.0776     0.0000     2.0000 </r>
       <r>   -22.9722     0.0000     2.0000 </r>
       <r>   -22.8668     0.0000     2.0000 </r>
       <r>   -22.7614     0.0000     2.0000 </r>
       <r>   -22.6560     0.0000     2.0000 </r>
       <r>   -22.5506     0.0000     2.0000 </r>
       <r>   -22.4452     0.0000     2.0000 </r>
       <r>   -22.3398     0.0000     2.0000 </r>
       <r>   -22.2344     0.0000     2.0000 </r>
       <r>   -22.1289     0.0000     2.0000 </r>
       <r>   -22.0235     0.0000     2.0000 </r>
       <r>   -21.9181     0.0000     2.0000 </r>
       <r>   -21.8127     0.0000     2.0000 </r>
       <r>   -21.7073     0.0000     2.0000 </r>
       <r>   -21.6019     0.0000     2.0000 </r>
       <r>   -21.4965     0.0000     2.0000 </r>
       <r>   -21.3911     0.0000     2.0000 </r>
       <r>   -21.2857     0.0000     2.0000 </r>
       <r>   -21.1803     0.0000     2.0000 </r>
       <r>   -21.0749     0.0000     2.0000 </r>
       <r>   -20.9695     0.0000     2.0000 </r>
       <r>   -20.8641     0.0000     2.0000 </r>
       <r>   -20.7586     0.0000     2.0000 </r>
       <r>   -20.6532     0.0000     2.0000 </r>
       <r>   -20.5478     0.0000     2.0000 </r>
       <r>   -20.4424     0.0000     2.0000 </r>
       <r>   -20.3370     0.0000     2.0000 </r>
       <r>   -20.2316     0.0000     2.0000 </r>
       <r>   -20.1262     0.0000     2.0000 </r>
       <r>   -20.0208     0.0000     2.0000 </r>
       <r>   -19.9154     0.0000     2.0000 </r>
       <r>   -19.8100     0.0000     2.0000 </r>
       <r>   -19.7046     0.0000     2.0000 </r>
       <r>   -19.5992     0.0000     2.0000 </r>
       <r>   -19.4938     0.0000     2.0000 </r>
       <r>   -19.3883     0.0000     2.0000 </r>
       <r>   -19.2829     0.0000     2.0000 </r>
       <r>   -19.1775     0.0000     2.0000 </r>
       <r>   -19.0721     0.0000     2.0000 </r>
       <r>   -18.9667     0.0000     2.0000 </r>
       <r>   -18.8613     0.0000     2.0000 </r>
       <r>   -18.7559     0.0000     2.0000 </r>
       <r>   -18.6505     0.0000     2.0000 </r>
       <r>   -18.5451     0.0000     2.0000 </r>
       <r>   -18.4397     0.0000     2.0000 </r>
       <r>   -18.3343     0.0000     2.0000 </r>
       <r>   -18.2289     0.0000     2.0000 </r>
       <r>   -18.1235     0.0000     2.0000 </r>
       <r>   -18.0181     0.0000     2.0000 </r>
       <r>   -17.9126     0.0000     2.0000 </r>
       <r>   -17.8072     0.0000     2.0000 </r>
       <r>   -17.7018     0.0000     2.0000 </r>
       <r>   -17.5964     0.0000     2.0000 </r>
       <r>   -17.4910     0.0000     2.0000 </r>
       <r>   -17.3856     0.0000     2.0000 </r>
       <r>   -17.2802     0.0000     2.0000 </r>
       <r>   -17.1748     0.0000     2.0000 </r>
       <r>   -17.0694     0.0000     2.0000 </r>
       <r>   -16.9640     0.0000     2.0000 </r>
       <r>   -16.8586     0.0000     2.0000 </r>
       <r>   -16.7532     0.0000     2.0000 </r>
       <r>   -16.6478     0.0000     2.0000 </r>
       <r>   -16.5423     0.0000     2.0000 </r>
       <r>   -16.4369     0.0000     2.0000 </r>
       <r>   -16.3315     0.0000     2.0000 </r>
       <r>   -16.2261     0.0000     2.0000 </r>
       <r>   -16.1207     0.0000     2.0000 </r>
       <r>   -16.0153     0.0000     2.0000 </r>
       <r>   -15.9099     0.0000     2.0000 </r>
       <r>   -15.8045     0.0000     2.0000 </r>
       <r>   -15.6991     0.0000     2.0000 </r>
       <r>   -15.5937     0.0000     2.0000 </r>
       <r>   -15.4883     0.0000     2.0000 </r>
       <r>   -15.3829     0.0000     2.0000 </r>
       <r>   -15.2775     0.0000     2.0000 </r>
       <r>   -15.1720     0.0000     2.0000 </r>
       <r>   -15.0666     0.0000     2.0000 </r>
       <r>   -14.9612     0.0000     2.0000 </r>
       <r>   -14.8558     0.0000     2.0000 </r>
       <r>   -14.7504     0.0000     2.0000 </r>
       <r>   -14.6450     0.0000     2.0000 </r>
       <r>   -14.5396     0.0000     2.0000 </r>
       <r>   -14.4342     0.0000     2.0000 </r>
       <r>   -14.3288     0.0003     2.0000 </r>
       <r>   -14.2234     0.0053     2.0006 </r>
       <r>   -14.1180     0.0368     2.0045 </r>
       <r>   -14.0126     0.0479     2.0095 </r>
       <r>   -13.9072    -0.4154     1.9657 </r>
       <r>   -13.8017    -0.6254     1.8998 </r>
       <r>   -13.6963     3.7857     2.2989 </r>
       <r>   -13.5909     9.7960     3.3314 </r>
       <r>   -13.4855     6.6717     4.0347 </r>
       <r>   -13.3801     0.3632     4.0730 </r>
       <r>   -13.2747    -0.7177     3.9973 </r>
       <r>   -13.1693    -0.0454     3.9925 </r>
       <r>   -13.0639     0.0571     3.9985 </r>
       <r>   -12.9585     0.0127     3.9999 </r>
       <r>   -12.8531     0.0011     4.0000 </r>
       <r>   -12.7477     0.0000     4.0000 </r>
       <r>   -12.6423     0.0000     4.0000 </r>
       <r>   -12.5369     0.0000     4.0000 </r>
       <r>   -12.4314     0.0000     4.0000 </r>
       <r>   -12.3260     0.0001     4.0000 </r>
       <r>   -12.2206     0.0025     4.0003 </r>
       <r>   -12.1152     0.0230     4.0027 </r>
       <r>   -12.0098     0.0649     4.0095 </r>
       <r>   -11.9044    -0.1954     3.9890 </r>
       <r>   -11.7990    -0.7791     3.9068 </r>
       <r>   -11.6936     1.8950     4.1066 </r>
       <r>   -11.5882     8.1614     4.9669 </r>
       <r>   -11.4828     8.0701     5.8175 </r>
       <r>   -11.3774     6.1780     6.4687 </r>
       <r>   -11.2720     9.1338     7.4315 </r>
       <r>   -11.1666     5.8571     8.0489 </r>
       <r>   -11.0612     0.1585     8.0656 </r>
       <r>   -10.9557    -0.5802     8.0044 </r>
       <r>   -10.8503    -0.3649     7.9660 </r>
       <r>   -10.7449    -0.6650     7.8959 </r>
       <r>   -10.6395     3.2250     8.2358 </r>
       <r>   -10.5341     9.5686     9.2444 </r>
       <r>   -10.4287     7.2408    10.0076 </r>
       <r>   -10.3233     0.6939    10.0808 </r>
       <r>   -10.2179    -0.7644    10.0002 </r>
       <r>   -10.1125    -0.0788     9.9919 </r>
       <r>   -10.0071     0.0605     9.9983 </r>
       <r>    -9.9017     0.0150     9.9999 </r>
       <r>    -9.7963     0.0013    10.0000 </r>
       <r>    -9.6909     0.0001    10.0000 </r>
       <r>    -9.5854     0.0000    10.0000 </r>
       <r>    -9.4800     0.0000    10.0000 </r>
       <r>    -9.3746     0.0000    10.0000 </r>
       <r>    -9.2692     0.0000    10.0000 </r>
       <r>    -9.1638     0.0000    10.0000 </r>
       <r>    -9.0584     0.0000    10.0000 </r>
       <r>    -8.9530     0.0000    10.0000 </r>
       <r>    -8.8476     0.0000    10.0000 </r>
       <r>    -8.7422     0.0000    10.0000 </r>
       <r>    -8.6368     0.0000    10.0000 </r>
       <r>    -8.5314     0.0000    10.0000 </r>
       <r>    -8.4260     0.0000    10.0000 </r>
       <r>    -8.3206     0.0000    10.0000 </r>
       <r>    -8.2151     0.0000    10.0000 </r>
       <r>    -8.1097     0.0000    10.0000 </r>
       <r>    -8.0043     0.0000    10.0000 </r>
       <r>    -7.8989     0.0000    10.0000 </r>
       <r>    -7.7935     0.0000    10.0000 </r>
       <r>    -7.6881     0.0000    10.0000 </r>
       <r>    -7.5827     0.0000    10.0000 </r>
       <r>    -7.4773     0.0000    10.0000 </r>
       <r>    -7.3719     0.0009    10.0001 </r>
       <r>    -7.2665     0.0112    10.0013 </r>
       <r>    -7.1611     0.0609    10.0077 </r>
       <r>    -7.0557     0.0330    10.0112 </r>
       <r>    -6.9503    -0.5887     9.9491 </r>
       <r>    -6.8448    -0.4080     9.9061 </r>
       <r>    -6.7394     5.1421    10.4481 </r>
       <r>    -6.6340    14.3570    11.9615 </r>
       <r>    -6.5286    19.4540    14.0121 </r>
       <r>    -6.4232    14.5043    15.5409 </r>
       <r>    -6.3178     3.0641    15.8639 </r>
       <r>    -6.2124     7.0780    16.6100 </r>
       <r>    -6.1070    24.7538    19.2192 </r>
       <r>    -6.0016    21.1389    21.4474 </r>
       <r>    -5.8962    15.7398    23.1065 </r>
       <r>    -5.7908    44.3171    27.7779 </r>
       <r>    -5.6854    84.4657    36.6812 </r>
       <r>    -5.5800   148.3627    52.3198 </r>
       <r>    -5.4745   251.5449    78.8345 </r>
       <r>    -5.3691   291.8647   109.5993 </r>
       <r>    -5.2637   236.2405   134.5008 </r>
       <r>    -5.1583   215.1668   157.1810 </r>
       <r>    -5.0529   290.7243   187.8256 </r>
       <r>    -4.9475   360.4826   225.8232 </r>
       <r>    -4.8421   327.6552   260.3605 </r>
       <r>    -4.7367   289.8255   290.9103 </r>
       <r>    -4.6313   355.5270   328.3855 </r>
       <r>    -4.5259   418.5100   372.4997 </r>
       <r>    -4.4205   425.1160   417.3101 </r>
       <r>    -4.3151   489.4957   468.9067 </r>
       <r>    -4.2097   547.7141   526.6399 </r>
       <r>    -4.1043   383.5546   567.0695 </r>
       <r>    -3.9988   118.8671   579.5990 </r>
       <r>    -3.8934    16.8116   581.3710 </r>
       <r>    -3.7880    28.7869   584.4054 </r>
       <r>    -3.6826    25.9000   587.1354 </r>
       <r>    -3.5772    12.4786   588.4508 </r>
       <r>    -3.4718    16.3856   590.1780 </r>
       <r>    -3.3664    15.4933   591.8111 </r>
       <r>    -3.2610     5.2449   592.3639 </r>
       <r>    -3.1556    11.8168   593.6095 </r>
       <r>    -3.0502    44.9852   598.3513 </r>
       <r>    -2.9448    63.3263   605.0263 </r>
       <r>    -2.8394    35.9351   608.8142 </r>
       <r>    -2.7340     8.1144   609.6695 </r>
       <r>    -2.6285     4.8458   610.1803 </r>
       <r>    -2.5231    18.2266   612.1015 </r>
       <r>    -2.4177    24.6414   614.6989 </r>
       <r>    -2.3123    15.0157   616.2817 </r>
       <r>    -2.2069    14.4745   617.8074 </r>
       <r>    -2.1015    25.9171   620.5392 </r>
       <r>    -1.9961    34.7862   624.2060 </r>
       <r>    -1.8907    43.7358   628.8161 </r>
       <r>    -1.7853    46.3983   633.7068 </r>
       <r>    -1.6799    36.8085   637.5867 </r>
       <r>    -1.5745    33.8898   641.1589 </r>
       <r>    -1.4691    34.0546   644.7485 </r>
       <r>    -1.3637    25.9029   647.4789 </r>
       <r>    -1.2582    17.5410   649.3279 </r>
       <r>    -1.1528    13.5721   650.7585 </r>
       <r>    -1.0474    25.3135   653.4267 </r>
       <r>    -0.9420    53.9772   659.1163 </r>
       <r>    -0.8366    65.0770   665.9759 </r>
       <r>    -0.7312    44.3682   670.6526 </r>
       <r>    -0.6258    14.8200   672.2148 </r>
       <r>    -0.5204    -0.7124   672.1397 </r>
       <r>    -0.4150    -1.5798   671.9732 </r>
       <r>    -0.3096     0.0341   671.9768 </r>
       <r>    -0.2042     0.1774   671.9955 </r>
       <r>    -0.0988     0.0393   671.9996 </r>
       <r>     0.0066     0.0036   672.0000 </r>
       <r>     0.1121     0.0002   672.0000 </r>
       <r>     0.2175     0.0000   672.0000 </r>
       <r>     0.3229     0.0000   672.0000 </r>
       <r>     0.4283     0.0000   672.0000 </r>
       <r>     0.5337     0.0000   672.0000 </r>
       <r>     0.6391     0.0000   672.0000 </r>
       <r>     0.7445     0.0000   672.0000 </r>
       <r>     0.8499     0.0000   672.0000 </r>
       <r>     0.9553     0.0000   672.0000 </r>
       <r>     1.0607     0.0000   672.0000 </r>
       <r>     1.1661     0.0000   672.0000 </r>
       <r>     1.2715     0.0000   672.0000 </r>
      </set>
     </set>
    </array>
   </total>
  </dos>
 </calculation>
 <structure name="finalpos" >
  <crystal>
   <varray name="basis" >
    <v>      30.00000000       0.00000000       0.00000000 </v>
    <v>       0.00000000      30.00000000       0.00000000 </v>
    <v>       0.00000000       0.00000000      30.00000000 </v>
   </varray>
   <i name="volume">  27000.00000000 </i>
   <varray name="rec_basis" >
    <v>       0.03333333       0.00000000       0.00000000 </v>
    <v>       0.00000000       0.03333333       0.00000000 </v>
    <v>       0.00000000       0.00000000       0.03333333 </v>
   </varray>
  </crystal>
  <varray name="positions" >
   <v>       0.44576020       0.32826710       0.41691983 </v>
   <v>       0.67173288       0.55423978       0.41691983 </v>
   <v>       0.55423980       0.32826710       0.41691983 </v>
   <v>       0.32826712       0.55423978       0.41691983 </v>
   <v>       0.50000000       0.38250690       0.34021317 </v>
   <v>       0.50000000       0.38250690       0.65978680 </v>
   <v>       0.50000000       0.27609440       0.50000000 </v>
   <v>       0.27609443       0.49999998       0.50000000 </v>
   <v>       0.72390557       0.49999998       0.50000000 </v>
   <v>       0.50000000       0.72390555       0.50000000 </v>
   <v>       0.61195280       0.38804720       0.34167483 </v>
   <v>       0.61195280       0.38804720       0.65832513 </v>
   <v>       0.38804722       0.61195278       0.34167483 </v>
   <v>       0.38804722       0.61195278       0.65832513 </v>
   <v>       0.38804720       0.38804720       0.34167483 </v>
   <v>       0.38804720       0.38804720       0.65832513 </v>
   <v>       0.61195278       0.61195278       0.34167483 </v>
   <v>       0.61195278       0.61195278       0.65832513 </v>
   <v>       0.44576020       0.32826710       0.58308023 </v>
   <v>       0.67173288       0.55423978       0.58308023 </v>
   <v>       0.55791699       0.44208301       0.41809300 </v>
   <v>       0.32826705       0.44576024       0.41691983 </v>
   <v>       0.55423973       0.67173293       0.41691983 </v>
   <v>       0.55423980       0.32826710       0.58308023 </v>
   <v>       0.32826712       0.55423978       0.58308023 </v>
   <v>       0.67173295       0.44576024       0.41691983 </v>
   <v>       0.44576027       0.67173293       0.41691983 </v>
   <v>       0.44208301       0.44208301       0.41809300 </v>
   <v>       0.50000000       0.38416601       0.50000000 </v>
   <v>       0.61749315       0.50000005       0.34021317 </v>
   <v>       0.61749315       0.50000005       0.65978680 </v>
   <v>       0.38250685       0.50000005       0.34021317 </v>
   <v>       0.38250685       0.50000005       0.65978680 </v>
   <v>       0.38317830       0.38317830       0.50000000 </v>
   <v>       0.61682172       0.61682172       0.50000000 </v>
   <v>       0.61682170       0.38317830       0.50000000 </v>
   <v>       0.38317828       0.61682172       0.50000000 </v>
   <v>       0.50000000       0.50000000       0.33478917 </v>
   <v>       0.50000000       0.50000000       0.66521087 </v>
   <v>       0.32826705       0.44576024       0.58308023 </v>
   <v>       0.55423973       0.67173293       0.58308023 </v>
   <v>       0.55791699       0.44208301       0.58190703 </v>
   <v>       0.44208298       0.55791702       0.41809300 </v>
   <v>       0.44208301       0.44208301       0.58190703 </v>
   <v>       0.67173295       0.44576024       0.58308023 </v>
   <v>       0.44576027       0.67173293       0.58308023 </v>
   <v>       0.55791702       0.55791702       0.41809300 </v>
   <v>       0.38416599       0.50000002       0.50000000 </v>
   <v>       0.61583401       0.50000002       0.50000000 </v>
   <v>       0.50000000       0.61749319       0.34021317 </v>
   <v>       0.50000000       0.61749319       0.65978680 </v>
   <v>       0.50000000       0.50000000       0.50000000 </v>
   <v>       0.44208298       0.55791702       0.58190703 </v>
   <v>       0.55791702       0.55791702       0.58190703 </v>
   <v>       0.50000000       0.61583404       0.50000000 </v>
   <v>       0.53664480       0.45607643       0.67422777 </v>
   <v>       0.54415850       0.44707030       0.70995160 </v>
  </varray>
  <varray name="selective"  type="logical" >
   <v type="logical" >  F  F  F </v>
   <v type="logical" >  F  F  F </v>
   <v type="logical" >  F  F  F </v>
   <v type="logical" >  F  F  F </v>
   <v type="logical" >  F  F  F </v>
   <v type="logical" >  F  F  F </v>
   <v type="logical" >  F  F  F </v>
   <v type="logical" >  F  F  F </v>
   <v type="logical" >  F  F  F </v>
   <v type="logical" >  F  F  F </v>
   <v type="logical" >  F  F  F </v>
   <v type="logical" >  F  F  F </v>
   <v type="logical" >  F  F  F </v>
   <v type="logical" >  F  F  F </v>
   <v type="logical" >  F  F  F </v>
   <v type="logical" >  F  F  F </v>
   <v type="logical" >  F  F  F </v>
   <v type="logical" >  F  F  F </v>
   <v type="logical" >  F  F  F </v>
   <v type="logical" >  F  F  F </v>
   <v type="logical" >  F  F  F </v>
   <v type="logical" >  F  F  F </v>
   <v type="logical" >  F  F  F </v>
   <v type="logical" >  F  F  F </v>
   <v type="logical" >  F  F  F </v>
   <v type="logical" >  F  F  F </v>
   <v type="logical" >  F  F  F </v>
   <v type="logical" >  F  F  F </v>
   <v type="logical" >  F  F  F </v>
   <v type="logical" >  F  F  F </v>
   <v type="logical" >  F  F  F </v>
   <v type="logical" >  F  F  F </v>
   <v type="logical" >  F  F  F </v>
   <v type="logical" >  F  F  F </v>
   <v type="logical" >  F  F  F </v>
   <v type="logical" >  F  F  F </v>
   <v type="logical" >  F  F  F </v>
   <v type="logical" >  F  F  F </v>
   <v type="logical" >  F  F  F </v>
   <v type="logical" >  F  F  F </v>
   <v type="logical" >  F  F  F </v>
   <v type="logical" >  F  F  F </v>
   <v type="logical" >  F  F  F </v>
   <v type="logical" >  F  F  F </v>
   <v type="logical" >  F  F  F </v>
   <v type="logical" >  F  F  F </v>
   <v type="logical" >  F  F  F </v>
   <v type="logical" >  F  F  F </v>
   <v type="logical" >  F  F  F </v>
   <v type="logical" >  F  F  F </v>
   <v type="logical" >  F  F  F </v>
   <v type="logical" >  F  F  F </v>
   <v type="logical" >  F  F  F </v>
   <v type="logical" >  F  F  F </v>
   <v type="logical" >  F  F  F </v>
   <v type="logical" >  F  F  F </v>
   <v type="logical" >  F  F  F </v>
  </varray>
  <nose>
   <v>      -3.00000000       0.00000000       0.00010000       0.00010000 </v>
  </nose>
 </structure>
</modeling>
