  57  57   0   0
  0.4736842E+03  0.3000000E-08  0.3000000E-08  0.3000000E-08  0.5000000E-15
  1.000000000000000E-004
  CAR 
 6_Pd100_top_free_z(O)                   
      1.40522586    -31.24291709  301     -4.12110881      1.00000000
    -31.243  0.0000E+00  0.0000E+00
    -31.134  0.0000E+00  0.0000E+00
    -31.025  0.0000E+00  0.0000E+00
    -30.916  0.5641E-27  0.6139E-28
    -30.808  0.3066E-23  0.3337E-24
    -30.699  0.9067E-20  0.9871E-21
    -30.590  0.1455E-16  0.1584E-17
    -30.481  0.1261E-13  0.1374E-14
    -30.372  0.5889E-11  0.6422E-12
    -30.263  0.1465E-08  0.1601E-09
    -30.155  0.1923E-06  0.2109E-07
    -30.046  0.1308E-04  0.1445E-05
    -29.937  0.4473E-03  0.5012E-04
    -29.828  0.7199E-02  0.8335E-03
    -29.719  0.4537E-01  0.5771E-02
    -29.611  0.1301E-01  0.7186E-02
    -29.502 -0.5960E+00 -0.5767E-01
    -29.393 -0.6868E-01 -0.6515E-01
    -29.284  0.5920E+01  0.5791E+00
    -29.175  0.9898E+01  0.1656E+01
    -29.066  0.4068E+01  0.2099E+01
    -28.958 -0.6027E+00  0.2033E+01
    -28.849 -0.3956E+00  0.1990E+01
    -28.740  0.5281E-01  0.1996E+01
    -28.631  0.3227E-01  0.2000E+01
    -28.522  0.3937E-02  0.2000E+01
    -28.413  0.2015E-03  0.2000E+01
    -28.305  0.4962E-05  0.2000E+01
    -28.196  0.6196E-07  0.2000E+01
    -28.087  0.4032E-09  0.2000E+01
    -27.978  0.1392E-11  0.2000E+01
    -27.869  0.2040E-14  0.2000E+01
    -27.760  0.0000E+00  0.2000E+01
    -27.652  0.0000E+00  0.2000E+01
    -27.543  0.0000E+00  0.2000E+01
    -27.434  0.0000E+00  0.2000E+01
    -27.325  0.0000E+00  0.2000E+01
    -27.216  0.0000E+00  0.2000E+01
    -27.107  0.0000E+00  0.2000E+01
    -26.999  0.0000E+00  0.2000E+01
    -26.890  0.0000E+00  0.2000E+01
    -26.781  0.0000E+00  0.2000E+01
    -26.672  0.0000E+00  0.2000E+01
    -26.563  0.0000E+00  0.2000E+01
    -26.455  0.0000E+00  0.2000E+01
    -26.346  0.0000E+00  0.2000E+01
    -26.237  0.0000E+00  0.2000E+01
    -26.128  0.0000E+00  0.2000E+01
    -26.019  0.0000E+00  0.2000E+01
    -25.910  0.0000E+00  0.2000E+01
    -25.802  0.0000E+00  0.2000E+01
    -25.693  0.0000E+00  0.2000E+01
    -25.584  0.0000E+00  0.2000E+01
    -25.475  0.0000E+00  0.2000E+01
    -25.366  0.0000E+00  0.2000E+01
    -25.257  0.0000E+00  0.2000E+01
    -25.149  0.0000E+00  0.2000E+01
    -25.040  0.0000E+00  0.2000E+01
    -24.931  0.0000E+00  0.2000E+01
    -24.822  0.0000E+00  0.2000E+01
    -24.713  0.0000E+00  0.2000E+01
    -24.604  0.0000E+00  0.2000E+01
    -24.496  0.0000E+00  0.2000E+01
    -24.387  0.0000E+00  0.2000E+01
    -24.278  0.0000E+00  0.2000E+01
    -24.169  0.0000E+00  0.2000E+01
    -24.060  0.0000E+00  0.2000E+01
    -23.951  0.0000E+00  0.2000E+01
    -23.843  0.0000E+00  0.2000E+01
    -23.734  0.0000E+00  0.2000E+01
    -23.625  0.0000E+00  0.2000E+01
    -23.516  0.0000E+00  0.2000E+01
    -23.407  0.0000E+00  0.2000E+01
    -23.299  0.0000E+00  0.2000E+01
    -23.190  0.0000E+00  0.2000E+01
    -23.081  0.0000E+00  0.2000E+01
    -22.972  0.0000E+00  0.2000E+01
    -22.863  0.0000E+00  0.2000E+01
    -22.754  0.0000E+00  0.2000E+01
    -22.646  0.0000E+00  0.2000E+01
    -22.537  0.0000E+00  0.2000E+01
    -22.428  0.0000E+00  0.2000E+01
    -22.319  0.0000E+00  0.2000E+01
    -22.210  0.0000E+00  0.2000E+01
    -22.101  0.0000E+00  0.2000E+01
    -21.993  0.0000E+00  0.2000E+01
    -21.884  0.0000E+00  0.2000E+01
    -21.775  0.0000E+00  0.2000E+01
    -21.666  0.0000E+00  0.2000E+01
    -21.557  0.0000E+00  0.2000E+01
    -21.448  0.0000E+00  0.2000E+01
    -21.340  0.0000E+00  0.2000E+01
    -21.231  0.0000E+00  0.2000E+01
    -21.122  0.0000E+00  0.2000E+01
    -21.013  0.0000E+00  0.2000E+01
    -20.904  0.0000E+00  0.2000E+01
    -20.796  0.0000E+00  0.2000E+01
    -20.687  0.0000E+00  0.2000E+01
    -20.578  0.0000E+00  0.2000E+01
    -20.469  0.0000E+00  0.2000E+01
    -20.360  0.0000E+00  0.2000E+01
    -20.251  0.0000E+00  0.2000E+01
    -20.143  0.0000E+00  0.2000E+01
    -20.034  0.0000E+00  0.2000E+01
    -19.925  0.0000E+00  0.2000E+01
    -19.816  0.0000E+00  0.2000E+01
    -19.707  0.0000E+00  0.2000E+01
    -19.598  0.0000E+00  0.2000E+01
    -19.490  0.0000E+00  0.2000E+01
    -19.381  0.0000E+00  0.2000E+01
    -19.272  0.0000E+00  0.2000E+01
    -19.163  0.0000E+00  0.2000E+01
    -19.054  0.0000E+00  0.2000E+01
    -18.945  0.0000E+00  0.2000E+01
    -18.837  0.0000E+00  0.2000E+01
    -18.728  0.0000E+00  0.2000E+01
    -18.619  0.0000E+00  0.2000E+01
    -18.510  0.0000E+00  0.2000E+01
    -18.401  0.0000E+00  0.2000E+01
    -18.292  0.0000E+00  0.2000E+01
    -18.184  0.0000E+00  0.2000E+01
    -18.075  0.0000E+00  0.2000E+01
    -17.966  0.0000E+00  0.2000E+01
    -17.857  0.0000E+00  0.2000E+01
    -17.748  0.0000E+00  0.2000E+01
    -17.640  0.0000E+00  0.2000E+01
    -17.531  0.0000E+00  0.2000E+01
    -17.422  0.0000E+00  0.2000E+01
    -17.313  0.0000E+00  0.2000E+01
    -17.204  0.0000E+00  0.2000E+01
    -17.095  0.0000E+00  0.2000E+01
    -16.987  0.0000E+00  0.2000E+01
    -16.878  0.0000E+00  0.2000E+01
    -16.769  0.0000E+00  0.2000E+01
    -16.660  0.0000E+00  0.2000E+01
    -16.551  0.0000E+00  0.2000E+01
    -16.442  0.0000E+00  0.2000E+01
    -16.334  0.0000E+00  0.2000E+01
    -16.225  0.0000E+00  0.2000E+01
    -16.116  0.0000E+00  0.2000E+01
    -16.007  0.0000E+00  0.2000E+01
    -15.898  0.0000E+00  0.2000E+01
    -15.789  0.0000E+00  0.2000E+01
    -15.681  0.0000E+00  0.2000E+01
    -15.572  0.0000E+00  0.2000E+01
    -15.463  0.3101E-28  0.2000E+01
    -15.354  0.2050E-24  0.2000E+01
    -15.245  0.7378E-21  0.2000E+01
    -15.136  0.1442E-17  0.2000E+01
    -15.028  0.1525E-14  0.2000E+01
    -14.919  0.8707E-12  0.2000E+01
    -14.810  0.2653E-09  0.2000E+01
    -14.701  0.4286E-07  0.2000E+01
    -14.592  0.3614E-05  0.2000E+01
    -14.484  0.1550E-03  0.2000E+01
    -14.375  0.3214E-02  0.2000E+01
    -14.266  0.2847E-01  0.2003E+01
    -14.157  0.5883E-01  0.2010E+01
    -14.048 -0.3340E+00  0.1974E+01
    -13.939 -0.6980E+00  0.1898E+01
    -13.831  0.3499E+01  0.2278E+01
    -13.722  0.9740E+01  0.3338E+01
    -13.613  0.6501E+01  0.4046E+01
    -13.504  0.1841E+00  0.4066E+01
    -13.395 -0.6558E+00  0.3994E+01
    -13.286 -0.7824E-02  0.3994E+01
    -13.178  0.4959E-01  0.3999E+01
    -13.069  0.8626E-02  0.4000E+01
    -12.960  0.5711E-03  0.4000E+01
    -12.851  0.1766E-04  0.4000E+01
    -12.742  0.2734E-06  0.4000E+01
    -12.633  0.2274E-08  0.4000E+01
    -12.525  0.1674E-07  0.4000E+01
    -12.416  0.1758E-05  0.4000E+01
    -12.307  0.9494E-04  0.4000E+01
    -12.198  0.2533E-02  0.4000E+01
    -12.089  0.3058E-01  0.4004E+01
    -11.981  0.1229E+00  0.4017E+01
    -11.872 -0.2296E+00  0.3992E+01
    -11.763 -0.1599E+01  0.3818E+01
    -11.654  0.2726E+01  0.4115E+01
    -11.545  0.1657E+02  0.5918E+01
    -11.436  0.1737E+02  0.7809E+01
    -11.328  0.3522E+01  0.8192E+01
    -11.219 -0.1624E+01  0.8016E+01
    -11.110 -0.3073E+00  0.7982E+01
    -11.001  0.1264E+00  0.7996E+01
    -10.892  0.3524E-01  0.8000E+01
    -10.783  0.3108E-02  0.8000E+01
    -10.675  0.1228E-03  0.8000E+01
    -10.566  0.2386E-05  0.8000E+01
    -10.457  0.2378E-07  0.8000E+01
    -10.348  0.1243E-09  0.8000E+01
    -10.239  0.4934E-11  0.8000E+01
    -10.130  0.1173E-08  0.8000E+01
    -10.022  0.1582E-06  0.8000E+01
     -9.913  0.1108E-04  0.8000E+01
     -9.804  0.3904E-03  0.8000E+01
     -9.695  0.6503E-02  0.8001E+01
     -9.586  0.4302E-01  0.8005E+01
     -9.477  0.2261E-01  0.8008E+01
     -9.369 -0.5616E+00  0.7947E+01
     -9.260 -0.1897E+00  0.7926E+01
     -9.151  0.5596E+01  0.8535E+01
     -9.042  0.9953E+01  0.9618E+01
     -8.933  0.4387E+01  0.1010E+02
     -8.825 -0.5361E+00  0.1004E+02
     -8.716 -0.4303E+00  0.9990E+01
     -8.607  0.4831E-01  0.9996E+01
     -8.498  0.3446E-01  0.9999E+01
     -8.389  0.4391E-02  0.1000E+02
     -8.280  0.2324E-03  0.1000E+02
     -8.172  0.5894E-05  0.1000E+02
     -8.063  0.7572E-07  0.1000E+02
     -7.954  0.5064E-09  0.1000E+02
     -7.845  0.1818E-11  0.1000E+02
     -7.736  0.1146E-10  0.1000E+02
     -7.627  0.2650E-08  0.1000E+02
     -7.519  0.3230E-06  0.1000E+02
     -7.410  0.2035E-04  0.1000E+02
     -7.301  0.6406E-03  0.1000E+02
     -7.192  0.9384E-02  0.1000E+02
     -7.083  0.5155E-01  0.1001E+02
     -6.974 -0.1936E-01  0.1000E+02
     -6.866 -0.6823E+00  0.9930E+01
     -6.757  0.3233E+00  0.9966E+01
     -6.648  0.6817E+01  0.1071E+02
     -6.539  0.9823E+01  0.1178E+02
     -6.430  0.2906E+01  0.1209E+02
     -6.322 -0.3055E+01  0.1176E+02
     -6.213  0.3982E+01  0.1219E+02
     -6.104  0.2475E+02  0.1489E+02
     -5.995  0.2389E+02  0.1749E+02
     -5.886  0.7848E+01  0.1834E+02
     -5.777  0.2386E+02  0.2094E+02
     -5.669  0.6638E+02  0.2816E+02
     -5.560  0.1565E+03  0.4519E+02
     -5.451  0.2810E+03  0.7577E+02
     -5.342  0.2979E+03  0.1082E+03
     -5.233  0.2188E+03  0.1320E+03
     -5.124  0.2197E+03  0.1559E+03
     -5.016  0.3186E+03  0.1906E+03
     -4.907  0.3691E+03  0.2307E+03
     -4.798  0.3111E+03  0.2646E+03
     -4.689  0.3085E+03  0.2982E+03
     -4.580  0.4029E+03  0.3420E+03
     -4.471  0.4262E+03  0.3884E+03
     -4.363  0.4380E+03  0.4361E+03
     -4.254  0.5442E+03  0.4953E+03
     -4.145  0.5145E+03  0.5513E+03
     -4.036  0.2433E+03  0.5778E+03
     -3.927  0.3476E+02  0.5815E+03
     -3.818  0.1873E+02  0.5836E+03
     -3.710  0.3120E+02  0.5870E+03
     -3.601  0.1059E+02  0.5881E+03
     -3.492  0.1585E+02  0.5899E+03
     -3.383  0.2870E+02  0.5930E+03
     -3.274  0.9500E+01  0.5940E+03
     -3.166 -0.4188E+01  0.5936E+03
     -3.057  0.2795E+02  0.5966E+03
     -2.948  0.6839E+02  0.6040E+03
     -2.839  0.4944E+02  0.6094E+03
     -2.730  0.6749E+01  0.6102E+03
     -2.621  0.1165E+01  0.6103E+03
     -2.513  0.2353E+02  0.6128E+03
     -2.404  0.2619E+02  0.6157E+03
     -2.295  0.1075E+02  0.6169E+03
     -2.186  0.1258E+02  0.6182E+03
     -2.077  0.2676E+02  0.6211E+03
     -1.968  0.3617E+02  0.6251E+03
     -1.860  0.4898E+02  0.6304E+03
     -1.751  0.5298E+02  0.6362E+03
     -1.642  0.4161E+02  0.6407E+03
     -1.533  0.4355E+02  0.6454E+03
     -1.424  0.3562E+02  0.6493E+03
     -1.315  0.7922E+01  0.6502E+03
     -1.207  0.8009E+01  0.6511E+03
     -1.098  0.2659E+02  0.6539E+03
     -0.989  0.4163E+02  0.6585E+03
     -0.880  0.5315E+02  0.6643E+03
     -0.771  0.3888E+02  0.6685E+03
     -0.662  0.1761E+02  0.6704E+03
     -0.554  0.1032E+02  0.6715E+03
     -0.445  0.4759E+01  0.6721E+03
     -0.336 -0.1219E+00  0.6720E+03
     -0.227 -0.4625E+00  0.6720E+03
     -0.118  0.4555E-01  0.6720E+03
     -0.010  0.4834E-01  0.6720E+03
      0.099  0.7325E-02  0.6720E+03
      0.208  0.4500E-03  0.6720E+03
      0.317  0.1311E-04  0.6720E+03
      0.426  0.1925E-06  0.6720E+03
      0.535  0.1465E-08  0.6720E+03
      0.643  0.5888E-11  0.6720E+03
      0.752  0.1224E-13  0.6720E+03
      0.861  0.0000E+00  0.6720E+03
      0.970  0.0000E+00  0.6720E+03
      1.079  0.0000E+00  0.6720E+03
      1.188  0.0000E+00  0.6720E+03
      1.296  0.0000E+00  0.6720E+03
      1.405  0.0000E+00  0.6720E+03
