  57  57   0   0
  0.4736842E+03  0.3000000E-08  0.3000000E-08  0.3000000E-08  0.5000000E-15
  1.000000000000000E-004
  CAR 
 6_Pd100_top_free_z(O)                   
      1.27104761    -30.28135791  301     -4.14605460      1.00000000
    -30.281  0.0000E+00  0.0000E+00
    -30.176  0.0000E+00  0.0000E+00
    -30.071  0.0000E+00  0.0000E+00
    -29.966  0.2374E-27  0.2497E-28
    -29.861  0.1036E-23  0.1090E-24
    -29.755  0.2560E-20  0.2694E-21
    -29.650  0.3577E-17  0.3765E-18
    -29.545  0.2814E-14  0.2964E-15
    -29.440  0.1243E-11  0.1311E-12
    -29.335  0.3059E-09  0.3231E-10
    -29.230  0.4156E-07  0.4404E-08
    -29.124  0.3076E-05  0.3279E-06
    -29.019  0.1212E-03  0.1307E-04
    -28.914  0.2434E-02  0.2691E-03
    -28.809  0.2253E-01  0.2638E-02
    -28.704  0.6460E-01  0.9433E-02
    -28.599 -0.1915E+00 -0.1070E-01
    -28.493 -0.8219E+00 -0.9715E-01
    -28.388  0.1739E+01  0.8572E-01
    -28.283  0.8524E+01  0.9822E+00
    -28.178  0.8695E+01  0.1897E+01
    -28.073  0.1922E+01  0.2099E+01
    -27.968 -0.8198E+00  0.2013E+01
    -27.862 -0.2115E+00  0.1990E+01
    -27.757  0.6438E-01  0.1997E+01
    -27.652  0.2382E-01  0.2000E+01
    -27.547  0.2648E-02  0.2000E+01
    -27.442  0.1348E-03  0.2000E+01
    -27.336  0.3494E-05  0.2000E+01
    -27.231  0.4815E-07  0.2000E+01
    -27.126  0.3613E-09  0.2000E+01
    -27.021  0.1497E-11  0.2000E+01
    -26.916  0.4222E-14  0.2000E+01
    -26.811  0.0000E+00  0.2000E+01
    -26.705  0.0000E+00  0.2000E+01
    -26.600  0.0000E+00  0.2000E+01
    -26.495  0.0000E+00  0.2000E+01
    -26.390  0.0000E+00  0.2000E+01
    -26.285  0.0000E+00  0.2000E+01
    -26.180  0.0000E+00  0.2000E+01
    -26.074  0.0000E+00  0.2000E+01
    -25.969  0.0000E+00  0.2000E+01
    -25.864  0.0000E+00  0.2000E+01
    -25.759  0.0000E+00  0.2000E+01
    -25.654  0.0000E+00  0.2000E+01
    -25.548  0.0000E+00  0.2000E+01
    -25.443  0.0000E+00  0.2000E+01
    -25.338  0.0000E+00  0.2000E+01
    -25.233  0.0000E+00  0.2000E+01
    -25.128  0.0000E+00  0.2000E+01
    -25.023  0.0000E+00  0.2000E+01
    -24.917  0.0000E+00  0.2000E+01
    -24.812  0.0000E+00  0.2000E+01
    -24.707  0.0000E+00  0.2000E+01
    -24.602  0.0000E+00  0.2000E+01
    -24.497  0.0000E+00  0.2000E+01
    -24.392  0.0000E+00  0.2000E+01
    -24.286  0.0000E+00  0.2000E+01
    -24.181  0.0000E+00  0.2000E+01
    -24.076  0.0000E+00  0.2000E+01
    -23.971  0.0000E+00  0.2000E+01
    -23.866  0.0000E+00  0.2000E+01
    -23.761  0.0000E+00  0.2000E+01
    -23.655  0.0000E+00  0.2000E+01
    -23.550  0.0000E+00  0.2000E+01
    -23.445  0.0000E+00  0.2000E+01
    -23.340  0.0000E+00  0.2000E+01
    -23.235  0.0000E+00  0.2000E+01
    -23.129  0.0000E+00  0.2000E+01
    -23.024  0.0000E+00  0.2000E+01
    -22.919  0.0000E+00  0.2000E+01
    -22.814  0.0000E+00  0.2000E+01
    -22.709  0.0000E+00  0.2000E+01
    -22.604  0.0000E+00  0.2000E+01
    -22.498  0.0000E+00  0.2000E+01
    -22.393  0.0000E+00  0.2000E+01
    -22.288  0.0000E+00  0.2000E+01
    -22.183  0.0000E+00  0.2000E+01
    -22.078  0.0000E+00  0.2000E+01
    -21.973  0.0000E+00  0.2000E+01
    -21.867  0.0000E+00  0.2000E+01
    -21.762  0.0000E+00  0.2000E+01
    -21.657  0.0000E+00  0.2000E+01
    -21.552  0.0000E+00  0.2000E+01
    -21.447  0.0000E+00  0.2000E+01
    -21.342  0.0000E+00  0.2000E+01
    -21.236  0.0000E+00  0.2000E+01
    -21.131  0.0000E+00  0.2000E+01
    -21.026  0.0000E+00  0.2000E+01
    -20.921  0.0000E+00  0.2000E+01
    -20.816  0.0000E+00  0.2000E+01
    -20.710  0.0000E+00  0.2000E+01
    -20.605  0.0000E+00  0.2000E+01
    -20.500  0.0000E+00  0.2000E+01
    -20.395  0.0000E+00  0.2000E+01
    -20.290  0.0000E+00  0.2000E+01
    -20.185  0.0000E+00  0.2000E+01
    -20.079  0.0000E+00  0.2000E+01
    -19.974  0.0000E+00  0.2000E+01
    -19.869  0.0000E+00  0.2000E+01
    -19.764  0.0000E+00  0.2000E+01
    -19.659  0.0000E+00  0.2000E+01
    -19.554  0.0000E+00  0.2000E+01
    -19.448  0.0000E+00  0.2000E+01
    -19.343  0.0000E+00  0.2000E+01
    -19.238  0.0000E+00  0.2000E+01
    -19.133  0.0000E+00  0.2000E+01
    -19.028  0.0000E+00  0.2000E+01
    -18.922  0.0000E+00  0.2000E+01
    -18.817  0.0000E+00  0.2000E+01
    -18.712  0.0000E+00  0.2000E+01
    -18.607  0.0000E+00  0.2000E+01
    -18.502  0.0000E+00  0.2000E+01
    -18.397  0.0000E+00  0.2000E+01
    -18.291  0.0000E+00  0.2000E+01
    -18.186  0.0000E+00  0.2000E+01
    -18.081  0.0000E+00  0.2000E+01
    -17.976  0.0000E+00  0.2000E+01
    -17.871  0.0000E+00  0.2000E+01
    -17.766  0.0000E+00  0.2000E+01
    -17.660  0.0000E+00  0.2000E+01
    -17.555  0.0000E+00  0.2000E+01
    -17.450  0.0000E+00  0.2000E+01
    -17.345  0.0000E+00  0.2000E+01
    -17.240  0.0000E+00  0.2000E+01
    -17.135  0.0000E+00  0.2000E+01
    -17.029  0.0000E+00  0.2000E+01
    -16.924  0.0000E+00  0.2000E+01
    -16.819  0.0000E+00  0.2000E+01
    -16.714  0.0000E+00  0.2000E+01
    -16.609  0.0000E+00  0.2000E+01
    -16.503  0.0000E+00  0.2000E+01
    -16.398  0.0000E+00  0.2000E+01
    -16.293  0.0000E+00  0.2000E+01
    -16.188  0.0000E+00  0.2000E+01
    -16.083  0.0000E+00  0.2000E+01
    -15.978  0.0000E+00  0.2000E+01
    -15.872  0.0000E+00  0.2000E+01
    -15.767  0.0000E+00  0.2000E+01
    -15.662  0.0000E+00  0.2000E+01
    -15.557  0.0000E+00  0.2000E+01
    -15.452  0.0000E+00  0.2000E+01
    -15.347  0.0000E+00  0.2000E+01
    -15.241  0.0000E+00  0.2000E+01
    -15.136  0.1785E-25  0.2000E+01
    -15.031  0.5839E-22  0.2000E+01
    -14.926  0.1081E-18  0.2000E+01
    -14.821  0.1129E-15  0.2000E+01
    -14.716  0.6631E-13  0.2000E+01
    -14.610  0.2182E-10  0.2000E+01
    -14.505  0.3977E-08  0.2000E+01
    -14.400  0.3979E-06  0.2000E+01
    -14.295  0.2148E-04  0.2000E+01
    -14.190  0.6059E-03  0.2000E+01
    -14.084  0.8380E-02  0.2001E+01
    -13.979  0.4739E-01  0.2006E+01
    -13.874  0.1419E-01  0.2007E+01
    -13.769 -0.5723E+00  0.1947E+01
    -13.664 -0.2641E+00  0.1919E+01
    -13.559  0.5178E+01  0.2464E+01
    -13.453  0.1003E+02  0.3519E+01
    -13.348  0.5312E+01  0.4078E+01
    -13.243 -0.2188E+00  0.4055E+01
    -13.138 -0.5866E+00  0.3993E+01
    -13.033  0.9906E-02  0.3994E+01
    -12.928  0.4835E-01  0.3999E+01
    -12.822  0.8723E-02  0.4000E+01
    -12.717  0.6395E-03  0.4000E+01
    -12.612  0.2294E-04  0.4000E+01
    -12.507  0.4300E-06  0.4000E+01
    -12.402  0.4345E-08  0.4000E+01
    -12.296  0.2507E-09  0.4000E+01
    -12.191  0.3187E-07  0.4000E+01
    -12.086  0.2443E-05  0.4000E+01
    -11.981  0.9991E-04  0.4000E+01
    -11.876  0.2090E-02  0.4000E+01
    -11.771  0.2032E-01  0.4002E+01
    -11.665  0.6440E-01  0.4009E+01
    -11.560 -0.1569E+00  0.3993E+01
    -11.455 -0.8087E+00  0.3908E+01
    -11.350  0.1482E+01  0.4063E+01
    -11.245  0.8265E+01  0.4933E+01
    -11.140  0.8402E+01  0.5816E+01
    -11.034  0.1339E+01  0.5957E+01
    -10.929  0.4316E+01  0.6411E+01
    -10.824  0.1567E+02  0.8059E+01
    -10.719  0.1541E+02  0.9680E+01
    -10.614  0.4429E+01  0.1015E+02
    -10.509 -0.1025E+01  0.1004E+02
    -10.403 -0.5016E+00  0.9985E+01
    -10.298  0.7898E-01  0.9994E+01
    -10.193  0.5209E-01  0.9999E+01
    -10.088  0.7682E-02  0.1000E+02
     -9.983  0.5025E-03  0.1000E+02
     -9.877  0.1656E-04  0.1000E+02
     -9.772  0.2889E-06  0.1000E+02
     -9.667  0.2736E-08  0.1000E+02
     -9.562  0.1428E-10  0.1000E+02
     -9.457  0.4222E-13  0.1000E+02
     -9.352  0.0000E+00  0.1000E+02
     -9.246  0.0000E+00  0.1000E+02
     -9.141  0.0000E+00  0.1000E+02
     -9.036  0.0000E+00  0.1000E+02
     -8.931  0.0000E+00  0.1000E+02
     -8.826  0.0000E+00  0.1000E+02
     -8.721  0.0000E+00  0.1000E+02
     -8.615  0.0000E+00  0.1000E+02
     -8.510  0.0000E+00  0.1000E+02
     -8.405  0.1318E-27  0.1000E+02
     -8.300  0.6725E-24  0.1000E+02
     -8.195  0.1764E-20  0.1000E+02
     -8.089  0.2626E-17  0.1000E+02
     -7.984  0.2213E-14  0.1000E+02
     -7.879  0.1053E-11  0.1000E+02
     -7.774  0.2809E-09  0.1000E+02
     -7.669  0.4175E-07  0.1000E+02
     -7.564  0.3419E-05  0.1000E+02
     -7.458  0.1513E-03  0.1000E+02
     -7.353  0.3495E-02  0.1000E+02
     -7.248  0.3900E-01  0.1000E+02
     -7.143  0.1639E+00  0.1002E+02
     -7.038 -0.1550E+00  0.1001E+02
     -6.933 -0.2031E+01  0.9792E+01
     -6.827  0.1167E+01  0.9915E+01
     -6.722  0.1924E+02  0.1194E+02
     -6.617  0.2909E+02  0.1500E+02
     -6.512  0.1218E+02  0.1628E+02
     -6.407 -0.3122E+01  0.1595E+02
     -6.302 -0.8615E+00  0.1586E+02
     -6.196  0.1691E+02  0.1764E+02
     -6.091  0.2707E+02  0.2049E+02
     -5.986  0.1306E+02  0.2186E+02
     -5.881  0.1930E+02  0.2389E+02
     -5.776  0.5636E+02  0.2982E+02
     -5.670  0.9566E+02  0.3988E+02
     -5.565  0.1767E+03  0.5846E+02
     -5.460  0.2802E+03  0.8793E+02
     -5.355  0.2810E+03  0.1175E+03
     -5.250  0.2115E+03  0.1397E+03
     -5.145  0.2224E+03  0.1631E+03
     -5.039  0.3198E+03  0.1968E+03
     -4.934  0.3650E+03  0.2352E+03
     -4.829  0.3084E+03  0.2676E+03
     -4.724  0.2979E+03  0.2989E+03
     -4.619  0.3809E+03  0.3390E+03
     -4.514  0.4181E+03  0.3830E+03
     -4.408  0.4320E+03  0.4284E+03
     -4.303  0.5226E+03  0.4834E+03
     -4.198  0.5361E+03  0.5397E+03
     -4.093  0.3147E+03  0.5728E+03
     -3.988  0.7455E+02  0.5807E+03
     -3.883  0.1712E+02  0.5825E+03
     -3.777  0.3370E+02  0.5860E+03
     -3.672  0.1824E+02  0.5879E+03
     -3.567  0.6984E+01  0.5887E+03
     -3.462  0.2041E+02  0.5908E+03
     -3.357  0.2150E+02  0.5931E+03
     -3.251  0.4545E+01  0.5936E+03
     -3.146  0.8189E+01  0.5944E+03
     -3.041  0.4780E+02  0.5994E+03
     -2.936  0.6172E+02  0.6059E+03
     -2.831  0.2906E+02  0.6090E+03
     -2.726  0.5906E+01  0.6096E+03
     -2.620  0.1233E+02  0.6109E+03
     -2.515  0.2789E+02  0.6138E+03
     -2.410  0.1865E+02  0.6158E+03
     -2.305  0.3343E+01  0.6162E+03
     -2.200  0.1773E+02  0.6180E+03
     -2.095  0.3503E+02  0.6217E+03
     -1.989  0.3322E+02  0.6252E+03
     -1.884  0.3826E+02  0.6292E+03
     -1.779  0.4636E+02  0.6341E+03
     -1.674  0.4533E+02  0.6389E+03
     -1.569  0.3750E+02  0.6428E+03
     -1.463  0.2465E+02  0.6454E+03
     -1.358  0.1927E+02  0.6474E+03
     -1.253  0.1529E+02  0.6490E+03
     -1.148  0.6542E+01  0.6497E+03
     -1.043  0.2920E+02  0.6528E+03
     -0.938  0.7185E+02  0.6604E+03
     -0.832  0.7018E+02  0.6677E+03
     -0.727  0.3386E+02  0.6713E+03
     -0.622  0.8027E+01  0.6721E+03
     -0.517 -0.7012E+00  0.6721E+03
     -0.412 -0.9068E+00  0.6720E+03
     -0.307  0.6087E-01  0.6720E+03
     -0.201  0.1309E+00  0.6720E+03
     -0.096  0.2952E-01  0.6720E+03
      0.009  0.2797E-02  0.6720E+03
      0.114  0.1311E-03  0.6720E+03
      0.219  0.3221E-05  0.6720E+03
      0.324  0.4273E-07  0.6720E+03
      0.430  0.3112E-09  0.6720E+03
      0.535  0.1256E-11  0.6720E+03
      0.640  0.2111E-14  0.6720E+03
      0.745  0.0000E+00  0.6720E+03
      0.850  0.0000E+00  0.6720E+03
      0.956  0.0000E+00  0.6720E+03
      1.061  0.0000E+00  0.6720E+03
      1.166  0.0000E+00  0.6720E+03
      1.271  0.0000E+00  0.6720E+03
