       N       E                     dE             d eps       ncg     rms          rms(c)
DAV:   1     0.439581966897E+04    0.43958E+04   -0.10050E+05   688   0.815E+02
DAV:   2     0.201050839633E+04   -0.23853E+04   -0.21458E+04  1224   0.105E+02
DAV:   3     0.228300093386E+03   -0.17822E+04   -0.16744E+04  1000   0.924E+01
DAV:   4    -0.135562827644E+03   -0.36386E+03   -0.30706E+03   824   0.436E+01
DAV:   5    -0.180620183593E+03   -0.45057E+02   -0.36683E+02  1056   0.145E+01    0.181E+01
RMM:   6    -0.181192962250E+03   -0.57278E+00   -0.71879E+01   727   0.951E+00    0.257E+01
RMM:   7    -0.185178664410E+03   -0.39857E+01   -0.21710E+01   846   0.508E+00    0.260E+01
RMM:   8    -0.185958897519E+03   -0.78023E+00   -0.91348E+00   787   0.395E+00    0.298E+01
RMM:   9    -0.183227435540E+03    0.27315E+01   -0.80520E+00   727   0.374E+00    0.252E+01
RMM:  10    -0.181654735879E+03    0.15727E+01   -0.54032E+00   734   0.339E+00    0.261E+01
RMM:  11    -0.179201920450E+03    0.24528E+01   -0.37269E+00   726   0.271E+00    0.187E+01
RMM:  12    -0.179248954488E+03   -0.47034E-01   -0.33693E+00   715   0.270E+00    0.216E+01
RMM:  13    -0.177999181005E+03    0.12498E+01   -0.23882E+00   719   0.227E+00    0.208E+01
RMM:  14    -0.177290637308E+03    0.70854E+00   -0.22995E+00   710   0.225E+00    0.208E+01
RMM:  15    -0.176263783260E+03    0.10269E+01   -0.12642E+00   707   0.160E+00    0.123E+01
RMM:  16    -0.176441096541E+03   -0.17731E+00   -0.62598E-01   719   0.117E+00    0.132E+01
RMM:  17    -0.176360413096E+03    0.80683E-01   -0.47270E-01   717   0.105E+00    0.154E+01
RMM:  18    -0.175840580307E+03    0.51983E+00   -0.46773E-01   701   0.108E+00    0.934E+00
RMM:  19    -0.175541059496E+03    0.29952E+00   -0.31145E-01   699   0.864E-01    0.822E+00
RMM:  20    -0.175468163151E+03    0.72896E-01   -0.24757E-01   702   0.762E-01    0.685E+00
RMM:  21    -0.175470493487E+03   -0.23303E-02   -0.23889E-01   698   0.749E-01    0.702E+00
RMM:  22    -0.175295523086E+03    0.17497E+00   -0.21101E-01   695   0.719E-01    0.560E+00
RMM:  23    -0.175278249306E+03    0.17274E-01   -0.18901E-01   698   0.675E-01    0.574E+00
RMM:  24    -0.175250885869E+03    0.27363E-01   -0.12972E-01   698   0.561E-01    0.525E+00
RMM:  25    -0.175183815015E+03    0.67071E-01   -0.10644E-01   693   0.524E-01    0.453E+00
RMM:  26    -0.175100318593E+03    0.83496E-01   -0.64789E-02   694   0.427E-01    0.263E+00
RMM:  27    -0.175084697751E+03    0.15621E-01   -0.36881E-02   695   0.310E-01    0.219E+00
RMM:  28    -0.175075716001E+03    0.89818E-02   -0.26190E-02   693   0.256E-01    0.195E+00
RMM:  29    -0.175053523110E+03    0.22193E-01   -0.13311E-02   697   0.195E-01    0.104E+00
RMM:  30    -0.175053473374E+03    0.49736E-04   -0.75634E-03   697   0.137E-01    0.112E+00
RMM:  31    -0.175054124467E+03   -0.65109E-03   -0.70805E-03   694   0.131E-01    0.136E+00
RMM:  32    -0.175048340380E+03    0.57841E-02   -0.54624E-03   693   0.121E-01    0.963E-01
RMM:  33    -0.175046592528E+03    0.17479E-02   -0.34158E-03   691   0.944E-02    0.710E-01
RMM:  34    -0.175046025630E+03    0.56690E-03   -0.25110E-03   688   0.809E-02    0.569E-01
RMM:  35    -0.175046806369E+03   -0.78074E-03   -0.17043E-03   692   0.652E-02    0.591E-01
RMM:  36    -0.175047010889E+03   -0.20452E-03   -0.13718E-03   687   0.597E-02    0.376E-01
RMM:  37    -0.175048007139E+03   -0.99625E-03   -0.89122E-04   684   0.467E-02    0.291E-01
RMM:  38    -0.175051769060E+03   -0.37619E-02   -0.99275E-04   685   0.496E-02    0.420E-01
RMM:  39    -0.175053577109E+03   -0.18080E-02   -0.67664E-04   647   0.404E-02    0.246E-01
RMM:  40    -0.175056347343E+03   -0.27702E-02   -0.61232E-04   602   0.357E-02    0.253E-01
RMM:  41    -0.175058834733E+03   -0.24874E-02   -0.56037E-04   558   0.335E-02    0.208E-01
RMM:  42    -0.175061145175E+03   -0.23104E-02   -0.47577E-04   522   0.296E-02    0.219E-01
RMM:  43    -0.175062907130E+03   -0.17620E-02   -0.30699E-04   437   0.250E-02    0.115E-01
RMM:  44    -0.175064070122E+03   -0.11630E-02   -0.17857E-04   419   0.191E-02    0.103E-01
RMM:  45    -0.175066729303E+03   -0.26592E-02   -0.34332E-04   461   0.215E-02    0.112E-01
RMM:  46    -0.175067840171E+03   -0.11109E-02   -0.17637E-04   420   0.169E-02    0.558E-02
RMM:  47    -0.175068886030E+03   -0.10459E-02   -0.10828E-04   409   0.131E-02    0.712E-02
RMM:  48    -0.175069931909E+03   -0.10459E-02   -0.91373E-05   409   0.116E-02    0.510E-02
RMM:  49    -0.175070337353E+03   -0.40544E-03   -0.43679E-05   398   0.786E-03    0.396E-02
RMM:  50    -0.175071428329E+03   -0.10910E-02   -0.45496E-05   399   0.775E-03    0.427E-02
RMM:  51    -0.175071711196E+03   -0.28287E-03   -0.19125E-05   319   0.553E-03    0.167E-02
RMM:  52    -0.175072584557E+03   -0.87336E-03   -0.26838E-05   374   0.598E-03    0.225E-02
RMM:  53    -0.175072930577E+03   -0.34602E-03   -0.95134E-06   214   0.432E-03    0.115E-02
RMM:  54    -0.175073325635E+03   -0.39506E-03   -0.13951E-05   268   0.476E-03    0.161E-02
RMM:  55    -0.175073643232E+03   -0.31760E-03   -0.14252E-05   249   0.451E-03    0.836E-03
RMM:  56    -0.175073760297E+03   -0.11706E-03   -0.38453E-06   139   0.366E-03    0.114E-02
RMM:  57    -0.175073906344E+03   -0.14605E-03   -0.64678E-06   161   0.382E-03    0.810E-03
RMM:  58    -0.175074053340E+03   -0.14700E-03   -0.11691E-05   207   0.395E-03    0.679E-03
RMM:  59    -0.175074137990E+03   -0.84651E-04   -0.41220E-06   135   0.340E-03
   1 F= -.17507414E+03 E0= -.17506415E+03  d E =-.399595E-01
