   57   57    1    1
  0.4736842E+03  0.3000000E-08  0.3000000E-08  0.3000000E-08  0.5000000E-15
  1.000000000000000E-004
  CAR 
 6_Pd100_top_free_z(O)                   
    560      1    336
 
  0.0000000E+00  0.0000000E+00  0.0000000E+00  0.1000000E+01
    1      -28.756518   1.000000
    2      -13.505962   1.000000
    3      -11.725360   1.000000
    4      -11.611214   1.000000
    5      -10.185935   1.000000
    6       -6.608589   1.000000
    7       -6.126149   1.000000
    8       -6.107234   1.000000
    9       -6.088959   1.000000
   10       -5.957248   1.000000
   11       -5.903633   1.000000
   12       -5.795992   1.000000
   13       -5.784866   1.000000
   14       -5.756917   1.000000
   15       -5.723008   1.000000
   16       -5.686338   1.000000
   17       -5.667590   1.000000
   18       -5.662365   1.000000
   19       -5.657252   1.000000
   20       -5.626584   1.000000
   21       -5.608629   1.000000
   22       -5.598643   1.000000
   23       -5.587735   1.000000
   24       -5.582379   1.000000
   25       -5.573069   1.000000
   26       -5.561956   1.000000
   27       -5.539498   1.000000
   28       -5.534935   1.000000
   29       -5.531168   1.000000
   30       -5.516240   1.000000
   31       -5.510226   1.000000
   32       -5.508047   1.000000
   33       -5.500550   1.000000
   34       -5.499681   1.000000
   35       -5.493823   1.000000
   36       -5.489042   1.000000
   37       -5.480249   1.000000
   38       -5.475758   1.000000
   39       -5.464002   1.000000
   40       -5.455220   1.000000
   41       -5.451824   1.000000
   42       -5.449676   1.000000
   43       -5.447415   1.000000
   44       -5.445389   1.000000
   45       -5.440526   1.000000
   46       -5.430269   1.000000
   47       -5.422204   1.000000
   48       -5.418185   1.000000
   49       -5.414136   1.000000
   50       -5.407702   1.000000
   51       -5.400373   1.000000
   52       -5.389094   1.000000
   53       -5.386624   1.000000
   54       -5.379620   1.000000
   55       -5.372819   1.000000
   56       -5.364739   1.000000
   57       -5.337894   1.000000
   58       -5.327989   1.000000
   59       -5.326842   1.000000
   60       -5.306327   1.000000
   61       -5.298523   1.000000
   62       -5.298088   1.000000
   63       -5.294677   1.000000
   64       -5.288690   1.000000
   65       -5.286605   1.000000
   66       -5.277910   1.000000
   67       -5.275608   1.000000
   68       -5.265782   1.000000
   69       -5.229946   1.000000
   70       -5.219051   1.000000
   71       -5.206543   1.000000
   72       -5.191083   1.000000
   73       -5.175943   1.000000
   74       -5.171607   1.000000
   75       -5.166364   1.000000
   76       -5.160339   1.000000
   77       -5.155865   1.000000
   78       -5.151422   1.000000
   79       -5.143347   1.000000
   80       -5.141527   1.000000
   81       -5.133188   1.000000
   82       -5.120582   1.000000
   83       -5.113115   1.000000
   84       -5.105179   1.000000
   85       -5.097660   1.000000
   86       -5.094861   1.000000
   87       -5.087055   1.000000
   88       -5.080025   1.000000
   89       -5.069475   1.000000
   90       -5.056395   1.000000
   91       -5.054131   1.000000
   92       -5.042623   1.000000
   93       -5.037267   1.000000
   94       -5.030803   1.000000
   95       -5.028295   1.000000
   96       -5.027556   1.000000
   97       -5.024291   1.000000
   98       -5.015554   1.000000
   99       -5.005956   1.000000
  100       -5.003604   1.000000
  101       -4.999496   1.000000
  102       -4.992349   1.000000
  103       -4.989065   1.000000
  104       -4.986437   1.000000
  105       -4.980824   1.000000
  106       -4.979468   1.000000
  107       -4.972350   1.000000
  108       -4.969777   1.000000
  109       -4.964493   1.000000
  110       -4.960344   1.000000
  111       -4.957558   1.000000
  112       -4.954777   1.000000
  113       -4.945562   1.000000
  114       -4.938456   1.000000
  115       -4.933598   0.999999
  116       -4.930637   0.999999
  117       -4.925966   0.999999
  118       -4.913291   0.999999
  119       -4.908063   0.999999
  120       -4.901956   0.999998
  121       -4.899295   0.999998
  122       -4.893854   0.999998
  123       -4.891716   0.999998
  124       -4.887150   0.999997
  125       -4.881165   0.999997
  126       -4.879955   0.999996
  127       -4.853052   0.999991
  128       -4.848633   0.999990
  129       -4.843397   0.999988
  130       -4.837027   0.999986
  131       -4.830547   0.999983
  132       -4.824508   0.999980
  133       -4.817778   0.999975
  134       -4.814205   0.999972
  135       -4.809497   0.999968
  136       -4.802168   0.999961
  137       -4.796444   0.999954
  138       -4.789776   0.999945
  139       -4.776875   0.999921
  140       -4.776254   0.999920
  141       -4.764716   0.999891
  142       -4.753961   0.999857
  143       -4.745396   0.999823
  144       -4.728274   0.999732
  145       -4.726723   0.999723
  146       -4.721450   0.999686
  147       -4.716961   0.999652
  148       -4.712176   0.999613
  149       -4.699650   0.999490
  150       -4.693183   0.999415
  151       -4.684214   0.999296
  152       -4.676690   0.999182
  153       -4.675282   0.999159
  154       -4.669325   0.999056
  155       -4.662461   0.998925
  156       -4.659063   0.998855
  157       -4.656693   0.998805
  158       -4.653074   0.998724
  159       -4.650498   0.998665
  160       -4.647231   0.998586
  161       -4.643799   0.998501
  162       -4.636901   0.998317
  163       -4.633050   0.998209
  164       -4.628406   0.998072
  165       -4.626656   0.998019
  166       -4.623341   0.997916
  167       -4.620511   0.997825
  168       -4.619579   0.997795
  169       -4.617005   0.997710
  170       -4.608128   0.997406
  171       -4.606945   0.997364
  172       -4.595071   0.996931
  173       -4.591900   0.996812
  174       -4.583247   0.996487
  175       -4.577290   0.996264
  176       -4.574389   0.996158
  177       -4.572805   0.996100
  178       -4.569195   0.995971
  179       -4.564695   0.995817
  180       -4.561045   0.995697
  181       -4.556576   0.995559
  182       -4.551916   0.995427
  183       -4.541168   0.995189
  184       -4.538531   0.995147
  185       -4.534363   0.995097
  186       -4.530890   0.995073
  187       -4.527167   0.995065
  188       -4.525281   0.995069
  189       -4.523526   0.995078
  190       -4.511826   0.995282
  191       -4.499271   0.995833
  192       -4.495630   0.996069
  193       -4.490469   0.996470
  194       -4.487219   0.996764
  195       -4.484984   0.996987
  196       -4.471329   0.998727
  197       -4.469315   0.999043
  198       -4.461861   1.000355
  199       -4.457692   1.001190
  200       -4.453790   1.002040
  201       -4.451279   1.002623
  202       -4.450232   1.002874
  203       -4.446190   1.003890
  204       -4.435046   1.007076
  205       -4.433996   1.007406
  206       -4.431328   1.008266
  207       -4.428351   1.009263
  208       -4.424263   1.010696
  209       -4.419960   1.012284
  210       -4.417486   1.013231
  211       -4.412638   1.015160
  212       -4.397203   1.021855
  213       -4.396191   1.022319
  214       -4.393318   1.023649
  215       -4.385171   1.027502
  216       -4.383297   1.028400
  217       -4.380466   1.029762
  218       -4.378307   1.030802
  219       -4.374044   1.032852
  220       -4.364467   1.037378
  221       -4.360004   1.039410
  222       -4.351403   1.043095
  223       -4.344540   1.045726
  224       -4.334218   1.048961
  225       -4.329021   1.050172
  226       -4.322467   1.051212
  227       -4.316563   1.051612
  228       -4.314434   1.051618
  229       -4.312645   1.051562
  230       -4.311115   1.051468
  231       -4.308568   1.051216
  232       -4.307485   1.051071
  233       -4.305233   1.050695
  234       -4.303310   1.050291
  235       -4.301773   1.049912
  236       -4.297754   1.048676
  237       -4.297079   1.048432
  238       -4.294367   1.047344
  239       -4.291364   1.045931
  240       -4.288400   1.044313
  241       -4.279521   1.038050
  242       -4.275524   1.034494
  243       -4.272491   1.031473
  244       -4.270570   1.029412
  245       -4.267878   1.026325
  246       -4.266454   1.024597
  247       -4.262033   1.018805
  248       -4.256983   1.011373
  249       -4.255988   1.009804
  250       -4.250549   1.000602
  251       -4.242633   0.985277
  252       -4.240580   0.980920
  253       -4.238994   0.977443
  254       -4.234822   0.967841
  255       -4.229982   0.955864
  256       -4.226978   0.947973
  257       -4.225134   0.942958
  258       -4.222872   0.936625
  259       -4.219125   0.925694
  260       -4.217716   0.921446
  261       -4.215089   0.913316
  262       -4.213827   0.909318
  263       -4.213394   0.907933
  264       -4.212496   0.905035
  265       -4.209800   0.896153
  266       -4.204168   0.876712
  267       -4.198966   0.857719
  268       -4.194900   0.842193
  269       -4.192914   0.834399
  270       -4.190716   0.825617
  271       -4.188809   0.817865
  272       -4.180513   0.782769
  273       -4.175797   0.761873
  274       -4.168103   0.726446
  275       -4.162187   0.698187
  276       -4.160600   0.690470
  277       -4.153423   0.654925
  278       -4.148411   0.629552
  279       -4.146443   0.619478
  280       -4.143283   0.603203
  281       -4.134403   0.556881
  282       -4.131053   0.539251
  283       -4.119937   0.480500
  284       -4.110013   0.428263
  285       -4.103354   0.393638
  286       -4.101998   0.386647
  287       -4.093270   0.342287
  288       -4.085146   0.302219
  289       -3.960774  -0.043139
  290       -3.930564  -0.051610
  291       -3.884368  -0.038108
  292       -3.798794  -0.003312
  293       -3.793611  -0.002075
  294       -3.671481   0.003792
  295       -3.471908   0.000082
  296       -3.460390   0.000060
  297       -3.226401   0.000000
  298       -3.049273   0.000000
  299       -3.035552   0.000000
  300       -3.030142   0.000000
  301       -3.000552   0.000000
  302       -2.991381   0.000000
  303       -2.963973   0.000000
  304       -2.915033   0.000000
  305       -2.770639   0.000000
  306       -2.521499   0.000000
  307       -2.498438   0.000000
  308       -2.387344   0.000000
  309       -2.288575   0.000000
  310       -2.138497   0.000000
  311       -2.095022   0.000000
  312       -2.035509   0.000000
  313       -1.975080   0.000000
  314       -1.925258   0.000000
  315       -1.868018   0.000000
  316       -1.835009   0.000000
  317       -1.821855   0.000000
  318       -1.782622   0.000000
  319       -1.686200   0.000000
  320       -1.605634   0.000000
  321       -1.591183   0.000000
  322       -1.522533   0.000000
  323       -1.459485   0.000000
  324       -1.431692   0.000000
  325       -1.284478   0.000000
  326       -1.180396   0.000000
  327       -1.082208   0.000000
  328       -1.007127   0.000000
  329       -0.955989   0.000000
  330       -0.951393   0.000000
  331       -0.906846   0.000000
  332       -0.899259   0.000000
  333       -0.855181   0.000000
  334       -0.817624   0.000000
  335       -0.784927   0.000000
  336       -0.714482   0.000000
