       N       E                     dE             d eps       ncg     rms          rms(c)
DAV:   1     0.439638831059E+04    0.43964E+04   -0.10054E+05   688   0.815E+02
DAV:   2     0.203295535976E+04   -0.23634E+04   -0.21237E+04  1208   0.105E+02
DAV:   3     0.239982384026E+03   -0.17930E+04   -0.16848E+04  1016   0.920E+01
DAV:   4    -0.132503435383E+03   -0.37249E+03   -0.31376E+03   824   0.437E+01
DAV:   5    -0.179420555855E+03   -0.46917E+02   -0.38405E+02  1056   0.148E+01    0.148E+01
RMM:   6    -0.179347789000E+03    0.72767E-01   -0.59007E+01   732   0.926E+00    0.202E+01
RMM:   7    -0.180007382326E+03   -0.65959E+00   -0.20061E+01   838   0.491E+00    0.186E+01
RMM:   8    -0.181473734994E+03   -0.14664E+01   -0.72945E+00   756   0.370E+00    0.232E+01
RMM:   9    -0.181332264835E+03    0.14147E+00   -0.36926E+00   743   0.274E+00    0.288E+01
RMM:  10    -0.179020757820E+03    0.23115E+01   -0.21414E+00   749   0.212E+00    0.208E+01
RMM:  11    -0.177218444356E+03    0.18023E+01   -0.19288E+00   719   0.206E+00    0.168E+01
RMM:  12    -0.176536372189E+03    0.68207E+00   -0.10987E+00   728   0.154E+00    0.144E+01
RMM:  13    -0.176112619436E+03    0.42375E+00   -0.13645E+00   712   0.171E+00    0.124E+01
RMM:  14    -0.176072356047E+03    0.40263E-01   -0.10493E+00   713   0.150E+00    0.168E+01
RMM:  15    -0.175802717296E+03    0.26964E+00   -0.10013E+00   711   0.143E+00    0.120E+01
RMM:  16    -0.175843810943E+03   -0.41094E-01   -0.60356E-01   719   0.115E+00    0.159E+01
RMM:  17    -0.175592425273E+03    0.25139E+00   -0.44274E-01   712   0.999E-01    0.116E+01
RMM:  18    -0.175761602625E+03   -0.16918E+00   -0.51252E-01   715   0.108E+00    0.153E+01
RMM:  19    -0.175137487645E+03    0.62411E+00   -0.42020E-01   704   0.992E-01    0.749E+00
RMM:  20    -0.174991085814E+03    0.14640E+00   -0.31739E-01   694   0.875E-01    0.710E+00
RMM:  21    -0.175025969151E+03   -0.34883E-01   -0.25533E-01   691   0.786E-01    0.804E+00
RMM:  22    -0.174806797892E+03    0.21917E+00   -0.15123E-01   695   0.627E-01    0.484E+00
RMM:  23    -0.174711409987E+03    0.95388E-01   -0.11354E-01   692   0.535E-01    0.437E+00
RMM:  24    -0.174656576762E+03    0.54833E-01   -0.60496E-02   692   0.391E-01    0.280E+00
RMM:  25    -0.174660946975E+03   -0.43702E-02   -0.58111E-02   691   0.369E-01    0.322E+00
RMM:  26    -0.174632332229E+03    0.28615E-01   -0.35392E-02   691   0.311E-01    0.300E+00
RMM:  27    -0.174600237838E+03    0.32094E-01   -0.25178E-02   690   0.272E-01    0.158E+00
RMM:  28    -0.174607956353E+03   -0.77185E-02   -0.25082E-02   690   0.252E-01    0.210E+00
RMM:  29    -0.174595267797E+03    0.12689E-01   -0.20663E-02   688   0.232E-01    0.161E+00
RMM:  30    -0.174581820269E+03    0.13448E-01   -0.97922E-03   689   0.168E-01    0.105E+00
RMM:  31    -0.174576141193E+03    0.56791E-02   -0.63454E-03   693   0.126E-01    0.727E-01
RMM:  32    -0.174574420184E+03    0.17210E-02   -0.48077E-03   689   0.106E-01    0.665E-01
RMM:  33    -0.174574889662E+03   -0.46948E-03   -0.40517E-03   686   0.998E-02    0.714E-01
RMM:  34    -0.174574378347E+03    0.51132E-03   -0.21955E-03   683   0.772E-02    0.565E-01
RMM:  35    -0.174574496627E+03   -0.11828E-03   -0.13075E-03   686   0.601E-02    0.405E-01
RMM:  36    -0.174576111655E+03   -0.16150E-02   -0.12125E-03   683   0.558E-02    0.351E-01
RMM:  37    -0.174577670135E+03   -0.15585E-02   -0.87270E-04   682   0.473E-02    0.279E-01
RMM:  38    -0.174579375174E+03   -0.17050E-02   -0.59420E-04   611   0.385E-02    0.239E-01
RMM:  39    -0.174581181791E+03   -0.18066E-02   -0.41858E-04   513   0.329E-02    0.187E-01
RMM:  40    -0.174582939456E+03   -0.17577E-02   -0.33395E-04   437   0.295E-02    0.180E-01
RMM:  41    -0.174586554643E+03   -0.36152E-02   -0.65187E-04   618   0.359E-02    0.209E-01
RMM:  42    -0.174589287141E+03   -0.27325E-02   -0.58225E-04   567   0.320E-02    0.179E-01
RMM:  43    -0.174591136271E+03   -0.18491E-02   -0.33840E-04   448   0.254E-02    0.141E-01
RMM:  44    -0.174592304999E+03   -0.11687E-02   -0.21310E-04   416   0.201E-02    0.123E-01
RMM:  45    -0.174594020553E+03   -0.17156E-02   -0.24787E-04   424   0.196E-02    0.137E-01
RMM:  46    -0.174595050229E+03   -0.10297E-02   -0.15547E-04   411   0.163E-02    0.900E-02
RMM:  47    -0.174596320684E+03   -0.12705E-02   -0.13150E-04   401   0.145E-02    0.935E-02
RMM:  48    -0.174597538872E+03   -0.12182E-02   -0.12102E-04   405   0.135E-02    0.639E-02
RMM:  49    -0.174598105814E+03   -0.56694E-03   -0.66165E-05   409   0.972E-03    0.583E-02
RMM:  50    -0.174599071318E+03   -0.96550E-03   -0.62459E-05   403   0.913E-03    0.362E-02
RMM:  51    -0.174599279314E+03   -0.20800E-03   -0.29293E-05   391   0.692E-03    0.365E-02
RMM:  52    -0.174599894450E+03   -0.61514E-03   -0.23092E-05   378   0.617E-03    0.217E-02
RMM:  53    -0.174600190467E+03   -0.29602E-03   -0.84776E-06   219   0.430E-03    0.194E-02
RMM:  54    -0.174600853110E+03   -0.66264E-03   -0.15353E-05   277   0.494E-03    0.174E-02
RMM:  55    -0.174601094588E+03   -0.24148E-03   -0.36933E-06   149   0.408E-03    0.126E-02
RMM:  56    -0.174601554114E+03   -0.45953E-03   -0.22536E-05   336   0.522E-03    0.144E-02
RMM:  57    -0.174601794817E+03   -0.24070E-03   -0.46364E-06   149   0.372E-03    0.915E-03
RMM:  58    -0.174601945640E+03   -0.15082E-03   -0.71398E-06   166   0.392E-03    0.847E-03
RMM:  59    -0.174602073601E+03   -0.12796E-03   -0.81981E-06   172   0.379E-03    0.637E-03
RMM:  60    -0.174602194027E+03   -0.12043E-03   -0.39362E-06   125   0.362E-03    0.600E-03
RMM:  61    -0.174602247779E+03   -0.53753E-04   -0.14388E-06    86   0.359E-03
   1 F= -.17460225E+03 E0= -.17459733E+03  d E =-.196804E-01
