   57   57    1    1
  0.4736842E+03  0.3000000E-08  0.3000000E-08  0.3000000E-08  0.5000000E-15
  1.000000000000000E-004
  CAR 
 6_Pd100_top_free_z(O)                   
    560      1    336
 
  0.0000000E+00  0.0000000E+00  0.0000000E+00  0.1000000E+01
    1      -28.407878   1.000000
    2      -13.339228   1.000000
    3      -11.101436   1.000000
    4      -10.894031   1.000000
    5      -10.513977   1.000000
    6       -6.659784   1.000000
    7       -6.279032   1.000000
    8       -6.160324   1.000000
    9       -6.139728   1.000000
   10       -6.136156   1.000000
   11       -6.116919   1.000000
   12       -5.869333   1.000000
   13       -5.822031   1.000000
   14       -5.819469   1.000000
   15       -5.760865   1.000000
   16       -5.725649   1.000000
   17       -5.702157   1.000000
   18       -5.696662   1.000000
   19       -5.688074   1.000000
   20       -5.664072   1.000000
   21       -5.654341   1.000000
   22       -5.639878   1.000000
   23       -5.632348   1.000000
   24       -5.610080   1.000000
   25       -5.602782   1.000000
   26       -5.593007   1.000000
   27       -5.579786   1.000000
   28       -5.568671   1.000000
   29       -5.558856   1.000000
   30       -5.556546   1.000000
   31       -5.541514   1.000000
   32       -5.531723   1.000000
   33       -5.530664   1.000000
   34       -5.528097   1.000000
   35       -5.523808   1.000000
   36       -5.520069   1.000000
   37       -5.515792   1.000000
   38       -5.510775   1.000000
   39       -5.502647   1.000000
   40       -5.491539   1.000000
   41       -5.483953   1.000000
   42       -5.481021   1.000000
   43       -5.478949   1.000000
   44       -5.476694   1.000000
   45       -5.472624   1.000000
   46       -5.463459   1.000000
   47       -5.451273   1.000000
   48       -5.442199   1.000000
   49       -5.438254   1.000000
   50       -5.435442   1.000000
   51       -5.433297   1.000000
   52       -5.429926   1.000000
   53       -5.415618   1.000000
   54       -5.415262   1.000000
   55       -5.407776   1.000000
   56       -5.404353   1.000000
   57       -5.390195   1.000000
   58       -5.364579   1.000000
   59       -5.356910   1.000000
   60       -5.338257   1.000000
   61       -5.336171   1.000000
   62       -5.329748   1.000000
   63       -5.326242   1.000000
   64       -5.322239   1.000000
   65       -5.312159   1.000000
   66       -5.309783   1.000000
   67       -5.303022   1.000000
   68       -5.295674   1.000000
   69       -5.275781   1.000000
   70       -5.258661   1.000000
   71       -5.220970   1.000000
   72       -5.219425   1.000000
   73       -5.212080   1.000000
   74       -5.205649   1.000000
   75       -5.200665   1.000000
   76       -5.191287   1.000000
   77       -5.189278   1.000000
   78       -5.181141   1.000000
   79       -5.175643   1.000000
   80       -5.172889   1.000000
   81       -5.171467   1.000000
   82       -5.157078   1.000000
   83       -5.150465   1.000000
   84       -5.140554   1.000000
   85       -5.135896   1.000000
   86       -5.122788   1.000000
   87       -5.117790   1.000000
   88       -5.115215   1.000000
   89       -5.103531   1.000000
   90       -5.080552   1.000000
   91       -5.077463   1.000000
   92       -5.067570   1.000000
   93       -5.065124   1.000000
   94       -5.062166   1.000000
   95       -5.061732   1.000000
   96       -5.055149   1.000000
   97       -5.051028   1.000000
   98       -5.047471   1.000000
   99       -5.039895   1.000000
  100       -5.037649   1.000000
  101       -5.033429   1.000000
  102       -5.028991   1.000000
  103       -5.020143   1.000000
  104       -5.015161   1.000000
  105       -5.014397   1.000000
  106       -5.008559   1.000000
  107       -5.007587   1.000000
  108       -5.000256   1.000000
  109       -4.997932   1.000000
  110       -4.988017   1.000000
  111       -4.986444   1.000000
  112       -4.981946   1.000000
  113       -4.974143   1.000000
  114       -4.970137   0.999999
  115       -4.966675   0.999999
  116       -4.965963   0.999999
  117       -4.957988   0.999999
  118       -4.948070   0.999999
  119       -4.941900   0.999999
  120       -4.937459   0.999998
  121       -4.927916   0.999998
  122       -4.920352   0.999997
  123       -4.915181   0.999996
  124       -4.912605   0.999996
  125       -4.911839   0.999996
  126       -4.907901   0.999996
  127       -4.884496   0.999991
  128       -4.876034   0.999988
  129       -4.868801   0.999985
  130       -4.859349   0.999980
  131       -4.850936   0.999974
  132       -4.849376   0.999973
  133       -4.845834   0.999970
  134       -4.844780   0.999969
  135       -4.839487   0.999964
  136       -4.825904   0.999947
  137       -4.814653   0.999928
  138       -4.808357   0.999914
  139       -4.802638   0.999900
  140       -4.798136   0.999888
  141       -4.786739   0.999850
  142       -4.776735   0.999808
  143       -4.773291   0.999791
  144       -4.766807   0.999756
  145       -4.749785   0.999638
  146       -4.746892   0.999614
  147       -4.740919   0.999559
  148       -4.738898   0.999539
  149       -4.733264   0.999479
  150       -4.730740   0.999451
  151       -4.714123   0.999226
  152       -4.711296   0.999182
  153       -4.699094   0.998965
  154       -4.693442   0.998850
  155       -4.691665   0.998813
  156       -4.686339   0.998694
  157       -4.685053   0.998664
  158       -4.683470   0.998626
  159       -4.680591   0.998556
  160       -4.675236   0.998418
  161       -4.672807   0.998353
  162       -4.663335   0.998082
  163       -4.659116   0.997952
  164       -4.657378   0.997898
  165       -4.655550   0.997839
  166       -4.654692   0.997811
  167       -4.653886   0.997785
  168       -4.650550   0.997675
  169       -4.645119   0.997489
  170       -4.639437   0.997288
  171       -4.631174   0.996986
  172       -4.623878   0.996713
  173       -4.619838   0.996561
  174       -4.611041   0.996233
  175       -4.607955   0.996120
  176       -4.605058   0.996016
  177       -4.603823   0.995972
  178       -4.598771   0.995799
  179       -4.598699   0.995796
  180       -4.587604   0.995456
  181       -4.586116   0.995416
  182       -4.578032   0.995230
  183       -4.576821   0.995207
  184       -4.573283   0.995149
  185       -4.567893   0.995088
  186       -4.566303   0.995077
  187       -4.564094   0.995067
  188       -4.557264   0.995085
  189       -4.556681   0.995090
  190       -4.552965   0.995136
  191       -4.544908   0.995329
  192       -4.529901   0.996093
  193       -4.519693   0.996977
  194       -4.518038   0.997152
  195       -4.515120   0.997483
  196       -4.508685   0.998322
  197       -4.506234   0.998682
  198       -4.502340   0.999303
  199       -4.497255   1.000206
  200       -4.494316   1.000778
  201       -4.483856   1.003115
  202       -4.476715   1.004992
  203       -4.472662   1.006161
  204       -4.470094   1.006940
  205       -4.467497   1.007759
  206       -4.459736   1.010388
  207       -4.457534   1.011181
  208       -4.454416   1.012342
  209       -4.453869   1.012549
  210       -4.447090   1.015224
  211       -4.439301   1.018511
  212       -4.434783   1.020510
  213       -4.431407   1.022041
  214       -4.426974   1.024094
  215       -4.418270   1.028226
  216       -4.415716   1.029454
  217       -4.415635   1.029492
  218       -4.413174   1.030678
  219       -4.410316   1.032054
  220       -4.400991   1.036488
  221       -4.391427   1.040816
  222       -4.376694   1.046583
  223       -4.374673   1.047250
  224       -4.369826   1.048694
  225       -4.364686   1.049952
  226       -4.358709   1.051008
  227       -4.346940   1.051546
  228       -4.345665   1.051464
  229       -4.343145   1.051212
  230       -4.343003   1.051194
  231       -4.341599   1.050997
  232       -4.341061   1.050911
  233       -4.337020   1.050075
  234       -4.334779   1.049462
  235       -4.333625   1.049103
  236       -4.330372   1.047926
  237       -4.329778   1.047684
  238       -4.326379   1.046135
  239       -4.325737   1.045810
  240       -4.322364   1.043930
  241       -4.316341   1.039815
  242       -4.308245   1.032646
  243       -4.304457   1.028605
  244       -4.299153   1.022174
  245       -4.295593   1.017332
  246       -4.295249   1.016841
  247       -4.292497   1.012770
  248       -4.289747   1.008435
  249       -4.287627   1.004911
  250       -4.279616   0.990116
  251       -4.274145   0.978641
  252       -4.270960   0.971436
  253       -4.269131   0.967124
  254       -4.266672   0.961123
  255       -4.262888   0.951432
  256       -4.261617   0.948052
  257       -4.258725   0.940129
  258       -4.255863   0.931970
  259       -4.253532   0.925090
  260       -4.252424   0.921744
  261       -4.250359   0.915384
  262       -4.248949   0.910948
  263       -4.247595   0.906619
  264       -4.246028   0.901517
  265       -4.243891   0.894410
  266       -4.237018   0.870398
  267       -4.233833   0.858681
  268       -4.230902   0.847575
  269       -4.229382   0.841696
  270       -4.227455   0.834128
  271       -4.225324   0.825609
  272       -4.217097   0.791315
  273       -4.213116   0.773957
  274       -4.205150   0.737840
  275       -4.193663   0.682894
  276       -4.190250   0.666012
  277       -4.184012   0.634603
  278       -4.182709   0.627960
  279       -4.181468   0.621611
  280       -4.179023   0.609040
  281       -4.167986   0.551484
  282       -4.162261   0.521294
  283       -4.145108   0.430805
  284       -4.138068   0.394174
  285       -4.136094   0.384003
  286       -4.135021   0.378498
  287       -4.124691   0.326402
  288       -4.119930   0.303065
  289       -4.091474   0.175720
  290       -3.971546  -0.051402
  291       -3.893599  -0.026029
  292       -3.833026  -0.003217
  293       -3.822003  -0.000748
  294       -3.704883   0.003747
  295       -3.510940   0.000092
  296       -3.496795   0.000063
  297       -3.402777   0.000004
  298       -3.078181   0.000000
  299       -3.071620   0.000000
  300       -3.053230   0.000000
  301       -3.047967   0.000000
  302       -3.024754   0.000000
  303       -2.962605   0.000000
  304       -2.947844   0.000000
  305       -2.824384   0.000000
  306       -2.537625   0.000000
  307       -2.531650   0.000000
  308       -2.406857   0.000000
  309       -2.342060   0.000000
  310       -2.172233   0.000000
  311       -2.122674   0.000000
  312       -2.097178   0.000000
  313       -2.068829   0.000000
  314       -1.972588   0.000000
  315       -1.934887   0.000000
  316       -1.877961   0.000000
  317       -1.806394   0.000000
  318       -1.748041   0.000000
  319       -1.720831   0.000000
  320       -1.648136   0.000000
  321       -1.617291   0.000000
  322       -1.560930   0.000000
  323       -1.419089   0.000000
  324       -1.364996   0.000000
  325       -1.268287   0.000000
  326       -1.201240   0.000000
  327       -1.180358   0.000000
  328       -1.016904   0.000000
  329       -0.993945   0.000000
  330       -0.984080   0.000000
  331       -0.954823   0.000000
  332       -0.947290   0.000000
  333       -0.925325   0.000000
  334       -0.875888   0.000000
  335       -0.864396   0.000000
  336       -0.580787   0.000000
