<?xml version="1.0" encoding="ISO-8859-1"?>
<modeling>
 <generator>
  <i name="program" type="string">vasp </i>
  <i name="version" type="string">5.4.4.18Apr17-6-g9f103f2a35  </i>
  <i name="subversion" type="string">(build Sep 03 2018 23:53:05) complex            parallel </i>
  <i name="platform" type="string">LinuxIFC </i>
  <i name="date" type="string">2021 11 26 </i>
  <i name="time" type="string">00:32:26 </i>
 </generator>
 <incar>
  <i type="string" name="SYSTEM"> 6_Pd100_top_free_z(O)</i>
  <i type="int" name="ISTART">     0</i>
  <i type="string" name="PREC">normal   			! encut=max(enmax), ngx,y,z</i>
  <i type="string" name="ALGO"> Fast     			! Mix RMM-DIIS and Dav</i>
  <i type="logical" name="ADDGRID"> F  </i>
  <i type="int" name="ISPIN">     1</i>
  <i type="int" name="ICHARG">     2</i>
  <i type="int" name="NELM">   100</i>
  <i type="int" name="NELMIN">     6</i>
  <i type="int" name="IBRION">     2</i>
  <i name="EDIFF">      0.00010000</i>
  <i name="EDIFFG">     -0.05000000</i>
  <i type="int" name="NSW">     0</i>
  <i type="int" name="ISIF">     2</i>
  <i type="int" name="ISYM">     2</i>
  <i name="ENCUT">    400.00000000</i>
  <i type="string" name="LREAL"> Auto     			! Auto or A projection done</i>
  <i type="int" name="ISMEAR">     2</i>
  <i name="SIGMA">      0.20000000</i>
  <i type="logical" name="LWAVE"> F  </i>
  <i type="logical" name="LCHARG"> F  </i>
  <v type="int" name="KPOINT_BSE">    -1     0     0     0</v>
  <i type="int" name="MAXMEM"> 10000</i>
  <i type="int" name="NELM">   100</i>
  <i type="string" name="GGA"> RP         			! Revised PBE</i>
 </incar>
 <structure name="primitive_cell" >
  <crystal>
   <varray name="basis" >
    <v>      30.00000000       0.00000000       0.00000000 </v>
    <v>       0.00000000      30.00000000       0.00000000 </v>
    <v>       0.00000000       0.00000000      30.00000000 </v>
   </varray>
   <i name="volume">  27000.00000000 </i>
   <varray name="rec_basis" >
    <v>       0.03333333       0.00000000       0.00000000 </v>
    <v>       0.00000000       0.03333333       0.00000000 </v>
    <v>       0.00000000       0.00000000       0.03333333 </v>
   </varray>
  </crystal>
  <varray name="positions" >
   <v>       0.44576020       0.32826710       0.41691983 </v>
   <v>      -0.44576020       0.32826710       0.41691983 </v>
   <v>      -0.50000000       0.38250690       0.34021317 </v>
   <v>      -0.50000000       0.27609440      -0.50000000 </v>
   <v>       0.38804720       0.38804720       0.34167483 </v>
   <v>      -0.50000000       0.38416601      -0.50000000 </v>
   <v>       0.44208300       0.44208300       0.41809300 </v>
   <v>       0.38317830       0.38317830      -0.50000000 </v>
   <v>      -0.44208300       0.44208300       0.41809300 </v>
   <v>       0.44576020       0.32826710      -0.41691977 </v>
   <v>       0.32826705       0.44576024       0.41691983 </v>
   <v>      -0.38804720       0.38804720       0.34167483 </v>
   <v>      -0.38317830       0.38317830      -0.50000000 </v>
   <v>      -0.50000000      -0.50000000       0.33478917 </v>
   <v>      -0.50000000      -0.50000000      -0.50000000 </v>
   <v>      -0.44576020       0.32826710      -0.41691977 </v>
   <v>       0.38250685      -0.49999995       0.34021317 </v>
   <v>       0.44208300       0.44208300      -0.41809297 </v>
   <v>       0.38416599      -0.49999998      -0.50000000 </v>
   <v>      -0.44208300       0.44208300      -0.41809297 </v>
   <v>       0.44208298      -0.44208298       0.41809300 </v>
   <v>       0.32826705       0.44576024      -0.41691977 </v>
   <v>      -0.50000000       0.38250690      -0.34021320 </v>
   <v>       0.32826712      -0.44576022       0.41691983 </v>
   <v>      -0.38250685      -0.49999995       0.34021317 </v>
   <v>      -0.32826705       0.44576024       0.41691983 </v>
   <v>       0.27609443       0.49999998      -0.50000000 </v>
   <v>       0.38804720       0.38804720      -0.34167487 </v>
   <v>      -0.38416599      -0.49999998      -0.50000000 </v>
   <v>      -0.44208298      -0.44208298       0.41809300 </v>
   <v>       0.44208298      -0.44208298      -0.41809297 </v>
   <v>       0.26564387      -0.44540823       0.43271883 </v>
   <v>      -0.38804720       0.38804720      -0.34167487 </v>
   <v>       0.38804722      -0.38804722       0.34167483 </v>
   <v>       0.38250685      -0.49999995      -0.34021320 </v>
   <v>       0.32826712      -0.44576022      -0.41691977 </v>
   <v>      -0.32826705       0.44576024      -0.41691977 </v>
   <v>       0.50000000      -0.38250681       0.34021317 </v>
   <v>      -0.50000000      -0.38416596      -0.50000000 </v>
   <v>      -0.44208298      -0.44208298      -0.41809297 </v>
   <v>      -0.50000000      -0.50000000      -0.33478913 </v>
   <v>       0.38317828      -0.38317828      -0.50000000 </v>
   <v>       0.23037690      -0.43719300       0.42259407 </v>
   <v>      -0.32826712      -0.44576022       0.41691983 </v>
   <v>      -0.27609443       0.49999998      -0.50000000 </v>
   <v>      -0.38804722      -0.38804722       0.34167483 </v>
   <v>      -0.38250685      -0.49999995      -0.34021320 </v>
   <v>       0.44576027      -0.32826707       0.41691983 </v>
   <v>      -0.38317828      -0.38317828      -0.50000000 </v>
   <v>      -0.32826712      -0.44576022      -0.41691977 </v>
   <v>      -0.44576027      -0.32826707       0.41691983 </v>
   <v>       0.38804722      -0.38804722      -0.34167487 </v>
   <v>      -0.50000000      -0.38250681      -0.34021320 </v>
   <v>       0.44576027      -0.32826707      -0.41691977 </v>
   <v>      -0.44576027      -0.32826707      -0.41691977 </v>
   <v>      -0.50000000      -0.27609445       0.50000000 </v>
   <v>      -0.38804722      -0.38804722      -0.34167487 </v>
  </varray>
 </structure>
 <varray name="primitive_index" >
  <v type="int" >        1 </v>
  <v type="int" >        3 </v>
  <v type="int" >        5 </v>
  <v type="int" >        7 </v>
  <v type="int" >       15 </v>
  <v type="int" >       29 </v>
  <v type="int" >       28 </v>
  <v type="int" >       34 </v>
  <v type="int" >       21 </v>
  <v type="int" >       19 </v>
  <v type="int" >       22 </v>
  <v type="int" >       11 </v>
  <v type="int" >       36 </v>
  <v type="int" >       38 </v>
  <v type="int" >       52 </v>
  <v type="int" >       24 </v>
  <v type="int" >       32 </v>
  <v type="int" >       44 </v>
  <v type="int" >       48 </v>
  <v type="int" >       42 </v>
  <v type="int" >       43 </v>
  <v type="int" >       40 </v>
  <v type="int" >        6 </v>
  <v type="int" >        4 </v>
  <v type="int" >       30 </v>
  <v type="int" >       26 </v>
  <v type="int" >        8 </v>
  <v type="int" >       16 </v>
  <v type="int" >       49 </v>
  <v type="int" >       47 </v>
  <v type="int" >       53 </v>
  <v type="int" >       56 </v>
  <v type="int" >       12 </v>
  <v type="int" >       13 </v>
  <v type="int" >       33 </v>
  <v type="int" >       25 </v>
  <v type="int" >       45 </v>
  <v type="int" >       50 </v>
  <v type="int" >       55 </v>
  <v type="int" >       54 </v>
  <v type="int" >       39 </v>
  <v type="int" >       37 </v>
  <v type="int" >       57 </v>
  <v type="int" >        2 </v>
  <v type="int" >        9 </v>
  <v type="int" >       17 </v>
  <v type="int" >       31 </v>
  <v type="int" >       27 </v>
  <v type="int" >       35 </v>
  <v type="int" >       20 </v>
  <v type="int" >       23 </v>
  <v type="int" >       14 </v>
  <v type="int" >       51 </v>
  <v type="int" >       46 </v>
  <v type="int" >       41 </v>
  <v type="int" >       10 </v>
  <v type="int" >       18 </v>
 </varray>
 <kpoints>
  <generation param="Monkhorst-Pack">
   <v type="int" name="divisions">       1        1        1 </v>
   <v name="usershift">      0.00000000       0.00000000       0.00000000 </v>
   <v name="genvec1">      1.00000000       0.00000000       0.00000000 </v>
   <v name="genvec2">      0.00000000       1.00000000       0.00000000 </v>
   <v name="genvec3">      0.00000000       0.00000000       1.00000000 </v>
   <v name="shift">      0.00000000       0.00000000       0.00000000 </v>
  </generation>
  <varray name="kpointlist" >
   <v>       0.00000000       0.00000000       0.00000000 </v>
  </varray>
  <varray name="weights" >
   <v>       1.00000000 </v>
  </varray>
 </kpoints>
 <parameters>
  <separator name="general" >
   <i type="string" name="SYSTEM">6_Pd100_top_free_z(O)</i>
   <i type="logical" name="LCOMPAT"> F  </i>
  </separator>
  <separator name="electronic" >
   <i type="string" name="PREC">normal</i>
   <i name="ENMAX">    400.00000000</i>
   <i name="ENAUG">    644.87300000</i>
   <i name="EDIFF">      0.00010000</i>
   <i type="int" name="IALGO">    68</i>
   <i type="int" name="IWAVPR">    10</i>
   <i type="int" name="NBANDS">   336</i>
   <i name="NELECT">    560.00000000</i>
   <i type="int" name="TURBO">     0</i>
   <i type="int" name="IRESTART">     0</i>
   <i type="int" name="NREBOOT">     0</i>
   <i type="int" name="NMIN">     0</i>
   <i name="EREF">      0.00000000</i>
   <separator name="electronic smearing" >
    <i type="int" name="ISMEAR">     2</i>
    <i name="SIGMA">      0.20000000</i>
    <i name="KSPACING">      0.50000000</i>
    <i type="logical" name="KGAMMA"> T  </i>
   </separator>
   <separator name="electronic projectors" >
    <i type="logical" name="LREAL"> T  </i>
    <v name="ROPT">     -0.00050000     -0.00050000     -0.00050000</v>
    <i type="int" name="LMAXPAW">  -100</i>
    <i type="int" name="LMAXMIX">     2</i>
    <i type="logical" name="NLSPLINE"> F  </i>
   </separator>
   <separator name="electronic startup" >
    <i type="int" name="ISTART">     0</i>
    <i type="int" name="ICHARG">     2</i>
    <i type="int" name="INIWAV">     1</i>
   </separator>
   <separator name="electronic spin" >
    <i type="int" name="ISPIN">     1</i>
    <i type="logical" name="LNONCOLLINEAR"> F  </i>
    <v name="MAGMOM">      1.00000000      1.00000000      1.00000000      1.00000000      1.00000000      1.00000000      1.00000000      1.00000000      1.00000000      1.00000000      1.00000000      1.00000000      1.00000000      1.00000000      1.00000000      1.00000000      1.00000000      1.00000000      1.00000000      1.00000000
      1.00000000      1.00000000      1.00000000      1.00000000      1.00000000      1.00000000      1.00000000      1.00000000      1.00000000      1.00000000      1.00000000      1.00000000      1.00000000      1.00000000      1.00000000      1.00000000      1.00000000      1.00000000      1.00000000      1.00000000
      1.00000000      1.00000000      1.00000000      1.00000000      1.00000000      1.00000000      1.00000000      1.00000000      1.00000000      1.00000000      1.00000000      1.00000000      1.00000000      1.00000000      1.00000000      1.00000000      1.00000000</v>
    <i name="NUPDOWN">     -1.00000000</i>
    <i type="logical" name="LSORBIT"> F  </i>
    <v name="SAXIS">      0.00000000      0.00000000      1.00000000</v>
    <i type="logical" name="LSPIRAL"> F  </i>
    <v name="QSPIRAL">      0.00000000      0.00000000      0.00000000</v>
    <i type="logical" name="LZEROZ"> F  </i>
   </separator>
   <separator name="electronic exchange-correlation" >
    <i type="logical" name="LASPH"> F  </i>
    <i type="logical" name="LMETAGGA"> F  </i>
   </separator>
   <separator name="electronic convergence" >
    <i type="int" name="NELM">   100</i>
    <i type="int" name="NELMDL">    -5</i>
    <i type="int" name="NELMIN">     6</i>
    <i name="ENINI">    400.00000000</i>
    <separator name="electronic convergence detail" >
     <i type="logical" name="LDIAG"> T  </i>
     <i type="logical" name="LSUBROT"> F  </i>
     <i name="WEIMIN">      0.00000000</i>
     <i name="EBREAK">      0.00000007</i>
     <i name="DEPER">      0.30000000</i>
     <i type="int" name="NRMM">     4</i>
     <i name="TIME">      0.40000000</i>
    </separator>
   </separator>
   <separator name="electronic mixer" >
    <i name="AMIX">      0.40000000</i>
    <i name="BMIX">      1.00000000</i>
    <i name="AMIN">      0.10000000</i>
    <i name="AMIX_MAG">      1.60000000</i>
    <i name="BMIX_MAG">      1.00000000</i>
    <separator name="electronic mixer details" >
     <i type="int" name="IMIX">     4</i>
     <i type="logical" name="MIXFIRST"> F  </i>
     <i type="int" name="MAXMIX">   -45</i>
     <i name="WC">    100.00000000</i>
     <i type="int" name="INIMIX">     1</i>
     <i type="int" name="MIXPRE">     1</i>
     <i type="int" name="MREMOVE">     5</i>
    </separator>
   </separator>
   <separator name="electronic dipolcorrection" >
    <i type="logical" name="LDIPOL"> F  </i>
    <i type="logical" name="LMONO"> F  </i>
    <i type="int" name="IDIPOL">     0</i>
    <i name="EPSILON">      1.00000000</i>
    <v name="DIPOL">   -100.00000000   -100.00000000   -100.00000000</v>
    <i name="EFIELD">      0.00000000</i>
   </separator>
  </separator>
  <separator name="grids" >
   <i type="int" name="NGX">   150</i>
   <i type="int" name="NGY">   150</i>
   <i type="int" name="NGZ">   150</i>
   <i type="int" name="NGXF">   300</i>
   <i type="int" name="NGYF">   300</i>
   <i type="int" name="NGZF">   300</i>
   <i type="logical" name="ADDGRID"> F  </i>
  </separator>
  <separator name="ionic" >
   <i type="int" name="NSW">     0</i>
   <i type="int" name="IBRION">    -1</i>
   <i type="int" name="MDALGO">     0</i>
   <i type="int" name="ISIF">     2</i>
   <i name="PSTRESS">      0.00000000</i>
   <i name="EDIFFG">     -0.05000000</i>
   <i type="int" name="NFREE">     1</i>
   <i name="POTIM">      0.50000000</i>
   <i name="SMASS">     -3.00000000</i>
   <i name="SCALEE">      1.00000000</i>
  </separator>
  <separator name="ionic md" >
   <i name="TEBEG">      0.00010000</i>
   <i name="TEEND">      0.00010000</i>
   <i type="int" name="NBLOCK">     1</i>
   <i type="int" name="KBLOCK">     1</i>
   <i type="int" name="NPACO">   256</i>
   <i name="APACO">     16.00000000</i>
  </separator>
  <separator name="symmetry" >
   <i type="int" name="ISYM">     2</i>
   <i name="SYMPREC">      0.00001000</i>
  </separator>
  <separator name="dos" >
   <i type="int" name="LORBIT">     0</i>
   <v name="RWIGS">     -1.00000000     -1.00000000     -1.00000000</v>
   <i type="int" name="NEDOS">   301</i>
   <i name="EMIN">     10.00000000</i>
   <i name="EMAX">    -10.00000000</i>
   <i name="EFERMI">      0.00000000</i>
  </separator>
  <separator name="writing" >
   <i type="int" name="NWRITE">     2</i>
   <i type="logical" name="LWAVE"> F  </i>
   <i type="logical" name="LDOWNSAMPLE"> F  </i>
   <i type="logical" name="LCHARG"> F  </i>
   <i type="logical" name="LPARD"> F  </i>
   <i type="logical" name="LVTOT"> F  </i>
   <i type="logical" name="LVHAR"> F  </i>
   <i type="logical" name="LELF"> F  </i>
   <i type="logical" name="LOPTICS"> F  </i>
   <v name="STM">      0.00000000      0.00000000      0.00000000      0.00000000      0.00000000      0.00000000      0.00000000</v>
  </separator>
  <separator name="performance" >
   <i type="int" name="NPAR">     1</i>
   <i type="int" name="NSIM">     4</i>
   <i type="int" name="NBLK">    -1</i>
   <i type="logical" name="LPLANE"> T  </i>
   <i type="logical" name="LSCALAPACK"> T  </i>
   <i type="logical" name="LSCAAWARE"> F  </i>
   <i type="logical" name="LSCALU"> F  </i>
   <i type="logical" name="LASYNC"> F  </i>
   <i type="logical" name="LORBITALREAL"> F  </i>
  </separator>
  <separator name="miscellaneous" >
   <i type="int" name="IDIOT">     3</i>
   <i type="int" name="ISPECIAL">     0</i>
   <i type="logical" name="LMUSIC"> F  </i>
   <v name="POMASS">    106.42000000     12.01100000     16.00000000</v>
   <v name="DARWINR">      0.00000000      0.00000000      0.00000000</v>
   <v name="DARWINV">      1.00000000      1.00000000      1.00000000</v>
   <i type="logical" name="LCORR"> T  </i>
  </separator>
  <i type="logical" name="GGA_COMPAT"> T  </i>
  <i type="logical" name="LBERRY"> F  </i>
  <i type="int" name="ICORELEVEL">     0</i>
  <i type="logical" name="LDAU"> F  </i>
  <i type="int" name="I_CONSTRAINED_M">     0</i>
  <separator name="electronic exchange-correlation" >
   <i type="string" name="GGA">RP</i>
   <i type="int" name="VOSKOWN">     0</i>
   <i type="logical" name="LHFCALC"> F  </i>
   <i type="string" name="PRECFOCK"></i>
   <i type="logical" name="LSYMGRAD"> F  </i>
   <i type="logical" name="LHFONE"> F  </i>
   <i type="logical" name="LRHFCALC"> F  </i>
   <i type="logical" name="LTHOMAS"> F  </i>
   <i type="logical" name="LMODELHF"> F  </i>
   <i name="ENCUT4O">     -1.00000000</i>
   <i type="int" name="EXXOEP">     0</i>
   <i type="int" name="FOURORBIT">     0</i>
   <i name="AEXX">      0.00000000</i>
   <i name="HFALPHA">      0.00000000</i>
   <i name="MCALPHA">      0.00000000</i>
   <i name="ALDAX">      1.00000000</i>
   <i name="AGGAX">      1.00000000</i>
   <i name="ALDAC">      1.00000000</i>
   <i name="AGGAC">      1.00000000</i>
   <i type="int" name="NKREDX">     1</i>
   <i type="int" name="NKREDY">     1</i>
   <i type="int" name="NKREDZ">     1</i>
   <i type="logical" name="SHIFTRED"> F  </i>
   <i type="logical" name="ODDONLY"> F  </i>
   <i type="logical" name="EVENONLY"> F  </i>
   <i type="int" name="LMAXFOCK">     0</i>
   <i type="int" name="NMAXFOCKAE">     0</i>
   <i type="logical" name="LFOCKAEDFT"> F  </i>
   <i name="HFSCREEN">      0.00000000</i>
   <i name="HFSCREENC">      0.00000000</i>
   <i type="int" name="NBANDSGWLOW">     0</i>
  </separator>
  <separator name="vdW DFT" >
   <i type="logical" name="LUSE_VDW"> F  </i>
   <i name="Zab_VDW">     -0.84910000</i>
   <i name="PARAM1">      0.12340000</i>
   <i name="PARAM2">      1.00000000</i>
   <i name="PARAM3">      0.00000000</i>
  </separator>
  <separator name="model GW" >
   <i type="int" name="MODEL_GW">     0</i>
   <i name="MODEL_EPS0">    284.21052632</i>
   <i name="MODEL_ALPHA">      1.00000000</i>
  </separator>
  <separator name="linear response parameters" >
   <i type="logical" name="LEPSILON"> F  </i>
   <i type="logical" name="LRPA"> F  </i>
   <i type="logical" name="LNABLA"> F  </i>
   <i type="logical" name="LVEL"> F  </i>
   <i type="int" name="KINTER">     0</i>
   <i name="CSHIFT">      0.10000000</i>
   <i name="OMEGAMAX">     -1.00000000</i>
   <i name="DEG_THRESHOLD">      0.00200000</i>
   <i name="RTIME">     -0.10000000</i>
   <i name="WPLASMAI">      0.00000000</i>
   <v name="DFIELD">      0.00000000      0.00000000      0.00000000</v>
   <v name="WPLASMA">      0.00000000      0.00000000      0.00000000      0.00000000      0.00000000      0.00000000      0.00000000      0.00000000      0.00000000</v>
  </separator>
  <separator name="orbital magnetization" >
   <i type="logical" name="NUCIND"> F  </i>
   <v name="MAGPOS">      0.00000000      0.00000000      0.00000000</v>
   <i type="logical" name="LNICSALL"> T  </i>
   <i type="logical" name="ORBITALMAG"> F  </i>
   <i type="logical" name="LMAGBLOCH"> F  </i>
   <i type="logical" name="LCHIMAG"> F  </i>
   <i type="logical" name="LGAUGE"> T  </i>
   <i type="int" name="MAGATOM">     0</i>
   <v name="MAGDIPOL">      0.00000000      0.00000000      0.00000000</v>
   <v name="AVECCONST">      0.00000000      0.00000000      0.00000000</v>
  </separator>
  <separator name="response functions" >
   <i type="logical" name="LADDER"> F  </i>
   <i type="logical" name="LRPAFORCE"> F  </i>
   <i type="logical" name="LFXC"> F  </i>
   <i type="logical" name="LHARTREE"> T  </i>
   <i type="int" name="IBSE">     0</i>
   <v type="int" name="KPOINT">    -1     0     0     0</v>
   <i type="logical" name="LTCTE"> F  </i>
   <i type="logical" name="LTETE"> F  </i>
   <i type="logical" name="LTRIPLET"> F  </i>
   <i type="logical" name="LFXCEPS"> F  </i>
   <i type="logical" name="LFXHEG"> F  </i>
   <i type="int" name="NATURALO">     2</i>
   <i type="logical" name="L2ORDER"> F  </i>
   <i type="logical" name="LMP2LT"> F  </i>
   <i type="logical" name="LUSEW"> F  </i>
   <i name="ENCUTGW">     -2.00000000</i>
   <i name="ENCUTGWSOFT">     -2.00000000</i>
   <i name="ENCUTLF">     -1.00000000</i>
   <i type="int" name="LMAXMP2">    -1</i>
   <i name="SCISSOR">      0.00000000</i>
   <i type="int" name="NOMEGA">     0</i>
   <i type="int" name="NOMEGAR">     0</i>
   <i type="int" name="NBANDSGW">    -1</i>
   <i type="int" name="NBANDSO">    -1</i>
   <i type="int" name="NBANDSV">    -1</i>
   <i type="int" name="NELM">   100</i>
   <i type="int" name="NELMHF">     1</i>
   <i type="int" name="DIM">     3</i>
   <i type="int" name="ANTIRES">     0</i>
   <i name="OMEGAMAX">    -30.00000000</i>
   <i name="OMEGAMIN">    -30.00000000</i>
   <i name="OMEGATL">   -200.00000000</i>
   <i type="int" name="OMEGAGRID">   140</i>
   <i name="CSHIFT">     -0.10000000</i>
   <i type="logical" name="SELFENERGY"> F  </i>
   <i type="logical" name="LSPECTRAL"> F  </i>
   <i type="logical" name="LSPECTRALGW"> F  </i>
   <i type="logical" name="LSINGLES"> F  </i>
   <i type="logical" name="LFERMIGW"> F  </i>
   <i type="logical" name="ODDONLYGW"> F  </i>
   <i type="logical" name="EVENONLYGW"> F  </i>
   <i type="int" name="NKREDLFX">     1</i>
   <i type="int" name="NKREDLFY">     1</i>
   <i type="int" name="NKREDLFZ">     1</i>
   <i type="int" name="MAXMEM"> 10000</i>
   <i type="int" name="TELESCOPE">     0</i>
   <i type="int" name="TAUPAR">     1</i>
   <i type="int" name="OMEGAPAR">    -1</i>
   <i name="LAMBDA">      1.00000000</i>
  </separator>
  <separator name="External order field" >
   <i name="OFIELD_KAPPA">      0.00000000</i>
   <v name="OFIELD_K">      0.00000000      0.00000000      0.00000000</v>
   <i name="OFIELD_Q6_NEAR">      0.00000000</i>
   <i name="OFIELD_Q6_FAR">      0.00000000</i>
   <i name="OFIELD_A">      0.00000000</i>
  </separator>
 </parameters>
 <atominfo>
  <atoms>      57 </atoms>
  <types>       3 </types>
  <array name="atoms" >
   <dimension dim="1">ion</dimension>
   <field type="string">element</field>
   <field type="int">atomtype</field>
   <set>
    <rc><c>Pd</c><c>   1</c></rc>
    <rc><c>Pd</c><c>   1</c></rc>
    <rc><c>Pd</c><c>   1</c></rc>
    <rc><c>Pd</c><c>   1</c></rc>
    <rc><c>Pd</c><c>   1</c></rc>
    <rc><c>Pd</c><c>   1</c></rc>
    <rc><c>Pd</c><c>   1</c></rc>
    <rc><c>Pd</c><c>   1</c></rc>
    <rc><c>Pd</c><c>   1</c></rc>
    <rc><c>Pd</c><c>   1</c></rc>
    <rc><c>Pd</c><c>   1</c></rc>
    <rc><c>Pd</c><c>   1</c></rc>
    <rc><c>Pd</c><c>   1</c></rc>
    <rc><c>Pd</c><c>   1</c></rc>
    <rc><c>Pd</c><c>   1</c></rc>
    <rc><c>Pd</c><c>   1</c></rc>
    <rc><c>Pd</c><c>   1</c></rc>
    <rc><c>Pd</c><c>   1</c></rc>
    <rc><c>Pd</c><c>   1</c></rc>
    <rc><c>Pd</c><c>   1</c></rc>
    <rc><c>Pd</c><c>   1</c></rc>
    <rc><c>Pd</c><c>   1</c></rc>
    <rc><c>Pd</c><c>   1</c></rc>
    <rc><c>Pd</c><c>   1</c></rc>
    <rc><c>Pd</c><c>   1</c></rc>
    <rc><c>Pd</c><c>   1</c></rc>
    <rc><c>Pd</c><c>   1</c></rc>
    <rc><c>Pd</c><c>   1</c></rc>
    <rc><c>Pd</c><c>   1</c></rc>
    <rc><c>Pd</c><c>   1</c></rc>
    <rc><c>Pd</c><c>   1</c></rc>
    <rc><c>Pd</c><c>   1</c></rc>
    <rc><c>Pd</c><c>   1</c></rc>
    <rc><c>Pd</c><c>   1</c></rc>
    <rc><c>Pd</c><c>   1</c></rc>
    <rc><c>Pd</c><c>   1</c></rc>
    <rc><c>Pd</c><c>   1</c></rc>
    <rc><c>Pd</c><c>   1</c></rc>
    <rc><c>Pd</c><c>   1</c></rc>
    <rc><c>Pd</c><c>   1</c></rc>
    <rc><c>Pd</c><c>   1</c></rc>
    <rc><c>Pd</c><c>   1</c></rc>
    <rc><c>Pd</c><c>   1</c></rc>
    <rc><c>Pd</c><c>   1</c></rc>
    <rc><c>Pd</c><c>   1</c></rc>
    <rc><c>Pd</c><c>   1</c></rc>
    <rc><c>Pd</c><c>   1</c></rc>
    <rc><c>Pd</c><c>   1</c></rc>
    <rc><c>Pd</c><c>   1</c></rc>
    <rc><c>Pd</c><c>   1</c></rc>
    <rc><c>Pd</c><c>   1</c></rc>
    <rc><c>Pd</c><c>   1</c></rc>
    <rc><c>Pd</c><c>   1</c></rc>
    <rc><c>Pd</c><c>   1</c></rc>
    <rc><c>Pd</c><c>   1</c></rc>
    <rc><c>C </c><c>   2</c></rc>
    <rc><c>O </c><c>   3</c></rc>
   </set>
  </array>
  <array name="atomtypes" >
   <dimension dim="1">type</dimension>
   <field type="int">atomspertype</field>
   <field type="string">element</field>
   <field>mass</field>
   <field>valence</field>
   <field type="string">pseudopotential</field>
   <set>
    <rc><c>  55</c><c>Pd</c><c>    106.42000000</c><c>     10.00000000</c><c>  PAW_PBE Pd 04Jan2005                  </c></rc>
    <rc><c>   1</c><c>C </c><c>     12.01100000</c><c>      4.00000000</c><c>  PAW_PBE C 08Apr2002                   </c></rc>
    <rc><c>   1</c><c>O </c><c>     16.00000000</c><c>      6.00000000</c><c>  PAW_PBE O 08Apr2002                   </c></rc>
   </set>
  </array>
 </atominfo>
 <structure name="initialpos" >
  <crystal>
   <varray name="basis" >
    <v>      30.00000000       0.00000000       0.00000000 </v>
    <v>       0.00000000      30.00000000       0.00000000 </v>
    <v>       0.00000000       0.00000000      30.00000000 </v>
   </varray>
   <i name="volume">  27000.00000000 </i>
   <varray name="rec_basis" >
    <v>       0.03333333       0.00000000       0.00000000 </v>
    <v>       0.00000000       0.03333333       0.00000000 </v>
    <v>       0.00000000       0.00000000       0.03333333 </v>
   </varray>
  </crystal>
  <varray name="positions" >
   <v>       0.44576020       0.32826710       0.41691983 </v>
   <v>       0.67173288       0.55423978       0.41691983 </v>
   <v>       0.55423980       0.32826710       0.41691983 </v>
   <v>       0.32826712       0.55423978       0.41691983 </v>
   <v>       0.50000000       0.38250690       0.34021317 </v>
   <v>       0.50000000       0.38250690       0.65978680 </v>
   <v>       0.50000000       0.27609440       0.50000000 </v>
   <v>       0.27609443       0.49999998       0.50000000 </v>
   <v>       0.72390557       0.49999998       0.50000000 </v>
   <v>       0.50000000       0.72390555       0.50000000 </v>
   <v>       0.61195280       0.38804720       0.34167483 </v>
   <v>       0.61195280       0.38804720       0.65832513 </v>
   <v>       0.38804722       0.61195278       0.34167483 </v>
   <v>       0.38804722       0.61195278       0.65832513 </v>
   <v>       0.38804720       0.38804720       0.34167483 </v>
   <v>       0.38804720       0.38804720       0.65832513 </v>
   <v>       0.61195278       0.61195278       0.34167483 </v>
   <v>       0.61195278       0.61195278       0.65832513 </v>
   <v>       0.44576020       0.32826710       0.58308023 </v>
   <v>       0.67173288       0.55423978       0.58308023 </v>
   <v>       0.55791699       0.44208301       0.41809300 </v>
   <v>       0.32826705       0.44576024       0.41691983 </v>
   <v>       0.55423973       0.67173293       0.41691983 </v>
   <v>       0.55423980       0.32826710       0.58308023 </v>
   <v>       0.32826712       0.55423978       0.58308023 </v>
   <v>       0.67173295       0.44576024       0.41691983 </v>
   <v>       0.44576027       0.67173293       0.41691983 </v>
   <v>       0.44208301       0.44208301       0.41809300 </v>
   <v>       0.50000000       0.38416601       0.50000000 </v>
   <v>       0.61749315       0.50000005       0.34021317 </v>
   <v>       0.61749315       0.50000005       0.65978680 </v>
   <v>       0.38250685       0.50000005       0.34021317 </v>
   <v>       0.38250685       0.50000005       0.65978680 </v>
   <v>       0.38317830       0.38317830       0.50000000 </v>
   <v>       0.61682172       0.61682172       0.50000000 </v>
   <v>       0.61682170       0.38317830       0.50000000 </v>
   <v>       0.38317828       0.61682172       0.50000000 </v>
   <v>       0.50000000       0.50000000       0.33478917 </v>
   <v>       0.50000000       0.50000000       0.66521087 </v>
   <v>       0.32826705       0.44576024       0.58308023 </v>
   <v>       0.55423973       0.67173293       0.58308023 </v>
   <v>       0.55791699       0.44208301       0.58190703 </v>
   <v>       0.44208298       0.55791702       0.41809300 </v>
   <v>       0.44208301       0.44208301       0.58190703 </v>
   <v>       0.67173295       0.44576024       0.58308023 </v>
   <v>       0.44576027       0.67173293       0.58308023 </v>
   <v>       0.55791702       0.55791702       0.41809300 </v>
   <v>       0.38416599       0.50000002       0.50000000 </v>
   <v>       0.61583401       0.50000002       0.50000000 </v>
   <v>       0.50000000       0.61749319       0.34021317 </v>
   <v>       0.50000000       0.61749319       0.65978680 </v>
   <v>       0.50000000       0.50000000       0.50000000 </v>
   <v>       0.44208298       0.55791702       0.58190703 </v>
   <v>       0.55791702       0.55791702       0.58190703 </v>
   <v>       0.50000000       0.61583404       0.50000000 </v>
   <v>       0.26564387       0.55459177       0.43271883 </v>
   <v>       0.23037690       0.56280700       0.42259407 </v>
  </varray>
  <varray name="selective"  type="logical" >
   <v type="logical" >  F  F  F </v>
   <v type="logical" >  F  F  F </v>
   <v type="logical" >  F  F  F </v>
   <v type="logical" >  F  F  F </v>
   <v type="logical" >  F  F  F </v>
   <v type="logical" >  F  F  F </v>
   <v type="logical" >  F  F  F </v>
   <v type="logical" >  F  F  F </v>
   <v type="logical" >  F  F  F </v>
   <v type="logical" >  F  F  F </v>
   <v type="logical" >  F  F  F </v>
   <v type="logical" >  F  F  F </v>
   <v type="logical" >  F  F  F </v>
   <v type="logical" >  F  F  F </v>
   <v type="logical" >  F  F  F </v>
   <v type="logical" >  F  F  F </v>
   <v type="logical" >  F  F  F </v>
   <v type="logical" >  F  F  F </v>
   <v type="logical" >  F  F  F </v>
   <v type="logical" >  F  F  F </v>
   <v type="logical" >  F  F  F </v>
   <v type="logical" >  F  F  F </v>
   <v type="logical" >  F  F  F </v>
   <v type="logical" >  F  F  F </v>
   <v type="logical" >  F  F  F </v>
   <v type="logical" >  F  F  F </v>
   <v type="logical" >  F  F  F </v>
   <v type="logical" >  F  F  F </v>
   <v type="logical" >  F  F  F </v>
   <v type="logical" >  F  F  F </v>
   <v type="logical" >  F  F  F </v>
   <v type="logical" >  F  F  F </v>
   <v type="logical" >  F  F  F </v>
   <v type="logical" >  F  F  F </v>
   <v type="logical" >  F  F  F </v>
   <v type="logical" >  F  F  F </v>
   <v type="logical" >  F  F  F </v>
   <v type="logical" >  F  F  F </v>
   <v type="logical" >  F  F  F </v>
   <v type="logical" >  F  F  F </v>
   <v type="logical" >  F  F  F </v>
   <v type="logical" >  F  F  F </v>
   <v type="logical" >  F  F  F </v>
   <v type="logical" >  F  F  F </v>
   <v type="logical" >  F  F  F </v>
   <v type="logical" >  F  F  F </v>
   <v type="logical" >  F  F  F </v>
   <v type="logical" >  F  F  F </v>
   <v type="logical" >  F  F  F </v>
   <v type="logical" >  F  F  F </v>
   <v type="logical" >  F  F  F </v>
   <v type="logical" >  F  F  F </v>
   <v type="logical" >  F  F  F </v>
   <v type="logical" >  F  F  F </v>
   <v type="logical" >  F  F  F </v>
   <v type="logical" >  F  F  F </v>
   <v type="logical" >  F  F  F </v>
  </varray>
  <nose>
   <v>      -3.00000000       0.00000000       0.00010000       0.00010000 </v>
  </nose>
 </structure>
 <calculation>
  <scstep>
   <time name="dav">  322.74  322.77</time>
   <time name="total">  334.85  334.89</time>
   <energy>
    <i name="alphaZ">     75.25431677 </i>
    <i name="ewald"> 138263.68657154 </i>
    <i name="hartreedc">-181623.04164668 </i>
    <i name="XCdc">  -1702.84139042 </i>
    <i name="pawpsdc">  44873.02882129 </i>
    <i name="pawaedc"> -41398.84523641 </i>
    <i name="eentropy">      0.01016269 </i>
    <i name="bandstr">    817.41489102 </i>
    <i name="atom">  45086.50549395 </i>
    <i name="e_fr_energy">   4391.17198375 </i>
    <i name="e_wo_entrp">   4391.16182107 </i>
    <i name="e_0_energy">   4391.16944308 </i>
   </energy>
  </scstep>
  <scstep>
   <time name="dav">  526.86  526.86</time>
   <time name="total">  526.86  526.86</time>
   <energy>
    <i name="e_fr_energy">   2009.51244602 </i>
    <i name="e_wo_entrp">   2009.49951398 </i>
    <i name="e_0_energy">   2009.50921301 </i>
   </energy>
  </scstep>
  <scstep>
   <time name="dav">  438.31  438.31</time>
   <time name="total">  438.31  438.31</time>
   <energy>
    <i name="e_fr_energy">    230.00432560 </i>
    <i name="e_wo_entrp">    230.00236033 </i>
    <i name="e_0_energy">    230.00383428 </i>
   </energy>
  </scstep>
  <scstep>
   <time name="dav">  377.97  377.99</time>
   <time name="total">  377.98  377.99</time>
   <energy>
    <i name="e_fr_energy">   -136.03722258 </i>
    <i name="e_wo_entrp">   -136.03522386 </i>
    <i name="e_0_energy">   -136.03672290 </i>
   </energy>
  </scstep>
  <scstep>
   <time name="dav">  460.30  460.32</time>
   <time name="total">  483.86  483.88</time>
   <energy>
    <i name="e_fr_energy">   -180.30202088 </i>
    <i name="e_wo_entrp">   -180.81582711 </i>
    <i name="e_0_energy">   -180.43047244 </i>
   </energy>
  </scstep>
  <scstep>
   <time name="diag">   61.93   61.93</time>
   <time name="diis">  167.55  167.55</time>
   <time name="orth">   12.31   12.31</time>
   <time name="total">  276.49  276.50</time>
   <energy>
    <i name="e_fr_energy">   -180.77732725 </i>
    <i name="e_wo_entrp">   -180.64920484 </i>
    <i name="e_0_energy">   -180.74529664 </i>
   </energy>
  </scstep>
  <scstep>
   <time name="diag">   62.68   62.68</time>
   <time name="diis">  200.95  200.95</time>
   <time name="orth">   12.52   12.52</time>
   <time name="total">  311.82  311.83</time>
   <energy>
    <i name="e_fr_energy">   -182.90510498 </i>
    <i name="e_wo_entrp">   -182.81816522 </i>
    <i name="e_0_energy">   -182.88337004 </i>
   </energy>
  </scstep>
  <scstep>
   <time name="diag">   62.80   62.80</time>
   <time name="diis">  181.81  181.81</time>
   <time name="orth">   12.51   12.51</time>
   <time name="total">  292.75  292.75</time>
   <energy>
    <i name="e_fr_energy">   -185.30633684 </i>
    <i name="e_wo_entrp">   -185.07634837 </i>
    <i name="e_0_energy">   -185.24883972 </i>
   </energy>
  </scstep>
  <scstep>
   <time name="diag">   61.94   61.94</time>
   <time name="diis">  167.45  167.45</time>
   <time name="orth">   12.36   12.36</time>
   <time name="total">  276.79  276.80</time>
   <energy>
    <i name="e_fr_energy">   -182.63036976 </i>
    <i name="e_wo_entrp">   -182.54718854 </i>
    <i name="e_0_energy">   -182.60957445 </i>
   </energy>
  </scstep>
  <scstep>
   <time name="diag">   61.94   61.94</time>
   <time name="diis">  169.57  169.57</time>
   <time name="orth">   12.29   12.29</time>
   <time name="total">  278.88  278.89</time>
   <energy>
    <i name="e_fr_energy">   -180.31050798 </i>
    <i name="e_wo_entrp">   -180.25243862 </i>
    <i name="e_0_energy">   -180.29599064 </i>
   </energy>
  </scstep>
  <scstep>
   <time name="diag">   62.02   62.02</time>
   <time name="diis">  166.78  166.78</time>
   <time name="orth">   12.25   12.25</time>
   <time name="total">  275.68  275.69</time>
   <energy>
    <i name="e_fr_energy">   -178.56343046 </i>
    <i name="e_wo_entrp">   -178.42576513 </i>
    <i name="e_0_energy">   -178.52901413 </i>
   </energy>
  </scstep>
  <scstep>
   <time name="diag">   62.16   62.16</time>
   <time name="diis">  166.18  166.18</time>
   <time name="orth">   12.35   12.35</time>
   <time name="total">  275.32  275.32</time>
   <energy>
    <i name="e_fr_energy">   -177.97827991 </i>
    <i name="e_wo_entrp">   -177.87292692 </i>
    <i name="e_0_energy">   -177.95194166 </i>
   </energy>
  </scstep>
  <scstep>
   <time name="diag">   61.74   61.74</time>
   <time name="diis">  166.48  166.47</time>
   <time name="orth">   12.28   12.28</time>
   <time name="total">  275.50  275.50</time>
   <energy>
    <i name="e_fr_energy">   -178.16934601 </i>
    <i name="e_wo_entrp">   -178.07998604 </i>
    <i name="e_0_energy">   -178.14700601 </i>
   </energy>
  </scstep>
  <scstep>
   <time name="diag">   61.99   61.99</time>
   <time name="diis">  164.46  164.46</time>
   <time name="orth">   12.31   12.31</time>
   <time name="total">  273.85  273.85</time>
   <energy>
    <i name="e_fr_energy">   -177.42300581 </i>
    <i name="e_wo_entrp">   -177.29558184 </i>
    <i name="e_0_energy">   -177.39114982 </i>
   </energy>
  </scstep>
  <scstep>
   <time name="diag">   61.74   61.74</time>
   <time name="diis">  165.37  165.39</time>
   <time name="orth">   12.35   12.35</time>
   <time name="total">  274.89  274.92</time>
   <energy>
    <i name="e_fr_energy">   -176.76540712 </i>
    <i name="e_wo_entrp">   -176.72553736 </i>
    <i name="e_0_energy">   -176.75543968 </i>
   </energy>
  </scstep>
  <scstep>
   <time name="diag">   62.49   62.49</time>
   <time name="diis">  169.77  169.78</time>
   <time name="orth">   12.55   12.55</time>
   <time name="total">  280.60  280.60</time>
   <energy>
    <i name="e_fr_energy">   -176.58436317 </i>
    <i name="e_wo_entrp">   -176.55134151 </i>
    <i name="e_0_energy">   -176.57610776 </i>
   </energy>
  </scstep>
  <scstep>
   <time name="diag">   62.76   62.76</time>
   <time name="diis">  167.17  167.18</time>
   <time name="orth">   12.59   12.59</time>
   <time name="total">  278.60  278.61</time>
   <energy>
    <i name="e_fr_energy">   -176.19092474 </i>
    <i name="e_wo_entrp">   -176.13594908 </i>
    <i name="e_0_energy">   -176.17718083 </i>
   </energy>
  </scstep>
  <scstep>
   <time name="diag">   63.06   63.06</time>
   <time name="diis">  166.38  166.40</time>
   <time name="orth">   12.22   12.22</time>
   <time name="total">  277.54  277.57</time>
   <energy>
    <i name="e_fr_energy">   -176.17218555 </i>
    <i name="e_wo_entrp">   -176.18981807 </i>
    <i name="e_0_energy">   -176.17659368 </i>
   </energy>
  </scstep>
  <scstep>
   <time name="diag">   61.89   61.89</time>
   <time name="diis">  163.29  163.30</time>
   <time name="orth">   12.24   12.24</time>
   <time name="total">  272.50  272.51</time>
   <energy>
    <i name="e_fr_energy">   -176.25765807 </i>
    <i name="e_wo_entrp">   -176.38065910 </i>
    <i name="e_0_energy">   -176.28840833 </i>
   </energy>
  </scstep>
  <scstep>
   <time name="diag">   61.74   61.74</time>
   <time name="diis">  163.82  163.82</time>
   <time name="orth">   12.25   12.25</time>
   <time name="total">  272.73  272.75</time>
   <energy>
    <i name="e_fr_energy">   -175.88914883 </i>
    <i name="e_wo_entrp">   -175.88317307 </i>
    <i name="e_0_energy">   -175.88765489 </i>
   </energy>
  </scstep>
  <scstep>
   <time name="diag">   61.69   61.70</time>
   <time name="diis">  162.82  162.83</time>
   <time name="orth">   12.22   12.22</time>
   <time name="total">  271.55  271.57</time>
   <energy>
    <i name="e_fr_energy">   -175.59735160 </i>
    <i name="e_wo_entrp">   -175.53559306 </i>
    <i name="e_0_energy">   -175.58191197 </i>
   </energy>
  </scstep>
  <scstep>
   <time name="diag">   61.58   61.58</time>
   <time name="diis">  162.14  162.15</time>
   <time name="orth">   12.42   12.42</time>
   <time name="total">  271.09  271.10</time>
   <energy>
    <i name="e_fr_energy">   -175.53855483 </i>
    <i name="e_wo_entrp">   -175.44134313 </i>
    <i name="e_0_energy">   -175.51425191 </i>
   </energy>
  </scstep>
  <scstep>
   <time name="diag">   61.63   61.63</time>
   <time name="diis">  162.81  162.81</time>
   <time name="orth">   12.37   12.37</time>
   <time name="total">  272.00  272.00</time>
   <energy>
    <i name="e_fr_energy">   -175.55758900 </i>
    <i name="e_wo_entrp">   -175.48007811 </i>
    <i name="e_0_energy">   -175.53821128 </i>
   </energy>
  </scstep>
  <scstep>
   <time name="diag">   61.73   61.73</time>
   <time name="diis">  162.08  162.08</time>
   <time name="orth">   12.35   12.35</time>
   <time name="total">  271.50  271.50</time>
   <energy>
    <i name="e_fr_energy">   -175.52596940 </i>
    <i name="e_wo_entrp">   -175.43193830 </i>
    <i name="e_0_energy">   -175.50246163 </i>
   </energy>
  </scstep>
  <scstep>
   <time name="diag">   61.74   61.74</time>
   <time name="diis">  161.11  161.11</time>
   <time name="orth">   12.36   12.36</time>
   <time name="total">  270.57  270.57</time>
   <energy>
    <i name="e_fr_energy">   -175.41281096 </i>
    <i name="e_wo_entrp">   -175.34043401 </i>
    <i name="e_0_energy">   -175.39471672 </i>
   </energy>
  </scstep>
  <scstep>
   <time name="diag">   61.57   61.57</time>
   <time name="diis">  160.85  160.85</time>
   <time name="orth">   12.36   12.36</time>
   <time name="total">  270.37  270.37</time>
   <energy>
    <i name="e_fr_energy">   -175.35308643 </i>
    <i name="e_wo_entrp">   -175.28348088 </i>
    <i name="e_0_energy">   -175.33568504 </i>
   </energy>
  </scstep>
  <scstep>
   <time name="diag">   61.86   61.86</time>
   <time name="diis">  162.42  162.43</time>
   <time name="orth">   12.48   12.48</time>
   <time name="total">  272.56  272.57</time>
   <energy>
    <i name="e_fr_energy">   -175.37144556 </i>
    <i name="e_wo_entrp">   -175.29641488 </i>
    <i name="e_0_energy">   -175.35268789 </i>
   </energy>
  </scstep>
  <scstep>
   <time name="diag">   62.03   62.03</time>
   <time name="diis">  161.75  161.75</time>
   <time name="orth">   12.36   12.36</time>
   <time name="total">  272.06  272.06</time>
   <energy>
    <i name="e_fr_energy">   -175.34855013 </i>
    <i name="e_wo_entrp">   -175.26545231 </i>
    <i name="e_0_energy">   -175.32777567 </i>
   </energy>
  </scstep>
  <scstep>
   <time name="diag">   62.06   62.06</time>
   <time name="diis">  160.70  160.70</time>
   <time name="orth">   12.37   12.37</time>
   <time name="total">  270.78  270.78</time>
   <energy>
    <i name="e_fr_energy">   -175.30308470 </i>
    <i name="e_wo_entrp">   -175.22011335 </i>
    <i name="e_0_energy">   -175.28234187 </i>
   </energy>
  </scstep>
  <scstep>
   <time name="diag">   63.67   63.67</time>
   <time name="diis">  163.58  163.59</time>
   <time name="orth">   12.54   12.54</time>
   <time name="total">  276.21  276.22</time>
   <energy>
    <i name="e_fr_energy">   -175.29456927 </i>
    <i name="e_wo_entrp">   -175.20197181 </i>
    <i name="e_0_energy">   -175.27141990 </i>
   </energy>
  </scstep>
  <scstep>
   <time name="diag">   62.11   62.11</time>
   <time name="diis">  163.30  163.30</time>
   <time name="orth">   12.40   12.40</time>
   <time name="total">  274.41  274.41</time>
   <energy>
    <i name="e_fr_energy">   -175.28977948 </i>
    <i name="e_wo_entrp">   -175.19847485 </i>
    <i name="e_0_energy">   -175.26695332 </i>
   </energy>
  </scstep>
  <scstep>
   <time name="diag">   62.46   62.46</time>
   <time name="diis">  162.26  162.27</time>
   <time name="orth">   12.43   12.43</time>
   <time name="total">  274.17  274.18</time>
   <energy>
    <i name="e_fr_energy">   -175.28614085 </i>
    <i name="e_wo_entrp">   -175.19708015 </i>
    <i name="e_0_energy">   -175.26387568 </i>
   </energy>
  </scstep>
  <scstep>
   <time name="diag">   62.76   62.76</time>
   <time name="diis">  162.27  162.27</time>
   <time name="orth">   12.42   12.42</time>
   <time name="total">  274.15  274.16</time>
   <energy>
    <i name="e_fr_energy">   -175.28338951 </i>
    <i name="e_wo_entrp">   -175.19415260 </i>
    <i name="e_0_energy">   -175.26108028 </i>
   </energy>
  </scstep>
  <scstep>
   <time name="diag">   62.40   62.40</time>
   <time name="diis">  163.13  163.13</time>
   <time name="orth">   12.37   12.37</time>
   <time name="total">  274.31  274.31</time>
   <energy>
    <i name="e_fr_energy">   -175.28350443 </i>
    <i name="e_wo_entrp">   -175.19656017 </i>
    <i name="e_0_energy">   -175.26176837 </i>
   </energy>
  </scstep>
  <scstep>
   <time name="diag">   61.97   61.97</time>
   <time name="diis">  159.13  159.13</time>
   <time name="orth">   12.40   12.40</time>
   <time name="total">  270.00  270.00</time>
   <energy>
    <i name="e_fr_energy">   -175.28393420 </i>
    <i name="e_wo_entrp">   -175.19719006 </i>
    <i name="e_0_energy">   -175.26224817 </i>
   </energy>
  </scstep>
  <scstep>
   <time name="diag">   62.57   62.57</time>
   <time name="diis">  162.29  162.29</time>
   <time name="orth">   12.40   12.40</time>
   <time name="total">  273.86  273.87</time>
   <energy>
    <i name="e_fr_energy">   -175.28427488 </i>
    <i name="e_wo_entrp">   -175.19628383 </i>
    <i name="e_0_energy">   -175.26227711 </i>
   </energy>
  </scstep>
  <scstep>
   <time name="diag">   61.80   61.80</time>
   <time name="diis">  158.89  158.89</time>
   <time name="orth">   12.39   12.39</time>
   <time name="total">  269.70  269.70</time>
   <energy>
    <i name="e_fr_energy">   -175.28602659 </i>
    <i name="e_wo_entrp">   -175.19873542 </i>
    <i name="e_0_energy">   -175.26420380 </i>
   </energy>
  </scstep>
  <scstep>
   <time name="diag">   62.15   62.15</time>
   <time name="diis">  160.91  160.91</time>
   <time name="orth">   12.53   12.53</time>
   <time name="total">  272.87  272.88</time>
   <energy>
    <i name="e_fr_energy">   -175.28807452 </i>
    <i name="e_wo_entrp">   -175.19793582 </i>
    <i name="e_0_energy">   -175.26553984 </i>
   </energy>
  </scstep>
  <scstep>
   <time name="diag">   62.89   62.89</time>
   <time name="diis">  151.79  151.79</time>
   <time name="orth">   12.34   12.34</time>
   <time name="total">  264.41  264.41</time>
   <energy>
    <i name="e_fr_energy">   -175.28964373 </i>
    <i name="e_wo_entrp">   -175.20021185 </i>
    <i name="e_0_energy">   -175.26728576 </i>
   </energy>
  </scstep>
  <scstep>
   <time name="diag">   61.81   61.81</time>
   <time name="diis">  150.47  150.47</time>
   <time name="orth">   12.38   12.38</time>
   <time name="total">  261.81  261.81</time>
   <energy>
    <i name="e_fr_energy">   -175.29244461 </i>
    <i name="e_wo_entrp">   -175.20440014 </i>
    <i name="e_0_energy">   -175.27043349 </i>
   </energy>
  </scstep>
  <scstep>
   <time name="diag">   62.16   62.16</time>
   <time name="diis">  140.62  140.62</time>
   <time name="orth">   12.39   12.39</time>
   <time name="total">  252.32  252.32</time>
   <energy>
    <i name="e_fr_energy">   -175.29472547 </i>
    <i name="e_wo_entrp">   -175.20600550 </i>
    <i name="e_0_energy">   -175.27254548 </i>
   </energy>
  </scstep>
  <scstep>
   <time name="diag">   62.48   62.48</time>
   <time name="diis">  121.00  121.00</time>
   <time name="orth">   12.52   12.52</time>
   <time name="total">  233.78  233.78</time>
   <energy>
    <i name="e_fr_energy">   -175.29642550 </i>
    <i name="e_wo_entrp">   -175.20825603 </i>
    <i name="e_0_energy">   -175.27438313 </i>
   </energy>
  </scstep>
  <scstep>
   <time name="diag">   62.88   62.88</time>
   <time name="diis">  130.72  130.72</time>
   <time name="orth">   12.22   12.22</time>
   <time name="total">  243.53  243.53</time>
   <energy>
    <i name="e_fr_energy">   -175.29923406 </i>
    <i name="e_wo_entrp">   -175.21158711 </i>
    <i name="e_0_energy">   -175.27732233 </i>
   </energy>
  </scstep>
  <scstep>
   <time name="diag">   61.80   61.81</time>
   <time name="diis">  104.50  104.50</time>
   <time name="orth">   12.29   12.29</time>
   <time name="total">  215.81  215.81</time>
   <energy>
    <i name="e_fr_energy">   -175.30055854 </i>
    <i name="e_wo_entrp">   -175.21222986 </i>
    <i name="e_0_energy">   -175.27847637 </i>
   </energy>
  </scstep>
  <scstep>
   <time name="diag">   61.80   61.80</time>
   <time name="diis">  105.60  105.60</time>
   <time name="orth">   12.37   12.37</time>
   <time name="total">  217.37  217.37</time>
   <energy>
    <i name="e_fr_energy">   -175.30130454 </i>
    <i name="e_wo_entrp">   -175.21269541 </i>
    <i name="e_0_energy">   -175.27915225 </i>
   </energy>
  </scstep>
  <scstep>
   <time name="diag">   61.89   61.89</time>
   <time name="diis">  102.32  102.32</time>
   <time name="orth">   12.43   12.43</time>
   <time name="total">  214.35  214.36</time>
   <energy>
    <i name="e_fr_energy">   -175.30295797 </i>
    <i name="e_wo_entrp">   -175.21419551 </i>
    <i name="e_0_energy">   -175.28076735 </i>
   </energy>
  </scstep>
  <scstep>
   <time name="diag">   62.15   62.15</time>
   <time name="diis">  102.81  102.81</time>
   <time name="orth">   12.36   12.36</time>
   <time name="total">  215.38  215.39</time>
   <energy>
    <i name="e_fr_energy">   -175.30413835 </i>
    <i name="e_wo_entrp">   -175.21559281 </i>
    <i name="e_0_energy">   -175.28200197 </i>
   </energy>
  </scstep>
  <scstep>
   <time name="diag">   62.21   62.21</time>
   <time name="diis">  103.49  103.49</time>
   <time name="orth">   12.48   12.48</time>
   <time name="total">  216.62  216.62</time>
   <energy>
    <i name="e_fr_energy">   -175.30539622 </i>
    <i name="e_wo_entrp">   -175.21720946 </i>
    <i name="e_0_energy">   -175.28334953 </i>
   </energy>
  </scstep>
  <scstep>
   <time name="diag">   62.78   62.78</time>
   <time name="diis">  104.30  104.30</time>
   <time name="orth">   12.55   12.55</time>
   <time name="total">  218.56  218.56</time>
   <energy>
    <i name="e_fr_energy">   -175.30733978 </i>
    <i name="e_wo_entrp">   -175.21883298 </i>
    <i name="e_0_energy">   -175.28521308 </i>
   </energy>
  </scstep>
  <scstep>
   <time name="diag">   62.67   62.67</time>
   <time name="diis">  105.09  105.09</time>
   <time name="orth">   12.31   12.31</time>
   <time name="total">  218.64  218.64</time>
   <energy>
    <i name="e_fr_energy">   -175.30808591 </i>
    <i name="e_wo_entrp">   -175.21952696 </i>
    <i name="e_0_energy">   -175.28594617 </i>
   </energy>
  </scstep>
  <scstep>
   <time name="diag">   61.69   61.69</time>
   <time name="diis">  102.38  102.38</time>
   <time name="orth">   12.39   12.39</time>
   <time name="total">  214.47  214.48</time>
   <energy>
    <i name="e_fr_energy">   -175.30901182 </i>
    <i name="e_wo_entrp">   -175.22055272 </i>
    <i name="e_0_energy">   -175.28689704 </i>
   </energy>
  </scstep>
  <scstep>
   <time name="diag">   62.18   62.18</time>
   <time name="diis">  103.14  103.14</time>
   <time name="orth">   12.40   12.40</time>
   <time name="total">  216.00  216.00</time>
   <energy>
    <i name="e_fr_energy">   -175.30923407 </i>
    <i name="e_wo_entrp">   -175.22078025 </i>
    <i name="e_0_energy">   -175.28712062 </i>
   </energy>
  </scstep>
  <scstep>
   <time name="diag">   62.49   62.49</time>
   <time name="diis">   97.16   97.17</time>
   <time name="orth">   12.28   12.28</time>
   <time name="total">  210.10  210.11</time>
   <energy>
    <i name="e_fr_energy">   -175.30957423 </i>
    <i name="e_wo_entrp">   -175.22113578 </i>
    <i name="e_0_energy">   -175.28746462 </i>
   </energy>
  </scstep>
  <scstep>
   <time name="diag">   61.89   61.90</time>
   <time name="diis">   84.25   84.26</time>
   <time name="orth">   12.40   12.40</time>
   <time name="total">  196.71  196.73</time>
   <energy>
    <i name="e_fr_energy">   -175.30977888 </i>
    <i name="e_wo_entrp">   -175.22140947 </i>
    <i name="e_0_energy">   -175.28768653 </i>
   </energy>
  </scstep>
  <scstep>
   <time name="diag">   61.77   61.77</time>
   <time name="diis">   80.53   80.53</time>
   <time name="orth">   12.42   12.42</time>
   <time name="total">  192.97  192.98</time>
   <energy>
    <i name="e_fr_energy">   -175.31012879 </i>
    <i name="e_wo_entrp">   -175.22157972 </i>
    <i name="e_0_energy">   -175.28799152 </i>
   </energy>
  </scstep>
  <scstep>
   <time name="diag">   62.33   62.33</time>
   <time name="diis">   77.43   77.43</time>
   <time name="orth">   12.28   12.28</time>
   <time name="total">  190.29  190.29</time>
   <energy>
    <i name="e_fr_energy">   -175.31045198 </i>
    <i name="e_wo_entrp">   -175.22201666 </i>
    <i name="e_0_energy">   -175.28834315 </i>
   </energy>
  </scstep>
  <scstep>
   <time name="diag">   62.29   62.29</time>
   <time name="diis">   80.02   80.02</time>
   <time name="orth">   12.49   12.49</time>
   <time name="total">  193.45  193.45</time>
   <energy>
    <i name="e_fr_energy">   -175.31067953 </i>
    <i name="e_wo_entrp">   -175.22226644 </i>
    <i name="e_0_energy">   -175.28857626 </i>
   </energy>
  </scstep>
  <scstep>
   <time name="diag">   62.58   62.59</time>
   <time name="diis">   79.04   79.05</time>
   <time name="orth">   12.61   12.61</time>
   <time name="total">  193.38  193.39</time>
   <energy>
    <i name="e_fr_energy">   -175.31098600 </i>
    <i name="e_wo_entrp">   -175.22254419 </i>
    <i name="e_0_energy">   -175.28887555 </i>
   </energy>
  </scstep>
  <scstep>
   <time name="diag">   62.64   62.65</time>
   <time name="diis">   73.07   73.08</time>
   <time name="orth">   12.59   12.59</time>
   <time name="total">  187.85  187.88</time>
   <energy>
    <i name="e_fr_energy">   -175.31110638 </i>
    <i name="e_wo_entrp">   -175.22267759 </i>
    <i name="e_0_energy">   -175.28899918 </i>
   </energy>
  </scstep>
  <scstep>
   <time name="diag">   63.49   63.50</time>
   <time name="diis">   77.10   77.11</time>
   <time name="orth">   12.29   12.29</time>
   <time name="total">  191.75  191.78</time>
   <energy>
    <i name="e_fr_energy">   -175.31126128 </i>
    <i name="e_wo_entrp">   -175.22283543 </i>
    <i name="e_0_energy">   -175.28915482 </i>
   </energy>
  </scstep>
  <scstep>
   <time name="diag">   61.80   61.81</time>
   <time name="diis">   70.94   70.94</time>
   <time name="orth">   12.28   12.28</time>
   <time name="total">  183.12  183.14</time>
   <energy>
    <i name="e_fr_energy">   -175.31137360 </i>
    <i name="e_wo_entrp">   -175.22295251 </i>
    <i name="e_0_energy">   -175.28926833 </i>
   </energy>
  </scstep>
  <scstep>
   <time name="diag">   61.63   61.64</time>
   <time name="diis">   66.29   66.29</time>
   <time name="orth">   12.31   12.31</time>
   <time name="total">  152.19  152.20</time>
   <energy>
    <i name="alphaZ">     75.25431677 </i>
    <i name="ewald"> 138263.68657154 </i>
    <i name="hartreedc">-182615.91678064 </i>
    <i name="XCdc">  -1692.17615872 </i>
    <i name="pawpsdc">  46185.25930299 </i>
    <i name="pawaedc"> -42656.24609284 </i>
    <i name="eentropy">     -0.08841446 </i>
    <i name="bandstr">  -2821.58965021 </i>
    <i name="atom">  45086.50549395 </i>
    <i name="e_fr_energy">   -175.31141161 </i>
    <i name="e_wo_entrp">   -175.22299715 </i>
    <i name="e_0_energy">   -175.28930800 </i>
   </energy>
  </scstep>
  <structure>
   <crystal>
    <varray name="basis" >
     <v>      30.00000000       0.00000000       0.00000000 </v>
     <v>       0.00000000      30.00000000       0.00000000 </v>
     <v>       0.00000000       0.00000000      30.00000000 </v>
    </varray>
    <i name="volume">  27000.00000000 </i>
    <varray name="rec_basis" >
     <v>       0.03333333       0.00000000       0.00000000 </v>
     <v>       0.00000000       0.03333333       0.00000000 </v>
     <v>       0.00000000       0.00000000       0.03333333 </v>
    </varray>
   </crystal>
   <varray name="positions" >
    <v>       0.44576020       0.32826710       0.41691983 </v>
    <v>       0.67173288       0.55423978       0.41691983 </v>
    <v>       0.55423980       0.32826710       0.41691983 </v>
    <v>       0.32826712       0.55423978       0.41691983 </v>
    <v>       0.50000000       0.38250690       0.34021317 </v>
    <v>       0.50000000       0.38250690       0.65978680 </v>
    <v>       0.50000000       0.27609440       0.50000000 </v>
    <v>       0.27609443       0.49999998       0.50000000 </v>
    <v>       0.72390557       0.49999998       0.50000000 </v>
    <v>       0.50000000       0.72390555       0.50000000 </v>
    <v>       0.61195280       0.38804720       0.34167483 </v>
    <v>       0.61195280       0.38804720       0.65832513 </v>
    <v>       0.38804722       0.61195278       0.34167483 </v>
    <v>       0.38804722       0.61195278       0.65832513 </v>
    <v>       0.38804720       0.38804720       0.34167483 </v>
    <v>       0.38804720       0.38804720       0.65832513 </v>
    <v>       0.61195278       0.61195278       0.34167483 </v>
    <v>       0.61195278       0.61195278       0.65832513 </v>
    <v>       0.44576020       0.32826710       0.58308023 </v>
    <v>       0.67173288       0.55423978       0.58308023 </v>
    <v>       0.55791699       0.44208301       0.41809300 </v>
    <v>       0.32826705       0.44576024       0.41691983 </v>
    <v>       0.55423973       0.67173293       0.41691983 </v>
    <v>       0.55423980       0.32826710       0.58308023 </v>
    <v>       0.32826712       0.55423978       0.58308023 </v>
    <v>       0.67173295       0.44576024       0.41691983 </v>
    <v>       0.44576027       0.67173293       0.41691983 </v>
    <v>       0.44208301       0.44208301       0.41809300 </v>
    <v>       0.50000000       0.38416601       0.50000000 </v>
    <v>       0.61749315       0.50000005       0.34021317 </v>
    <v>       0.61749315       0.50000005       0.65978680 </v>
    <v>       0.38250685       0.50000005       0.34021317 </v>
    <v>       0.38250685       0.50000005       0.65978680 </v>
    <v>       0.38317830       0.38317830       0.50000000 </v>
    <v>       0.61682172       0.61682172       0.50000000 </v>
    <v>       0.61682170       0.38317830       0.50000000 </v>
    <v>       0.38317828       0.61682172       0.50000000 </v>
    <v>       0.50000000       0.50000000       0.33478917 </v>
    <v>       0.50000000       0.50000000       0.66521087 </v>
    <v>       0.32826705       0.44576024       0.58308023 </v>
    <v>       0.55423973       0.67173293       0.58308023 </v>
    <v>       0.55791699       0.44208301       0.58190703 </v>
    <v>       0.44208298       0.55791702       0.41809300 </v>
    <v>       0.44208301       0.44208301       0.58190703 </v>
    <v>       0.67173295       0.44576024       0.58308023 </v>
    <v>       0.44576027       0.67173293       0.58308023 </v>
    <v>       0.55791702       0.55791702       0.41809300 </v>
    <v>       0.38416599       0.50000002       0.50000000 </v>
    <v>       0.61583401       0.50000002       0.50000000 </v>
    <v>       0.50000000       0.61749319       0.34021317 </v>
    <v>       0.50000000       0.61749319       0.65978680 </v>
    <v>       0.50000000       0.50000000       0.50000000 </v>
    <v>       0.44208298       0.55791702       0.58190703 </v>
    <v>       0.55791702       0.55791702       0.58190703 </v>
    <v>       0.50000000       0.61583404       0.50000000 </v>
    <v>       0.26564387       0.55459177       0.43271883 </v>
    <v>       0.23037690       0.56280700       0.42259407 </v>
   </varray>
  </structure>
  <varray name="forces" >
   <v>       0.70394577       1.10826533       0.29224660 </v>
   <v>      -1.11725300      -0.69429906       0.28325593 </v>
   <v>      -0.70131322       1.10867095       0.29364240 </v>
   <v>       0.25784377      -0.64793617       0.50440059 </v>
   <v>       0.00302293       0.41502338       1.28136876 </v>
   <v>       0.00229095       0.40609377      -1.28411259 </v>
   <v>       0.00034195       1.51943792       0.00487300 </v>
   <v>       1.33775914       0.50833149      -0.61234282 </v>
   <v>      -1.51206919       0.00417995      -0.00317937 </v>
   <v>       0.00049837      -1.51758486       0.00158857 </v>
   <v>      -0.75487695       0.75795305       1.07266613 </v>
   <v>      -0.76115524       0.75477245      -1.07133794 </v>
   <v>       0.76936747      -0.76716066       1.07575428 </v>
   <v>       0.75761094      -0.75948391      -1.07251108 </v>
   <v>       0.73018167       0.76364481       1.10455081 </v>
   <v>       0.76941601       0.73545715      -1.06276130 </v>
   <v>      -0.74955520      -0.76173334       1.07705811 </v>
   <v>      -0.75825795      -0.75172001      -1.07023944 </v>
   <v>       0.71065880       1.11065717      -0.28907629 </v>
   <v>      -1.11197270      -0.70058504      -0.28931700 </v>
   <v>       0.12116999      -0.11116246      -0.15148442 </v>
   <v>       1.14891606       0.59357968       0.20284453 </v>
   <v>      -0.70564088      -1.10658790       0.29443739 </v>
   <v>      -0.70912302       1.10408081      -0.29073489 </v>
   <v>       1.13811317      -0.70802027      -0.21643995 </v>
   <v>      -1.11757557       0.69777120       0.28203667 </v>
   <v>       0.71456134      -1.11024458       0.29207575 </v>
   <v>      -0.11005034      -0.10077401      -0.15810223 </v>
   <v>      -0.00328291      -0.22963487       0.00208531 </v>
   <v>      -0.40062154       0.00233456       1.28191218 </v>
   <v>      -0.40947723      -0.00034289      -1.27720421 </v>
   <v>       0.49799128      -0.00230038       1.24927797 </v>
   <v>       0.38799970       0.00868421      -1.29784443 </v>
   <v>       0.83927356       0.81824338       0.00056378 </v>
   <v>      -0.82693465      -0.82625271       0.00164752 </v>
   <v>      -0.83113742       0.82568014      -0.00290981 </v>
   <v>       0.87320575      -0.78089948       0.03687443 </v>
   <v>      -0.02357860       0.00248357       1.18036886 </v>
   <v>       0.00660374       0.00191476      -1.17882167 </v>
   <v>       1.13281580       0.69113742      -0.21172915 </v>
   <v>      -0.70449305      -1.10784066      -0.29076876 </v>
   <v>       0.10866627      -0.11219413       0.15474823 </v>
   <v>      -0.13129526       0.10470664      -0.16311348 </v>
   <v>      -0.10659716      -0.11331524       0.15204655 </v>
   <v>      -1.11023665       0.70414391      -0.28358766 </v>
   <v>       0.71215446      -1.10730031      -0.28945884 </v>
   <v>       0.15148421       0.11171623      -0.16574119 </v>
   <v>      -0.12188945      -0.03652225       0.06990635 </v>
   <v>       0.22614354      -0.00021109       0.00427333 </v>
   <v>      -0.00456243      -0.41491733       1.27773774 </v>
   <v>       0.00541849      -0.40686013      -1.28384903 </v>
   <v>      -0.01909596      -0.00305062      -0.00771215 </v>
   <v>      -0.11058785       0.10585825       0.16272937 </v>
   <v>       0.11158395       0.11385426       0.14637811 </v>
   <v>      -0.00325512       0.22988402      -0.00315035 </v>
   <v>       5.64040896      -1.59650483       1.47504255 </v>
   <v>      -4.94355952       1.16687873      -1.23086176 </v>
  </varray>
  <varray name="stress" >
   <v>      -6.48454920      -0.07208601       0.11266803 </v>
   <v>      -0.07208600      -6.75463231       0.03106684 </v>
   <v>       0.11266806       0.03106680      -6.76725016 </v>
  </varray>
  <energy>
   <i name="e_fr_energy">   -175.31141161 </i>
   <i name="e_wo_entrp">   -175.28930800 </i>
   <i name="e_0_energy">     -0.08841446 </i>
  </energy>
  <time name="totalsc">16670.7316671.23</time>
  <eigenvalues>
   <array>
    <dimension dim="1">band</dimension>
    <dimension dim="2">kpoint</dimension>
    <dimension dim="3">spin</dimension>
    <field>eigene</field>
    <field>occ</field>
    <set>
     <set comment="spin 1">
      <set comment="kpoint 1">
       <r>  -28.4079    1.0000 </r>
       <r>  -13.3392    1.0000 </r>
       <r>  -11.1014    1.0000 </r>
       <r>  -10.8940    1.0000 </r>
       <r>  -10.5140    1.0000 </r>
       <r>   -6.6598    1.0000 </r>
       <r>   -6.2790    1.0000 </r>
       <r>   -6.1603    1.0000 </r>
       <r>   -6.1397    1.0000 </r>
       <r>   -6.1362    1.0000 </r>
       <r>   -6.1169    1.0000 </r>
       <r>   -5.8693    1.0000 </r>
       <r>   -5.8220    1.0000 </r>
       <r>   -5.8195    1.0000 </r>
       <r>   -5.7609    1.0000 </r>
       <r>   -5.7256    1.0000 </r>
       <r>   -5.7022    1.0000 </r>
       <r>   -5.6967    1.0000 </r>
       <r>   -5.6881    1.0000 </r>
       <r>   -5.6641    1.0000 </r>
       <r>   -5.6543    1.0000 </r>
       <r>   -5.6399    1.0000 </r>
       <r>   -5.6323    1.0000 </r>
       <r>   -5.6101    1.0000 </r>
       <r>   -5.6028    1.0000 </r>
       <r>   -5.5930    1.0000 </r>
       <r>   -5.5798    1.0000 </r>
       <r>   -5.5687    1.0000 </r>
       <r>   -5.5589    1.0000 </r>
       <r>   -5.5565    1.0000 </r>
       <r>   -5.5415    1.0000 </r>
       <r>   -5.5317    1.0000 </r>
       <r>   -5.5307    1.0000 </r>
       <r>   -5.5281    1.0000 </r>
       <r>   -5.5238    1.0000 </r>
       <r>   -5.5201    1.0000 </r>
       <r>   -5.5158    1.0000 </r>
       <r>   -5.5108    1.0000 </r>
       <r>   -5.5026    1.0000 </r>
       <r>   -5.4915    1.0000 </r>
       <r>   -5.4840    1.0000 </r>
       <r>   -5.4810    1.0000 </r>
       <r>   -5.4789    1.0000 </r>
       <r>   -5.4767    1.0000 </r>
       <r>   -5.4726    1.0000 </r>
       <r>   -5.4635    1.0000 </r>
       <r>   -5.4513    1.0000 </r>
       <r>   -5.4422    1.0000 </r>
       <r>   -5.4383    1.0000 </r>
       <r>   -5.4354    1.0000 </r>
       <r>   -5.4333    1.0000 </r>
       <r>   -5.4299    1.0000 </r>
       <r>   -5.4156    1.0000 </r>
       <r>   -5.4153    1.0000 </r>
       <r>   -5.4078    1.0000 </r>
       <r>   -5.4044    1.0000 </r>
       <r>   -5.3902    1.0000 </r>
       <r>   -5.3646    1.0000 </r>
       <r>   -5.3569    1.0000 </r>
       <r>   -5.3383    1.0000 </r>
       <r>   -5.3362    1.0000 </r>
       <r>   -5.3297    1.0000 </r>
       <r>   -5.3262    1.0000 </r>
       <r>   -5.3222    1.0000 </r>
       <r>   -5.3122    1.0000 </r>
       <r>   -5.3098    1.0000 </r>
       <r>   -5.3030    1.0000 </r>
       <r>   -5.2957    1.0000 </r>
       <r>   -5.2758    1.0000 </r>
       <r>   -5.2587    1.0000 </r>
       <r>   -5.2210    1.0000 </r>
       <r>   -5.2194    1.0000 </r>
       <r>   -5.2121    1.0000 </r>
       <r>   -5.2056    1.0000 </r>
       <r>   -5.2007    1.0000 </r>
       <r>   -5.1913    1.0000 </r>
       <r>   -5.1893    1.0000 </r>
       <r>   -5.1811    1.0000 </r>
       <r>   -5.1756    1.0000 </r>
       <r>   -5.1729    1.0000 </r>
       <r>   -5.1715    1.0000 </r>
       <r>   -5.1571    1.0000 </r>
       <r>   -5.1505    1.0000 </r>
       <r>   -5.1406    1.0000 </r>
       <r>   -5.1359    1.0000 </r>
       <r>   -5.1228    1.0000 </r>
       <r>   -5.1178    1.0000 </r>
       <r>   -5.1152    1.0000 </r>
       <r>   -5.1035    1.0000 </r>
       <r>   -5.0806    1.0000 </r>
       <r>   -5.0775    1.0000 </r>
       <r>   -5.0676    1.0000 </r>
       <r>   -5.0651    1.0000 </r>
       <r>   -5.0622    1.0000 </r>
       <r>   -5.0617    1.0000 </r>
       <r>   -5.0551    1.0000 </r>
       <r>   -5.0510    1.0000 </r>
       <r>   -5.0475    1.0000 </r>
       <r>   -5.0399    1.0000 </r>
       <r>   -5.0376    1.0000 </r>
       <r>   -5.0334    1.0000 </r>
       <r>   -5.0290    1.0000 </r>
       <r>   -5.0201    1.0000 </r>
       <r>   -5.0152    1.0000 </r>
       <r>   -5.0144    1.0000 </r>
       <r>   -5.0086    1.0000 </r>
       <r>   -5.0076    1.0000 </r>
       <r>   -5.0003    1.0000 </r>
       <r>   -4.9979    1.0000 </r>
       <r>   -4.9880    1.0000 </r>
       <r>   -4.9864    1.0000 </r>
       <r>   -4.9819    1.0000 </r>
       <r>   -4.9741    1.0000 </r>
       <r>   -4.9701    1.0000 </r>
       <r>   -4.9667    1.0000 </r>
       <r>   -4.9660    1.0000 </r>
       <r>   -4.9580    1.0000 </r>
       <r>   -4.9481    1.0000 </r>
       <r>   -4.9419    1.0000 </r>
       <r>   -4.9375    1.0000 </r>
       <r>   -4.9279    1.0000 </r>
       <r>   -4.9204    1.0000 </r>
       <r>   -4.9152    1.0000 </r>
       <r>   -4.9126    1.0000 </r>
       <r>   -4.9118    1.0000 </r>
       <r>   -4.9079    1.0000 </r>
       <r>   -4.8845    1.0000 </r>
       <r>   -4.8760    1.0000 </r>
       <r>   -4.8688    1.0000 </r>
       <r>   -4.8593    1.0000 </r>
       <r>   -4.8509    1.0000 </r>
       <r>   -4.8494    1.0000 </r>
       <r>   -4.8458    1.0000 </r>
       <r>   -4.8448    1.0000 </r>
       <r>   -4.8395    1.0000 </r>
       <r>   -4.8259    0.9999 </r>
       <r>   -4.8147    0.9999 </r>
       <r>   -4.8084    0.9999 </r>
       <r>   -4.8026    0.9999 </r>
       <r>   -4.7981    0.9999 </r>
       <r>   -4.7867    0.9999 </r>
       <r>   -4.7767    0.9998 </r>
       <r>   -4.7733    0.9998 </r>
       <r>   -4.7668    0.9998 </r>
       <r>   -4.7498    0.9996 </r>
       <r>   -4.7469    0.9996 </r>
       <r>   -4.7409    0.9996 </r>
       <r>   -4.7389    0.9995 </r>
       <r>   -4.7333    0.9995 </r>
       <r>   -4.7307    0.9995 </r>
       <r>   -4.7141    0.9992 </r>
       <r>   -4.7113    0.9992 </r>
       <r>   -4.6991    0.9990 </r>
       <r>   -4.6934    0.9989 </r>
       <r>   -4.6917    0.9988 </r>
       <r>   -4.6863    0.9987 </r>
       <r>   -4.6851    0.9987 </r>
       <r>   -4.6835    0.9986 </r>
       <r>   -4.6806    0.9986 </r>
       <r>   -4.6752    0.9984 </r>
       <r>   -4.6728    0.9984 </r>
       <r>   -4.6633    0.9981 </r>
       <r>   -4.6591    0.9980 </r>
       <r>   -4.6574    0.9979 </r>
       <r>   -4.6556    0.9978 </r>
       <r>   -4.6547    0.9978 </r>
       <r>   -4.6539    0.9978 </r>
       <r>   -4.6505    0.9977 </r>
       <r>   -4.6451    0.9975 </r>
       <r>   -4.6394    0.9973 </r>
       <r>   -4.6312    0.9970 </r>
       <r>   -4.6239    0.9967 </r>
       <r>   -4.6198    0.9966 </r>
       <r>   -4.6110    0.9962 </r>
       <r>   -4.6080    0.9961 </r>
       <r>   -4.6051    0.9960 </r>
       <r>   -4.6038    0.9960 </r>
       <r>   -4.5988    0.9958 </r>
       <r>   -4.5987    0.9958 </r>
       <r>   -4.5876    0.9955 </r>
       <r>   -4.5861    0.9954 </r>
       <r>   -4.5780    0.9952 </r>
       <r>   -4.5768    0.9952 </r>
       <r>   -4.5733    0.9951 </r>
       <r>   -4.5679    0.9951 </r>
       <r>   -4.5663    0.9951 </r>
       <r>   -4.5641    0.9951 </r>
       <r>   -4.5573    0.9951 </r>
       <r>   -4.5567    0.9951 </r>
       <r>   -4.5530    0.9951 </r>
       <r>   -4.5449    0.9953 </r>
       <r>   -4.5299    0.9961 </r>
       <r>   -4.5197    0.9970 </r>
       <r>   -4.5180    0.9972 </r>
       <r>   -4.5151    0.9975 </r>
       <r>   -4.5087    0.9983 </r>
       <r>   -4.5062    0.9987 </r>
       <r>   -4.5023    0.9993 </r>
       <r>   -4.4973    1.0002 </r>
       <r>   -4.4943    1.0008 </r>
       <r>   -4.4839    1.0031 </r>
       <r>   -4.4767    1.0050 </r>
       <r>   -4.4727    1.0062 </r>
       <r>   -4.4701    1.0069 </r>
       <r>   -4.4675    1.0078 </r>
       <r>   -4.4597    1.0104 </r>
       <r>   -4.4575    1.0112 </r>
       <r>   -4.4544    1.0123 </r>
       <r>   -4.4539    1.0125 </r>
       <r>   -4.4471    1.0152 </r>
       <r>   -4.4393    1.0185 </r>
       <r>   -4.4348    1.0205 </r>
       <r>   -4.4314    1.0220 </r>
       <r>   -4.4270    1.0241 </r>
       <r>   -4.4183    1.0282 </r>
       <r>   -4.4157    1.0295 </r>
       <r>   -4.4156    1.0295 </r>
       <r>   -4.4132    1.0307 </r>
       <r>   -4.4103    1.0321 </r>
       <r>   -4.4010    1.0365 </r>
       <r>   -4.3914    1.0408 </r>
       <r>   -4.3767    1.0466 </r>
       <r>   -4.3747    1.0473 </r>
       <r>   -4.3698    1.0487 </r>
       <r>   -4.3647    1.0500 </r>
       <r>   -4.3587    1.0510 </r>
       <r>   -4.3469    1.0515 </r>
       <r>   -4.3457    1.0515 </r>
       <r>   -4.3431    1.0512 </r>
       <r>   -4.3430    1.0512 </r>
       <r>   -4.3416    1.0510 </r>
       <r>   -4.3411    1.0509 </r>
       <r>   -4.3370    1.0501 </r>
       <r>   -4.3348    1.0495 </r>
       <r>   -4.3336    1.0491 </r>
       <r>   -4.3304    1.0479 </r>
       <r>   -4.3298    1.0477 </r>
       <r>   -4.3264    1.0461 </r>
       <r>   -4.3257    1.0458 </r>
       <r>   -4.3224    1.0439 </r>
       <r>   -4.3163    1.0398 </r>
       <r>   -4.3082    1.0326 </r>
       <r>   -4.3045    1.0286 </r>
       <r>   -4.2992    1.0222 </r>
       <r>   -4.2956    1.0173 </r>
       <r>   -4.2952    1.0168 </r>
       <r>   -4.2925    1.0128 </r>
       <r>   -4.2897    1.0084 </r>
       <r>   -4.2876    1.0049 </r>
       <r>   -4.2796    0.9901 </r>
       <r>   -4.2741    0.9786 </r>
       <r>   -4.2710    0.9714 </r>
       <r>   -4.2691    0.9671 </r>
       <r>   -4.2667    0.9611 </r>
       <r>   -4.2629    0.9514 </r>
       <r>   -4.2616    0.9481 </r>
       <r>   -4.2587    0.9401 </r>
       <r>   -4.2559    0.9320 </r>
       <r>   -4.2535    0.9251 </r>
       <r>   -4.2524    0.9217 </r>
       <r>   -4.2504    0.9154 </r>
       <r>   -4.2489    0.9109 </r>
       <r>   -4.2476    0.9066 </r>
       <r>   -4.2460    0.9015 </r>
       <r>   -4.2439    0.8944 </r>
       <r>   -4.2370    0.8704 </r>
       <r>   -4.2338    0.8587 </r>
       <r>   -4.2309    0.8476 </r>
       <r>   -4.2294    0.8417 </r>
       <r>   -4.2275    0.8341 </r>
       <r>   -4.2253    0.8256 </r>
       <r>   -4.2171    0.7913 </r>
       <r>   -4.2131    0.7740 </r>
       <r>   -4.2052    0.7378 </r>
       <r>   -4.1937    0.6829 </r>
       <r>   -4.1903    0.6660 </r>
       <r>   -4.1840    0.6346 </r>
       <r>   -4.1827    0.6280 </r>
       <r>   -4.1815    0.6216 </r>
       <r>   -4.1790    0.6090 </r>
       <r>   -4.1680    0.5515 </r>
       <r>   -4.1623    0.5213 </r>
       <r>   -4.1451    0.4308 </r>
       <r>   -4.1381    0.3942 </r>
       <r>   -4.1361    0.3840 </r>
       <r>   -4.1350    0.3785 </r>
       <r>   -4.1247    0.3264 </r>
       <r>   -4.1199    0.3031 </r>
       <r>   -4.0915    0.1757 </r>
       <r>   -3.9715   -0.0514 </r>
       <r>   -3.8936   -0.0260 </r>
       <r>   -3.8330   -0.0032 </r>
       <r>   -3.8220   -0.0007 </r>
       <r>   -3.7049    0.0037 </r>
       <r>   -3.5109    0.0001 </r>
       <r>   -3.4968    0.0001 </r>
       <r>   -3.4028    0.0000 </r>
       <r>   -3.0782    0.0000 </r>
       <r>   -3.0716    0.0000 </r>
       <r>   -3.0532    0.0000 </r>
       <r>   -3.0480    0.0000 </r>
       <r>   -3.0248    0.0000 </r>
       <r>   -2.9626    0.0000 </r>
       <r>   -2.9478    0.0000 </r>
       <r>   -2.8244    0.0000 </r>
       <r>   -2.5376    0.0000 </r>
       <r>   -2.5316    0.0000 </r>
       <r>   -2.4069    0.0000 </r>
       <r>   -2.3421    0.0000 </r>
       <r>   -2.1722    0.0000 </r>
       <r>   -2.1227    0.0000 </r>
       <r>   -2.0972    0.0000 </r>
       <r>   -2.0688    0.0000 </r>
       <r>   -1.9726    0.0000 </r>
       <r>   -1.9349    0.0000 </r>
       <r>   -1.8780    0.0000 </r>
       <r>   -1.8064    0.0000 </r>
       <r>   -1.7480    0.0000 </r>
       <r>   -1.7208    0.0000 </r>
       <r>   -1.6481    0.0000 </r>
       <r>   -1.6173    0.0000 </r>
       <r>   -1.5609    0.0000 </r>
       <r>   -1.4191    0.0000 </r>
       <r>   -1.3650    0.0000 </r>
       <r>   -1.2683    0.0000 </r>
       <r>   -1.2012    0.0000 </r>
       <r>   -1.1804    0.0000 </r>
       <r>   -1.0169    0.0000 </r>
       <r>   -0.9939    0.0000 </r>
       <r>   -0.9841    0.0000 </r>
       <r>   -0.9548    0.0000 </r>
       <r>   -0.9473    0.0000 </r>
       <r>   -0.9253    0.0000 </r>
       <r>   -0.8759    0.0000 </r>
       <r>   -0.8644    0.0000 </r>
       <r>   -0.5808    0.0000 </r>
      </set>
     </set>
    </set>
   </array>
  </eigenvalues>
  <separator name="orbital magnetization" >
   <v name="MAGDIPOLOUT">      0.00000000      0.00000000      0.00000000</v>
  </separator>
  <dos>
   <i name="efermi">     -4.15823412 </i>
   <total>
    <array>
     <dimension dim="1">gridpoints</dimension>
     <dimension dim="2">spin</dimension>
     <field>energy</field>
     <field>total</field>
     <field>integrated</field>
     <set>
      <set comment="spin 1">
       <r>   -30.4079     0.0000     0.0000 </r>
       <r>   -30.3018     0.0000     0.0000 </r>
       <r>   -30.1957     0.0000     0.0000 </r>
       <r>   -30.0896     0.0000     0.0000 </r>
       <r>   -29.9835     0.0000     0.0000 </r>
       <r>   -29.8774     0.0000     0.0000 </r>
       <r>   -29.7713     0.0000     0.0000 </r>
       <r>   -29.6652     0.0000     0.0000 </r>
       <r>   -29.5592     0.0000     0.0000 </r>
       <r>   -29.4531     0.0000     0.0000 </r>
       <r>   -29.3470     0.0000     0.0000 </r>
       <r>   -29.2409     0.0000     0.0000 </r>
       <r>   -29.1348     0.0002     0.0000 </r>
       <r>   -29.0287     0.0032     0.0004 </r>
       <r>   -28.9226     0.0276     0.0033 </r>
       <r>   -28.8165     0.0618     0.0098 </r>
       <r>   -28.7104    -0.2815    -0.0200 </r>
       <r>   -28.6043    -0.7809    -0.1029 </r>
       <r>   -28.4983     2.6689     0.1803 </r>
       <r>   -28.3922     9.2863     1.1655 </r>
       <r>   -28.2861     7.6959     1.9819 </r>
       <r>   -28.1800     0.9820     2.0861 </r>
       <r>   -28.0739    -0.7888     2.0024 </r>
       <r>   -27.9678    -0.1023     1.9916 </r>
       <r>   -27.8617     0.0618     1.9981 </r>
       <r>   -27.7556     0.0161     1.9998 </r>
       <r>   -27.6495     0.0015     2.0000 </r>
       <r>   -27.5434     0.0001     2.0000 </r>
       <r>   -27.4373     0.0000     2.0000 </r>
       <r>   -27.3313     0.0000     2.0000 </r>
       <r>   -27.2252     0.0000     2.0000 </r>
       <r>   -27.1191     0.0000     2.0000 </r>
       <r>   -27.0130     0.0000     2.0000 </r>
       <r>   -26.9069     0.0000     2.0000 </r>
       <r>   -26.8008     0.0000     2.0000 </r>
       <r>   -26.6947     0.0000     2.0000 </r>
       <r>   -26.5886     0.0000     2.0000 </r>
       <r>   -26.4825     0.0000     2.0000 </r>
       <r>   -26.3764     0.0000     2.0000 </r>
       <r>   -26.2704     0.0000     2.0000 </r>
       <r>   -26.1643     0.0000     2.0000 </r>
       <r>   -26.0582     0.0000     2.0000 </r>
       <r>   -25.9521     0.0000     2.0000 </r>
       <r>   -25.8460     0.0000     2.0000 </r>
       <r>   -25.7399     0.0000     2.0000 </r>
       <r>   -25.6338     0.0000     2.0000 </r>
       <r>   -25.5277     0.0000     2.0000 </r>
       <r>   -25.4216     0.0000     2.0000 </r>
       <r>   -25.3155     0.0000     2.0000 </r>
       <r>   -25.2095     0.0000     2.0000 </r>
       <r>   -25.1034     0.0000     2.0000 </r>
       <r>   -24.9973     0.0000     2.0000 </r>
       <r>   -24.8912     0.0000     2.0000 </r>
       <r>   -24.7851     0.0000     2.0000 </r>
       <r>   -24.6790     0.0000     2.0000 </r>
       <r>   -24.5729     0.0000     2.0000 </r>
       <r>   -24.4668     0.0000     2.0000 </r>
       <r>   -24.3607     0.0000     2.0000 </r>
       <r>   -24.2546     0.0000     2.0000 </r>
       <r>   -24.1486     0.0000     2.0000 </r>
       <r>   -24.0425     0.0000     2.0000 </r>
       <r>   -23.9364     0.0000     2.0000 </r>
       <r>   -23.8303     0.0000     2.0000 </r>
       <r>   -23.7242     0.0000     2.0000 </r>
       <r>   -23.6181     0.0000     2.0000 </r>
       <r>   -23.5120     0.0000     2.0000 </r>
       <r>   -23.4059     0.0000     2.0000 </r>
       <r>   -23.2998     0.0000     2.0000 </r>
       <r>   -23.1937     0.0000     2.0000 </r>
       <r>   -23.0876     0.0000     2.0000 </r>
       <r>   -22.9816     0.0000     2.0000 </r>
       <r>   -22.8755     0.0000     2.0000 </r>
       <r>   -22.7694     0.0000     2.0000 </r>
       <r>   -22.6633     0.0000     2.0000 </r>
       <r>   -22.5572     0.0000     2.0000 </r>
       <r>   -22.4511     0.0000     2.0000 </r>
       <r>   -22.3450     0.0000     2.0000 </r>
       <r>   -22.2389     0.0000     2.0000 </r>
       <r>   -22.1328     0.0000     2.0000 </r>
       <r>   -22.0267     0.0000     2.0000 </r>
       <r>   -21.9207     0.0000     2.0000 </r>
       <r>   -21.8146     0.0000     2.0000 </r>
       <r>   -21.7085     0.0000     2.0000 </r>
       <r>   -21.6024     0.0000     2.0000 </r>
       <r>   -21.4963     0.0000     2.0000 </r>
       <r>   -21.3902     0.0000     2.0000 </r>
       <r>   -21.2841     0.0000     2.0000 </r>
       <r>   -21.1780     0.0000     2.0000 </r>
       <r>   -21.0719     0.0000     2.0000 </r>
       <r>   -20.9658     0.0000     2.0000 </r>
       <r>   -20.8598     0.0000     2.0000 </r>
       <r>   -20.7537     0.0000     2.0000 </r>
       <r>   -20.6476     0.0000     2.0000 </r>
       <r>   -20.5415     0.0000     2.0000 </r>
       <r>   -20.4354     0.0000     2.0000 </r>
       <r>   -20.3293     0.0000     2.0000 </r>
       <r>   -20.2232     0.0000     2.0000 </r>
       <r>   -20.1171     0.0000     2.0000 </r>
       <r>   -20.0110     0.0000     2.0000 </r>
       <r>   -19.9049     0.0000     2.0000 </r>
       <r>   -19.7988     0.0000     2.0000 </r>
       <r>   -19.6928     0.0000     2.0000 </r>
       <r>   -19.5867     0.0000     2.0000 </r>
       <r>   -19.4806     0.0000     2.0000 </r>
       <r>   -19.3745     0.0000     2.0000 </r>
       <r>   -19.2684     0.0000     2.0000 </r>
       <r>   -19.1623     0.0000     2.0000 </r>
       <r>   -19.0562     0.0000     2.0000 </r>
       <r>   -18.9501     0.0000     2.0000 </r>
       <r>   -18.8440     0.0000     2.0000 </r>
       <r>   -18.7379     0.0000     2.0000 </r>
       <r>   -18.6319     0.0000     2.0000 </r>
       <r>   -18.5258     0.0000     2.0000 </r>
       <r>   -18.4197     0.0000     2.0000 </r>
       <r>   -18.3136     0.0000     2.0000 </r>
       <r>   -18.2075     0.0000     2.0000 </r>
       <r>   -18.1014     0.0000     2.0000 </r>
       <r>   -17.9953     0.0000     2.0000 </r>
       <r>   -17.8892     0.0000     2.0000 </r>
       <r>   -17.7831     0.0000     2.0000 </r>
       <r>   -17.6770     0.0000     2.0000 </r>
       <r>   -17.5710     0.0000     2.0000 </r>
       <r>   -17.4649     0.0000     2.0000 </r>
       <r>   -17.3588     0.0000     2.0000 </r>
       <r>   -17.2527     0.0000     2.0000 </r>
       <r>   -17.1466     0.0000     2.0000 </r>
       <r>   -17.0405     0.0000     2.0000 </r>
       <r>   -16.9344     0.0000     2.0000 </r>
       <r>   -16.8283     0.0000     2.0000 </r>
       <r>   -16.7222     0.0000     2.0000 </r>
       <r>   -16.6161     0.0000     2.0000 </r>
       <r>   -16.5100     0.0000     2.0000 </r>
       <r>   -16.4040     0.0000     2.0000 </r>
       <r>   -16.2979     0.0000     2.0000 </r>
       <r>   -16.1918     0.0000     2.0000 </r>
       <r>   -16.0857     0.0000     2.0000 </r>
       <r>   -15.9796     0.0000     2.0000 </r>
       <r>   -15.8735     0.0000     2.0000 </r>
       <r>   -15.7674     0.0000     2.0000 </r>
       <r>   -15.6613     0.0000     2.0000 </r>
       <r>   -15.5552     0.0000     2.0000 </r>
       <r>   -15.4491     0.0000     2.0000 </r>
       <r>   -15.3431     0.0000     2.0000 </r>
       <r>   -15.2370     0.0000     2.0000 </r>
       <r>   -15.1309     0.0000     2.0000 </r>
       <r>   -15.0248     0.0000     2.0000 </r>
       <r>   -14.9187     0.0000     2.0000 </r>
       <r>   -14.8126     0.0000     2.0000 </r>
       <r>   -14.7065     0.0000     2.0000 </r>
       <r>   -14.6004     0.0000     2.0000 </r>
       <r>   -14.4943     0.0000     2.0000 </r>
       <r>   -14.3882     0.0000     2.0000 </r>
       <r>   -14.2822     0.0000     2.0000 </r>
       <r>   -14.1761     0.0000     2.0000 </r>
       <r>   -14.0700     0.0002     2.0000 </r>
       <r>   -13.9639     0.0030     2.0003 </r>
       <r>   -13.8578     0.0259     2.0031 </r>
       <r>   -13.7517     0.0630     2.0098 </r>
       <r>   -13.6456    -0.2562     1.9826 </r>
       <r>   -13.5395    -0.7980     1.8979 </r>
       <r>   -13.4334     2.4367     2.1564 </r>
       <r>   -13.3273     9.1336     3.1254 </r>
       <r>   -13.2212     7.9253     3.9662 </r>
       <r>   -13.1152     1.1584     4.0891 </r>
       <r>   -13.0091    -0.8015     4.0041 </r>
       <r>   -12.9030    -0.1203     3.9913 </r>
       <r>   -12.7969     0.0628     3.9980 </r>
       <r>   -12.6908     0.0173     3.9998 </r>
       <r>   -12.5847     0.0016     4.0000 </r>
       <r>   -12.4786     0.0001     4.0000 </r>
       <r>   -12.3725     0.0000     4.0000 </r>
       <r>   -12.2664     0.0000     4.0000 </r>
       <r>   -12.1603     0.0000     4.0000 </r>
       <r>   -12.0543     0.0000     4.0000 </r>
       <r>   -11.9482     0.0000     4.0000 </r>
       <r>   -11.8421     0.0001     4.0000 </r>
       <r>   -11.7360     0.0023     4.0003 </r>
       <r>   -11.6299     0.0222     4.0026 </r>
       <r>   -11.5238     0.0670     4.0097 </r>
       <r>   -11.4177    -0.1710     3.9916 </r>
       <r>   -11.3116    -0.7550     3.9115 </r>
       <r>   -11.2055     1.6452     4.0860 </r>
       <r>   -11.0994     7.8758     4.9216 </r>
       <r>   -10.9934    10.6588     6.0524 </r>
       <r>   -10.8873    10.5864     7.1755 </r>
       <r>   -10.7812     6.8561     7.9029 </r>
       <r>   -10.6751     0.9120     7.9996 </r>
       <r>   -10.5690     4.2927     8.4550 </r>
       <r>   -10.4629     9.8935     9.5046 </r>
       <r>   -10.3568     5.3851    10.0759 </r>
       <r>   -10.2507    -0.2146    10.0532 </r>
       <r>   -10.1446    -0.5716     9.9925 </r>
       <r>   -10.0385     0.0154     9.9942 </r>
       <r>    -9.9324     0.0465     9.9991 </r>
       <r>    -9.8264     0.0080     9.9999 </r>
       <r>    -9.7203     0.0006    10.0000 </r>
       <r>    -9.6142     0.0000    10.0000 </r>
       <r>    -9.5081     0.0000    10.0000 </r>
       <r>    -9.4020     0.0000    10.0000 </r>
       <r>    -9.2959     0.0000    10.0000 </r>
       <r>    -9.1898     0.0000    10.0000 </r>
       <r>    -9.0837     0.0000    10.0000 </r>
       <r>    -8.9776     0.0000    10.0000 </r>
       <r>    -8.8715     0.0000    10.0000 </r>
       <r>    -8.7655     0.0000    10.0000 </r>
       <r>    -8.6594     0.0000    10.0000 </r>
       <r>    -8.5533     0.0000    10.0000 </r>
       <r>    -8.4472     0.0000    10.0000 </r>
       <r>    -8.3411     0.0000    10.0000 </r>
       <r>    -8.2350     0.0000    10.0000 </r>
       <r>    -8.1289     0.0000    10.0000 </r>
       <r>    -8.0228     0.0000    10.0000 </r>
       <r>    -7.9167     0.0000    10.0000 </r>
       <r>    -7.8106     0.0000    10.0000 </r>
       <r>    -7.7046     0.0000    10.0000 </r>
       <r>    -7.5985     0.0000    10.0000 </r>
       <r>    -7.4924     0.0000    10.0000 </r>
       <r>    -7.3863     0.0002    10.0000 </r>
       <r>    -7.2802     0.0033    10.0004 </r>
       <r>    -7.1741     0.0277    10.0033 </r>
       <r>    -7.0680     0.0616    10.0098 </r>
       <r>    -6.9619    -0.2837     9.9797 </r>
       <r>    -6.8558    -0.7689     9.8982 </r>
       <r>    -6.7497     2.7608    10.1911 </r>
       <r>    -6.6437     9.4351    11.1920 </r>
       <r>    -6.5376     7.2719    11.9635 </r>
       <r>    -6.4315    -0.5368    11.9066 </r>
       <r>    -6.3254     2.3551    12.1564 </r>
       <r>    -6.2193    23.4071    14.6397 </r>
       <r>    -6.1132    41.9560    19.0908 </r>
       <r>    -6.0071    25.9482    21.8437 </r>
       <r>    -5.9010    10.1143    22.9167 </r>
       <r>    -5.7949    32.9318    26.4104 </r>
       <r>    -5.6888    85.6874    35.5010 </r>
       <r>    -5.5827   181.0778    54.7116 </r>
       <r>    -5.4767   281.7092    84.5982 </r>
       <r>    -5.3706   281.6431   114.4778 </r>
       <r>    -5.2645   216.9968   137.4991 </r>
       <r>    -5.1584   226.1900   161.4957 </r>
       <r>    -5.0523   314.5206   194.8633 </r>
       <r>    -4.9462   358.0040   232.8440 </r>
       <r>    -4.8401   310.8392   265.8210 </r>
       <r>    -4.7340   310.2846   298.7392 </r>
       <r>    -4.6279   393.8070   340.5183 </r>
       <r>    -4.5218   424.2465   385.5268 </r>
       <r>    -4.4158   428.5966   430.9967 </r>
       <r>    -4.3097   519.9036   486.1534 </r>
       <r>    -4.2036   530.7034   542.4559 </r>
       <r>    -4.0975   301.0120   574.3904 </r>
       <r>    -3.9914    63.2218   581.0976 </r>
       <r>    -3.8853     8.4640   581.9955 </r>
       <r>    -3.7792    27.7500   584.9395 </r>
       <r>    -3.6731    21.7329   587.2452 </r>
       <r>    -3.5670    14.8764   588.8234 </r>
       <r>    -3.4609    24.2544   591.3966 </r>
       <r>    -3.3549    19.7752   593.4946 </r>
       <r>    -3.2488     1.4975   593.6534 </r>
       <r>    -3.1427    11.6687   594.8914 </r>
       <r>    -3.0366    51.3137   600.3352 </r>
       <r>    -2.9305    58.2867   606.5189 </r>
       <r>    -2.8244    27.0427   609.3879 </r>
       <r>    -2.7183     4.5810   609.8739 </r>
       <r>    -2.6122     5.5553   610.4632 </r>
       <r>    -2.5061    20.5786   612.6464 </r>
       <r>    -2.4000    26.0114   615.4060 </r>
       <r>    -2.2939    18.0849   617.3246 </r>
       <r>    -2.1879    19.7755   619.4226 </r>
       <r>    -2.0818    35.6731   623.2072 </r>
       <r>    -1.9757    39.6769   627.4165 </r>
       <r>    -1.8696    34.3531   631.0610 </r>
       <r>    -1.7635    36.1193   634.8929 </r>
       <r>    -1.6574    40.3461   639.1733 </r>
       <r>    -1.5513    33.2581   642.7016 </r>
       <r>    -1.4452    21.5060   644.9832 </r>
       <r>    -1.3391    22.5797   647.3787 </r>
       <r>    -1.2330    27.4301   650.2888 </r>
       <r>    -1.1270    25.1662   652.9587 </r>
       <r>    -1.0209    40.1265   657.2157 </r>
       <r>    -0.9148    66.9558   664.3191 </r>
       <r>    -0.8087    48.3664   669.4503 </r>
       <r>    -0.7026     9.8113   670.4911 </r>
       <r>    -0.5965     3.7378   670.8877 </r>
       <r>    -0.4904     8.3016   671.7684 </r>
       <r>    -0.3843     3.0008   672.0868 </r>
       <r>    -0.2782    -0.6469   672.0181 </r>
       <r>    -0.1721    -0.2647   671.9901 </r>
       <r>    -0.0661     0.0628   671.9967 </r>
       <r>     0.0400     0.0276   671.9996 </r>
       <r>     0.1461     0.0032   672.0000 </r>
       <r>     0.2522     0.0002   672.0000 </r>
       <r>     0.3583     0.0000   672.0000 </r>
       <r>     0.4644     0.0000   672.0000 </r>
       <r>     0.5705     0.0000   672.0000 </r>
       <r>     0.6766     0.0000   672.0000 </r>
       <r>     0.7827     0.0000   672.0000 </r>
       <r>     0.8888     0.0000   672.0000 </r>
       <r>     0.9949     0.0000   672.0000 </r>
       <r>     1.1009     0.0000   672.0000 </r>
       <r>     1.2070     0.0000   672.0000 </r>
       <r>     1.3131     0.0000   672.0000 </r>
       <r>     1.4192     0.0000   672.0000 </r>
      </set>
     </set>
    </array>
   </total>
  </dos>
 </calculation>
 <structure name="finalpos" >
  <crystal>
   <varray name="basis" >
    <v>      30.00000000       0.00000000       0.00000000 </v>
    <v>       0.00000000      30.00000000       0.00000000 </v>
    <v>       0.00000000       0.00000000      30.00000000 </v>
   </varray>
   <i name="volume">  27000.00000000 </i>
   <varray name="rec_basis" >
    <v>       0.03333333       0.00000000       0.00000000 </v>
    <v>       0.00000000       0.03333333       0.00000000 </v>
    <v>       0.00000000       0.00000000       0.03333333 </v>
   </varray>
  </crystal>
  <varray name="positions" >
   <v>       0.44576020       0.32826710       0.41691983 </v>
   <v>       0.67173288       0.55423978       0.41691983 </v>
   <v>       0.55423980       0.32826710       0.41691983 </v>
   <v>       0.32826712       0.55423978       0.41691983 </v>
   <v>       0.50000000       0.38250690       0.34021317 </v>
   <v>       0.50000000       0.38250690       0.65978680 </v>
   <v>       0.50000000       0.27609440       0.50000000 </v>
   <v>       0.27609443       0.49999998       0.50000000 </v>
   <v>       0.72390557       0.49999998       0.50000000 </v>
   <v>       0.50000000       0.72390555       0.50000000 </v>
   <v>       0.61195280       0.38804720       0.34167483 </v>
   <v>       0.61195280       0.38804720       0.65832513 </v>
   <v>       0.38804722       0.61195278       0.34167483 </v>
   <v>       0.38804722       0.61195278       0.65832513 </v>
   <v>       0.38804720       0.38804720       0.34167483 </v>
   <v>       0.38804720       0.38804720       0.65832513 </v>
   <v>       0.61195278       0.61195278       0.34167483 </v>
   <v>       0.61195278       0.61195278       0.65832513 </v>
   <v>       0.44576020       0.32826710       0.58308023 </v>
   <v>       0.67173288       0.55423978       0.58308023 </v>
   <v>       0.55791699       0.44208301       0.41809300 </v>
   <v>       0.32826705       0.44576024       0.41691983 </v>
   <v>       0.55423973       0.67173293       0.41691983 </v>
   <v>       0.55423980       0.32826710       0.58308023 </v>
   <v>       0.32826712       0.55423978       0.58308023 </v>
   <v>       0.67173295       0.44576024       0.41691983 </v>
   <v>       0.44576027       0.67173293       0.41691983 </v>
   <v>       0.44208301       0.44208301       0.41809300 </v>
   <v>       0.50000000       0.38416601       0.50000000 </v>
   <v>       0.61749315       0.50000005       0.34021317 </v>
   <v>       0.61749315       0.50000005       0.65978680 </v>
   <v>       0.38250685       0.50000005       0.34021317 </v>
   <v>       0.38250685       0.50000005       0.65978680 </v>
   <v>       0.38317830       0.38317830       0.50000000 </v>
   <v>       0.61682172       0.61682172       0.50000000 </v>
   <v>       0.61682170       0.38317830       0.50000000 </v>
   <v>       0.38317828       0.61682172       0.50000000 </v>
   <v>       0.50000000       0.50000000       0.33478917 </v>
   <v>       0.50000000       0.50000000       0.66521087 </v>
   <v>       0.32826705       0.44576024       0.58308023 </v>
   <v>       0.55423973       0.67173293       0.58308023 </v>
   <v>       0.55791699       0.44208301       0.58190703 </v>
   <v>       0.44208298       0.55791702       0.41809300 </v>
   <v>       0.44208301       0.44208301       0.58190703 </v>
   <v>       0.67173295       0.44576024       0.58308023 </v>
   <v>       0.44576027       0.67173293       0.58308023 </v>
   <v>       0.55791702       0.55791702       0.41809300 </v>
   <v>       0.38416599       0.50000002       0.50000000 </v>
   <v>       0.61583401       0.50000002       0.50000000 </v>
   <v>       0.50000000       0.61749319       0.34021317 </v>
   <v>       0.50000000       0.61749319       0.65978680 </v>
   <v>       0.50000000       0.50000000       0.50000000 </v>
   <v>       0.44208298       0.55791702       0.58190703 </v>
   <v>       0.55791702       0.55791702       0.58190703 </v>
   <v>       0.50000000       0.61583404       0.50000000 </v>
   <v>       0.26564387       0.55459177       0.43271883 </v>
   <v>       0.23037690       0.56280700       0.42259407 </v>
  </varray>
  <varray name="selective"  type="logical" >
   <v type="logical" >  F  F  F </v>
   <v type="logical" >  F  F  F </v>
   <v type="logical" >  F  F  F </v>
   <v type="logical" >  F  F  F </v>
   <v type="logical" >  F  F  F </v>
   <v type="logical" >  F  F  F </v>
   <v type="logical" >  F  F  F </v>
   <v type="logical" >  F  F  F </v>
   <v type="logical" >  F  F  F </v>
   <v type="logical" >  F  F  F </v>
   <v type="logical" >  F  F  F </v>
   <v type="logical" >  F  F  F </v>
   <v type="logical" >  F  F  F </v>
   <v type="logical" >  F  F  F </v>
   <v type="logical" >  F  F  F </v>
   <v type="logical" >  F  F  F </v>
   <v type="logical" >  F  F  F </v>
   <v type="logical" >  F  F  F </v>
   <v type="logical" >  F  F  F </v>
   <v type="logical" >  F  F  F </v>
   <v type="logical" >  F  F  F </v>
   <v type="logical" >  F  F  F </v>
   <v type="logical" >  F  F  F </v>
   <v type="logical" >  F  F  F </v>
   <v type="logical" >  F  F  F </v>
   <v type="logical" >  F  F  F </v>
   <v type="logical" >  F  F  F </v>
   <v type="logical" >  F  F  F </v>
   <v type="logical" >  F  F  F </v>
   <v type="logical" >  F  F  F </v>
   <v type="logical" >  F  F  F </v>
   <v type="logical" >  F  F  F </v>
   <v type="logical" >  F  F  F </v>
   <v type="logical" >  F  F  F </v>
   <v type="logical" >  F  F  F </v>
   <v type="logical" >  F  F  F </v>
   <v type="logical" >  F  F  F </v>
   <v type="logical" >  F  F  F </v>
   <v type="logical" >  F  F  F </v>
   <v type="logical" >  F  F  F </v>
   <v type="logical" >  F  F  F </v>
   <v type="logical" >  F  F  F </v>
   <v type="logical" >  F  F  F </v>
   <v type="logical" >  F  F  F </v>
   <v type="logical" >  F  F  F </v>
   <v type="logical" >  F  F  F </v>
   <v type="logical" >  F  F  F </v>
   <v type="logical" >  F  F  F </v>
   <v type="logical" >  F  F  F </v>
   <v type="logical" >  F  F  F </v>
   <v type="logical" >  F  F  F </v>
   <v type="logical" >  F  F  F </v>
   <v type="logical" >  F  F  F </v>
   <v type="logical" >  F  F  F </v>
   <v type="logical" >  F  F  F </v>
   <v type="logical" >  F  F  F </v>
   <v type="logical" >  F  F  F </v>
  </varray>
  <nose>
   <v>      -3.00000000       0.00000000       0.00010000       0.00010000 </v>
  </nose>
 </structure>
</modeling>
