  57  57   0   0
  0.4736842E+03  0.3000000E-08  0.3000000E-08  0.3000000E-08  0.5000000E-15
  1.000000000000000E-004
  CAR 
 6_Pd100_top_free_z(O)                   
      1.35515073    -30.73779645  301     -4.12807293      1.00000000
    -30.738  0.0000E+00  0.0000E+00
    -30.631  0.0000E+00  0.0000E+00
    -30.524  0.0000E+00  0.0000E+00
    -30.417  0.3641E-27  0.3895E-28
    -30.310  0.1771E-23  0.1895E-24
    -30.203  0.4787E-20  0.5123E-21
    -30.096  0.7167E-17  0.7673E-18
    -29.989  0.5922E-14  0.6343E-15
    -29.882  0.2693E-11  0.2887E-12
    -29.775  0.6672E-09  0.7166E-10
    -29.668  0.8929E-07  0.9623E-08
    -29.561  0.6355E-05  0.6894E-06
    -29.454  0.2342E-03  0.2574E-04
    -29.347  0.4239E-02  0.4792E-03
    -29.240  0.3297E-01  0.4006E-02
    -29.133  0.5367E-01  0.9747E-02
    -29.026 -0.3794E+00 -0.3084E-01
    -28.919 -0.6587E+00 -0.1013E+00
    -28.812  0.3672E+01  0.2915E+00
    -28.705  0.9777E+01  0.1337E+01
    -28.598  0.6574E+01  0.2041E+01
    -28.491  0.2689E+00  0.2069E+01
    -28.384 -0.6882E+00  0.1996E+01
    -28.277 -0.2598E-01  0.1993E+01
    -28.170  0.5367E-01  0.1999E+01
    -28.063  0.1060E-01  0.2000E+01
    -27.956  0.7953E-03  0.2000E+01
    -27.849  0.2826E-04  0.2000E+01
    -27.742  0.5116E-06  0.2000E+01
    -27.635  0.4883E-08  0.2000E+01
    -27.529  0.2505E-10  0.2000E+01
    -27.422  0.7057E-13  0.2000E+01
    -27.315  0.0000E+00  0.2000E+01
    -27.208  0.0000E+00  0.2000E+01
    -27.101  0.0000E+00  0.2000E+01
    -26.994  0.0000E+00  0.2000E+01
    -26.887  0.0000E+00  0.2000E+01
    -26.780  0.0000E+00  0.2000E+01
    -26.673  0.0000E+00  0.2000E+01
    -26.566  0.0000E+00  0.2000E+01
    -26.459  0.0000E+00  0.2000E+01
    -26.352  0.0000E+00  0.2000E+01
    -26.245  0.0000E+00  0.2000E+01
    -26.138  0.0000E+00  0.2000E+01
    -26.031  0.0000E+00  0.2000E+01
    -25.924  0.0000E+00  0.2000E+01
    -25.817  0.0000E+00  0.2000E+01
    -25.710  0.0000E+00  0.2000E+01
    -25.603  0.0000E+00  0.2000E+01
    -25.496  0.0000E+00  0.2000E+01
    -25.389  0.0000E+00  0.2000E+01
    -25.282  0.0000E+00  0.2000E+01
    -25.175  0.0000E+00  0.2000E+01
    -25.068  0.0000E+00  0.2000E+01
    -24.961  0.0000E+00  0.2000E+01
    -24.854  0.0000E+00  0.2000E+01
    -24.747  0.0000E+00  0.2000E+01
    -24.640  0.0000E+00  0.2000E+01
    -24.533  0.0000E+00  0.2000E+01
    -24.426  0.0000E+00  0.2000E+01
    -24.319  0.0000E+00  0.2000E+01
    -24.212  0.0000E+00  0.2000E+01
    -24.105  0.0000E+00  0.2000E+01
    -23.998  0.0000E+00  0.2000E+01
    -23.891  0.0000E+00  0.2000E+01
    -23.784  0.0000E+00  0.2000E+01
    -23.677  0.0000E+00  0.2000E+01
    -23.570  0.0000E+00  0.2000E+01
    -23.463  0.0000E+00  0.2000E+01
    -23.356  0.0000E+00  0.2000E+01
    -23.249  0.0000E+00  0.2000E+01
    -23.142  0.0000E+00  0.2000E+01
    -23.035  0.0000E+00  0.2000E+01
    -22.929  0.0000E+00  0.2000E+01
    -22.822  0.0000E+00  0.2000E+01
    -22.715  0.0000E+00  0.2000E+01
    -22.608  0.0000E+00  0.2000E+01
    -22.501  0.0000E+00  0.2000E+01
    -22.394  0.0000E+00  0.2000E+01
    -22.287  0.0000E+00  0.2000E+01
    -22.180  0.0000E+00  0.2000E+01
    -22.073  0.0000E+00  0.2000E+01
    -21.966  0.0000E+00  0.2000E+01
    -21.859  0.0000E+00  0.2000E+01
    -21.752  0.0000E+00  0.2000E+01
    -21.645  0.0000E+00  0.2000E+01
    -21.538  0.0000E+00  0.2000E+01
    -21.431  0.0000E+00  0.2000E+01
    -21.324  0.0000E+00  0.2000E+01
    -21.217  0.0000E+00  0.2000E+01
    -21.110  0.0000E+00  0.2000E+01
    -21.003  0.0000E+00  0.2000E+01
    -20.896  0.0000E+00  0.2000E+01
    -20.789  0.0000E+00  0.2000E+01
    -20.682  0.0000E+00  0.2000E+01
    -20.575  0.0000E+00  0.2000E+01
    -20.468  0.0000E+00  0.2000E+01
    -20.361  0.0000E+00  0.2000E+01
    -20.254  0.0000E+00  0.2000E+01
    -20.147  0.0000E+00  0.2000E+01
    -20.040  0.0000E+00  0.2000E+01
    -19.933  0.0000E+00  0.2000E+01
    -19.826  0.0000E+00  0.2000E+01
    -19.719  0.0000E+00  0.2000E+01
    -19.612  0.0000E+00  0.2000E+01
    -19.505  0.0000E+00  0.2000E+01
    -19.398  0.0000E+00  0.2000E+01
    -19.291  0.0000E+00  0.2000E+01
    -19.184  0.0000E+00  0.2000E+01
    -19.077  0.0000E+00  0.2000E+01
    -18.970  0.0000E+00  0.2000E+01
    -18.863  0.0000E+00  0.2000E+01
    -18.756  0.0000E+00  0.2000E+01
    -18.649  0.0000E+00  0.2000E+01
    -18.542  0.0000E+00  0.2000E+01
    -18.436  0.0000E+00  0.2000E+01
    -18.329  0.0000E+00  0.2000E+01
    -18.222  0.0000E+00  0.2000E+01
    -18.115  0.0000E+00  0.2000E+01
    -18.008  0.0000E+00  0.2000E+01
    -17.901  0.0000E+00  0.2000E+01
    -17.794  0.0000E+00  0.2000E+01
    -17.687  0.0000E+00  0.2000E+01
    -17.580  0.0000E+00  0.2000E+01
    -17.473  0.0000E+00  0.2000E+01
    -17.366  0.0000E+00  0.2000E+01
    -17.259  0.0000E+00  0.2000E+01
    -17.152  0.0000E+00  0.2000E+01
    -17.045  0.0000E+00  0.2000E+01
    -16.938  0.0000E+00  0.2000E+01
    -16.831  0.0000E+00  0.2000E+01
    -16.724  0.0000E+00  0.2000E+01
    -16.617  0.0000E+00  0.2000E+01
    -16.510  0.0000E+00  0.2000E+01
    -16.403  0.0000E+00  0.2000E+01
    -16.296  0.0000E+00  0.2000E+01
    -16.189  0.0000E+00  0.2000E+01
    -16.082  0.0000E+00  0.2000E+01
    -15.975  0.0000E+00  0.2000E+01
    -15.868  0.0000E+00  0.2000E+01
    -15.761  0.0000E+00  0.2000E+01
    -15.654  0.0000E+00  0.2000E+01
    -15.547  0.0000E+00  0.2000E+01
    -15.440  0.1072E-24  0.2000E+01
    -15.333  0.3534E-21  0.2000E+01
    -15.226  0.6463E-18  0.2000E+01
    -15.119  0.6532E-15  0.2000E+01
    -15.012  0.3643E-12  0.2000E+01
    -14.905  0.1108E-09  0.2000E+01
    -14.798  0.1828E-07  0.2000E+01
    -14.691  0.1614E-05  0.2000E+01
    -14.584  0.7463E-04  0.2000E+01
    -14.477  0.1733E-02  0.2000E+01
    -14.370  0.1841E-01  0.2002E+01
    -14.263  0.6359E-01  0.2009E+01
    -14.156 -0.1470E+00  0.1993E+01
    -14.049 -0.8132E+00  0.1906E+01
    -13.942  0.1504E+01  0.2067E+01
    -13.836  0.8362E+01  0.2962E+01
    -13.729  0.8733E+01  0.3896E+01
    -13.622  0.1889E+01  0.4098E+01
    -13.515 -0.8171E+00  0.4011E+01
    -13.408 -0.1869E+00  0.3991E+01
    -13.301  0.6429E-01  0.3998E+01
    -13.194  0.2112E-01  0.4000E+01
    -13.087  0.6027E-02  0.4000E+01
    -12.980  0.3161E-01  0.4004E+01
    -12.873  0.5613E-01  0.4010E+01
    -12.766 -0.3566E+00  0.3972E+01
    -12.659 -0.6917E+00  0.3898E+01
    -12.552  0.3464E+01  0.4268E+01
    -12.445  0.9702E+01  0.5306E+01
    -12.338  0.6784E+01  0.6032E+01
    -12.231  0.3783E+00  0.6072E+01
    -12.124 -0.7036E+00  0.5997E+01
    -12.017 -0.3319E-02  0.5997E+01
    -11.910  0.1090E+00  0.6008E+01
    -11.803 -0.3659E+00  0.5969E+01
    -11.696 -0.6612E+00  0.5899E+01
    -11.589  0.3652E+01  0.6289E+01
    -11.482  0.9770E+01  0.7334E+01
    -11.375  0.6595E+01  0.8040E+01
    -11.268  0.2832E+00  0.8070E+01
    -11.161 -0.6581E+00  0.8000E+01
    -11.054  0.2826E-01  0.8003E+01
    -10.947 -0.3119E+00  0.7969E+01
    -10.840 -0.6683E+00  0.7898E+01
    -10.733  0.3548E+01  0.8278E+01
    -10.626  0.9734E+01  0.9319E+01
    -10.519  0.6700E+01  0.1004E+02
    -10.412  0.3335E+00  0.1007E+02
    -10.305 -0.7001E+00  0.9996E+01
    -10.198 -0.3198E-01  0.9993E+01
    -10.091  0.5453E-01  0.9999E+01
     -9.984  0.1101E-01  0.1000E+02
     -9.877  0.8376E-03  0.1000E+02
     -9.770  0.3013E-04  0.1000E+02
     -9.663  0.5517E-06  0.1000E+02
     -9.556  0.5324E-08  0.1000E+02
     -9.449  0.2760E-10  0.1000E+02
     -9.342  0.7680E-13  0.1000E+02
     -9.236  0.0000E+00  0.1000E+02
     -9.129  0.0000E+00  0.1000E+02
     -9.022  0.0000E+00  0.1000E+02
     -8.915  0.0000E+00  0.1000E+02
     -8.808  0.1931E-24  0.1000E+02
     -8.701  0.6110E-21  0.1000E+02
     -8.594  0.1072E-17  0.1000E+02
     -8.487  0.1039E-14  0.1000E+02
     -8.380  0.5549E-12  0.1000E+02
     -8.273  0.1618E-09  0.1000E+02
     -8.166  0.2557E-07  0.1000E+02
     -8.059  0.2160E-05  0.1000E+02
     -7.952  0.9528E-04  0.1000E+02
     -7.845  0.2103E-02  0.1000E+02
     -7.738  0.2100E-01  0.1000E+02
     -7.631  0.6429E-01  0.1001E+02
     -7.524 -0.1885E+00  0.9989E+01
     -7.417 -0.8169E+00  0.9902E+01
     -7.310  0.1906E+01  0.1011E+02
     -7.203  0.8762E+01  0.1104E+02
     -7.096  0.8419E+01  0.1194E+02
     -6.989  0.1467E+01  0.1210E+02
     -6.882 -0.1631E+01  0.1193E+02
     -6.775 -0.3229E-01  0.1192E+02
     -6.668  0.8204E+01  0.1280E+02
     -6.561  0.1659E+02  0.1457E+02
     -6.454  0.1150E+02  0.1581E+02
     -6.347  0.2731E+00  0.1583E+02
     -6.240  0.7316E+01  0.1662E+02
     -6.133  0.2993E+02  0.1982E+02
     -6.026  0.3074E+02  0.2311E+02
     -5.919  0.1889E+02  0.2513E+02
     -5.812  0.3626E+02  0.2901E+02
     -5.705  0.7721E+02  0.3727E+02
     -5.598  0.1403E+03  0.5227E+02
     -5.491  0.2356E+03  0.7748E+02
     -5.384  0.2865E+03  0.1081E+03
     -5.277  0.2428E+03  0.1341E+03
     -5.170  0.2127E+03  0.1569E+03
     -5.063  0.2779E+03  0.1866E+03
     -4.956  0.3511E+03  0.2242E+03
     -4.849  0.3265E+03  0.2591E+03
     -4.743  0.2861E+03  0.2897E+03
     -4.636  0.3487E+03  0.3270E+03
     -4.529  0.4162E+03  0.3715E+03
     -4.422  0.4225E+03  0.4167E+03
     -4.315  0.4857E+03  0.4687E+03
     -4.208  0.5449E+03  0.5270E+03
     -4.101  0.3782E+03  0.5674E+03
     -3.994  0.1130E+03  0.5795E+03
     -3.887  0.1653E+02  0.5813E+03
     -3.780  0.3089E+02  0.5846E+03
     -3.673  0.2540E+02  0.5873E+03
     -3.566  0.1205E+02  0.5886E+03
     -3.459  0.1697E+02  0.5904E+03
     -3.352  0.1381E+02  0.5919E+03
     -3.245  0.3633E+01  0.5923E+03
     -3.138  0.1553E+02  0.5939E+03
     -3.031  0.5108E+02  0.5994E+03
     -2.924  0.6092E+02  0.6059E+03
     -2.817  0.2923E+02  0.6090E+03
     -2.710  0.6091E+01  0.6097E+03
     -2.603  0.6481E+01  0.6104E+03
     -2.496  0.1954E+02  0.6125E+03
     -2.389  0.2211E+02  0.6148E+03
     -2.282  0.1417E+02  0.6164E+03
     -2.175  0.1876E+02  0.6184E+03
     -2.068  0.2998E+02  0.6216E+03
     -1.961  0.3732E+02  0.6256E+03
     -1.854  0.4436E+02  0.6303E+03
     -1.747  0.4228E+02  0.6348E+03
     -1.640  0.3458E+02  0.6385E+03
     -1.533  0.3336E+02  0.6421E+03
     -1.426  0.2909E+02  0.6452E+03
     -1.319  0.2213E+02  0.6476E+03
     -1.212  0.1878E+02  0.6496E+03
     -1.105  0.2094E+02  0.6518E+03
     -0.998  0.3960E+02  0.6561E+03
     -0.891  0.5937E+02  0.6624E+03
     -0.784  0.5027E+02  0.6678E+03
     -0.677  0.2710E+02  0.6707E+03
     -0.570  0.1123E+02  0.6719E+03
     -0.463  0.1925E+01  0.6721E+03
     -0.356 -0.8564E+00  0.6720E+03
     -0.249 -0.1941E+00  0.6720E+03
     -0.143  0.1091E+00  0.6720E+03
     -0.036  0.3898E-01  0.6720E+03
      0.071  0.4547E-02  0.6720E+03
      0.178  0.2422E-03  0.6720E+03
      0.285  0.6465E-05  0.6720E+03
      0.392  0.9011E-07  0.6720E+03
      0.499  0.6705E-09  0.6720E+03
      0.606  0.2698E-11  0.6720E+03
      0.713  0.6227E-14  0.6720E+03
      0.820  0.0000E+00  0.6720E+03
      0.927  0.0000E+00  0.6720E+03
      1.034  0.0000E+00  0.6720E+03
      1.141  0.0000E+00  0.6720E+03
      1.248  0.0000E+00  0.6720E+03
      1.355  0.0000E+00  0.6720E+03
