   57   57    1    1
  0.4736842E+03  0.3000000E-08  0.3000000E-08  0.3000000E-08  0.5000000E-15
  1.000000000000000E-004
  CAR 
 6_Pd100_top_free_z(O)                   
    560      1    336
 
  0.0000000E+00  0.0000000E+00  0.0000000E+00  0.1000000E+01
    1      -29.002449   1.000000
    2      -13.665487   1.000000
    3      -11.995517   1.000000
    4      -11.780092   1.000000
    5      -10.144886   1.000000
    6       -6.598412   1.000000
    7       -6.140884   1.000000
    8       -6.101713   1.000000
    9       -6.071858   1.000000
   10       -6.009940   1.000000
   11       -5.862683   1.000000
   12       -5.784527   1.000000
   13       -5.782006   1.000000
   14       -5.756370   1.000000
   15       -5.701200   1.000000
   16       -5.665541   1.000000
   17       -5.664554   1.000000
   18       -5.658961   1.000000
   19       -5.641738   1.000000
   20       -5.604670   1.000000
   21       -5.595775   1.000000
   22       -5.589580   1.000000
   23       -5.578895   1.000000
   24       -5.577692   1.000000
   25       -5.566839   1.000000
   26       -5.542277   1.000000
   27       -5.530969   1.000000
   28       -5.524151   1.000000
   29       -5.517184   1.000000
   30       -5.506414   1.000000
   31       -5.499294   1.000000
   32       -5.498202   1.000000
   33       -5.492183   1.000000
   34       -5.488946   1.000000
   35       -5.486638   1.000000
   36       -5.478107   1.000000
   37       -5.477214   1.000000
   38       -5.470915   1.000000
   39       -5.455070   1.000000
   40       -5.447528   1.000000
   41       -5.442801   1.000000
   42       -5.442124   1.000000
   43       -5.441681   1.000000
   44       -5.427729   1.000000
   45       -5.425498   1.000000
   46       -5.418471   1.000000
   47       -5.409950   1.000000
   48       -5.406974   1.000000
   49       -5.402240   1.000000
   50       -5.401286   1.000000
   51       -5.391835   1.000000
   52       -5.383193   1.000000
   53       -5.379278   1.000000
   54       -5.370886   1.000000
   55       -5.362663   1.000000
   56       -5.348821   1.000000
   57       -5.334490   1.000000
   58       -5.324252   1.000000
   59       -5.308815   1.000000
   60       -5.299233   1.000000
   61       -5.294501   1.000000
   62       -5.289598   1.000000
   63       -5.286385   1.000000
   64       -5.284075   1.000000
   65       -5.280166   1.000000
   66       -5.272888   1.000000
   67       -5.269876   1.000000
   68       -5.253183   1.000000
   69       -5.214966   1.000000
   70       -5.207297   1.000000
   71       -5.193931   1.000000
   72       -5.183415   1.000000
   73       -5.175939   1.000000
   74       -5.170007   1.000000
   75       -5.162797   1.000000
   76       -5.151944   1.000000
   77       -5.149319   1.000000
   78       -5.142913   1.000000
   79       -5.140170   1.000000
   80       -5.133179   1.000000
   81       -5.131405   1.000000
   82       -5.122630   1.000000
   83       -5.108879   1.000000
   84       -5.106190   1.000000
   85       -5.092871   1.000000
   86       -5.088660   1.000000
   87       -5.084142   1.000000
   88       -5.082482   1.000000
   89       -5.062877   1.000000
   90       -5.046323   1.000000
   91       -5.043603   1.000000
   92       -5.034001   1.000000
   93       -5.026605   1.000000
   94       -5.024413   1.000000
   95       -5.023287   1.000000
   96       -5.019853   1.000000
   97       -5.016338   1.000000
   98       -5.011029   1.000000
   99       -5.004330   1.000000
  100       -5.000402   1.000000
  101       -4.993760   1.000000
  102       -4.988074   1.000000
  103       -4.984672   1.000000
  104       -4.981708   1.000000
  105       -4.975838   1.000000
  106       -4.972729   1.000000
  107       -4.966603   1.000000
  108       -4.960954   1.000000
  109       -4.953916   1.000000
  110       -4.952648   1.000000
  111       -4.950622   1.000000
  112       -4.946462   1.000000
  113       -4.938651   1.000000
  114       -4.934314   1.000000
  115       -4.926759   0.999999
  116       -4.925165   0.999999
  117       -4.918156   0.999999
  118       -4.907748   0.999999
  119       -4.899852   0.999998
  120       -4.895433   0.999998
  121       -4.893060   0.999998
  122       -4.891715   0.999998
  123       -4.881700   0.999997
  124       -4.878209   0.999997
  125       -4.874936   0.999996
  126       -4.863307   0.999995
  127       -4.849232   0.999992
  128       -4.838243   0.999988
  129       -4.829925   0.999985
  130       -4.825134   0.999982
  131       -4.824428   0.999982
  132       -4.820613   0.999980
  133       -4.816808   0.999977
  134       -4.811804   0.999974
  135       -4.805061   0.999968
  136       -4.798608   0.999961
  137       -4.789758   0.999951
  138       -4.787049   0.999947
  139       -4.774025   0.999924
  140       -4.772692   0.999921
  141       -4.763506   0.999900
  142       -4.756208   0.999879
  143       -4.751331   0.999862
  144       -4.741615   0.999825
  145       -4.725706   0.999742
  146       -4.717730   0.999690
  147       -4.712076   0.999647
  148       -4.704812   0.999584
  149       -4.703546   0.999572
  150       -4.694283   0.999477
  151       -4.690626   0.999435
  152       -4.681883   0.999322
  153       -4.675595   0.999230
  154       -4.667737   0.999101
  155       -4.662161   0.999000
  156       -4.657380   0.998907
  157       -4.654860   0.998855
  158       -4.646610   0.998671
  159       -4.642918   0.998583
  160       -4.641799   0.998555
  161       -4.635159   0.998383
  162       -4.632507   0.998311
  163       -4.628186   0.998189
  164       -4.626372   0.998136
  165       -4.621367   0.997984
  166       -4.619616   0.997930
  167       -4.618470   0.997893
  168       -4.617108   0.997850
  169       -4.612440   0.997697
  170       -4.605741   0.997468
  171       -4.598915   0.997226
  172       -4.592643   0.996995
  173       -4.581512   0.996578
  174       -4.577426   0.996425
  175       -4.574006   0.996297
  176       -4.569815   0.996143
  177       -4.565778   0.995998
  178       -4.564912   0.995968
  179       -4.562031   0.995868
  180       -4.558000   0.995733
  181       -4.551898   0.995544
  182       -4.544452   0.995344
  183       -4.537138   0.995191
  184       -4.533808   0.995139
  185       -4.533406   0.995134
  186       -4.527333   0.995076
  187       -4.523471   0.995065
  188       -4.521368   0.995068
  189       -4.520277   0.995073
  190       -4.505280   0.995357
  191       -4.497821   0.995680
  192       -4.491805   0.996045
  193       -4.487704   0.996353
  194       -4.484353   0.996642
  195       -4.480764   0.996992
  196       -4.463292   0.999348
  197       -4.462551   0.999474
  198       -4.454637   1.000960
  199       -4.452887   1.001324
  200       -4.450580   1.001825
  201       -4.447063   1.002633
  202       -4.443872   1.003415
  203       -4.439170   1.004651
  204       -4.429175   1.007612
  205       -4.426520   1.008476
  206       -4.424887   1.009023
  207       -4.419842   1.010787
  208       -4.417129   1.011781
  209       -4.416253   1.012109
  210       -4.413856   1.013022
  211       -4.409908   1.014577
  212       -4.395465   1.020751
  213       -4.389830   1.023331
  214       -4.388862   1.023782
  215       -4.382980   1.026557
  216       -4.380330   1.027823
  217       -4.375839   1.029982
  218       -4.374737   1.030513
  219       -4.359878   1.037571
  220       -4.352834   1.040735
  221       -4.342626   1.044897
  222       -4.342257   1.045035
  223       -4.339843   1.045914
  224       -4.329031   1.049223
  225       -4.323583   1.050418
  226       -4.320337   1.050951
  227       -4.311826   1.051621
  228       -4.310171   1.051616
  229       -4.309042   1.051586
  230       -4.305232   1.051312
  231       -4.304455   1.051223
  232       -4.302225   1.050902
  233       -4.300279   1.050540
  234       -4.298681   1.050183
  235       -4.296487   1.049605
  236       -4.292993   1.048463
  237       -4.292406   1.048243
  238       -4.291017   1.047692
  239       -4.285890   1.045248
  240       -4.282733   1.043409
  241       -4.275005   1.037761
  242       -4.271044   1.034199
  243       -4.267987   1.031123
  244       -4.265743   1.028681
  245       -4.261155   1.023181
  246       -4.258830   1.020129
  247       -4.257501   1.018302
  248       -4.252474   1.010844
  249       -4.250571   1.007790
  250       -4.245702   0.999383
  251       -4.239342   0.987096
  252       -4.236693   0.981530
  253       -4.232898   0.973095
  254       -4.231678   0.970267
  255       -4.228076   0.961581
  256       -4.224661   0.952884
  257       -4.220595   0.941940
  258       -4.218515   0.936095
  259       -4.217537   0.933287
  260       -4.212914   0.919518
  261       -4.211212   0.914238
  262       -4.210949   0.913414
  263       -4.210110   0.910763
  264       -4.207908   0.903679
  265       -4.205513   0.895761
  266       -4.201635   0.882488
  267       -4.194773   0.857634
  268       -4.189641   0.837939
  269       -4.188640   0.833991
  270       -4.188310   0.832682
  271       -4.183674   0.813898
  272       -4.177240   0.786670
  273       -4.173408   0.769846
  274       -4.166743   0.739572
  275       -4.156087   0.688797
  276       -4.154723   0.682111
  277       -4.147620   0.646705
  278       -4.144330   0.630007
  279       -4.141512   0.615576
  280       -4.140139   0.608505
  281       -4.129445   0.552745
  282       -4.126710   0.538342
  283       -4.113091   0.466373
  284       -4.105231   0.425068
  285       -4.098012   0.387599
  286       -4.097147   0.383150
  287       -4.088458   0.339081
  288       -4.081776   0.306111
  289       -3.955556  -0.043790
  290       -3.929584  -0.051595
  291       -3.879188  -0.037644
  292       -3.790816  -0.002391
  293       -3.790348  -0.002283
  294       -3.643193   0.002891
  295       -3.460594   0.000068
  296       -3.457558   0.000062
  297       -3.229898   0.000000
  298       -3.047486   0.000000
  299       -3.032083   0.000000
  300       -3.029160   0.000000
  301       -2.995580   0.000000
  302       -2.987004   0.000000
  303       -2.957221   0.000000
  304       -2.903542   0.000000
  305       -2.750231   0.000000
  306       -2.534611   0.000000
  307       -2.495607   0.000000
  308       -2.370290   0.000000
  309       -2.301993   0.000000
  310       -2.137668   0.000000
  311       -2.090492   0.000000
  312       -2.035146   0.000000
  313       -1.970418   0.000000
  314       -1.922865   0.000000
  315       -1.871738   0.000000
  316       -1.845976   0.000000
  317       -1.831999   0.000000
  318       -1.783716   0.000000
  319       -1.688207   0.000000
  320       -1.612647   0.000000
  321       -1.586283   0.000000
  322       -1.517044   0.000000
  323       -1.443952   0.000000
  324       -1.431704   0.000000
  325       -1.293072   0.000000
  326       -1.178641   0.000000
  327       -1.108235   0.000000
  328       -1.013473   0.000000
  329       -0.955163   0.000000
  330       -0.947999   0.000000
  331       -0.904013   0.000000
  332       -0.902296   0.000000
  333       -0.862474   0.000000
  334       -0.848599   0.000000
  335       -0.776594   0.000000
  336       -0.722757   0.000000
