   57   57    1    1
  0.4736842E+03  0.3000000E-08  0.3000000E-08  0.3000000E-08  0.5000000E-15
  1.000000000000000E-004
  CAR 
 6_Pd100_top_free_z(O)                   
    560      1    336
 
  0.0000000E+00  0.0000000E+00  0.0000000E+00  0.1000000E+01
    1      -28.806189   1.000000
    2      -13.477011   1.000000
    3      -11.161039   1.000000
    4      -11.159934   1.000000
    5      -10.357609   1.000000
    6       -6.638768   1.000000
    7       -6.123243   1.000000
    8       -6.122953   1.000000
    9       -6.122772   1.000000
   10       -5.850875   1.000000
   11       -5.850150   1.000000
   12       -5.801177   1.000000
   13       -5.749093   1.000000
   14       -5.747516   1.000000
   15       -5.735680   1.000000
   16       -5.683146   1.000000
   17       -5.673767   1.000000
   18       -5.673268   1.000000
   19       -5.673171   1.000000
   20       -5.619782   1.000000
   21       -5.611986   1.000000
   22       -5.599680   1.000000
   23       -5.586388   1.000000
   24       -5.582576   1.000000
   25       -5.582515   1.000000
   26       -5.565808   1.000000
   27       -5.560067   1.000000
   28       -5.527609   1.000000
   29       -5.519143   1.000000
   30       -5.518998   1.000000
   31       -5.507786   1.000000
   32       -5.506844   1.000000
   33       -5.506287   1.000000
   34       -5.506151   1.000000
   35       -5.500317   1.000000
   36       -5.487606   1.000000
   37       -5.487064   1.000000
   38       -5.478068   1.000000
   39       -5.466465   1.000000
   40       -5.458992   1.000000
   41       -5.455930   1.000000
   42       -5.455730   1.000000
   43       -5.455714   1.000000
   44       -5.453904   1.000000
   45       -5.451787   1.000000
   46       -5.442620   1.000000
   47       -5.442124   1.000000
   48       -5.431335   1.000000
   49       -5.417196   1.000000
   50       -5.417144   1.000000
   51       -5.415452   1.000000
   52       -5.400059   1.000000
   53       -5.396881   1.000000
   54       -5.396856   1.000000
   55       -5.382111   1.000000
   56       -5.365874   1.000000
   57       -5.365557   1.000000
   58       -5.333489   1.000000
   59       -5.326895   1.000000
   60       -5.304697   1.000000
   61       -5.304249   1.000000
   62       -5.304206   1.000000
   63       -5.303130   1.000000
   64       -5.300745   1.000000
   65       -5.300018   1.000000
   66       -5.287250   1.000000
   67       -5.286749   1.000000
   68       -5.264906   1.000000
   69       -5.264254   1.000000
   70       -5.238825   1.000000
   71       -5.221203   1.000000
   72       -5.172698   1.000000
   73       -5.172470   1.000000
   74       -5.169309   1.000000
   75       -5.165316   1.000000
   76       -5.164617   1.000000
   77       -5.164044   1.000000
   78       -5.163913   1.000000
   79       -5.160273   1.000000
   80       -5.135412   1.000000
   81       -5.131698   1.000000
   82       -5.131173   1.000000
   83       -5.116230   1.000000
   84       -5.112252   1.000000
   85       -5.110065   1.000000
   86       -5.109825   1.000000
   87       -5.092426   1.000000
   88       -5.085245   1.000000
   89       -5.085046   1.000000
   90       -5.073171   1.000000
   91       -5.058690   1.000000
   92       -5.046354   1.000000
   93       -5.044626   1.000000
   94       -5.040354   1.000000
   95       -5.040326   1.000000
   96       -5.035589   1.000000
   97       -5.035575   1.000000
   98       -5.014609   1.000000
   99       -5.009186   1.000000
  100       -5.006487   1.000000
  101       -4.997359   1.000000
  102       -4.996481   1.000000
  103       -4.994872   1.000000
  104       -4.991808   1.000000
  105       -4.991769   1.000000
  106       -4.985847   1.000000
  107       -4.978024   1.000000
  108       -4.975066   1.000000
  109       -4.967579   1.000000
  110       -4.967553   1.000000
  111       -4.966449   1.000000
  112       -4.965523   1.000000
  113       -4.955709   1.000000
  114       -4.954392   1.000000
  115       -4.953274   1.000000
  116       -4.947593   0.999999
  117       -4.934450   0.999999
  118       -4.934354   0.999999
  119       -4.925699   0.999999
  120       -4.905494   0.999998
  121       -4.904967   0.999998
  122       -4.904949   0.999998
  123       -4.904198   0.999998
  124       -4.899364   0.999997
  125       -4.889637   0.999996
  126       -4.889623   0.999996
  127       -4.866000   0.999992
  128       -4.865721   0.999992
  129       -4.861502   0.999991
  130       -4.852794   0.999988
  131       -4.830492   0.999976
  132       -4.827395   0.999974
  133       -4.819829   0.999967
  134       -4.819792   0.999967
  135       -4.818148   0.999965
  136       -4.806701   0.999952
  137       -4.806074   0.999951
  138       -4.785075   0.999914
  139       -4.779731   0.999901
  140       -4.776603   0.999892
  141       -4.776031   0.999891
  142       -4.748473   0.999782
  143       -4.743104   0.999753
  144       -4.726585   0.999637
  145       -4.725866   0.999631
  146       -4.724984   0.999624
  147       -4.723028   0.999607
  148       -4.717658   0.999557
  149       -4.716322   0.999544
  150       -4.696199   0.999303
  151       -4.687756   0.999174
  152       -4.684036   0.999112
  153       -4.669841   0.998840
  154       -4.664644   0.998726
  155       -4.664590   0.998724
  156       -4.662463   0.998675
  157       -4.659983   0.998616
  158       -4.659975   0.998616
  159       -4.650551   0.998375
  160       -4.645226   0.998228
  161       -4.644251   0.998200
  162       -4.643807   0.998187
  163       -4.639090   0.998047
  164       -4.637274   0.997991
  165       -4.635201   0.997926
  166       -4.632385   0.997837
  167       -4.632375   0.997836
  168       -4.628023   0.997694
  169       -4.617588   0.997333
  170       -4.616729   0.997302
  171       -4.614753   0.997231
  172       -4.614531   0.997223
  173       -4.609258   0.997030
  174       -4.584227   0.996097
  175       -4.584209   0.996096
  176       -4.581056   0.995984
  177       -4.580192   0.995953
  178       -4.573668   0.995732
  179       -4.573641   0.995731
  180       -4.571542   0.995664
  181       -4.560511   0.995353
  182       -4.551091   0.995162
  183       -4.541188   0.995068
  184       -4.541177   0.995068
  185       -4.538996   0.995065
  186       -4.537990   0.995066
  187       -4.537905   0.995066
  188       -4.537886   0.995066
  189       -4.534492   0.995082
  190       -4.534464   0.995083
  191       -4.501138   0.996544
  192       -4.496489   0.996988
  193       -4.496457   0.996992
  194       -4.491794   0.997511
  195       -4.490293   0.997694
  196       -4.477774   0.999554
  197       -4.468473   1.001346
  198       -4.468432   1.001355
  199       -4.462823   1.002617
  200       -4.456145   1.004303
  201       -4.454815   1.004663
  202       -4.451124   1.005704
  203       -4.445348   1.007459
  204       -4.445301   1.007473
  205       -4.440451   1.009065
  206       -4.436843   1.010317
  207       -4.436824   1.010324
  208       -4.432561   1.011877
  209       -4.432520   1.011892
  210       -4.425996   1.014417
  211       -4.414030   1.019468
  212       -4.403851   1.024109
  213       -4.395189   1.028221
  214       -4.395156   1.028237
  215       -4.394124   1.028733
  216       -4.388308   1.031532
  217       -4.388175   1.031596
  218       -4.387979   1.031691
  219       -4.384681   1.033274
  220       -4.375378   1.037658
  221       -4.375308   1.037690
  222       -4.346257   1.048823
  223       -4.345871   1.048926
  224       -4.339061   1.050457
  225       -4.338864   1.050493
  226       -4.326621   1.051624
  227       -4.324480   1.051576
  228       -4.323378   1.051519
  229       -4.323361   1.051518
  230       -4.318978   1.051067
  231       -4.316108   1.050568
  232       -4.316098   1.050566
  233       -4.310057   1.048946
  234       -4.309980   1.048920
  235       -4.308618   1.048439
  236       -4.308351   1.048340
  237       -4.307497   1.048012
  238       -4.307089   1.047849
  239       -4.302945   1.045963
  240       -4.302925   1.045953
  241       -4.293583   1.040069
  242       -4.286681   1.034149
  243       -4.282799   1.030188
  244       -4.282721   1.030103
  245       -4.275650   1.021636
  246       -4.270017   1.013696
  247       -4.269981   1.013642
  248       -4.269600   1.013065
  249       -4.266733   1.008560
  250       -4.265834   1.007088
  251       -4.252085   0.980889
  252       -4.244466   0.963311
  253       -4.244429   0.963219
  254       -4.242580   0.958615
  255       -4.237077   0.944123
  256       -4.236093   0.941411
  257       -4.236084   0.941384
  258       -4.234866   0.937972
  259       -4.229784   0.923111
  260       -4.229777   0.923092
  261       -4.224066   0.905201
  262       -4.222509   0.900109
  263       -4.222498   0.900072
  264       -4.222301   0.899422
  265       -4.219418   0.889723
  266       -4.207565   0.846629
  267       -4.204727   0.835562
  268       -4.204607   0.835091
  269       -4.204536   0.834810
  270       -4.201366   0.822103
  271       -4.200139   0.817092
  272       -4.187370   0.762119
  273       -4.181169   0.733697
  274       -4.180762   0.731796
  275       -4.179357   0.725200
  276       -4.169887   0.679528
  277       -4.169862   0.679406
  278       -4.163839   0.649379
  279       -4.154982   0.604136
  280       -4.154901   0.603717
  281       -4.154660   0.602473
  282       -4.140901   0.530438
  283       -4.124932   0.446102
  284       -4.117164   0.405498
  285       -4.117132   0.405332
  286       -4.111653   0.377080
  287       -4.104391   0.340299
  288       -4.096724   0.302510
  289       -4.049327   0.105056
  290       -3.947282  -0.051495
  291       -3.888442  -0.034628
  292       -3.809193  -0.003034
  293       -3.806546  -0.002401
  294       -3.806309  -0.002346
  295       -3.480054   0.000075
  296       -3.480021   0.000075
  297       -3.396205   0.000006
  298       -3.048724   0.000000
  299       -3.048659   0.000000
  300       -3.004858   0.000000
  301       -3.002967   0.000000
  302       -3.000018   0.000000
  303       -2.999962   0.000000
  304       -2.917326   0.000000
  305       -2.817414   0.000000
  306       -2.546577   0.000000
  307       -2.546111   0.000000
  308       -2.506534   0.000000
  309       -2.224916   0.000000
  310       -2.124765   0.000000
  311       -2.124323   0.000000
  312       -2.104713   0.000000
  313       -1.939047   0.000000
  314       -1.938802   0.000000
  315       -1.850223   0.000000
  316       -1.842309   0.000000
  317       -1.836236   0.000000
  318       -1.722374   0.000000
  319       -1.721550   0.000000
  320       -1.703307   0.000000
  321       -1.628450   0.000000
  322       -1.539203   0.000000
  323       -1.493797   0.000000
  324       -1.358842   0.000000
  325       -1.356950   0.000000
  326       -1.060145   0.000000
  327       -1.057882   0.000000
  328       -1.024579   0.000000
  329       -0.952429   0.000000
  330       -0.947587   0.000000
  331       -0.938310   0.000000
  332       -0.930659   0.000000
  333       -0.919209   0.000000
  334       -0.891013   0.000000
  335       -0.774442   0.000000
  336       -0.644731   0.000000
