   57   57    1    1
  0.4736842E+03  0.3000000E-08  0.3000000E-08  0.3000000E-08  0.5000000E-15
  1.000000000000000E-004
  CAR 
 6_Pd100_top_free_z(O)                   
    560      1    336
 
  0.0000000E+00  0.0000000E+00  0.0000000E+00  0.1000000E+01
    1      -28.305551   1.000000
    2      -13.440475   1.000000
    3      -11.417831   1.000000
    4      -11.148664   1.000000
    5      -10.400661   1.000000
    6       -6.652422   1.000000
    7       -6.353112   1.000000
    8       -6.329678   1.000000
    9       -6.131017   1.000000
   10       -6.121124   1.000000
   11       -6.051183   1.000000
   12       -5.821759   1.000000
   13       -5.809541   1.000000
   14       -5.798029   1.000000
   15       -5.743966   1.000000
   16       -5.729643   1.000000
   17       -5.692915   1.000000
   18       -5.678079   1.000000
   19       -5.673755   1.000000
   20       -5.669869   1.000000
   21       -5.669023   1.000000
   22       -5.635158   1.000000
   23       -5.612939   1.000000
   24       -5.595560   1.000000
   25       -5.587519   1.000000
   26       -5.585375   1.000000
   27       -5.579844   1.000000
   28       -5.551783   1.000000
   29       -5.534771   1.000000
   30       -5.527855   1.000000
   31       -5.520785   1.000000
   32       -5.514994   1.000000
   33       -5.513549   1.000000
   34       -5.509687   1.000000
   35       -5.503784   1.000000
   36       -5.499145   1.000000
   37       -5.494591   1.000000
   38       -5.487966   1.000000
   39       -5.475778   1.000000
   40       -5.472016   1.000000
   41       -5.469050   1.000000
   42       -5.463572   1.000000
   43       -5.462053   1.000000
   44       -5.458247   1.000000
   45       -5.453513   1.000000
   46       -5.448038   1.000000
   47       -5.435806   1.000000
   48       -5.427858   1.000000
   49       -5.419052   1.000000
   50       -5.413192   1.000000
   51       -5.409165   1.000000
   52       -5.398900   1.000000
   53       -5.396736   1.000000
   54       -5.391547   1.000000
   55       -5.382530   1.000000
   56       -5.373191   1.000000
   57       -5.364440   1.000000
   58       -5.350012   1.000000
   59       -5.346941   1.000000
   60       -5.327123   1.000000
   61       -5.315241   1.000000
   62       -5.308211   1.000000
   63       -5.304192   1.000000
   64       -5.302581   1.000000
   65       -5.300333   1.000000
   66       -5.292760   1.000000
   67       -5.289990   1.000000
   68       -5.284731   1.000000
   69       -5.263106   1.000000
   70       -5.251237   1.000000
   71       -5.242922   1.000000
   72       -5.208807   1.000000
   73       -5.188607   1.000000
   74       -5.183925   1.000000
   75       -5.172816   1.000000
   76       -5.168213   1.000000
   77       -5.166882   1.000000
   78       -5.166298   1.000000
   79       -5.162622   1.000000
   80       -5.152957   1.000000
   81       -5.142293   1.000000
   82       -5.138691   1.000000
   83       -5.131078   1.000000
   84       -5.129834   1.000000
   85       -5.112045   1.000000
   86       -5.110182   1.000000
   87       -5.106812   1.000000
   88       -5.090994   1.000000
   89       -5.088873   1.000000
   90       -5.073061   1.000000
   91       -5.069255   1.000000
   92       -5.057179   1.000000
   93       -5.051191   1.000000
   94       -5.041855   1.000000
   95       -5.039255   1.000000
   96       -5.037423   1.000000
   97       -5.035630   1.000000
   98       -5.027165   1.000000
   99       -5.015475   1.000000
  100       -5.010979   1.000000
  101       -5.008682   1.000000
  102       -5.006816   1.000000
  103       -5.001830   1.000000
  104       -4.997477   1.000000
  105       -4.993679   1.000000
  106       -4.992577   1.000000
  107       -4.990510   1.000000
  108       -4.987227   1.000000
  109       -4.975189   1.000000
  110       -4.970387   1.000000
  111       -4.967429   1.000000
  112       -4.966624   1.000000
  113       -4.959871   1.000000
  114       -4.953552   1.000000
  115       -4.949162   1.000000
  116       -4.943968   0.999999
  117       -4.941058   0.999999
  118       -4.940017   0.999999
  119       -4.919680   0.999999
  120       -4.914928   0.999998
  121       -4.909568   0.999998
  122       -4.908706   0.999998
  123       -4.902041   0.999998
  124       -4.897449   0.999997
  125       -4.889482   0.999996
  126       -4.888858   0.999996
  127       -4.874365   0.999994
  128       -4.867814   0.999993
  129       -4.859692   0.999991
  130       -4.854661   0.999989
  131       -4.837492   0.999982
  132       -4.829518   0.999977
  133       -4.825245   0.999974
  134       -4.823725   0.999973
  135       -4.820988   0.999970
  136       -4.817659   0.999967
  137       -4.808980   0.999958
  138       -4.799963   0.999946
  139       -4.795961   0.999940
  140       -4.786496   0.999922
  141       -4.784145   0.999917
  142       -4.758160   0.999838
  143       -4.743552   0.999768
  144       -4.737217   0.999731
  145       -4.725283   0.999646
  146       -4.725237   0.999645
  147       -4.723951   0.999635
  148       -4.721556   0.999614
  149       -4.713133   0.999536
  150       -4.699792   0.999383
  151       -4.697378   0.999351
  152       -4.690467   0.999253
  153       -4.686555   0.999193
  154       -4.671941   0.998931
  155       -4.667421   0.998838
  156       -4.666102   0.998810
  157       -4.660937   0.998694
  158       -4.659649   0.998664
  159       -4.659085   0.998651
  160       -4.651352   0.998458
  161       -4.646732   0.998335
  162       -4.644031   0.998260
  163       -4.641364   0.998183
  164       -4.638339   0.998094
  165       -4.636549   0.998040
  166       -4.631791   0.997892
  167       -4.629754   0.997827
  168       -4.626668   0.997726
  169       -4.621325   0.997546
  170       -4.618683   0.997454
  171       -4.613125   0.997256
  172       -4.611646   0.997203
  173       -4.596795   0.996651
  174       -4.586233   0.996255
  175       -4.583887   0.996169
  176       -4.582949   0.996135
  177       -4.579889   0.996025
  178       -4.576789   0.995916
  179       -4.574278   0.995830
  180       -4.565121   0.995540
  181       -4.558464   0.995360
  182       -4.552979   0.995237
  183       -4.546906   0.995136
  184       -4.543542   0.995097
  185       -4.538992   0.995068
  186       -4.538253   0.995066
  187       -4.536623   0.995065
  188       -4.535428   0.995066
  189       -4.534159   0.995071
  190       -4.524096   0.995202
  191       -4.504167   0.996115
  192       -4.503969   0.996130
  193       -4.500646   0.996387
  194       -4.493841   0.997021
  195       -4.491244   0.997304
  196       -4.481512   0.998577
  197       -4.478246   0.999085
  198       -4.471841   1.000205
  199       -4.468715   1.000813
  200       -4.461776   1.002315
  201       -4.460904   1.002519
  202       -4.456089   1.003705
  203       -4.455393   1.003886
  204       -4.451835   1.004841
  205       -4.446907   1.006260
  206       -4.444529   1.006985
  207       -4.442328   1.007678
  208       -4.437758   1.009188
  209       -4.430845   1.011648
  210       -4.425820   1.013564
  211       -4.414772   1.018123
  212       -4.407053   1.021553
  213       -4.399057   1.025267
  214       -4.398454   1.025552
  215       -4.397567   1.025972
  216       -4.394490   1.027439
  217       -4.391639   1.028806
  218       -4.387955   1.030580
  219       -4.387014   1.031033
  220       -4.382718   1.033098
  221       -4.376142   1.036219
  222       -4.372919   1.037717
  223       -4.346257   1.048169
  224       -4.343905   1.048828
  225       -4.337820   1.050250
  226       -4.333698   1.050951
  227       -4.327801   1.051535
  228       -4.323205   1.051610
  229       -4.320968   1.051514
  230       -4.320011   1.051446
  231       -4.315873   1.050949
  232       -4.315167   1.050831
  233       -4.312972   1.050398
  234       -4.311542   1.050062
  235       -4.310156   1.049694
  236       -4.306099   1.048370
  237       -4.305082   1.047978
  238       -4.301676   1.046487
  239       -4.300627   1.045970
  240       -4.296391   1.043595
  241       -4.289709   1.038867
  242       -4.284836   1.034612
  243       -4.284316   1.034116
  244       -4.281576   1.031367
  245       -4.277303   1.026608
  246       -4.275903   1.024920
  247       -4.270846   1.018284
  248       -4.268849   1.015426
  249       -4.266135   1.011319
  250       -4.260183   1.001400
  251       -4.254510   0.990745
  252       -4.251464   0.984532
  253       -4.246868   0.974494
  254       -4.241010   0.960528
  255       -4.238913   0.955207
  256       -4.235359   0.945798
  257       -4.234573   0.943650
  258       -4.233559   0.940845
  259       -4.228081   0.925005
  260       -4.226536   0.920325
  261       -4.225317   0.916569
  262       -4.222335   0.907141
  263       -4.221704   0.905102
  264       -4.220851   0.902324
  265       -4.218598   0.894849
  266       -4.210455   0.866246
  267       -4.205442   0.847430
  268       -4.204647   0.844366
  269       -4.202272   0.835075
  270       -4.199647   0.824582
  271       -4.198653   0.820551
  272       -4.184922   0.761592
  273       -4.183047   0.753107
  274       -4.177148   0.725779
  275       -4.174147   0.711535
  276       -4.169010   0.686670
  277       -4.165039   0.667066
  278       -4.155822   0.620467
  279       -4.154111   0.611669
  280       -4.152718   0.604484
  281       -4.148478   0.582469
  282       -4.139301   0.534298
  283       -4.135439   0.513896
  284       -4.117482   0.419288
  285       -4.114359   0.403043
  286       -4.111564   0.388599
  287       -4.103561   0.347831
  288       -4.093303   0.297239
  289       -3.973197  -0.040939
  290       -3.943502  -0.051575
  291       -3.895992  -0.039213
  292       -3.815732  -0.005388
  293       -3.803889  -0.002325
  294       -3.724784   0.004923
  295       -3.486408   0.000094
  296       -3.476557   0.000073
  297       -3.244534   0.000000
  298       -3.056585   0.000000
  299       -3.049927   0.000000
  300       -3.036904   0.000000
  301       -3.014254   0.000000
  302       -2.999874   0.000000
  303       -2.988435   0.000000
  304       -2.931468   0.000000
  305       -2.794676   0.000000
  306       -2.556817   0.000000
  307       -2.505420   0.000000
  308       -2.433247   0.000000
  309       -2.232042   0.000000
  310       -2.136742   0.000000
  311       -2.103864   0.000000
  312       -2.053682   0.000000
  313       -1.974357   0.000000
  314       -1.934581   0.000000
  315       -1.879513   0.000000
  316       -1.840615   0.000000
  317       -1.837154   0.000000
  318       -1.771221   0.000000
  319       -1.704620   0.000000
  320       -1.624099   0.000000
  321       -1.566934   0.000000
  322       -1.548558   0.000000
  323       -1.479313   0.000000
  324       -1.411030   0.000000
  325       -1.294059   0.000000
  326       -1.148086   0.000000
  327       -1.026758   0.000000
  328       -0.999986   0.000000
  329       -0.957764   0.000000
  330       -0.951056   0.000000
  331       -0.917666   0.000000
  332       -0.903278   0.000000
  333       -0.859168   0.000000
  334       -0.824510   0.000000
  335       -0.801697   0.000000
  336       -0.704007   0.000000
