 vasp.5.4.4.18Apr17-6-g9f103f2a35 (build Sep 03 2018 23:53:05) complex          
  
 executed on             LinuxIFC date 2021.11.27  14:55:12
 running on    1 total cores
 distrk:  each k-point on    1 cores,    1 groups
 distr:  one band on NCORES_PER_BAND=   1 cores,    1 groups


--------------------------------------------------------------------------------------------------------


 INCAR:
 POTCAR:    PAW_PBE Pd 04Jan2005                  
 POTCAR:    PAW_PBE C 08Apr2002                   
 POTCAR:    PAW_PBE O 08Apr2002                   
 POTCAR:    PAW_PBE Pd 04Jan2005                  
   VRHFIN =Pd : s1 d9                                                           
   LEXCH  = PE                                                                  
   EATOM  =   809.7530 eV,   59.5152 Ry                                         
                                                                                
   TITEL  = PAW_PBE Pd 04Jan2005                                                
   LULTRA =        F    use ultrasoft PP ?                                      
   IUNSCR =        1    unscreen: 0-lin 1-nonlin 2-no                           
   RPACOR =    2.000    partial core radius                                     
   POMASS =  106.420; ZVAL   =   10.000    mass and valenz                      
   RCORE  =    2.600    outmost cutoff radius                                   
   RWIGS  =    2.710; RWIGS  =    1.434    wigner-seitz radius (au A)           
   ENMAX  =  250.925; ENMIN  =  188.194 eV                                      
   ICORE  =        3    local potential                                         
   LCOR   =        T    correct aug charges                                     
   LPAW   =        T    paw PP                                                  
   EAUG   =  416.230                                                            
   DEXC   =    0.000                                                            
   RMAX   =    2.653    core radius for proj-oper                               
   RAUG   =    1.300    factor for augmentation sphere                          
   RDEP   =    2.734    radius for radial grids                                 
   RDEPT  =    2.103    core radius for aug-charge                              
                                                                                
   Atomic configuration                                                         
   12 entries                                                                   
     n  l   j            E        occ.                                          
     1  0  0.50    -24164.6631   2.0000                                         
     2  0  0.50     -3530.9218   2.0000                                         
     2  1  1.50     -3165.6822   6.0000                                         
     3  0  0.50      -639.4577   2.0000                                         
     3  1  1.50      -519.4532   6.0000                                         
     3  2  2.50      -328.9757  10.0000                                         
     4  0  0.50       -88.7014   2.0000                                         
     4  1  1.50       -54.4540   6.0000                                         
     4  2  2.50        -6.6878   9.0000                                         
     5  0  0.50        -4.3543   1.0000                                         
     5  1  0.50        -1.3606   0.0000                                         
     4  3  2.50        -1.3606   0.0000                                         
   Description                                                                  
     l       E           TYP  RCUT    TYP  RCUT                                 
     2     -6.6878251     23  2.400                                             
     2     -8.0484077     23  2.400                                             
     0     -4.3542939     23  2.400                                             
     0      4.3406793     23  2.400                                             
     1     -4.0817478     23  2.600                                             
     1     15.8380318     23  2.600                                             
     3     -4.0817478     23  2.400                                             
  local pseudopotential read in
  partial core-charges read in
  partial kinetic energy density read in
  atomic valenz-charges read in
  non local Contribution for L=           2  read in
    real space projection operators read in
  non local Contribution for L=           2  read in
    real space projection operators read in
  non local Contribution for L=           0  read in
    real space projection operators read in
  non local Contribution for L=           0  read in
    real space projection operators read in
  non local Contribution for L=           1  read in
    real space projection operators read in
  non local Contribution for L=           1  read in
    real space projection operators read in
    PAW grid and wavefunctions read in
 
   number of l-projection  operators is LMAX  =           6
   number of lm-projection operators is LMMAX =          18
 
 POTCAR:    PAW_PBE C 08Apr2002                   
   VRHFIN =C: s2p2                                                              
   LEXCH  = PE                                                                  
   EATOM  =   147.1560 eV,   10.8157 Ry                                         
                                                                                
   TITEL  = PAW_PBE C 08Apr2002                                                 
   LULTRA =        F    use ultrasoft PP ?                                      
   IUNSCR =        1    unscreen: 0-lin 1-nonlin 2-no                           
   RPACOR =    1.200    partial core radius                                     
   POMASS =   12.011; ZVAL   =    4.000    mass and valenz                      
   RCORE  =    1.500    outmost cutoff radius                                   
   RWIGS  =    1.630; RWIGS  =    0.863    wigner-seitz radius (au A)           
   ENMAX  =  400.000; ENMIN  =  300.000 eV                                      
   ICORE  =        2    local potential                                         
   LCOR   =        T    correct aug charges                                     
   LPAW   =        T    paw PP                                                  
   EAUG   =  644.873                                                            
   DEXC   =    0.000                                                            
   RMAX   =    1.529    core radius for proj-oper                               
   RAUG   =    1.300    factor for augmentation sphere                          
   RDEP   =    1.501    radius for radial grids                                 
   RDEPT  =    1.300    core radius for aug-charge                              
                                                                                
   Atomic configuration                                                         
    4 entries                                                                   
     n  l   j            E        occ.                                          
     1  0  0.50      -273.3789   2.0000                                         
     2  0  0.50       -13.7508   2.0000                                         
     2  1  0.50        -5.2854   2.0000                                         
     3  2  1.50        -5.4423   0.0000                                         
   Description                                                                  
     l       E           TYP  RCUT    TYP  RCUT                                 
     0    -13.7508458     23  1.200                                             
     0     -8.2022199     23  1.200                                             
     1     -5.2854383     23  1.500                                             
     1     34.0145650     23  1.500                                             
     2     -5.4423304      7  1.500                                             
  local pseudopotential read in
  partial core-charges read in
  partial kinetic energy density read in
  atomic valenz-charges read in
  non local Contribution for L=           0  read in
    real space projection operators read in
  non local Contribution for L=           0  read in
    real space projection operators read in
  non local Contribution for L=           1  read in
    real space projection operators read in
  non local Contribution for L=           1  read in
    real space projection operators read in
    PAW grid and wavefunctions read in
 
   number of l-projection  operators is LMAX  =           4
   number of lm-projection operators is LMMAX =           8
 
 POTCAR:    PAW_PBE O 08Apr2002                   
   VRHFIN =O: s2p4                                                              
   LEXCH  = PE                                                                  
   EATOM  =   432.3788 eV,   31.7789 Ry                                         
                                                                                
   TITEL  = PAW_PBE O 08Apr2002                                                 
   LULTRA =        F    use ultrasoft PP ?                                      
   IUNSCR =        1    unscreen: 0-lin 1-nonlin 2-no                           
   RPACOR =    1.200    partial core radius                                     
   POMASS =   16.000; ZVAL   =    6.000    mass and valenz                      
   RCORE  =    1.520    outmost cutoff radius                                   
   RWIGS  =    1.550; RWIGS  =    0.820    wigner-seitz radius (au A)           
   ENMAX  =  400.000; ENMIN  =  300.000 eV                                      
   ICORE  =        2    local potential                                         
   LCOR   =        T    correct aug charges                                     
   LPAW   =        T    paw PP                                                  
   EAUG   =  605.392                                                            
   DEXC   =    0.000                                                            
   RMAX   =    1.553    core radius for proj-oper                               
   RAUG   =    1.300    factor for augmentation sphere                          
   RDEP   =    1.550    radius for radial grids                                 
   RDEPT  =    1.329    core radius for aug-charge                              
                                                                                
   Atomic configuration                                                         
    4 entries                                                                   
     n  l   j            E        occ.                                          
     1  0  0.50      -514.6923   2.0000                                         
     2  0  0.50       -23.9615   2.0000                                         
     2  1  0.50        -9.0305   4.0000                                         
     3  2  1.50        -9.5241   0.0000                                         
   Description                                                                  
     l       E           TYP  RCUT    TYP  RCUT                                 
     0    -23.9615318     23  1.200                                             
     0     -9.5240782     23  1.200                                             
     1     -9.0304911     23  1.520                                             
     1      8.1634956     23  1.520                                             
     2     -9.5240782      7  1.500                                             
  local pseudopotential read in
  partial core-charges read in
  partial kinetic energy density read in
  kinetic energy density of atom read in
  atomic valenz-charges read in
  non local Contribution for L=           0  read in
    real space projection operators read in
  non local Contribution for L=           0  read in
    real space projection operators read in
  non local Contribution for L=           1  read in
    real space projection operators read in
  non local Contribution for L=           1  read in
    real space projection operators read in
    PAW grid and wavefunctions read in
 
   number of l-projection  operators is LMAX  =           4
   number of lm-projection operators is LMMAX =           8
 
 Optimization of the real space projectors (new method)

 maximal supplied QI-value         = 14.36
 optimisation between [QCUT,QGAM] = [ 10.20, 20.39] = [ 29.12,116.47] Ry 
 Optimized for a Real-space Cutoff    1.51 Angstroem

   l    n(q)    QCUT    max X(q) W(low)/X(q) W(high)/X(q)  e(spline) 
   2      8    10.197    59.108    0.26E-03    0.14E-03    0.96E-07
   2      8    10.197    58.101    0.27E-03    0.14E-03    0.98E-07
   0      9    10.197   102.235    0.54E-04    0.60E-05    0.72E-07
   0      9    10.197    58.388    0.52E-04    0.60E-05    0.68E-07
   1      9    10.197    22.191    0.18E-03    0.25E-03    0.79E-07
   1      9    10.197    15.590    0.15E-03    0.21E-03    0.69E-07
 Optimization of the real space projectors (new method)

 maximal supplied QI-value         = 25.13
 optimisation between [QCUT,QGAM] = [ 10.05, 20.36] = [ 28.30,116.06] Ry 
 Optimized for a Real-space Cutoff    1.30 Angstroem

   l    n(q)    QCUT    max X(q) W(low)/X(q) W(high)/X(q)  e(spline) 
   0      8    10.053   115.676    0.49E-03    0.72E-03    0.18E-06
   0      8    10.053    87.132    0.49E-03    0.71E-03    0.18E-06
   1      7    10.053     4.429    0.32E-03    0.31E-03    0.18E-06
   1      7    10.053     2.733    0.23E-03    0.19E-03    0.20E-06
 Optimization of the real space projectors (new method)

 maximal supplied QI-value         = 24.76
 optimisation between [QCUT,QGAM] = [ 10.15, 20.30] = [ 28.85,115.39] Ry 
 Optimized for a Real-space Cutoff    1.38 Angstroem

   l    n(q)    QCUT    max X(q) W(low)/X(q) W(high)/X(q)  e(spline) 
   0      8    10.150    20.381    0.22E-03    0.32E-03    0.29E-06
   0      8    10.150    15.268    0.23E-03    0.35E-03    0.30E-06
   1      8    10.150     5.964    0.46E-03    0.53E-03    0.21E-06
   1      8    10.150     5.382    0.38E-03    0.45E-03    0.19E-06

 ----------------------------------------------------------------------------- 
|                                                                             |
|  ADVICE TO THIS USER RUNNING 'VASP/VAMP'   (HEAR YOUR MASTER'S VOICE ...):  |
|                                                                             |
|      You enforced a specific xc-type in the INCAR file,                     |
|      a different type was found on the POTCAR file                          |
|          I HOPE YOU KNOW, WHAT YOU ARE  DOING                               |
|                                                                             |
 ----------------------------------------------------------------------------- 

  PAW_PBE Pd 04Jan2005                  :
 energy of atom  1       EATOM= -809.7530
 kinetic energy error for atom=    0.0091 (will be added to EATOM!!)
  PAW_PBE C 08Apr2002                   :
 energy of atom  2       EATOM= -147.1560
 kinetic energy error for atom=    0.0288 (will be added to EATOM!!)
  PAW_PBE O 08Apr2002                   :
 energy of atom  3       EATOM= -432.3788
 kinetic energy error for atom=    0.1156 (will be added to EATOM!!)
 
 
 POSCAR: Pd55PES                                 
  positions in cartesian coordinates
  No initial velocities read in
 exchange correlation table for  LEXCH =        9
   RHO(1)=    0.500       N(1)  =     2000
   RHO(2)=  100.500       N(2)  =     4000
 


--------------------------------------------------------------------------------------------------------


 ion  position               nearest neighbor table
   1  0.446  0.328  0.417-   3 3.25   5 3.25   7 3.36  15 3.36  29 3.42  28 3.42
   2  0.672  0.554  0.417-  26 3.25  30 3.25  17 3.36   9 3.36  47 3.42  49 3.42
   3  0.554  0.328  0.417-   1 3.25   5 3.25   7 3.36  11 3.36  29 3.42  21 3.42
   4  0.328  0.554  0.417-  32 3.25  22 3.25  13 3.36   8 3.36  43 3.42  48 3.42
   5  0.500  0.383  0.340-   1 3.25   3 3.25  11 3.36  15 3.36  21 3.42  28 3.42
   6  0.500  0.383  0.660-  56 2.45  24 3.25  19 3.25  16 3.36  12 3.36  44 3.42  42 3.42
   7  0.500  0.276  0.500-  29 3.24   3 3.36   1 3.36  19 3.36  24 3.36
   8  0.276  0.500  0.500-  48 3.24  22 3.36  40 3.36   4 3.36  25 3.36
   9  0.724  0.500  0.500-  49 3.24  26 3.36  45 3.36   2 3.36  20 3.36
  10  0.500  0.724  0.500-  55 3.24  27 3.36  23 3.36  46 3.36  41 3.36
  11  0.612  0.388  0.342-  21 3.24   5 3.36   3 3.36  30 3.36  26 3.36
  12  0.612  0.388  0.658-  42 3.24  24 3.36  45 3.36   6 3.36  31 3.36
  13  0.388  0.612  0.342-  43 3.24  32 3.36  50 3.36   4 3.36  27 3.36
  14  0.388  0.612  0.658-  53 3.24  25 3.36  33 3.36  51 3.36  46 3.36
  15  0.388  0.388  0.342-  28 3.24   5 3.36   1 3.36  32 3.36  22 3.36
  16  0.388  0.388  0.658-  44 3.24  19 3.36  40 3.36   6 3.36  33 3.36
  17  0.612  0.612  0.342-  47 3.24  30 3.36  50 3.36   2 3.36  23 3.36
  18  0.612  0.612  0.658-  54 3.24  31 3.36  20 3.36  51 3.36  41 3.36
  19  0.446  0.328  0.583-   6 3.25  24 3.25  16 3.36   7 3.36  44 3.42  29 3.42
  20  0.672  0.554  0.583-  31 3.25  45 3.25  18 3.36   9 3.36  54 3.42  49 3.42
  21  0.558  0.442  0.418-  11 3.24   5 3.42   3 3.42  30 3.42  26 3.42
  22  0.328  0.446  0.417-   4 3.25  32 3.25   8 3.36  15 3.36  48 3.42  28 3.42
  23  0.554  0.672  0.417-  27 3.25  50 3.25  10 3.36  17 3.36  55 3.42  47 3.42
  24  0.554  0.328  0.583-   6 3.25  19 3.25  12 3.36   7 3.36  42 3.42  29 3.42
  25  0.328  0.554  0.583-  33 3.25  40 3.25  14 3.36   8 3.36  53 3.42  48 3.42
  26  0.672  0.446  0.417-   2 3.25  30 3.25   9 3.36  11 3.36  49 3.42  21 3.42
  27  0.446  0.672  0.417-  23 3.25  50 3.25  10 3.36  13 3.36  55 3.42  43 3.42
  28  0.442  0.442  0.418-  15 3.24   5 3.42   1 3.42  32 3.42  22 3.42
  29  0.500  0.384  0.500-   7 3.24   3 3.42   1 3.42  24 3.42  19 3.42
  30  0.617  0.500  0.340-   2 3.25  26 3.25  17 3.36  11 3.36  47 3.42  21 3.42
  31  0.617  0.500  0.660-  20 3.25  45 3.25  18 3.36  12 3.36  54 3.42  42 3.42
  32  0.383  0.500  0.340-   4 3.25  22 3.25  13 3.36  15 3.36  43 3.42  28 3.42
  33  0.383  0.500  0.660-  25 3.25  40 3.25  14 3.36  16 3.36  53 3.42  44 3.42
  34  0.383  0.383  0.500-
  35  0.617  0.617  0.500-
  36  0.617  0.383  0.500-
  37  0.383  0.617  0.500-
  38  0.500  0.500  0.335-
  39  0.500  0.500  0.665-  56 1.83  57 2.61
  40  0.328  0.446  0.583-  33 3.25  25 3.25  16 3.36   8 3.36  44 3.42  48 3.42
  41  0.554  0.672  0.583-  46 3.25  51 3.25  10 3.36  18 3.36  54 3.42  55 3.42
  42  0.558  0.442  0.582-  12 3.24   6 3.42  24 3.42  31 3.42  45 3.42
  43  0.442  0.558  0.418-  13 3.24   4 3.42  32 3.42  27 3.42  50 3.42
  44  0.442  0.442  0.582-  16 3.24   6 3.42  19 3.42  33 3.42  40 3.42
  45  0.672  0.446  0.583-  20 3.25  31 3.25   9 3.36  12 3.36  49 3.42  42 3.42
  46  0.446  0.672  0.583-  41 3.25  51 3.25  10 3.36  14 3.36  53 3.42  55 3.42
  47  0.558  0.558  0.418-  17 3.24   2 3.42  30 3.42  23 3.42  50 3.42
  48  0.384  0.500  0.500-   8 3.24   4 3.42  22 3.42  25 3.42  40 3.42
  49  0.616  0.500  0.500-   9 3.24   2 3.42  26 3.42  20 3.42  45 3.42
  50  0.500  0.617  0.340-  27 3.25  23 3.25  13 3.36  17 3.36  43 3.42  47 3.42
  51  0.500  0.617  0.660-  41 3.25  46 3.25  14 3.36  18 3.36  53 3.42  54 3.42
  52  0.500  0.500  0.500-
  53  0.442  0.558  0.582-  14 3.24  25 3.42  33 3.42  51 3.42  46 3.42
  54  0.558  0.558  0.582-  18 3.24  31 3.42  20 3.42  51 3.42  41 3.42
  55  0.500  0.616  0.500-  10 3.24  23 3.42  27 3.42  41 3.42  46 3.42
  56  0.464  0.453  0.680-  57 1.13  39 1.83   6 2.45
  57  0.457  0.444  0.716-  56 1.13  39 2.61
 
  LATTYP: Found a simple cubic cell.
 ALAT       =    30.0000000000
  
  Lattice vectors:
  
 A1 = (  30.0000000000,   0.0000000000,   0.0000000000)
 A2 = (   0.0000000000,  30.0000000000,   0.0000000000)
 A3 = (   0.0000000000,   0.0000000000,  30.0000000000)


Analysis of symmetry for initial positions (statically):
=====================================================================
 Subroutine PRICEL returns:
 Original cell was already a primitive cell.
 

 Routine SETGRP: Setting up the symmetry group for a 
 simple cubic supercell.


 Subroutine GETGRP returns: Found  1 space group operations
 (whereof  1 operations were pure point group operations)
 out of a pool of 48 trial point group operations.


The static configuration has the point symmetry C_1 .


Analysis of symmetry for dynamics (positions and initial velocities):
=====================================================================
 Subroutine PRICEL returns:
 Original cell was already a primitive cell.
 

 Routine SETGRP: Setting up the symmetry group for a 
 simple cubic supercell.


 Subroutine GETGRP returns: Found  1 space group operations
 (whereof  1 operations were pure point group operations)
 out of a pool of 48 trial point group operations.


The dynamic configuration has the point symmetry C_1 .


Analysis of constrained symmetry for selective dynamics:
=====================================================================
 Subroutine PRICEL returns:
 Original cell was already a primitive cell.
 

 Routine SETGRP: Setting up the symmetry group for a 
 simple cubic supercell.


 Subroutine GETGRP returns: Found  1 space group operations
 (whereof  1 operations were pure point group operations)
 out of a pool of 48 trial point group operations.


The constrained configuration has the point symmetry C_1 .


 Subroutine INISYM returns: Found  1 space group operations
 (whereof  1 operations are pure point group operations),
 and found     1 'primitive' translations

 
 
 KPOINTS: K-points                                

Automatic generation of k-mesh.
Space group operators:
 irot       det(A)        alpha          n_x          n_y          n_z        tau_x        tau_y        tau_z
    1     1.000000     0.000000     1.000000     0.000000     0.000000     0.000000     0.000000     0.000000
 
 Subroutine IBZKPT returns following result:
 ===========================================
 
 Found      1 irreducible k-points:
 
 Following reciprocal coordinates:
            Coordinates               Weight
  0.000000  0.000000  0.000000      1.000000
 
 Following cartesian coordinates:
            Coordinates               Weight
  0.000000  0.000000  0.000000      1.000000
 


--------------------------------------------------------------------------------------------------------




 Dimension of arrays:
   k-points           NKPTS =      1   k-points in BZ     NKDIM =      1   number of bands    NBANDS=    336
   number of dos      NEDOS =    301   number of ions     NIONS =     57
   non local maximal  LDIM  =      6   non local SUM 2l+1 LMDIM =     18
   total plane-waves  NPLWV = ******
   max r-space proj   IRMAX =   1847   max aug-charges    IRDMAX=   6262
   dimension x,y,z NGX =   150 NGY =  150 NGZ =  150
   dimension x,y,z NGXF=   300 NGYF=  300 NGZF=  300
   support grid    NGXF=   300 NGYF=  300 NGZF=  300
   ions per type =              55   1   1
   NGX,Y,Z   is equivalent  to a cutoff of   8.31,  8.31,  8.31 a.u.
   NGXF,Y,Z  is equivalent  to a cutoff of  16.62, 16.62, 16.62 a.u.

 SYSTEM =  6_Pd100_top_free_z(O)                   
 POSCAR =  Pd55PES                                 

 Startparameter for this run:
   NWRITE =      2    write-flag & timer
   PREC   = normal    normal or accurate (medium, high low for compatibility)
   ISTART =      0    job   : 0-new  1-cont  2-samecut
   ICHARG =      2    charge: 1-file 2-atom 10-const
   ISPIN  =      1    spin polarized calculation?
   LNONCOLLINEAR =      F non collinear calculations
   LSORBIT =      F    spin-orbit coupling
   INIWAV =      1    electr: 0-lowe 1-rand  2-diag
   LASPH  =      F    aspherical Exc in radial PAW
   METAGGA=      F    non-selfconsistent MetaGGA calc.

 Electronic Relaxation 1
   ENCUT  =  400.0 eV  29.40 Ry    5.42 a.u.  48.92 48.92 48.92*2*pi/ulx,y,z
   ENINI  =  400.0     initial cutoff
   ENAUG  =  644.9 eV  augmentation charge cutoff
   NELM   =    100;   NELMIN=  6; NELMDL= -5     # of ELM steps 
   EDIFF  = 0.1E-03   stopping-criterion for ELM
   LREAL  =      T    real-space projection
   NLSPLINE    = F    spline interpolate recip. space projectors
   LCOMPAT=      F    compatible to vasp.4.4
   GGA_COMPAT  = T    GGA compatible to vasp.4.4-vasp.4.6
   LMAXPAW     = -100 max onsite density
   LMAXMIX     =    2 max onsite mixed and CHGCAR
   VOSKOWN=      0    Vosko Wilk Nusair interpolation
   ROPT   =   -0.00050  -0.00050  -0.00050
 Ionic relaxation
   EDIFFG = -.5E-01   stopping-criterion for IOM
   NSW    =      0    number of steps for IOM
   NBLOCK =      1;   KBLOCK =      1    inner block; outer block 
   IBRION =     -1    ionic relax: 0-MD 1-quasi-New 2-CG
   NFREE  =      1    steps in history (QN), initial steepest desc. (CG)
   ISIF   =      2    stress and relaxation
   IWAVPR =     10    prediction:  0-non 1-charg 2-wave 3-comb
   ISYM   =      2    0-nonsym 1-usesym 2-fastsym
   LCORR  =      T    Harris-Foulkes like correction to forces

   POTIM  = 0.5000    time-step for ionic-motion
   TEIN   =    0.0    initial temperature
   TEBEG  =    0.0;   TEEND  =   0.0 temperature during run
   SMASS  =  -3.00    Nose mass-parameter (am)
   estimated Nose-frequenzy (Omega)   =  0.10E-29 period in steps =****** mass=  -0.206E-25a.u.
   SCALEE = 1.0000    scale energy and forces
   NPACO  =    256;   APACO  = 16.0  distance and # of slots for P.C.
   PSTRESS=    0.0 pullay stress

  Mass of Ions in am
   POMASS = 106.42 12.01 16.00
  Ionic Valenz
   ZVAL   =  10.00  4.00  6.00
  Atomic Wigner-Seitz radii
   RWIGS  =  -1.00 -1.00 -1.00
  virtual crystal weights 
   VCA    =   1.00  1.00  1.00
   NELECT =     560.0000    total number of electrons
   NUPDOWN=      -1.0000    fix difference up-down

 DOS related values:
   EMIN   =  10.00;   EMAX   =-10.00  energy-range for DOS
   EFERMI =   0.00
   ISMEAR =     2;   SIGMA  =   0.20  broadening in eV -4-tet -1-fermi 0-gaus

 Electronic relaxation 2 (details)
   IALGO  =     68    algorithm
   LDIAG  =      T    sub-space diagonalisation (order eigenvalues)
   LSUBROT=      F    optimize rotation matrix (better conditioning)
   TURBO    =      0    0=normal 1=particle mesh
   IRESTART =      0    0=no restart 2=restart with 2 vectors
   NREBOOT  =      0    no. of reboots
   NMIN     =      0    reboot dimension
   EREF     =   0.00    reference energy to select bands
   IMIX   =      4    mixing-type and parameters
     AMIX     =   0.40;   BMIX     =  1.00
     AMIX_MAG =   1.60;   BMIX_MAG =  1.00
     AMIN     =   0.10
     WC   =   100.;   INIMIX=   1;  MIXPRE=   1;  MAXMIX= -45

 Intra band minimization:
   WEIMIN = 0.0000     energy-eigenvalue tresh-hold
   EBREAK =  0.74E-07  absolut break condition
   DEPER  =   0.30     relativ break condition  

   TIME   =   0.40     timestep for ELM

  volume/ion in A,a.u.               =     473.68      3196.58
  Fermi-wavevector in a.u.,A,eV,Ry     =   0.449797  0.849992  2.752691  0.202317
  Thomas-Fermi vector in A             =   1.430086
 
 Write flags
   LWAVE        =      F    write WAVECAR
   LDOWNSAMPLE  =      F    k-point downsampling of WAVECAR
   LCHARG       =      F    write CHGCAR
   LVTOT        =      F    write LOCPOT, total local potential
   LVHAR        =      F    write LOCPOT, Hartree potential only
   LELF         =      F    write electronic localiz. function (ELF)
   LORBIT       =      0    0 simple, 1 ext, 2 COOP (PROOUT), +10 PAW based schemes


 Dipole corrections
   LMONO  =      F    monopole corrections only (constant potential shift)
   LDIPOL =      F    correct potential (dipole corrections)
   IDIPOL =      0    1-x, 2-y, 3-z, 4-all directions 
   EPSILON=  1.0000000 bulk dielectric constant

 Exchange correlation treatment:
   GGA     =    RP    GGA type
   LEXCH   =     9    internal setting for exchange type
   VOSKOWN=      0    Vosko Wilk Nusair interpolation
   LHFCALC =     F    Hartree Fock is set to
   LHFONE  =     F    Hartree Fock one center treatment
   AEXX    =    0.0000 exact exchange contribution

 Linear response parameters
   LEPSILON=     F    determine dielectric tensor
   LRPA    =     F    only Hartree local field effects (RPA)
   LNABLA  =     F    use nabla operator in PAW spheres
   LVEL    =     F    velocity operator in full k-point grid
   LINTERFAST=   F  fast interpolation
   KINTER  =     0    interpolate to denser k-point grid
   CSHIFT  =0.1000    complex shift for real part using Kramers Kronig
   OMEGAMAX=  -1.0    maximum frequency
   DEG_THRESHOLD= 0.2000000E-02 threshold for treating states as degnerate
   RTIME   =   -0.100 relaxation time in fs
  (WPLASMAI=    0.000 imaginary part of plasma frequency in eV, 0.658/RTIME)
   DFIELD  = 0.0000000 0.0000000 0.0000000 field for delta impulse in time
 
 Orbital magnetization related:
   ORBITALMAG=     F  switch on orbital magnetization
   LCHIMAG   =     F  perturbation theory with respect to B field
   DQ        =  0.001000  dq finite difference perturbation B field
   LLRAUG    =     F  two centre corrections for induced B field



--------------------------------------------------------------------------------------------------------


 Static calculation
 charge density and potential will be updated during run
 non-spin polarized calculation
 RMM-DIIS sequential band-by-band and
  variant of blocked Davidson during initial phase
 perform sub-space diagonalisation
    before iterative eigenvector-optimisation
 modified Broyden-mixing scheme, WC =      100.0
 initial mixing is a Kerker type mixing with AMIX =  0.4000 and BMIX =      1.0000
 Hartree-type preconditioning will be used
 using additional bands           56
 real space projection scheme for non local part
 use partial core corrections
 calculate Harris-corrections to forces 
   (improved forces if not selfconsistent)
 use gradient corrections 
 use of overlap-Matrix (Vanderbilt PP)
 Methfessel and Paxton  Order N= 2 SIGMA  =   0.20


--------------------------------------------------------------------------------------------------------


  energy-cutoff  :      400.00
  volume of cell :    27000.00
      direct lattice vectors                 reciprocal lattice vectors
    30.000000000  0.000000000  0.000000000     0.033333333  0.000000000  0.000000000
     0.000000000 30.000000000  0.000000000     0.000000000  0.033333333  0.000000000
     0.000000000  0.000000000 30.000000000     0.000000000  0.000000000  0.033333333

  length of vectors
    30.000000000 30.000000000 30.000000000     0.033333333  0.033333333  0.033333333


 
 k-points in units of 2pi/SCALE and weight: K-points                                
   0.00000000  0.00000000  0.00000000       1.000
 
 k-points in reciprocal lattice and weights: K-points                                
   0.00000000  0.00000000  0.00000000       1.000
 
 position of ions in fractional coordinates (direct lattice) 
   0.44576020  0.32826710  0.41691983
   0.67173288  0.55423978  0.41691983
   0.55423980  0.32826710  0.41691983
   0.32826712  0.55423978  0.41691983
   0.50000000  0.38250690  0.34021317
   0.50000000  0.38250690  0.65978680
   0.50000000  0.27609440  0.50000000
   0.27609443  0.49999998  0.50000000
   0.72390557  0.49999998  0.50000000
   0.50000000  0.72390555  0.50000000
   0.61195280  0.38804720  0.34167483
   0.61195280  0.38804720  0.65832513
   0.38804722  0.61195278  0.34167483
   0.38804722  0.61195278  0.65832513
   0.38804720  0.38804720  0.34167483
   0.38804720  0.38804720  0.65832513
   0.61195278  0.61195278  0.34167483
   0.61195278  0.61195278  0.65832513
   0.44576020  0.32826710  0.58308023
   0.67173288  0.55423978  0.58308023
   0.55791699  0.44208301  0.41809300
   0.32826705  0.44576024  0.41691983
   0.55423973  0.67173293  0.41691983
   0.55423980  0.32826710  0.58308023
   0.32826712  0.55423978  0.58308023
   0.67173295  0.44576024  0.41691983
   0.44576027  0.67173293  0.41691983
   0.44208301  0.44208301  0.41809300
   0.50000000  0.38416601  0.50000000
   0.61749315  0.50000005  0.34021317
   0.61749315  0.50000005  0.65978680
   0.38250685  0.50000005  0.34021317
   0.38250685  0.50000005  0.65978680
   0.38317830  0.38317830  0.50000000
   0.61682172  0.61682172  0.50000000
   0.61682170  0.38317830  0.50000000
   0.38317828  0.61682172  0.50000000
   0.50000000  0.50000000  0.33478917
   0.50000000  0.50000000  0.66521087
   0.32826705  0.44576024  0.58308023
   0.55423973  0.67173293  0.58308023
   0.55791699  0.44208301  0.58190703
   0.44208298  0.55791702  0.41809300
   0.44208301  0.44208301  0.58190703
   0.67173295  0.44576024  0.58308023
   0.44576027  0.67173293  0.58308023
   0.55791702  0.55791702  0.41809300
   0.38416599  0.50000002  0.50000000
   0.61583401  0.50000002  0.50000000
   0.50000000  0.61749319  0.34021317
   0.50000000  0.61749319  0.65978680
   0.50000000  0.50000000  0.50000000
   0.44208298  0.55791702  0.58190703
   0.55791702  0.55791702  0.58190703
   0.50000000  0.61583404  0.50000000
   0.46392950  0.45316833  0.67979853
   0.45676367  0.44386470  0.71551763
 
 position of ions in cartesian coordinates  (Angst):
  13.37280588  9.84801292 12.50759500
  20.15198637 16.62719342 12.50759500
  16.62719412  9.84801292 12.50759500
   9.84801363 16.62719342 12.50759500
  15.00000000 11.47520705 10.20639500
  15.00000000 11.47520705 19.79360400
  15.00000000  8.28283206 15.00000000
   8.28283277 14.99999929 15.00000000
  21.71716723 14.99999929 15.00000000
  15.00000000 21.71716652 14.99999999
  18.35858397 11.64141603 10.25024500
  18.35858397 11.64141603 19.74975399
  11.64141674 18.35858326 10.25024500
  11.64141674 18.35858326 19.74975400
  11.64141603 11.64141603 10.25024500
  11.64141603 11.64141603 19.74975400
  18.35858326 18.35858326 10.25024500
  18.35858326 18.35858326 19.74975400
  13.37280588  9.84801291 17.49240700
  20.15198638 16.62719341 17.49240700
  16.73750985 13.26249015 12.54279000
   9.84801151 13.37280729 12.50759500
  16.62719200 20.15198779 12.50759500
  16.62719412  9.84801292 17.49240700
   9.84801363 16.62719342 17.49240700
  20.15198849 13.37280729 12.50759500
  13.37280800 20.15198779 12.50759500
  13.26249015 13.26249015 12.54279000
  15.00000000 11.52498029 15.00000000
  18.52479437 15.00000140 10.20639500
  18.52479437 15.00000141 19.79360400
  11.47520562 15.00000141 10.20639501
  11.47520563 15.00000141 19.79360400
  11.49534898 11.49534898 15.00000000
  18.50465172 18.50465172 15.00000000
  18.50465102 11.49534898 15.00000000
  11.49534828 18.50465172 15.00000000
  15.00000000 15.00000000 10.04367500
  15.00000000 15.00000000 19.95632599
   9.84801151 13.37280729 17.49240700
  16.62719200 20.15198779 17.49240700
  16.73750985 13.26249015 17.45721100
  13.26248944 16.73751056 12.54279001
  13.26249015 13.26249015 17.45721100
  20.15198849 13.37280729 17.49240699
  13.37280800 20.15198779 17.49240700
  16.73751056 16.73751056 12.54279000
  11.52497959 15.00000071 15.00000000
  18.47502041 15.00000071 15.00000000
  14.99999999 18.52479579 10.20639500
  15.00000000 18.52479578 19.79360400
  15.00000000 15.00000000 15.00000000
  13.26248944 16.73751057 17.45721101
  16.73751056 16.73751057 17.45721100
  15.00000000 18.47502112 15.00000000
  13.91788500 13.59505000 20.39395600
  13.70291000 13.31594100 21.46552900
 


--------------------------------------------------------------------------------------------------------


 k-point  1 :   0.0000 0.0000 0.0000  plane waves:  490521

 maximum and minimum number of plane-waves per node :    490521   490521

 maximum number of plane-waves:    490521
 maximum index in each direction: 
   IXMAX=   48   IYMAX=   48   IZMAX=   48
   IXMIN=  -48   IYMIN=  -48   IZMIN=  -48


 serial   3D FFT for wavefunctions
 parallel 3D FFT for charge:
    minimum data exchange during FFTs selected (reduces bandwidth)


 total amount of memory used by VASP MPI-rank0  5486942. kBytes
=======================================================================

   base      :      30000. kBytes
   nonlr-proj:      17127. kBytes
   fftplans  :     924480. kBytes
   grid      :    1872000. kBytes
   one-center:        886. kBytes
   wavefun   :    2642449. kBytes
 
     INWAV:  cpu time    0.0001: real time    0.0005
 Broyden mixing: mesh for mixing (old mesh)
   NGX = 97   NGY = 97   NGZ = 97
  (NGX  =300   NGY  =300   NGZ  =300)
  gives a total of 912673 points

 initial charge density was supplied:
 charge density of overlapping atoms calculated
 number of electron     560.0000000 magnetization 
 keeping initial charge density in first step


--------------------------------------------------------------------------------------------------------


 Maximum index for non-local projection operator         1763
 Maximum index for augmentation-charges         5898 (set IRDMAX)


--------------------------------------------------------------------------------------------------------


 First call to EWALD:  gamma=   0.059
 Maximum number of real-space cells 3x 3x 3
 Maximum number of reciprocal cells 3x 3x 3

    FEWALD:  cpu time    0.0130: real time    0.0130


--------------------------------------- Iteration      1(   1)  ---------------------------------------


    POTLOK:  cpu time   13.6401: real time   13.6445
    SETDIJ:  cpu time    0.1100: real time    0.1100
     EDDAV:  cpu time  365.0880: real time  365.1514
       DOS:  cpu time    0.0012: real time    0.0012
    --------------------------------------------
      LOOP:  cpu time  378.8394: real time  378.9071

 eigenvalue-minimisations  :   688
 total energy-change (2. order) : 0.4400357E+04  (-0.1005098E+05)
 number of electron     560.0000000 magnetization 
 augmentation part      560.0000000 magnetization 

 Free energy of the ion-electron system (eV)
  ---------------------------------------------------
  alpha Z        PSCENC =        75.25431677
  Ewald energy   TEWEN  =    140062.21914597
  -Hartree energ DENC   =   -183415.00220815
  -exchange      EXHF   =         0.00000000
  -V(xc)+E(xc)   XCENC  =     -1701.92533401
  PAW double counting   =     44873.02882129   -41398.84523641
  entropy T*S    EENTRO =        -0.01250692
  eigenvalues    EBANDS =       819.13478606
  atomic energy  EATOM  =     45086.50549395
  Solvation  Ediel_sol  =         0.00000000
  ---------------------------------------------------
  free energy    TOTEN  =      4400.35727855 eV

  energy without entropy =     4400.36978547  energy(sigma->0) =     4400.36040528


--------------------------------------------------------------------------------------------------------




--------------------------------------- Iteration      1(   2)  ---------------------------------------


     EDDAV:  cpu time  578.3633: real time  578.3871
       DOS:  cpu time    0.0011: real time    0.0011
    --------------------------------------------
      LOOP:  cpu time  578.3644: real time  578.3882

 eigenvalue-minimisations  :  1208
 total energy-change (2. order) :-0.2369250E+04  (-0.2128110E+04)
 number of electron     560.0000000 magnetization 
 augmentation part      560.0000000 magnetization 

 Free energy of the ion-electron system (eV)
  ---------------------------------------------------
  alpha Z        PSCENC =        75.25431677
  Ewald energy   TEWEN  =    140062.21914597
  -Hartree energ DENC   =   -183415.00220815
  -exchange      EXHF   =         0.00000000
  -V(xc)+E(xc)   XCENC  =     -1701.92533401
  PAW double counting   =     44873.02882129   -41398.84523641
  entropy T*S    EENTRO =        -0.03275668
  eigenvalues    EBANDS =     -1550.09546100
  atomic energy  EATOM  =     45086.50549395
  Solvation  Ediel_sol  =         0.00000000
  ---------------------------------------------------
  free energy    TOTEN  =      2031.10678173 eV

  energy without entropy =     2031.13953841  energy(sigma->0) =     2031.11497090


--------------------------------------------------------------------------------------------------------




--------------------------------------- Iteration      1(   3)  ---------------------------------------


     EDDAV:  cpu time  493.7128: real time  493.7497
       DOS:  cpu time    0.0010: real time    0.0010
    --------------------------------------------
      LOOP:  cpu time  493.7137: real time  493.7507

 eigenvalue-minimisations  :  1000
 total energy-change (2. order) :-0.1786636E+04  (-0.1678723E+04)
 number of electron     560.0000000 magnetization 
 augmentation part      560.0000000 magnetization 

 Free energy of the ion-electron system (eV)
  ---------------------------------------------------
  alpha Z        PSCENC =        75.25431677
  Ewald energy   TEWEN  =    140062.21914597
  -Hartree energ DENC   =   -183415.00220815
  -exchange      EXHF   =         0.00000000
  -V(xc)+E(xc)   XCENC  =     -1701.92533401
  PAW double counting   =     44873.02882129   -41398.84523641
  entropy T*S    EENTRO =        -0.02162355
  eigenvalues    EBANDS =     -3336.74272994
  atomic energy  EATOM  =     45086.50549395
  Solvation  Ediel_sol  =         0.00000000
  ---------------------------------------------------
  free energy    TOTEN  =       244.47064592 eV

  energy without entropy =      244.49226948  energy(sigma->0) =      244.47605181


--------------------------------------------------------------------------------------------------------




--------------------------------------- Iteration      1(   4)  ---------------------------------------


     EDDAV:  cpu time  426.3962: real time  426.4152
       DOS:  cpu time    0.0010: real time    0.0010
    --------------------------------------------
      LOOP:  cpu time  426.3972: real time  426.4162

 eigenvalue-minimisations  :   832
 total energy-change (2. order) :-0.3778284E+03  (-0.3221821E+03)
 number of electron     560.0000000 magnetization 
 augmentation part      560.0000000 magnetization 

 Free energy of the ion-electron system (eV)
  ---------------------------------------------------
  alpha Z        PSCENC =        75.25431677
  Ewald energy   TEWEN  =    140062.21914597
  -Hartree energ DENC   =   -183415.00220815
  -exchange      EXHF   =         0.00000000
  -V(xc)+E(xc)   XCENC  =     -1701.92533401
  PAW double counting   =     44873.02882129   -41398.84523641
  entropy T*S    EENTRO =        -0.00627425
  eigenvalues    EBANDS =     -3714.58650807
  atomic energy  EATOM  =     45086.50549395
  Solvation  Ediel_sol  =         0.00000000
  ---------------------------------------------------
  free energy    TOTEN  =      -133.35778290 eV

  energy without entropy =     -133.35150866  energy(sigma->0) =     -133.35621434


--------------------------------------------------------------------------------------------------------




--------------------------------------- Iteration      1(   5)  ---------------------------------------


     EDDAV:  cpu time  521.2530: real time  521.2733
       DOS:  cpu time    0.0012: real time    0.0012
    CHARGE:  cpu time   25.4749: real time   25.4755
    MIXING:  cpu time    0.4187: real time    0.4193
    --------------------------------------------
      LOOP:  cpu time  547.1479: real time  547.1694

 eigenvalue-minimisations  :  1064
 total energy-change (2. order) :-0.4681466E+02  (-0.3827383E+02)
 number of electron     559.9999895 magnetization 
 augmentation part      245.0506102 magnetization 

 Broyden mixing:
  rms(total) = 0.16465E+01    rms(broyden)= 0.16457E+01
  rms(prec ) = 0.17477E+01
  weight for this iteration     100.00

 Free energy of the ion-electron system (eV)
  ---------------------------------------------------
  alpha Z        PSCENC =        75.25431677
  Ewald energy   TEWEN  =    140062.21914597
  -Hartree energ DENC   =   -183415.00220815
  -exchange      EXHF   =         0.00000000
  -V(xc)+E(xc)   XCENC  =     -1701.92533401
  PAW double counting   =     44873.02882129   -41398.84523641
  entropy T*S    EENTRO =         0.45782859
  eigenvalues    EBANDS =     -3761.86527215
  atomic energy  EATOM  =     45086.50549395
  Solvation  Ediel_sol  =         0.00000000
  ---------------------------------------------------
  free energy    TOTEN  =      -180.17244415 eV

  energy without entropy =     -180.63027274  energy(sigma->0) =     -180.28690130


--------------------------------------------------------------------------------------------------------




--------------------------------------- Iteration      1(   6)  ---------------------------------------


    POTLOK:  cpu time   12.8410: real time   12.8451
    SETDIJ:  cpu time    0.1077: real time    0.1077
    EDDIAG:  cpu time   66.2678: real time   66.2698
  RMM-DIIS:  cpu time  193.0706: real time  193.0791
    ORTHCH:  cpu time   12.6502: real time   12.6502
       DOS:  cpu time    0.0013: real time    0.0013
    CHARGE:  cpu time   24.8921: real time   24.8923
    MIXING:  cpu time    0.4235: real time    0.4239
    --------------------------------------------
      LOOP:  cpu time  310.2541: real time  310.2693

 eigenvalue-minimisations  :   730
 total energy-change (2. order) : 0.1184867E+01  (-0.5962216E+01)
 number of electron     559.9999894 magnetization 
 augmentation part      240.8054334 magnetization 

 Broyden mixing:
  rms(total) = 0.20489E+01    rms(broyden)= 0.20486E+01
  rms(prec ) = 0.23580E+01
  weight for this iteration     100.00

 eigenvalues of (default mixing * dielectric matrix)
  average eigenvalue GAMMA=   0.4103
  0.4103

 Free energy of the ion-electron system (eV)
  ---------------------------------------------------
  alpha Z        PSCENC =        75.25431677
  Ewald energy   TEWEN  =    140062.21914597
  -Hartree energ DENC   =   -183825.29638525
  -exchange      EXHF   =         0.00000000
  -V(xc)+E(xc)   XCENC  =     -1695.52399766
  PAW double counting   =     45669.46185844   -42168.94928151
  entropy T*S    EENTRO =        -0.12384239
  eigenvalues    EBANDS =     -3382.53488555
  atomic energy  EATOM  =     45086.50549395
  Solvation  Ediel_sol  =         0.00000000
  ---------------------------------------------------
  free energy    TOTEN  =      -178.98757722 eV

  energy without entropy =     -178.86373483  energy(sigma->0) =     -178.95661662


--------------------------------------------------------------------------------------------------------




--------------------------------------- Iteration      1(   7)  ---------------------------------------


    POTLOK:  cpu time   12.7763: real time   12.7791
    SETDIJ:  cpu time    0.1088: real time    0.1088
    EDDIAG:  cpu time   66.3570: real time   66.3616
  RMM-DIIS:  cpu time  222.3553: real time  222.3636
    ORTHCH:  cpu time   12.6128: real time   12.6130
       DOS:  cpu time    0.0012: real time    0.0012
    CHARGE:  cpu time   24.9160: real time   24.9166
    MIXING:  cpu time    0.4546: real time    0.4546
    --------------------------------------------
      LOOP:  cpu time  339.5820: real time  339.5983

 eigenvalue-minimisations  :   844
 total energy-change (2. order) :-0.4971932E+01  (-0.2033500E+01)
 number of electron     559.9999868 magnetization 
 augmentation part      240.0540072 magnetization 

 Broyden mixing:
  rms(total) = 0.26787E+01    rms(broyden)= 0.26785E+01
  rms(prec ) = 0.32923E+01
  weight for this iteration     100.00

 eigenvalues of (default mixing * dielectric matrix)
  average eigenvalue GAMMA=   0.3584
  0.5680  0.1488

 Free energy of the ion-electron system (eV)
  ---------------------------------------------------
  alpha Z        PSCENC =        75.25431677
  Ewald energy   TEWEN  =    140062.21914597
  -Hartree energ DENC   =   -183927.71897677
  -exchange      EXHF   =         0.00000000
  -V(xc)+E(xc)   XCENC  =     -1695.71293216
  PAW double counting   =     45767.46587184   -42263.60752425
  entropy T*S    EENTRO =        -0.15424426
  eigenvalues    EBANDS =     -3288.21066014
  atomic energy  EATOM  =     45086.50549395
  Solvation  Ediel_sol  =         0.00000000
  ---------------------------------------------------
  free energy    TOTEN  =      -183.95950904 eV

  energy without entropy =     -183.80526478  energy(sigma->0) =     -183.92094797


--------------------------------------------------------------------------------------------------------




--------------------------------------- Iteration      1(   8)  ---------------------------------------


    POTLOK:  cpu time   13.2862: real time   13.2905
    SETDIJ:  cpu time    0.1138: real time    0.1138
    EDDIAG:  cpu time   65.6481: real time   65.6515
  RMM-DIIS:  cpu time  209.4542: real time  209.4642
    ORTHCH:  cpu time   12.6203: real time   12.6205
       DOS:  cpu time    0.0012: real time    0.0012
    CHARGE:  cpu time   25.4786: real time   25.4793
    MIXING:  cpu time    0.4941: real time    0.4941
    --------------------------------------------
      LOOP:  cpu time  327.0965: real time  327.1150

 eigenvalue-minimisations  :   792
 total energy-change (2. order) :-0.9986992E+00  (-0.7725615E+00)
 number of electron     559.9999872 magnetization 
 augmentation part      240.0165874 magnetization 

 Broyden mixing:
  rms(total) = 0.28062E+01    rms(broyden)= 0.28059E+01
  rms(prec ) = 0.32758E+01
  weight for this iteration     100.00

 eigenvalues of (default mixing * dielectric matrix)
  average eigenvalue GAMMA=   0.3443
  0.7500  0.1592  0.1238

 Free energy of the ion-electron system (eV)
  ---------------------------------------------------
  alpha Z        PSCENC =        75.25431677
  Ewald energy   TEWEN  =    140062.21914597
  -Hartree energ DENC   =   -183963.87135007
  -exchange      EXHF   =         0.00000000
  -V(xc)+E(xc)   XCENC  =     -1695.79483177
  PAW double counting   =     45835.25054898   -42329.21675272
  entropy T*S    EENTRO =        -0.01638590
  eigenvalues    EBANDS =     -3255.28839344
  atomic energy  EATOM  =     45086.50549395
  Solvation  Ediel_sol  =         0.00000000
  ---------------------------------------------------
  free energy    TOTEN  =      -184.95820823 eV

  energy without entropy =     -184.94182233  energy(sigma->0) =     -184.95411176


--------------------------------------------------------------------------------------------------------




--------------------------------------- Iteration      1(   9)  ---------------------------------------


    POTLOK:  cpu time   13.1025: real time   13.1046
    SETDIJ:  cpu time    0.1131: real time    0.1131
    EDDIAG:  cpu time   65.3885: real time   65.3911
  RMM-DIIS:  cpu time  190.9891: real time  190.9992
    ORTHCH:  cpu time   12.6624: real time   12.6628
       DOS:  cpu time    0.0013: real time    0.0013
    CHARGE:  cpu time   25.2170: real time   25.2177
    MIXING:  cpu time    0.5220: real time    0.5220
    --------------------------------------------
      LOOP:  cpu time  307.9959: real time  308.0117

 eigenvalue-minimisations  :   726
 total energy-change (2. order) : 0.1465076E+01  (-0.6730164E+00)
 number of electron     559.9999875 magnetization 
 augmentation part      240.9896644 magnetization 

 Broyden mixing:
  rms(total) = 0.28839E+01    rms(broyden)= 0.28836E+01
  rms(prec ) = 0.33810E+01
  weight for this iteration     100.00

 eigenvalues of (default mixing * dielectric matrix)
  average eigenvalue GAMMA=   0.3104
  0.8327  0.1620  0.1234  0.1234

 Free energy of the ion-electron system (eV)
  ---------------------------------------------------
  alpha Z        PSCENC =        75.25431677
  Ewald energy   TEWEN  =    140062.21914597
  -Hartree energ DENC   =   -183969.35851675
  -exchange      EXHF   =         0.00000000
  -V(xc)+E(xc)   XCENC  =     -1695.77730598
  PAW double counting   =     45908.64135076   -42400.26871987
  entropy T*S    EENTRO =        -0.07253297
  eigenvalues    EBANDS =     -3250.63636452
  atomic energy  EATOM  =     45086.50549395
  Solvation  Ediel_sol  =         0.00000000
  ---------------------------------------------------
  free energy    TOTEN  =      -183.49313263 eV

  energy without entropy =     -183.42059967  energy(sigma->0) =     -183.47499939


--------------------------------------------------------------------------------------------------------




--------------------------------------- Iteration      1(  10)  ---------------------------------------


    POTLOK:  cpu time   13.1173: real time   13.1183
    SETDIJ:  cpu time    0.1069: real time    0.1069
    EDDIAG:  cpu time   65.1558: real time   65.1581
  RMM-DIIS:  cpu time  194.9886: real time  194.9960
    ORTHCH:  cpu time   12.7413: real time   12.7416
       DOS:  cpu time    0.0012: real time    0.0012
    CHARGE:  cpu time   25.4970: real time   25.4989
    MIXING:  cpu time    0.5341: real time    0.5341
    --------------------------------------------
      LOOP:  cpu time  312.1422: real time  312.1552

 eigenvalue-minimisations  :   739
 total energy-change (2. order) : 0.2065087E+01  (-0.3508496E+00)
 number of electron     559.9999893 magnetization 
 augmentation part      241.3392084 magnetization 

 Broyden mixing:
  rms(total) = 0.24016E+01    rms(broyden)= 0.24013E+01
  rms(prec ) = 0.28066E+01
  weight for this iteration     100.00

 eigenvalues of (default mixing * dielectric matrix)
  average eigenvalue GAMMA=   0.2898
  0.9060  0.1730  0.1440  0.1440  0.0819

 Free energy of the ion-electron system (eV)
  ---------------------------------------------------
  alpha Z        PSCENC =        75.25431677
  Ewald energy   TEWEN  =    140062.21914597
  -Hartree energ DENC   =   -183994.80633459
  -exchange      EXHF   =         0.00000000
  -V(xc)+E(xc)   XCENC  =     -1695.66181887
  PAW double counting   =     45952.27967654   -42442.54067982
  entropy T*S    EENTRO =        -0.13872753
  eigenvalues    EBANDS =     -3224.53911856
  atomic energy  EATOM  =     45086.50549395
  Solvation  Ediel_sol  =         0.00000000
  ---------------------------------------------------
  free energy    TOTEN  =      -181.42804613 eV

  energy without entropy =     -181.28931860  energy(sigma->0) =     -181.39336425


--------------------------------------------------------------------------------------------------------




--------------------------------------- Iteration      1(  11)  ---------------------------------------


    POTLOK:  cpu time   12.7247: real time   12.7266
    SETDIJ:  cpu time    0.1077: real time    0.1077
    EDDIAG:  cpu time   65.1891: real time   65.1916
  RMM-DIIS:  cpu time  190.9311: real time  190.9375
    ORTHCH:  cpu time   12.7521: real time   12.7523
       DOS:  cpu time    0.0012: real time    0.0012
    CHARGE:  cpu time   25.3709: real time   25.3713
    MIXING:  cpu time    0.5653: real time    0.5653
    --------------------------------------------
      LOOP:  cpu time  307.6421: real time  307.6535

 eigenvalue-minimisations  :   720
 total energy-change (2. order) : 0.2960675E+01  (-0.2613548E+00)
 number of electron     559.9999874 magnetization 
 augmentation part      241.7128705 magnetization 

 Broyden mixing:
  rms(total) = 0.18434E+01    rms(broyden)= 0.18430E+01
  rms(prec ) = 0.21628E+01
  weight for this iteration     100.00

 eigenvalues of (default mixing * dielectric matrix)
  average eigenvalue GAMMA=   0.2794
  0.9821  0.1910  0.1910  0.1315  0.0905  0.0905

 Free energy of the ion-electron system (eV)
  ---------------------------------------------------
  alpha Z        PSCENC =        75.25431677
  Ewald energy   TEWEN  =    140062.21914597
  -Hartree energ DENC   =   -184020.93852431
  -exchange      EXHF   =         0.00000000
  -V(xc)+E(xc)   XCENC  =     -1695.53869684
  PAW double counting   =     45993.16895007   -42482.00269738
  entropy T*S    EENTRO =         0.02140542
  eigenvalues    EBANDS =     -3197.15676447
  atomic energy  EATOM  =     45086.50549395
  Solvation  Ediel_sol  =         0.00000000
  ---------------------------------------------------
  free energy    TOTEN  =      -178.46737082 eV

  energy without entropy =     -178.48877624  energy(sigma->0) =     -178.47272218


--------------------------------------------------------------------------------------------------------




--------------------------------------- Iteration      1(  12)  ---------------------------------------


    POTLOK:  cpu time   12.6703: real time   12.6722
    SETDIJ:  cpu time    0.1098: real time    0.1098
    EDDIAG:  cpu time   65.3087: real time   65.3104
  RMM-DIIS:  cpu time  194.9391: real time  194.9596
    ORTHCH:  cpu time   13.1039: real time   13.1039
       DOS:  cpu time    0.0013: real time    0.0013
    CHARGE:  cpu time   25.7219: real time   25.7221
    MIXING:  cpu time    0.6247: real time    0.6253
    --------------------------------------------
      LOOP:  cpu time  312.4798: real time  312.5046

 eigenvalue-minimisations  :   726
 total energy-change (2. order) : 0.1340759E+01  (-0.1831532E+00)
 number of electron     559.9999889 magnetization 
 augmentation part      241.9423107 magnetization 

 Broyden mixing:
  rms(total) = 0.15339E+01    rms(broyden)= 0.15336E+01
  rms(prec ) = 0.17909E+01
  weight for this iteration     100.00

 eigenvalues of (default mixing * dielectric matrix)
  average eigenvalue GAMMA=   0.2772
  1.0443  0.2380  0.2380  0.1270  0.1270  0.0964  0.0698

 Free energy of the ion-electron system (eV)
  ---------------------------------------------------
  alpha Z        PSCENC =        75.25431677
  Ewald energy   TEWEN  =    140062.21914597
  -Hartree energ DENC   =   -184032.50115898
  -exchange      EXHF   =         0.00000000
  -V(xc)+E(xc)   XCENC  =     -1695.30500378
  PAW double counting   =     46030.47548396   -42517.77994801
  entropy T*S    EENTRO =        -0.04837708
  eigenvalues    EBANDS =     -3185.94656462
  atomic energy  EATOM  =     45086.50549395
  Solvation  Ediel_sol  =         0.00000000
  ---------------------------------------------------
  free energy    TOTEN  =      -177.12661182 eV

  energy without entropy =     -177.07823474  energy(sigma->0) =     -177.11451755


--------------------------------------------------------------------------------------------------------




--------------------------------------- Iteration      1(  13)  ---------------------------------------


    POTLOK:  cpu time   13.0599: real time   13.0616
    SETDIJ:  cpu time    0.1121: real time    0.1121
    EDDIAG:  cpu time   66.5041: real time   66.5094
  RMM-DIIS:  cpu time  189.6912: real time  189.7103
    ORTHCH:  cpu time   12.9992: real time   12.9993
       DOS:  cpu time    0.0014: real time    0.0014
    CHARGE:  cpu time   25.4951: real time   25.4963
    MIXING:  cpu time    0.6766: real time    0.6766
    --------------------------------------------
      LOOP:  cpu time  308.5397: real time  308.5670

 eigenvalue-minimisations  :   714
 total energy-change (2. order) : 0.7595633E+00  (-0.1436016E+00)
 number of electron     559.9999897 magnetization 
 augmentation part      241.8690197 magnetization 

 Broyden mixing:
  rms(total) = 0.12601E+01    rms(broyden)= 0.12597E+01
  rms(prec ) = 0.14602E+01
  weight for this iteration     100.00

 eigenvalues of (default mixing * dielectric matrix)
  average eigenvalue GAMMA=   0.2960
  1.2029  0.2987  0.2987  0.1663  0.1073  0.1073  0.1212  0.0656

 Free energy of the ion-electron system (eV)
  ---------------------------------------------------
  alpha Z        PSCENC =        75.25431677
  Ewald energy   TEWEN  =    140062.21914597
  -Hartree energ DENC   =   -184057.77048713
  -exchange      EXHF   =         0.00000000
  -V(xc)+E(xc)   XCENC  =     -1694.97663818
  PAW double counting   =     46070.04040415   -42555.62744019
  entropy T*S    EENTRO =        -0.06861233
  eigenvalues    EBANDS =     -3161.94323151
  atomic energy  EATOM  =     45086.50549395
  Solvation  Ediel_sol  =         0.00000000
  ---------------------------------------------------
  free energy    TOTEN  =      -176.36704850 eV

  energy without entropy =     -176.29843617  energy(sigma->0) =     -176.34989542


--------------------------------------------------------------------------------------------------------




--------------------------------------- Iteration      1(  14)  ---------------------------------------


    POTLOK:  cpu time   13.1132: real time   13.1161
    SETDIJ:  cpu time    0.1078: real time    0.1078
    EDDIAG:  cpu time   66.8106: real time   66.8124
  RMM-DIIS:  cpu time  192.6333: real time  192.6388
    ORTHCH:  cpu time   12.9980: real time   12.9981
       DOS:  cpu time    0.0013: real time    0.0013
    CHARGE:  cpu time   25.3623: real time   25.3625
    MIXING:  cpu time    0.7196: real time    0.7196
    --------------------------------------------
      LOOP:  cpu time  311.7462: real time  311.7566

 eigenvalue-minimisations  :   720
 total energy-change (2. order) :-0.8892720E+00  (-0.1598647E+00)
 number of electron     559.9999886 magnetization 
 augmentation part      241.5069178 magnetization 

 Broyden mixing:
  rms(total) = 0.24776E+01    rms(broyden)= 0.24774E+01
  rms(prec ) = 0.28739E+01
  weight for this iteration     100.00

 eigenvalues of (default mixing * dielectric matrix)
  average eigenvalue GAMMA=   0.2962
  1.3219  0.4295  0.2664  0.1473  0.1473  0.1106  0.1106  0.0661  0.0661

 Free energy of the ion-electron system (eV)
  ---------------------------------------------------
  alpha Z        PSCENC =        75.25431677
  Ewald energy   TEWEN  =    140062.21914597
  -Hartree energ DENC   =   -184103.62313688
  -exchange      EXHF   =         0.00000000
  -V(xc)+E(xc)   XCENC  =     -1694.31361637
  PAW double counting   =     46144.03070634   -42626.23916160
  entropy T*S    EENTRO =         0.15448786
  eigenvalues    EBANDS =     -3121.24455651
  atomic energy  EATOM  =     45086.50549395
  Solvation  Ediel_sol  =         0.00000000
  ---------------------------------------------------
  free energy    TOTEN  =      -177.25632047 eV

  energy without entropy =     -177.41080832  energy(sigma->0) =     -177.29494243


--------------------------------------------------------------------------------------------------------




--------------------------------------- Iteration      1(  15)  ---------------------------------------


    POTLOK:  cpu time   13.1129: real time   13.1148
    SETDIJ:  cpu time    0.1110: real time    0.1110
    EDDIAG:  cpu time   66.8336: real time   66.8373
  RMM-DIIS:  cpu time  190.0417: real time  190.0546
    ORTHCH:  cpu time   13.0680: real time   13.0693
       DOS:  cpu time    0.0013: real time    0.0013
    CHARGE:  cpu time   25.2742: real time   25.2744
    MIXING:  cpu time    0.7675: real time    0.7675
    --------------------------------------------
      LOOP:  cpu time  309.2102: real time  309.2301

 eigenvalue-minimisations  :   711
 total energy-change (2. order) : 0.8078857E+00  (-0.1176125E+00)
 number of electron     559.9999880 magnetization 
 augmentation part      241.2766745 magnetization 

 Broyden mixing:
  rms(total) = 0.15244E+01    rms(broyden)= 0.15241E+01
  rms(prec ) = 0.18008E+01
  weight for this iteration     100.00

 eigenvalues of (default mixing * dielectric matrix)
  average eigenvalue GAMMA=   0.3060
  1.4680  0.5750  0.2060  0.1850  0.1850  0.1105  0.1105  0.0928  0.0636  0.0636

 Free energy of the ion-electron system (eV)
  ---------------------------------------------------
  alpha Z        PSCENC =        75.25431677
  Ewald energy   TEWEN  =    140062.21914597
  -Hartree energ DENC   =   -184135.11734530
  -exchange      EXHF   =         0.00000000
  -V(xc)+E(xc)   XCENC  =     -1693.84741047
  PAW double counting   =     46192.05353394   -42672.03404549
  entropy T*S    EENTRO =         0.00835071
  eigenvalues    EBANDS =     -3091.49047482
  atomic energy  EATOM  =     45086.50549395
  Solvation  Ediel_sol  =         0.00000000
  ---------------------------------------------------
  free energy    TOTEN  =      -176.44843473 eV

  energy without entropy =     -176.45678544  energy(sigma->0) =     -176.45052241


--------------------------------------------------------------------------------------------------------




--------------------------------------- Iteration      1(  16)  ---------------------------------------


    POTLOK:  cpu time   13.0599: real time   13.0622
    SETDIJ:  cpu time    0.1091: real time    0.1091
    EDDIAG:  cpu time   66.3153: real time   66.3215
  RMM-DIIS:  cpu time  193.4224: real time  193.4308
    ORTHCH:  cpu time   12.9634: real time   12.9632
       DOS:  cpu time    0.0013: real time    0.0013
    CHARGE:  cpu time   25.2462: real time   25.2475
    MIXING:  cpu time    0.8200: real time    0.8200
    --------------------------------------------
      LOOP:  cpu time  311.9376: real time  311.9556

 eigenvalue-minimisations  :   722
 total energy-change (2. order) :-0.2689003E+00  (-0.9016648E-01)
 number of electron     559.9999890 magnetization 
 augmentation part      241.0068379 magnetization 

 Broyden mixing:
  rms(total) = 0.17222E+01    rms(broyden)= 0.17218E+01
  rms(prec ) = 0.20836E+01
  weight for this iteration     100.00

 eigenvalues of (default mixing * dielectric matrix)
  average eigenvalue GAMMA=   0.3006
  1.5395  0.6354  0.2323  0.2323  0.1417  0.1067  0.1067  0.1167  0.0706  0.0706
  0.0543

 Free energy of the ion-electron system (eV)
  ---------------------------------------------------
  alpha Z        PSCENC =        75.25431677
  Ewald energy   TEWEN  =    140062.21914597
  -Hartree energ DENC   =   -184167.37224359
  -exchange      EXHF   =         0.00000000
  -V(xc)+E(xc)   XCENC  =     -1693.40043514
  PAW double counting   =     46238.80262897   -42716.56536731
  entropy T*S    EENTRO =         0.02482942
  eigenvalues    EBANDS =     -3062.18570408
  atomic energy  EATOM  =     45086.50549395
  Solvation  Ediel_sol  =         0.00000000
  ---------------------------------------------------
  free energy    TOTEN  =      -176.71733503 eV

  energy without entropy =     -176.74216445  energy(sigma->0) =     -176.72354238


--------------------------------------------------------------------------------------------------------




--------------------------------------- Iteration      1(  17)  ---------------------------------------


    POTLOK:  cpu time   13.0476: real time   13.0491
    SETDIJ:  cpu time    0.1049: real time    0.1049
    EDDIAG:  cpu time   66.7287: real time   66.7283
  RMM-DIIS:  cpu time  190.6654: real time  190.6663
    ORTHCH:  cpu time   12.8482: real time   12.8479
       DOS:  cpu time    0.0014: real time    0.0014
    CHARGE:  cpu time   25.3637: real time   25.3634
    MIXING:  cpu time    0.8659: real time    0.8658
    --------------------------------------------
      LOOP:  cpu time  309.6257: real time  309.6271

 eigenvalue-minimisations  :   711
 total energy-change (2. order) : 0.1055902E+01  (-0.5912199E-01)
 number of electron     559.9999885 magnetization 
 augmentation part      241.0894443 magnetization 

 Broyden mixing:
  rms(total) = 0.11072E+01    rms(broyden)= 0.11068E+01
  rms(prec ) = 0.12663E+01
  weight for this iteration     100.00

 eigenvalues of (default mixing * dielectric matrix)
  average eigenvalue GAMMA=   0.3075
  1.6238  0.7134  0.2932  0.2932  0.1262  0.1262  0.1098  0.1098  0.1040  0.0713
  0.0713  0.0480

 Free energy of the ion-electron system (eV)
  ---------------------------------------------------
  alpha Z        PSCENC =        75.25431677
  Ewald energy   TEWEN  =    140062.21914597
  -Hartree energ DENC   =   -184182.38677916
  -exchange      EXHF   =         0.00000000
  -V(xc)+E(xc)   XCENC  =     -1693.22234546
  PAW double counting   =     46259.09314828   -42735.84357559
  entropy T*S    EENTRO =         0.02011570
  eigenvalues    EBANDS =     -3047.30095370
  atomic energy  EATOM  =     45086.50549395
  Solvation  Ediel_sol  =         0.00000000
  ---------------------------------------------------
  free energy    TOTEN  =      -175.66143323 eV

  energy without entropy =     -175.68154893  energy(sigma->0) =     -175.66646215


--------------------------------------------------------------------------------------------------------




--------------------------------------- Iteration      1(  18)  ---------------------------------------


    POTLOK:  cpu time   12.8922: real time   12.8929
    SETDIJ:  cpu time    0.1148: real time    0.1148
    EDDIAG:  cpu time   66.6842: real time   66.6844
  RMM-DIIS:  cpu time  190.8881: real time  190.8909
    ORTHCH:  cpu time   12.9167: real time   12.9166
       DOS:  cpu time    0.0013: real time    0.0013
    CHARGE:  cpu time   25.2984: real time   25.2985
    MIXING:  cpu time    0.9265: real time    0.9265
    --------------------------------------------
      LOOP:  cpu time  309.7222: real time  309.7259

 eigenvalue-minimisations  :   698
 total energy-change (2. order) : 0.3354207E+00  (-0.5704805E-01)
 number of electron     559.9999893 magnetization 
 augmentation part      241.1591772 magnetization 

 Broyden mixing:
  rms(total) = 0.83391E+00    rms(broyden)= 0.83370E+00
  rms(prec ) = 0.93441E+00
  weight for this iteration     100.00

 eigenvalues of (default mixing * dielectric matrix)
  average eigenvalue GAMMA=   0.3237
  1.6966  0.8921  0.3578  0.3578  0.1506  0.1506  0.1077  0.1077  0.0988  0.0988
  0.0709  0.0709  0.0482

 Free energy of the ion-electron system (eV)
  ---------------------------------------------------
  alpha Z        PSCENC =        75.25431677
  Ewald energy   TEWEN  =    140062.21914597
  -Hartree energ DENC   =   -184194.60381246
  -exchange      EXHF   =         0.00000000
  -V(xc)+E(xc)   XCENC  =     -1693.06786524
  PAW double counting   =     46275.00941244   -42750.84819176
  entropy T*S    EENTRO =         0.04126113
  eigenvalues    EBANDS =     -3035.83577330
  atomic energy  EATOM  =     45086.50549395
  Solvation  Ediel_sol  =         0.00000000
  ---------------------------------------------------
  free energy    TOTEN  =      -175.32601249 eV

  energy without entropy =     -175.36727361  energy(sigma->0) =     -175.33632777


--------------------------------------------------------------------------------------------------------




--------------------------------------- Iteration      1(  19)  ---------------------------------------


    POTLOK:  cpu time   12.8852: real time   12.8861
    SETDIJ:  cpu time    0.1117: real time    0.1117
    EDDIAG:  cpu time   66.6964: real time   66.6982
  RMM-DIIS:  cpu time  194.7629: real time  194.7771
    ORTHCH:  cpu time   12.5051: real time   12.5063
       DOS:  cpu time    0.0013: real time    0.0013
    CHARGE:  cpu time   25.5841: real time   25.5888
    MIXING:  cpu time    0.9485: real time    0.9485
    --------------------------------------------
      LOOP:  cpu time  313.4951: real time  313.5180

 eigenvalue-minimisations  :   707
 total energy-change (2. order) :-0.2675797E+00  (-0.4521992E-01)
 number of electron     559.9999897 magnetization 
 augmentation part      241.2187387 magnetization 

 Broyden mixing:
  rms(total) = 0.12622E+01    rms(broyden)= 0.12621E+01
  rms(prec ) = 0.14900E+01
  weight for this iteration     100.00

 eigenvalues of (default mixing * dielectric matrix)
  average eigenvalue GAMMA=   0.3317
  1.7408  1.1058  0.3897  0.3897  0.1664  0.1664  0.1082  0.1082  0.1058  0.1058
  0.0706  0.0706  0.0676  0.0480

 Free energy of the ion-electron system (eV)
  ---------------------------------------------------
  alpha Z        PSCENC =        75.25431677
  Ewald energy   TEWEN  =    140062.21914597
  -Hartree energ DENC   =   -184213.42393935
  -exchange      EXHF   =         0.00000000
  -V(xc)+E(xc)   XCENC  =     -1692.89342204
  PAW double counting   =     46288.08205650   -42762.81862162
  entropy T*S    EENTRO =         0.06893220
  eigenvalues    EBANDS =     -3018.58755460
  atomic energy  EATOM  =     45086.50549395
  Solvation  Ediel_sol  =         0.00000000
  ---------------------------------------------------
  free energy    TOTEN  =      -175.59359222 eV

  energy without entropy =     -175.66252442  energy(sigma->0) =     -175.61082527


--------------------------------------------------------------------------------------------------------




--------------------------------------- Iteration      1(  20)  ---------------------------------------


    POTLOK:  cpu time   13.0466: real time   13.0486
    SETDIJ:  cpu time    0.1097: real time    0.1097
    EDDIAG:  cpu time   65.7587: real time   65.7676
  RMM-DIIS:  cpu time  193.7107: real time  193.7259
    ORTHCH:  cpu time   12.9528: real time   12.9529
       DOS:  cpu time    0.0014: real time    0.0014
    CHARGE:  cpu time   25.7120: real time   25.7132
    MIXING:  cpu time    1.0971: real time    1.0971
    --------------------------------------------
      LOOP:  cpu time  312.3890: real time  312.4163

 eigenvalue-minimisations  :   702
 total energy-change (2. order) : 0.5099684E-01  (-0.3737520E-01)
 number of electron     559.9999881 magnetization 
 augmentation part      241.2130428 magnetization 

 Broyden mixing:
  rms(total) = 0.10589E+01    rms(broyden)= 0.10587E+01
  rms(prec ) = 0.12454E+01
  weight for this iteration     100.00

 eigenvalues of (default mixing * dielectric matrix)
  average eigenvalue GAMMA=   0.3310
  1.8383  1.1981  0.3885  0.3885  0.1862  0.1862  0.1089  0.1089  0.1128  0.1128
  0.0856  0.0683  0.0683  0.0662  0.0481

 Free energy of the ion-electron system (eV)
  ---------------------------------------------------
  alpha Z        PSCENC =        75.25431677
  Ewald energy   TEWEN  =    140062.21914597
  -Hartree energ DENC   =   -184232.09311733
  -exchange      EXHF   =         0.00000000
  -V(xc)+E(xc)   XCENC  =     -1692.75327920
  PAW double counting   =     46294.83561647   -42768.75383216
  entropy T*S    EENTRO =         0.03205217
  eigenvalues    EBANDS =     -3000.78899203
  atomic energy  EATOM  =     45086.50549395
  Solvation  Ediel_sol  =         0.00000000
  ---------------------------------------------------
  free energy    TOTEN  =      -175.54259538 eV

  energy without entropy =     -175.57464755  energy(sigma->0) =     -175.55060842


--------------------------------------------------------------------------------------------------------




--------------------------------------- Iteration      1(  21)  ---------------------------------------


    POTLOK:  cpu time   12.9595: real time   12.9615
    SETDIJ:  cpu time    0.1121: real time    0.1121
    EDDIAG:  cpu time   65.8138: real time   65.8150
  RMM-DIIS:  cpu time  190.2116: real time  190.2226
    ORTHCH:  cpu time   12.7873: real time   12.7873
       DOS:  cpu time    0.0013: real time    0.0013
    CHARGE:  cpu time   25.6971: real time   25.6969
    MIXING:  cpu time    1.2466: real time    1.2466
    --------------------------------------------
      LOOP:  cpu time  308.8294: real time  308.8434

 eigenvalue-minimisations  :   694
 total energy-change (2. order) : 0.3532946E+00  (-0.2656997E-01)
 number of electron     559.9999892 magnetization 
 augmentation part      241.2561679 magnetization 

 Broyden mixing:
  rms(total) = 0.74571E+00    rms(broyden)= 0.74555E+00
  rms(prec ) = 0.87473E+00
  weight for this iteration     100.00

 eigenvalues of (default mixing * dielectric matrix)
  average eigenvalue GAMMA=   0.3350
  1.9586  1.2735  0.3603  0.3603  0.2500  0.2500  0.1292  0.1292  0.1095  0.1095
  0.0950  0.0782  0.0782  0.0657  0.0657  0.0479

 Free energy of the ion-electron system (eV)
  ---------------------------------------------------
  alpha Z        PSCENC =        75.25431677
  Ewald energy   TEWEN  =    140062.21914597
  -Hartree energ DENC   =   -184245.69957631
  -exchange      EXHF   =         0.00000000
  -V(xc)+E(xc)   XCENC  =     -1692.59277677
  PAW double counting   =     46302.36456613   -42775.53093119
  entropy T*S    EENTRO =        -0.00667505
  eigenvalues    EBANDS =     -2987.70286425
  atomic energy  EATOM  =     45086.50549395
  Solvation  Ediel_sol  =         0.00000000
  ---------------------------------------------------
  free energy    TOTEN  =      -175.18930075 eV

  energy without entropy =     -175.18262570  energy(sigma->0) =     -175.18763198


--------------------------------------------------------------------------------------------------------




--------------------------------------- Iteration      1(  22)  ---------------------------------------


    POTLOK:  cpu time   13.0416: real time   13.0429
    SETDIJ:  cpu time    0.1072: real time    0.1072
    EDDIAG:  cpu time   65.5547: real time   65.5574
  RMM-DIIS:  cpu time  190.5367: real time  190.5417
    ORTHCH:  cpu time   12.5553: real time   12.5554
       DOS:  cpu time    0.0013: real time    0.0013
    CHARGE:  cpu time   26.2641: real time   26.2643
    MIXING:  cpu time    1.2521: real time    1.2521
    --------------------------------------------
      LOOP:  cpu time  309.3130: real time  309.3224

 eigenvalue-minimisations  :   694
 total energy-change (2. order) : 0.1227959E+00  (-0.2079284E-01)
 number of electron     559.9999890 magnetization 
 augmentation part      241.2594080 magnetization 

 Broyden mixing:
  rms(total) = 0.69993E+00    rms(broyden)= 0.69979E+00
  rms(prec ) = 0.80971E+00
  weight for this iteration     100.00

 eigenvalues of (default mixing * dielectric matrix)
  average eigenvalue GAMMA=   0.3425
  2.1064  1.2885  0.5365  0.3314  0.3314  0.1838  0.1401  0.1401  0.1084  0.1084
  0.1126  0.1126  0.0734  0.0734  0.0639  0.0639  0.0479

 Free energy of the ion-electron system (eV)
  ---------------------------------------------------
  alpha Z        PSCENC =        75.25431677
  Ewald energy   TEWEN  =    140062.21914597
  -Hartree energ DENC   =   -184261.04943579
  -exchange      EXHF   =         0.00000000
  -V(xc)+E(xc)   XCENC  =     -1692.39928534
  PAW double counting   =     46308.26222184   -42780.65491755
  entropy T*S    EENTRO =         0.03478325
  eigenvalues    EBANDS =     -2973.23882794
  atomic energy  EATOM  =     45086.50549395
  Solvation  Ediel_sol  =         0.00000000
  ---------------------------------------------------
  free energy    TOTEN  =      -175.06650483 eV

  energy without entropy =     -175.10128807  energy(sigma->0) =     -175.07520064


--------------------------------------------------------------------------------------------------------




--------------------------------------- Iteration      1(  23)  ---------------------------------------


    POTLOK:  cpu time   12.8875: real time   12.8892
    SETDIJ:  cpu time    0.1092: real time    0.1092
    EDDIAG:  cpu time   66.0505: real time   66.0527
  RMM-DIIS:  cpu time  189.2796: real time  189.3038
    ORTHCH:  cpu time   12.7473: real time   12.7543
       DOS:  cpu time    0.0015: real time    0.0015
    CHARGE:  cpu time   26.2499: real time   26.2500
    MIXING:  cpu time    1.3723: real time    1.3723
    --------------------------------------------
      LOOP:  cpu time  308.6978: real time  308.7331

 eigenvalue-minimisations  :   693
 total energy-change (2. order) : 0.1609871E+00  (-0.1467889E-01)
 number of electron     559.9999888 magnetization 
 augmentation part      241.2370535 magnetization 

 Broyden mixing:
  rms(total) = 0.45849E+00    rms(broyden)= 0.45837E+00
  rms(prec ) = 0.52252E+00
  weight for this iteration     100.00

 eigenvalues of (default mixing * dielectric matrix)
  average eigenvalue GAMMA=   0.3481
[...]
 -0.007  -0.012   0.004   0.004   0.006  -0.007  -0.011   0.004
 -0.012  -0.019   0.006   0.007   0.009  -0.011  -0.019   0.006
 -0.015  -0.005   0.013   0.000   0.022  -0.014  -0.005   0.012
  0.000  -0.023  -0.006  -0.015  -0.000   0.000  -0.022  -0.006
 -0.022   0.000   0.009  -0.005  -0.016  -0.022   0.000   0.008
 -0.017  -0.006   0.015   0.000   0.027  -0.017  -0.006   0.015
  0.000  -0.028  -0.007  -0.018   0.000   0.000  -0.027  -0.007
 -0.027   0.000   0.010  -0.006  -0.019  -0.026   0.000   0.010
 total augmentation occupancy for first ion, spin component:           1
  1.532  -0.032   0.004   0.016   0.025   0.077  -0.008  -0.002   0.035  -0.010   0.091  -0.032   0.012   0.002   0.003  -0.019
 -0.032   1.400   0.030   0.073   0.001  -0.007   0.072   0.011  -0.015  -0.008   0.212  -0.063   0.020   0.000   0.002  -0.006
  0.004   0.030   1.539   0.002   0.003  -0.002   0.012   0.075  -0.013   0.017  -0.056   0.018  -0.003  -0.008  -0.005   0.016
  0.016   0.073   0.002   1.338   0.046   0.034  -0.014  -0.013   0.091  -0.023  -0.082   0.021  -0.001  -0.010  -0.004   0.001
  0.025   0.001   0.003   0.046   1.437  -0.011  -0.008   0.016  -0.022   0.068  -0.091   0.031  -0.003  -0.010  -0.010   0.026
  0.077  -0.007  -0.002   0.034  -0.011   0.217   0.019  -0.002  -0.045   0.004  -0.047   0.001   0.017  -0.010   0.034  -0.004
 -0.008   0.072   0.012  -0.014  -0.008   0.019   0.263  -0.023  -0.003   0.006  -0.110   0.008  -0.001   0.052  -0.010  -0.000
 -0.002   0.011   0.075  -0.013   0.016  -0.002  -0.023   0.215   0.014  -0.020   0.028  -0.001  -0.012   0.009  -0.018   0.003
  0.035  -0.015  -0.013   0.091  -0.022  -0.045  -0.003   0.014   0.261   0.007   0.043  -0.004  -0.009   0.036   0.004   0.000
 -0.010  -0.008   0.017  -0.023   0.068   0.004   0.006  -0.020   0.007   0.259   0.045  -0.002  -0.038   0.002   0.049   0.007
  0.091   0.212  -0.056  -0.082  -0.091  -0.047  -0.110   0.028   0.043   0.045   0.944  -0.140   0.084   0.013   0.064  -0.013
 -0.032  -0.063   0.018   0.021   0.031   0.001   0.008  -0.001  -0.004  -0.002  -0.140   0.023  -0.014  -0.003  -0.010   0.003
  0.012   0.020  -0.003  -0.001  -0.003   0.017  -0.001  -0.012  -0.009  -0.038   0.084  -0.014   0.029  -0.008  -0.004  -0.003
  0.002   0.000  -0.008  -0.010  -0.010  -0.010   0.052   0.009   0.036   0.002   0.013  -0.003  -0.008   0.036   0.004   0.000
  0.003   0.002  -0.005  -0.004  -0.010   0.034  -0.010  -0.018   0.004   0.049   0.064  -0.010  -0.004   0.004   0.035  -0.000
 -0.019  -0.006   0.016   0.001   0.026  -0.004  -0.000   0.003   0.000   0.007  -0.013   0.003  -0.003   0.000  -0.000   0.001
  0.001  -0.028  -0.007  -0.018   0.001   0.001  -0.008  -0.001  -0.006  -0.000  -0.003   0.001   0.000  -0.003  -0.000   0.000
 -0.028   0.001   0.012  -0.005  -0.019  -0.006   0.001   0.003  -0.001  -0.007  -0.008   0.001  -0.000  -0.000  -0.003   0.000


------------------------ aborting loop because EDIFF is reached ----------------------------------------


    CHARGE:  cpu time   24.6185: real time   24.6183
    FORLOC:  cpu time    6.2149: real time    6.2148
    FORNL :  cpu time   64.2003: real time   64.1997
    STRESS:  cpu time  193.1959: real time  193.1934
    FORCOR:  cpu time   20.4723: real time   20.4722
    FORHAR:  cpu time    9.1967: real time    9.1967
    MIXING:  cpu time    3.7096: real time    3.7096
    OFIELD:  cpu time    0.0000: real time    0.0000

  FORCE on cell =-STRESS in cart. coord.  units (eV):
  Direction    XX          YY          ZZ          XY          YZ          ZX
  --------------------------------------------------------------------------------------
  Alpha Z    75.25432    75.25432    75.25432
  Ewald   45444.21959 45629.61117 48988.28225   181.01048  -761.63502  -617.75943
  Hartree 60306.87515 60431.17728 63686.89333   124.29021  -683.62204  -544.69983
  E(xc)   -2906.49179 -2905.83922 -2905.71621     0.33023    -0.29948    -0.34671
  Local  ************************************  -296.11852  1435.27027  1154.48537
  n-local  -881.80064  -878.86900  -892.23348     2.39142    -0.57343    -0.48826
  augment  4104.01586  4100.23408  4105.93155    -2.86600     1.24699     1.09373
  Kinetic  7817.18724  7809.25083  7805.89473    -6.28671     6.19521     4.94994
  Fock        0.00000     0.00000     0.00000     0.00000     0.00000     0.00000
  -------------------------------------------------------------------------------------
  Total    -111.32218  -110.85373  -104.87832     2.75111    -3.41750    -2.76520
  in kB      -6.60585    -6.57805    -6.22347     0.16325    -0.20279    -0.16409
  external pressure =       -6.47 kB  Pullay stress =        0.00 kB


 VOLUME and BASIS-vectors are now :
 -----------------------------------------------------------------------------
  energy-cutoff  :      400.00
  volume of cell :    27000.00
      direct lattice vectors                 reciprocal lattice vectors
    30.000000000  0.000000000  0.000000000     0.033333333  0.000000000  0.000000000
     0.000000000 30.000000000  0.000000000     0.000000000  0.033333333  0.000000000
     0.000000000  0.000000000 30.000000000     0.000000000  0.000000000  0.033333333

  length of vectors
    30.000000000 30.000000000 30.000000000     0.033333333  0.033333333  0.033333333


 FORCES acting on ions
    electron-ion (+dipol)            ewald-force                    non-local-force                 convergence-correction
 -----------------------------------------------------------------------------------------------
   0.394E+03 0.976E+03 0.429E+03   -.392E+03 -.973E+03 -.428E+03   -.148E+01 -.182E+01 -.204E+00   -.399E-02 0.822E-03 0.108E-01
   -.976E+03 -.397E+03 0.423E+03   0.973E+03 0.394E+03 -.422E+03   0.184E+01 0.149E+01 -.222E+00   0.200E-02 -.430E-02 0.261E-02
   -.398E+03 0.975E+03 0.427E+03   0.395E+03 -.972E+03 -.427E+03   0.148E+01 -.182E+01 -.194E+00   -.788E-02 -.367E-02 0.907E-02
   0.975E+03 -.398E+03 0.426E+03   -.972E+03 0.396E+03 -.426E+03   -.183E+01 0.148E+01 -.194E+00   0.468E-03 -.521E-02 0.108E-01
   -.119E+01 0.588E+03 0.972E+03   0.120E+01 -.587E+03 -.968E+03   -.551E-03 -.323E+00 -.234E+01   -.726E-02 -.274E-02 0.464E-02
   -.930E+02 0.740E+03 -.875E+03   0.927E+02 -.739E+03 0.871E+03   0.117E+00 -.578E+00 0.212E+01   -.899E-02 0.134E-02 -.781E-02
   -.319E+01 0.115E+04 0.155E+02   0.316E+01 -.114E+04 -.154E+02   0.207E-01 -.310E+01 -.563E-01   -.594E-02 0.422E-02 0.661E-02
   0.114E+04 -.369E+01 0.138E+02   -.114E+04 0.366E+01 -.137E+02   -.310E+01 0.154E-01 -.494E-01   0.962E-02 -.403E-02 0.115E-01
   -.114E+04 -.201E+01 0.739E+01   0.114E+04 0.200E+01 -.738E+01   0.311E+01 0.764E-02 -.771E-02   0.946E-03 -.284E-02 0.233E-02
   -.145E+01 -.114E+04 0.685E+01   0.144E+01 0.114E+04 -.685E+01   0.694E-02 0.311E+01 -.403E-02   -.189E-02 0.259E-02 0.210E-02
   -.581E+03 0.579E+03 0.818E+03   0.579E+03 -.577E+03 -.815E+03   0.156E+01 -.155E+01 -.221E+01   0.464E-03 -.368E-02 0.599E-03
   -.626E+03 0.597E+03 -.798E+03   0.624E+03 -.594E+03 0.795E+03   0.156E+01 -.155E+01 0.224E+01   -.832E-02 -.218E-02 0.429E-04
   0.579E+03 -.581E+03 0.817E+03   -.577E+03 0.579E+03 -.814E+03   -.155E+01 0.156E+01 -.221E+01   -.165E-02 0.104E-02 0.445E-03
   0.595E+03 -.618E+03 -.801E+03   -.593E+03 0.616E+03 0.798E+03   -.157E+01 0.157E+01 0.223E+01   -.280E-02 -.104E-01 -.217E-02
   0.580E+03 0.579E+03 0.819E+03   -.577E+03 -.577E+03 -.816E+03   -.156E+01 -.156E+01 -.220E+01   -.191E-02 -.483E-02 0.552E-02
   0.678E+03 0.661E+03 -.752E+03   -.676E+03 -.659E+03 0.749E+03   -.125E+01 -.132E+01 0.232E+01   0.313E-02 0.393E-02 -.935E-02
   -.580E+03 -.580E+03 0.816E+03   0.578E+03 0.578E+03 -.813E+03   0.155E+01 0.155E+01 -.222E+01   -.267E-03 0.129E-02 -.258E-02
   -.597E+03 -.598E+03 -.806E+03   0.595E+03 0.596E+03 0.803E+03   0.161E+01 0.161E+01 0.220E+01   -.361E-02 -.226E-02 0.298E-02
   0.398E+03 0.101E+04 -.378E+03   -.396E+03 -.101E+04 0.377E+03   -.153E+01 -.178E+01 0.325E+00   -.123E-02 0.805E-02 -.139E-02
   -.987E+03 -.402E+03 -.406E+03   0.984E+03 0.400E+03 0.406E+03   0.183E+01 0.152E+01 0.210E+00   -.154E-02 -.239E-02 0.420E-02
   -.326E+03 0.321E+03 0.467E+03   0.326E+03 -.321E+03 -.468E+03   -.370E+00 0.360E+00 0.534E+00   -.917E-02 -.513E-03 0.115E-01
   0.976E+03 0.394E+03 0.428E+03   -.973E+03 -.391E+03 -.428E+03   -.182E+01 -.148E+01 -.203E+00   0.475E-02 -.657E-02 0.107E-01
   -.396E+03 -.976E+03 0.422E+03   0.394E+03 0.973E+03 -.422E+03   0.149E+01 0.184E+01 -.223E+00   -.389E-02 0.317E-02 0.299E-02
   -.414E+03 0.996E+03 -.390E+03   0.412E+03 -.993E+03 0.390E+03   0.159E+01 -.187E+01 0.185E+00   -.124E-01 0.158E-02 0.577E-04
   0.993E+03 -.412E+03 -.395E+03   -.990E+03 0.410E+03 0.395E+03   -.184E+01 0.155E+01 0.205E+00   0.587E-02 -.100E-01 0.207E-02
   -.977E+03 0.394E+03 0.424E+03   0.974E+03 -.391E+03 -.423E+03   0.183E+01 -.150E+01 -.206E+00   0.734E-03 -.419E-02 0.327E-02
   0.394E+03 -.977E+03 0.423E+03   -.392E+03 0.974E+03 -.423E+03   -.150E+01 0.183E+01 -.209E+00   -.227E-02 0.388E-03 0.510E-02
   0.322E+03 0.321E+03 0.470E+03   -.322E+03 -.321E+03 -.471E+03   0.356E+00 0.356E+00 0.544E+00   -.353E-02 -.340E-02 0.164E-01
   -.638E+01 0.648E+03 0.314E+02   0.636E+01 -.649E+03 -.313E+02   0.214E-01 0.698E+00 -.688E-01   -.121E-01 0.732E-03 0.111E-01
   -.589E+03 -.124E+01 0.970E+03   0.588E+03 0.122E+01 -.966E+03   0.299E+00 0.988E-02 -.237E+01   -.959E-03 -.418E-02 -.292E-03
   -.634E+03 -.161E+02 -.951E+03   0.634E+03 0.161E+02 0.948E+03   0.387E+00 -.535E-01 0.243E+01   -.709E-02 -.330E-02 0.141E-02
   0.588E+03 -.149E+01 0.971E+03   -.587E+03 0.150E+01 -.968E+03   -.320E+00 -.754E-03 -.235E+01   -.173E-04 -.779E-02 0.427E-02
   0.699E+03 -.756E+02 -.907E+03   -.699E+03 0.757E+02 0.904E+03   -.685E-01 -.131E+00 0.230E+01   0.233E-03 -.577E-02 -.109E-01
   0.770E+03 0.768E+03 0.270E+02   -.768E+03 -.766E+03 -.269E+02   -.117E+01 -.118E+01 -.723E-01   0.530E-02 0.484E-02 0.103E-01
   -.767E+03 -.768E+03 0.997E+01   0.765E+03 0.766E+03 -.100E+02   0.113E+01 0.113E+01 0.181E-01   -.371E-02 -.273E-02 0.527E-02
   -.772E+03 0.765E+03 0.163E+02   0.770E+03 -.763E+03 -.163E+02   0.114E+01 -.116E+01 -.362E-01   -.843E-02 -.175E-02 0.523E-02
   0.765E+03 -.772E+03 0.144E+02   -.763E+03 0.770E+03 -.144E+02   -.115E+01 0.114E+01 -.263E-01   -.168E-02 -.113E-01 0.920E-02
   -.120E+01 -.155E+01 0.108E+04   0.117E+01 0.152E+01 -.107E+04   0.190E-01 0.248E-01 -.162E+01   -.342E-02 -.345E-02 0.406E-02
   -.169E+03 -.219E+03 -.952E+03   0.165E+03 0.215E+03 0.950E+03   0.447E+01 0.563E+01 -.466E+00   -.904E-02 -.605E-02 -.587E-02
   0.101E+04 0.394E+03 -.383E+03   -.100E+04 -.392E+03 0.382E+03   -.179E+01 -.152E+01 0.298E+00   0.114E-01 0.166E-02 0.738E-03
   -.401E+03 -.987E+03 -.407E+03   0.399E+03 0.984E+03 0.406E+03   0.151E+01 0.183E+01 0.212E+00   -.330E-02 -.119E-02 0.420E-02
   -.364E+03 0.323E+03 -.401E+03   0.365E+03 -.324E+03 0.402E+03   -.531E+00 0.378E+00 -.373E+00   -.161E-01 -.248E-02 0.252E-03
   0.321E+03 -.326E+03 0.466E+03   -.322E+03 0.327E+03 -.467E+03   0.365E+00 -.373E+00 0.530E+00   0.403E-03 -.985E-02 0.145E-01
   0.339E+03 0.328E+03 -.340E+03   -.340E+03 -.328E+03 0.340E+03   0.598E+00 0.495E+00 0.203E+00   -.599E-02 -.160E-02 -.201E-02
   -.992E+03 0.394E+03 -.403E+03   0.989E+03 -.392E+03 0.403E+03   0.182E+01 -.149E+01 0.242E+00   -.524E-02 -.208E-02 0.273E-02
   0.395E+03 -.990E+03 -.405E+03   -.393E+03 0.988E+03 0.404E+03   -.149E+01 0.182E+01 0.239E+00   -.277E-02 -.728E-02 0.278E-02
   -.325E+03 -.325E+03 0.464E+03   0.325E+03 0.326E+03 -.465E+03   -.376E+00 -.375E+00 0.497E+00   -.957E-02 -.797E-02 0.867E-02
   0.649E+03 -.756E+01 0.286E+02   -.650E+03 0.754E+01 -.286E+02   0.689E+00 0.279E-01 -.697E-01   0.538E-02 -.861E-02 0.155E-01
   -.651E+03 -.453E+01 0.171E+02   0.652E+03 0.454E+01 -.171E+02   -.705E+00 0.423E-02 -.714E-02   -.105E-01 -.574E-02 0.534E-02
   -.934E+00 -.589E+03 0.969E+03   0.919E+00 0.589E+03 -.966E+03   0.100E-01 0.296E+00 -.237E+01   -.277E-02 -.115E-02 0.343E-04
   -.107E+02 -.631E+03 -.953E+03   0.108E+02 0.631E+03 0.949E+03   -.526E-01 0.440E+00 0.245E+01   -.495E-02 -.770E-02 0.170E-02
   -.674E+01 -.876E+01 0.332E+02   0.674E+01 0.875E+01 -.332E+02   0.748E-02 0.799E-02 -.252E-01   -.121E-01 -.815E-02 0.992E-02
   0.327E+03 -.361E+03 -.409E+03   -.328E+03 0.362E+03 0.410E+03   0.363E+00 -.468E+00 -.447E+00   -.699E-02 -.161E-01 -.256E-03
   -.343E+03 -.346E+03 -.425E+03   0.344E+03 0.347E+03 0.426E+03   -.320E+00 -.331E+00 -.686E+00   -.118E-01 -.979E-02 0.208E-02
   -.327E+01 -.651E+03 0.160E+02   0.328E+01 0.652E+03 -.160E+02   0.255E-02 -.707E+00 0.176E-02   -.716E-02 -.106E-01 0.564E-02
   0.757E+02 0.741E+02 -.247E+03   -.717E+02 -.695E+02 0.227E+03   -.275E+01 -.415E+01 0.134E+02   -.253E-02 -.160E-02 -.447E-02
   0.155E+03 0.184E+03 -.906E+03   -.168E+03 -.200E+03 0.969E+03   0.109E+02 0.139E+02 -.555E+02   -.237E-02 -.141E-02 -.644E-02
 -----------------------------------------------------------------------------------------------
   -.133E+02 -.153E+02 0.433E+02   0.313E-12 -.114E-11 -.682E-12   0.135E+02 0.155E+02 -.435E+02   -.188E+00 -.187E+00 0.198E+00
 
 
 POSITION                                       TOTAL-FORCE (eV/Angst)
 -----------------------------------------------------------------------------------
     13.37281      9.84801     12.50759         0.699701      1.113319      0.292483
     20.15199     16.62719     12.50759        -1.108208     -0.696609      0.291379
     16.62719      9.84801     12.50759        -0.697116      1.113472      0.283471
      9.84801     16.62719     12.50759         1.112866     -0.696155      0.281883
     15.00000     11.47521     10.20639        -0.000172      0.417388      1.277593
     15.00000     11.47521     19.79360        -0.187751      0.841895     -1.300800
     15.00000      8.28283     15.00000        -0.015121      1.506878      0.025107
      8.28283     15.00000     15.00000         1.503845     -0.011930      0.020846
     21.71717     15.00000     15.00000        -1.511089     -0.005950      0.004846
     15.00000     21.71717     15.00000        -0.004904     -1.511911      0.003149
     18.35858     11.64142     10.25025        -0.754789      0.751055      1.071952
     18.35858     11.64142     19.74975        -0.715442      0.736836     -1.071559
     11.64142     18.35858     10.25025         0.749861     -0.755094      1.072195
     11.64142     18.35858     19.74975         0.743478     -0.739073     -1.070260
     11.64142     11.64142     10.25025         0.754861      0.754614      1.071416
     11.64142     11.64142     19.74975         0.617491      0.651366     -1.098148
     18.35858     18.35858     10.25025        -0.748830     -0.750470      1.076358
     18.35858     18.35858     19.74975        -0.763262     -0.764091     -1.061466
     13.37281      9.84801     17.49241         0.712956      1.062256     -0.360265
     20.15199     16.62719     17.49241        -1.117124     -0.699632     -0.289838
     16.73751     13.26249     12.54279         0.111147     -0.108850     -0.157169
      9.84801     13.37281     12.50759         1.113999      0.699819      0.291800
     16.62719     20.15199     12.50759        -0.696213     -1.107474      0.291298
     16.62719      9.84801     17.49241        -0.690353      1.084859     -0.315486
      9.84801     16.62719     17.49241         1.094627     -0.696121     -0.302718
     20.15199     13.37281     12.50759        -1.109240      0.698415      0.288383
     13.37281     20.15199     12.50759         0.697851     -1.108371      0.288428
     13.26249     13.26249     12.54279        -0.112316     -0.111785     -0.156162
     15.00000     11.52498     15.00000        -0.001829     -0.230108      0.002974
     18.52479     15.00000     10.20639        -0.408286     -0.007924      1.279204
     18.52479     15.00000     19.79360        -0.337308      0.022895     -1.297237
     11.47521     15.00000     10.20640         0.416317     -0.000578      1.277145
     11.47521     15.00000     19.79360         0.499372     -0.019591     -1.297619
     11.49535     11.49535     15.00000         0.840812      0.844409      0.015176
     18.50465     18.50465     15.00000        -0.821232     -0.820216     -0.014411
     18.50465     11.49535     15.00000        -0.829011      0.834165      0.007463
     11.49535     18.50465     15.00000         0.832266     -0.828656      0.004702
     15.00000     15.00000     10.04368        -0.009175     -0.011856      1.180489
     15.00000     15.00000     19.95633         1.021914      1.484095     -2.101244
      9.84801     13.37281     17.49241         1.081377      0.714859     -0.334940
     16.62719     20.15199     17.49241        -0.698114     -1.118782     -0.291027
     16.73751     13.26249     17.45721         0.201545     -0.131533      0.086568
     13.26249     16.73751     12.54279        -0.110100      0.110319     -0.154770
     13.26249     13.26249     17.45721        -0.145454     -0.129159      0.174924
     20.15199     13.37281     17.49241        -1.109186      0.697030     -0.297629
     13.37281     20.15199     17.49241         0.696570     -1.109152     -0.298097
     16.73751     16.73751     12.54279         0.115015      0.113973     -0.149340
     11.52498     15.00000     15.00000        -0.227729     -0.004416      0.003953
     18.47502     15.00000     15.00000         0.223722      0.004131     -0.003567
     15.00000     18.52480     10.20639        -0.007545     -0.406854      1.279856
     15.00000     18.52480     19.79360         0.019043     -0.343147     -1.291401
     15.00000     15.00000     15.00000        -0.005553     -0.005421     -0.008003
     13.26249     16.73751     17.45721        -0.132144      0.186613      0.105997
     16.73751     16.73751     17.45721         0.134317      0.137483      0.133208
     15.00000     18.47502     15.00000         0.004181      0.222165     -0.001245
     13.91788     13.59505     20.39396         1.192933      0.392021     -6.204655
     13.70291     13.31594     21.46553        -2.117472     -2.265423      7.444810
 -----------------------------------------------------------------------------------
    total drift:                                0.006180      0.014389      0.004598


--------------------------------------------------------------------------------------------------------



  FREE ENERGIE OF THE ION-ELECTRON SYSTEM (eV)
  ---------------------------------------------------
  free  energy   TOTEN  =      -174.73717535 eV

  energy  without entropy=     -174.70411787  energy(sigma->0) =     -174.72891098
 


--------------------------------------------------------------------------------------------------------


    POTLOK:  cpu time   13.7744: real time   13.7743


--------------------------------------------------------------------------------------------------------


     LOOP+:  cpu time18011.8426: real time18012.5309
    4ORBIT:  cpu time    0.0000: real time    0.0000

 total amount of memory used by VASP MPI-rank0  5486942. kBytes
=======================================================================

   base      :      30000. kBytes
   nonlr-proj:      17127. kBytes
   fftplans  :     924480. kBytes
   grid      :    1872000. kBytes
   one-center:        886. kBytes
   wavefun   :    2642449. kBytes
 
  
  
 General timing and accounting informations for this job:
 ========================================================
  
                  Total CPU time used (sec):    18081.477
                            User time (sec):    17095.342
                          System time (sec):      986.134
                         Elapsed time (sec):    18082.206
  
                   Maximum memory used (kb):     7178540.
                   Average memory used (kb):           0.
  
                          Minor page faults:    812690846
                          Major page faults:            0
                 Voluntary context switches:          547
