<?xml version="1.0" encoding="ISO-8859-1"?>
<modeling>
 <generator>
  <i name="program" type="string">vasp </i>
  <i name="version" type="string">5.4.4.18Apr17-6-g9f103f2a35  </i>
  <i name="subversion" type="string">(build Sep 03 2018 23:53:05) complex            parallel </i>
  <i name="platform" type="string">LinuxIFC </i>
  <i name="date" type="string">2021 12 02 </i>
  <i name="time" type="string">16:40:00 </i>
 </generator>
 <incar>
  <i type="string" name="SYSTEM"> 6_Pd100_top_free_z(O)</i>
  <i type="int" name="ISTART">     0</i>
  <i type="string" name="PREC">normal   			! encut=max(enmax), ngx,y,z</i>
  <i type="string" name="ALGO"> Fast     			! Mix RMM-DIIS and Dav</i>
  <i type="logical" name="ADDGRID"> F  </i>
  <i type="int" name="ISPIN">     1</i>
  <i type="int" name="ICHARG">     2</i>
  <i type="int" name="NELM">   100</i>
  <i type="int" name="NELMIN">     6</i>
  <i type="int" name="IBRION">     2</i>
  <i name="EDIFF">      0.00010000</i>
  <i name="EDIFFG">     -0.05000000</i>
  <i type="int" name="NSW">     0</i>
  <i type="int" name="ISIF">     2</i>
  <i type="int" name="ISYM">     2</i>
  <i name="ENCUT">    400.00000000</i>
  <i type="string" name="LREAL"> Auto     			! Auto or A projection done</i>
  <i type="int" name="ISMEAR">     2</i>
  <i name="SIGMA">      0.20000000</i>
  <i type="logical" name="LWAVE"> F  </i>
  <i type="logical" name="LCHARG"> F  </i>
  <v type="int" name="KPOINT_BSE">    -1     0     0     0</v>
  <i type="int" name="MAXMEM"> 10000</i>
  <i type="int" name="NELM">   100</i>
  <i type="string" name="GGA"> RP         			! Revised PBE</i>
 </incar>
 <structure name="primitive_cell" >
  <crystal>
   <varray name="basis" >
    <v>      30.00000000       0.00000000       0.00000000 </v>
    <v>       0.00000000      30.00000000       0.00000000 </v>
    <v>       0.00000000       0.00000000      30.00000000 </v>
   </varray>
   <i name="volume">  27000.00000000 </i>
   <varray name="rec_basis" >
    <v>       0.03333333       0.00000000       0.00000000 </v>
    <v>       0.00000000       0.03333333       0.00000000 </v>
    <v>       0.00000000       0.00000000       0.03333333 </v>
   </varray>
  </crystal>
  <varray name="positions" >
   <v>       0.44576020       0.32826710       0.41691983 </v>
   <v>      -0.44576020       0.32826710       0.41691983 </v>
   <v>      -0.50000000       0.38250690       0.34021317 </v>
   <v>      -0.50000000       0.27609440      -0.50000000 </v>
   <v>       0.38804720       0.38804720       0.34167483 </v>
   <v>      -0.50000000       0.38416601      -0.50000000 </v>
   <v>       0.44208300       0.44208300       0.41809300 </v>
   <v>       0.38317830       0.38317830      -0.50000000 </v>
   <v>      -0.44208300       0.44208300       0.41809300 </v>
   <v>       0.44576020       0.32826710      -0.41691977 </v>
   <v>       0.32826705       0.44576024       0.41691983 </v>
   <v>      -0.38804720       0.38804720       0.34167483 </v>
   <v>      -0.38317830       0.38317830      -0.50000000 </v>
   <v>      -0.50000000      -0.50000000       0.33478917 </v>
   <v>      -0.50000000      -0.50000000      -0.50000000 </v>
   <v>      -0.44576020       0.32826710      -0.41691977 </v>
   <v>       0.38250685      -0.49999995       0.34021317 </v>
   <v>       0.44208300       0.44208300      -0.41809297 </v>
   <v>       0.38416599      -0.49999998      -0.50000000 </v>
   <v>      -0.44208300       0.44208300      -0.41809297 </v>
   <v>       0.44208298      -0.44208298       0.41809300 </v>
   <v>       0.32826705       0.44576024      -0.41691977 </v>
   <v>      -0.50000000       0.38250690      -0.34021320 </v>
   <v>       0.32826712      -0.44576022       0.41691983 </v>
   <v>      -0.38250685      -0.49999995       0.34021317 </v>
   <v>      -0.32826705       0.44576024       0.41691983 </v>
   <v>       0.27609443       0.49999998      -0.50000000 </v>
   <v>       0.38804720       0.38804720      -0.34167487 </v>
   <v>      -0.38416599      -0.49999998      -0.50000000 </v>
   <v>      -0.44208298      -0.44208298       0.41809300 </v>
   <v>       0.28352187      -0.44576783       0.45362277 </v>
   <v>       0.44208298      -0.44208298      -0.41809297 </v>
   <v>      -0.38804720       0.38804720      -0.34167487 </v>
   <v>       0.38804722      -0.38804722       0.34167483 </v>
   <v>       0.38250685      -0.49999995      -0.34021320 </v>
   <v>       0.32826712      -0.44576022      -0.41691977 </v>
   <v>      -0.32826705       0.44576024      -0.41691977 </v>
   <v>       0.50000000      -0.38250681       0.34021317 </v>
   <v>      -0.50000000      -0.38416596      -0.50000000 </v>
   <v>      -0.44208298      -0.44208298      -0.41809297 </v>
   <v>      -0.50000000      -0.50000000      -0.33478913 </v>
   <v>       0.38317828      -0.38317828      -0.50000000 </v>
   <v>       0.24781193      -0.43682177       0.44597243 </v>
   <v>      -0.32826712      -0.44576022       0.41691983 </v>
   <v>      -0.27609443       0.49999998      -0.50000000 </v>
   <v>      -0.38804722      -0.38804722       0.34167483 </v>
   <v>      -0.38250685      -0.49999995      -0.34021320 </v>
   <v>       0.44576027      -0.32826707       0.41691983 </v>
   <v>      -0.38317828      -0.38317828      -0.50000000 </v>
   <v>      -0.32826712      -0.44576022      -0.41691977 </v>
   <v>      -0.44576027      -0.32826707       0.41691983 </v>
   <v>       0.38804722      -0.38804722      -0.34167487 </v>
   <v>      -0.50000000      -0.38250681      -0.34021320 </v>
   <v>       0.44576027      -0.32826707      -0.41691977 </v>
   <v>      -0.44576027      -0.32826707      -0.41691977 </v>
   <v>      -0.50000000      -0.27609445       0.50000000 </v>
   <v>      -0.38804722      -0.38804722      -0.34167487 </v>
  </varray>
 </structure>
 <varray name="primitive_index" >
  <v type="int" >        1 </v>
  <v type="int" >        3 </v>
  <v type="int" >        5 </v>
  <v type="int" >        7 </v>
  <v type="int" >       15 </v>
  <v type="int" >       29 </v>
  <v type="int" >       28 </v>
  <v type="int" >       34 </v>
  <v type="int" >       21 </v>
  <v type="int" >       19 </v>
  <v type="int" >       22 </v>
  <v type="int" >       11 </v>
  <v type="int" >       36 </v>
  <v type="int" >       38 </v>
  <v type="int" >       52 </v>
  <v type="int" >       24 </v>
  <v type="int" >       32 </v>
  <v type="int" >       44 </v>
  <v type="int" >       48 </v>
  <v type="int" >       42 </v>
  <v type="int" >       43 </v>
  <v type="int" >       40 </v>
  <v type="int" >        6 </v>
  <v type="int" >        4 </v>
  <v type="int" >       30 </v>
  <v type="int" >       26 </v>
  <v type="int" >        8 </v>
  <v type="int" >       16 </v>
  <v type="int" >       49 </v>
  <v type="int" >       47 </v>
  <v type="int" >       56 </v>
  <v type="int" >       53 </v>
  <v type="int" >       12 </v>
  <v type="int" >       13 </v>
  <v type="int" >       33 </v>
  <v type="int" >       25 </v>
  <v type="int" >       45 </v>
  <v type="int" >       50 </v>
  <v type="int" >       55 </v>
  <v type="int" >       54 </v>
  <v type="int" >       39 </v>
  <v type="int" >       37 </v>
  <v type="int" >       57 </v>
  <v type="int" >        2 </v>
  <v type="int" >        9 </v>
  <v type="int" >       17 </v>
  <v type="int" >       31 </v>
  <v type="int" >       27 </v>
  <v type="int" >       35 </v>
  <v type="int" >       20 </v>
  <v type="int" >       23 </v>
  <v type="int" >       14 </v>
  <v type="int" >       51 </v>
  <v type="int" >       46 </v>
  <v type="int" >       41 </v>
  <v type="int" >       10 </v>
  <v type="int" >       18 </v>
 </varray>
 <kpoints>
  <generation param="Monkhorst-Pack">
   <v type="int" name="divisions">       1        1        1 </v>
   <v name="usershift">      0.00000000       0.00000000       0.00000000 </v>
   <v name="genvec1">      1.00000000       0.00000000       0.00000000 </v>
   <v name="genvec2">      0.00000000       1.00000000       0.00000000 </v>
   <v name="genvec3">      0.00000000       0.00000000       1.00000000 </v>
   <v name="shift">      0.00000000       0.00000000       0.00000000 </v>
  </generation>
  <varray name="kpointlist" >
   <v>       0.00000000       0.00000000       0.00000000 </v>
  </varray>
  <varray name="weights" >
   <v>       1.00000000 </v>
  </varray>
 </kpoints>
 <parameters>
  <separator name="general" >
   <i type="string" name="SYSTEM">6_Pd100_top_free_z(O)</i>
   <i type="logical" name="LCOMPAT"> F  </i>
  </separator>
  <separator name="electronic" >
   <i type="string" name="PREC">normal</i>
   <i name="ENMAX">    400.00000000</i>
   <i name="ENAUG">    644.87300000</i>
   <i name="EDIFF">      0.00010000</i>
   <i type="int" name="IALGO">    68</i>
   <i type="int" name="IWAVPR">    10</i>
   <i type="int" name="NBANDS">   336</i>
   <i name="NELECT">    560.00000000</i>
   <i type="int" name="TURBO">     0</i>
   <i type="int" name="IRESTART">     0</i>
   <i type="int" name="NREBOOT">     0</i>
   <i type="int" name="NMIN">     0</i>
   <i name="EREF">      0.00000000</i>
   <separator name="electronic smearing" >
    <i type="int" name="ISMEAR">     2</i>
    <i name="SIGMA">      0.20000000</i>
    <i name="KSPACING">      0.50000000</i>
    <i type="logical" name="KGAMMA"> T  </i>
   </separator>
   <separator name="electronic projectors" >
    <i type="logical" name="LREAL"> T  </i>
    <v name="ROPT">     -0.00050000     -0.00050000     -0.00050000</v>
    <i type="int" name="LMAXPAW">  -100</i>
    <i type="int" name="LMAXMIX">     2</i>
    <i type="logical" name="NLSPLINE"> F  </i>
   </separator>
   <separator name="electronic startup" >
    <i type="int" name="ISTART">     0</i>
    <i type="int" name="ICHARG">     2</i>
    <i type="int" name="INIWAV">     1</i>
   </separator>
   <separator name="electronic spin" >
    <i type="int" name="ISPIN">     1</i>
    <i type="logical" name="LNONCOLLINEAR"> F  </i>
    <v name="MAGMOM">      1.00000000      1.00000000      1.00000000      1.00000000      1.00000000      1.00000000      1.00000000      1.00000000      1.00000000      1.00000000      1.00000000      1.00000000      1.00000000      1.00000000      1.00000000      1.00000000      1.00000000      1.00000000      1.00000000      1.00000000
      1.00000000      1.00000000      1.00000000      1.00000000      1.00000000      1.00000000      1.00000000      1.00000000      1.00000000      1.00000000      1.00000000      1.00000000      1.00000000      1.00000000      1.00000000      1.00000000      1.00000000      1.00000000      1.00000000      1.00000000
      1.00000000      1.00000000      1.00000000      1.00000000      1.00000000      1.00000000      1.00000000      1.00000000      1.00000000      1.00000000      1.00000000      1.00000000      1.00000000      1.00000000      1.00000000      1.00000000      1.00000000</v>
    <i name="NUPDOWN">     -1.00000000</i>
    <i type="logical" name="LSORBIT"> F  </i>
    <v name="SAXIS">      0.00000000      0.00000000      1.00000000</v>
    <i type="logical" name="LSPIRAL"> F  </i>
    <v name="QSPIRAL">      0.00000000      0.00000000      0.00000000</v>
    <i type="logical" name="LZEROZ"> F  </i>
   </separator>
   <separator name="electronic exchange-correlation" >
    <i type="logical" name="LASPH"> F  </i>
    <i type="logical" name="LMETAGGA"> F  </i>
   </separator>
   <separator name="electronic convergence" >
    <i type="int" name="NELM">   100</i>
    <i type="int" name="NELMDL">    -5</i>
    <i type="int" name="NELMIN">     6</i>
    <i name="ENINI">    400.00000000</i>
    <separator name="electronic convergence detail" >
     <i type="logical" name="LDIAG"> T  </i>
     <i type="logical" name="LSUBROT"> F  </i>
     <i name="WEIMIN">      0.00000000</i>
     <i name="EBREAK">      0.00000007</i>
     <i name="DEPER">      0.30000000</i>
     <i type="int" name="NRMM">     4</i>
     <i name="TIME">      0.40000000</i>
    </separator>
   </separator>
   <separator name="electronic mixer" >
    <i name="AMIX">      0.40000000</i>
    <i name="BMIX">      1.00000000</i>
    <i name="AMIN">      0.10000000</i>
    <i name="AMIX_MAG">      1.60000000</i>
    <i name="BMIX_MAG">      1.00000000</i>
    <separator name="electronic mixer details" >
     <i type="int" name="IMIX">     4</i>
     <i type="logical" name="MIXFIRST"> F  </i>
     <i type="int" name="MAXMIX">   -45</i>
     <i name="WC">    100.00000000</i>
     <i type="int" name="INIMIX">     1</i>
     <i type="int" name="MIXPRE">     1</i>
     <i type="int" name="MREMOVE">     5</i>
    </separator>
   </separator>
   <separator name="electronic dipolcorrection" >
    <i type="logical" name="LDIPOL"> F  </i>
    <i type="logical" name="LMONO"> F  </i>
    <i type="int" name="IDIPOL">     0</i>
    <i name="EPSILON">      1.00000000</i>
    <v name="DIPOL">   -100.00000000   -100.00000000   -100.00000000</v>
    <i name="EFIELD">      0.00000000</i>
   </separator>
  </separator>
  <separator name="grids" >
   <i type="int" name="NGX">   150</i>
   <i type="int" name="NGY">   150</i>
   <i type="int" name="NGZ">   150</i>
   <i type="int" name="NGXF">   300</i>
   <i type="int" name="NGYF">   300</i>
   <i type="int" name="NGZF">   300</i>
   <i type="logical" name="ADDGRID"> F  </i>
  </separator>
  <separator name="ionic" >
   <i type="int" name="NSW">     0</i>
   <i type="int" name="IBRION">    -1</i>
   <i type="int" name="MDALGO">     0</i>
   <i type="int" name="ISIF">     2</i>
   <i name="PSTRESS">      0.00000000</i>
   <i name="EDIFFG">     -0.05000000</i>
   <i type="int" name="NFREE">     1</i>
   <i name="POTIM">      0.50000000</i>
   <i name="SMASS">     -3.00000000</i>
   <i name="SCALEE">      1.00000000</i>
  </separator>
  <separator name="ionic md" >
   <i name="TEBEG">      0.00010000</i>
   <i name="TEEND">      0.00010000</i>
   <i type="int" name="NBLOCK">     1</i>
   <i type="int" name="KBLOCK">     1</i>
   <i type="int" name="NPACO">   256</i>
   <i name="APACO">     16.00000000</i>
  </separator>
  <separator name="symmetry" >
   <i type="int" name="ISYM">     2</i>
   <i name="SYMPREC">      0.00001000</i>
  </separator>
  <separator name="dos" >
   <i type="int" name="LORBIT">     0</i>
   <v name="RWIGS">     -1.00000000     -1.00000000     -1.00000000</v>
   <i type="int" name="NEDOS">   301</i>
   <i name="EMIN">     10.00000000</i>
   <i name="EMAX">    -10.00000000</i>
   <i name="EFERMI">      0.00000000</i>
  </separator>
  <separator name="writing" >
   <i type="int" name="NWRITE">     2</i>
   <i type="logical" name="LWAVE"> F  </i>
   <i type="logical" name="LDOWNSAMPLE"> F  </i>
   <i type="logical" name="LCHARG"> F  </i>
   <i type="logical" name="LPARD"> F  </i>
   <i type="logical" name="LVTOT"> F  </i>
   <i type="logical" name="LVHAR"> F  </i>
   <i type="logical" name="LELF"> F  </i>
   <i type="logical" name="LOPTICS"> F  </i>
   <v name="STM">      0.00000000      0.00000000      0.00000000      0.00000000      0.00000000      0.00000000      0.00000000</v>
  </separator>
  <separator name="performance" >
   <i type="int" name="NPAR">     1</i>
   <i type="int" name="NSIM">     4</i>
   <i type="int" name="NBLK">    -1</i>
   <i type="logical" name="LPLANE"> T  </i>
   <i type="logical" name="LSCALAPACK"> T  </i>
   <i type="logical" name="LSCAAWARE"> F  </i>
   <i type="logical" name="LSCALU"> F  </i>
   <i type="logical" name="LASYNC"> F  </i>
   <i type="logical" name="LORBITALREAL"> F  </i>
  </separator>
  <separator name="miscellaneous" >
   <i type="int" name="IDIOT">     3</i>
   <i type="int" name="ISPECIAL">     0</i>
   <i type="logical" name="LMUSIC"> F  </i>
   <v name="POMASS">    106.42000000     12.01100000     16.00000000</v>
   <v name="DARWINR">      0.00000000      0.00000000      0.00000000</v>
   <v name="DARWINV">      1.00000000      1.00000000      1.00000000</v>
   <i type="logical" name="LCORR"> T  </i>
  </separator>
  <i type="logical" name="GGA_COMPAT"> T  </i>
  <i type="logical" name="LBERRY"> F  </i>
  <i type="int" name="ICORELEVEL">     0</i>
  <i type="logical" name="LDAU"> F  </i>
  <i type="int" name="I_CONSTRAINED_M">     0</i>
  <separator name="electronic exchange-correlation" >
   <i type="string" name="GGA">RP</i>
   <i type="int" name="VOSKOWN">     0</i>
   <i type="logical" name="LHFCALC"> F  </i>
   <i type="string" name="PRECFOCK"></i>
   <i type="logical" name="LSYMGRAD"> F  </i>
   <i type="logical" name="LHFONE"> F  </i>
   <i type="logical" name="LRHFCALC"> F  </i>
   <i type="logical" name="LTHOMAS"> F  </i>
   <i type="logical" name="LMODELHF"> F  </i>
   <i name="ENCUT4O">     -1.00000000</i>
   <i type="int" name="EXXOEP">     0</i>
   <i type="int" name="FOURORBIT">     0</i>
   <i name="AEXX">      0.00000000</i>
   <i name="HFALPHA">      0.00000000</i>
   <i name="MCALPHA">      0.00000000</i>
   <i name="ALDAX">      1.00000000</i>
   <i name="AGGAX">      1.00000000</i>
   <i name="ALDAC">      1.00000000</i>
   <i name="AGGAC">      1.00000000</i>
   <i type="int" name="NKREDX">     1</i>
   <i type="int" name="NKREDY">     1</i>
   <i type="int" name="NKREDZ">     1</i>
   <i type="logical" name="SHIFTRED"> F  </i>
   <i type="logical" name="ODDONLY"> F  </i>
   <i type="logical" name="EVENONLY"> F  </i>
   <i type="int" name="LMAXFOCK">     0</i>
   <i type="int" name="NMAXFOCKAE">     0</i>
   <i type="logical" name="LFOCKAEDFT"> F  </i>
   <i name="HFSCREEN">      0.00000000</i>
   <i name="HFSCREENC">      0.00000000</i>
   <i type="int" name="NBANDSGWLOW">     0</i>
  </separator>
  <separator name="vdW DFT" >
   <i type="logical" name="LUSE_VDW"> F  </i>
   <i name="Zab_VDW">     -0.84910000</i>
   <i name="PARAM1">      0.12340000</i>
   <i name="PARAM2">      1.00000000</i>
   <i name="PARAM3">      0.00000000</i>
  </separator>
  <separator name="model GW" >
   <i type="int" name="MODEL_GW">     0</i>
   <i name="MODEL_EPS0">    284.21052632</i>
   <i name="MODEL_ALPHA">      1.00000000</i>
  </separator>
  <separator name="linear response parameters" >
   <i type="logical" name="LEPSILON"> F  </i>
   <i type="logical" name="LRPA"> F  </i>
   <i type="logical" name="LNABLA"> F  </i>
   <i type="logical" name="LVEL"> F  </i>
   <i type="int" name="KINTER">     0</i>
   <i name="CSHIFT">      0.10000000</i>
   <i name="OMEGAMAX">     -1.00000000</i>
   <i name="DEG_THRESHOLD">      0.00200000</i>
   <i name="RTIME">     -0.10000000</i>
   <i name="WPLASMAI">      0.00000000</i>
   <v name="DFIELD">      0.00000000      0.00000000      0.00000000</v>
   <v name="WPLASMA">      0.00000000      0.00000000      0.00000000      0.00000000      0.00000000      0.00000000      0.00000000      0.00000000      0.00000000</v>
  </separator>
  <separator name="orbital magnetization" >
   <i type="logical" name="NUCIND"> F  </i>
   <v name="MAGPOS">      0.00000000      0.00000000      0.00000000</v>
   <i type="logical" name="LNICSALL"> T  </i>
   <i type="logical" name="ORBITALMAG"> F  </i>
   <i type="logical" name="LMAGBLOCH"> F  </i>
   <i type="logical" name="LCHIMAG"> F  </i>
   <i type="logical" name="LGAUGE"> T  </i>
   <i type="int" name="MAGATOM">     0</i>
   <v name="MAGDIPOL">      0.00000000      0.00000000      0.00000000</v>
   <v name="AVECCONST">      0.00000000      0.00000000      0.00000000</v>
  </separator>
  <separator name="response functions" >
   <i type="logical" name="LADDER"> F  </i>
   <i type="logical" name="LRPAFORCE"> F  </i>
   <i type="logical" name="LFXC"> F  </i>
   <i type="logical" name="LHARTREE"> T  </i>
   <i type="int" name="IBSE">     0</i>
   <v type="int" name="KPOINT">    -1     0     0     0</v>
   <i type="logical" name="LTCTE"> F  </i>
   <i type="logical" name="LTETE"> F  </i>
   <i type="logical" name="LTRIPLET"> F  </i>
   <i type="logical" name="LFXCEPS"> F  </i>
   <i type="logical" name="LFXHEG"> F  </i>
   <i type="int" name="NATURALO">     2</i>
   <i type="logical" name="L2ORDER"> F  </i>
   <i type="logical" name="LMP2LT"> F  </i>
   <i type="logical" name="LUSEW"> F  </i>
   <i name="ENCUTGW">     -2.00000000</i>
   <i name="ENCUTGWSOFT">     -2.00000000</i>
   <i name="ENCUTLF">     -1.00000000</i>
   <i type="int" name="LMAXMP2">    -1</i>
   <i name="SCISSOR">      0.00000000</i>
   <i type="int" name="NOMEGA">     0</i>
   <i type="int" name="NOMEGAR">     0</i>
   <i type="int" name="NBANDSGW">    -1</i>
   <i type="int" name="NBANDSO">    -1</i>
   <i type="int" name="NBANDSV">    -1</i>
   <i type="int" name="NELM">   100</i>
   <i type="int" name="NELMHF">     1</i>
   <i type="int" name="DIM">     3</i>
   <i type="int" name="ANTIRES">     0</i>
   <i name="OMEGAMAX">    -30.00000000</i>
   <i name="OMEGAMIN">    -30.00000000</i>
   <i name="OMEGATL">   -200.00000000</i>
   <i type="int" name="OMEGAGRID">   140</i>
   <i name="CSHIFT">     -0.10000000</i>
   <i type="logical" name="SELFENERGY"> F  </i>
   <i type="logical" name="LSPECTRAL"> F  </i>
   <i type="logical" name="LSPECTRALGW"> F  </i>
   <i type="logical" name="LSINGLES"> F  </i>
   <i type="logical" name="LFERMIGW"> F  </i>
   <i type="logical" name="ODDONLYGW"> F  </i>
   <i type="logical" name="EVENONLYGW"> F  </i>
   <i type="int" name="NKREDLFX">     1</i>
   <i type="int" name="NKREDLFY">     1</i>
   <i type="int" name="NKREDLFZ">     1</i>
   <i type="int" name="MAXMEM"> 10000</i>
   <i type="int" name="TELESCOPE">     0</i>
   <i type="int" name="TAUPAR">     1</i>
   <i type="int" name="OMEGAPAR">    -1</i>
   <i name="LAMBDA">      1.00000000</i>
  </separator>
  <separator name="External order field" >
   <i name="OFIELD_KAPPA">      0.00000000</i>
   <v name="OFIELD_K">      0.00000000      0.00000000      0.00000000</v>
   <i name="OFIELD_Q6_NEAR">      0.00000000</i>
   <i name="OFIELD_Q6_FAR">      0.00000000</i>
   <i name="OFIELD_A">      0.00000000</i>
  </separator>
 </parameters>
 <atominfo>
  <atoms>      57 </atoms>
  <types>       3 </types>
  <array name="atoms" >
   <dimension dim="1">ion</dimension>
   <field type="string">element</field>
   <field type="int">atomtype</field>
   <set>
    <rc><c>Pd</c><c>   1</c></rc>
    <rc><c>Pd</c><c>   1</c></rc>
    <rc><c>Pd</c><c>   1</c></rc>
    <rc><c>Pd</c><c>   1</c></rc>
    <rc><c>Pd</c><c>   1</c></rc>
    <rc><c>Pd</c><c>   1</c></rc>
    <rc><c>Pd</c><c>   1</c></rc>
    <rc><c>Pd</c><c>   1</c></rc>
    <rc><c>Pd</c><c>   1</c></rc>
    <rc><c>Pd</c><c>   1</c></rc>
    <rc><c>Pd</c><c>   1</c></rc>
    <rc><c>Pd</c><c>   1</c></rc>
    <rc><c>Pd</c><c>   1</c></rc>
    <rc><c>Pd</c><c>   1</c></rc>
    <rc><c>Pd</c><c>   1</c></rc>
    <rc><c>Pd</c><c>   1</c></rc>
    <rc><c>Pd</c><c>   1</c></rc>
    <rc><c>Pd</c><c>   1</c></rc>
    <rc><c>Pd</c><c>   1</c></rc>
    <rc><c>Pd</c><c>   1</c></rc>
    <rc><c>Pd</c><c>   1</c></rc>
    <rc><c>Pd</c><c>   1</c></rc>
    <rc><c>Pd</c><c>   1</c></rc>
    <rc><c>Pd</c><c>   1</c></rc>
    <rc><c>Pd</c><c>   1</c></rc>
    <rc><c>Pd</c><c>   1</c></rc>
    <rc><c>Pd</c><c>   1</c></rc>
    <rc><c>Pd</c><c>   1</c></rc>
    <rc><c>Pd</c><c>   1</c></rc>
    <rc><c>Pd</c><c>   1</c></rc>
    <rc><c>Pd</c><c>   1</c></rc>
    <rc><c>Pd</c><c>   1</c></rc>
    <rc><c>Pd</c><c>   1</c></rc>
    <rc><c>Pd</c><c>   1</c></rc>
    <rc><c>Pd</c><c>   1</c></rc>
    <rc><c>Pd</c><c>   1</c></rc>
    <rc><c>Pd</c><c>   1</c></rc>
    <rc><c>Pd</c><c>   1</c></rc>
    <rc><c>Pd</c><c>   1</c></rc>
    <rc><c>Pd</c><c>   1</c></rc>
    <rc><c>Pd</c><c>   1</c></rc>
    <rc><c>Pd</c><c>   1</c></rc>
    <rc><c>Pd</c><c>   1</c></rc>
    <rc><c>Pd</c><c>   1</c></rc>
    <rc><c>Pd</c><c>   1</c></rc>
    <rc><c>Pd</c><c>   1</c></rc>
    <rc><c>Pd</c><c>   1</c></rc>
    <rc><c>Pd</c><c>   1</c></rc>
    <rc><c>Pd</c><c>   1</c></rc>
    <rc><c>Pd</c><c>   1</c></rc>
    <rc><c>Pd</c><c>   1</c></rc>
    <rc><c>Pd</c><c>   1</c></rc>
    <rc><c>Pd</c><c>   1</c></rc>
    <rc><c>Pd</c><c>   1</c></rc>
    <rc><c>Pd</c><c>   1</c></rc>
    <rc><c>C </c><c>   2</c></rc>
    <rc><c>O </c><c>   3</c></rc>
   </set>
  </array>
  <array name="atomtypes" >
   <dimension dim="1">type</dimension>
   <field type="int">atomspertype</field>
   <field type="string">element</field>
   <field>mass</field>
   <field>valence</field>
   <field type="string">pseudopotential</field>
   <set>
    <rc><c>  55</c><c>Pd</c><c>    106.42000000</c><c>     10.00000000</c><c>  PAW_PBE Pd 04Jan2005                  </c></rc>
    <rc><c>   1</c><c>C </c><c>     12.01100000</c><c>      4.00000000</c><c>  PAW_PBE C 08Apr2002                   </c></rc>
    <rc><c>   1</c><c>O </c><c>     16.00000000</c><c>      6.00000000</c><c>  PAW_PBE O 08Apr2002                   </c></rc>
   </set>
  </array>
 </atominfo>
 <structure name="initialpos" >
  <crystal>
   <varray name="basis" >
    <v>      30.00000000       0.00000000       0.00000000 </v>
    <v>       0.00000000      30.00000000       0.00000000 </v>
    <v>       0.00000000       0.00000000      30.00000000 </v>
   </varray>
   <i name="volume">  27000.00000000 </i>
   <varray name="rec_basis" >
    <v>       0.03333333       0.00000000       0.00000000 </v>
    <v>       0.00000000       0.03333333       0.00000000 </v>
    <v>       0.00000000       0.00000000       0.03333333 </v>
   </varray>
  </crystal>
  <varray name="positions" >
   <v>       0.44576020       0.32826710       0.41691983 </v>
   <v>       0.67173288       0.55423978       0.41691983 </v>
   <v>       0.55423980       0.32826710       0.41691983 </v>
   <v>       0.32826712       0.55423978       0.41691983 </v>
   <v>       0.50000000       0.38250690       0.34021317 </v>
   <v>       0.50000000       0.38250690       0.65978680 </v>
   <v>       0.50000000       0.27609440       0.50000000 </v>
   <v>       0.27609443       0.49999998       0.50000000 </v>
   <v>       0.72390557       0.49999998       0.50000000 </v>
   <v>       0.50000000       0.72390555       0.50000000 </v>
   <v>       0.61195280       0.38804720       0.34167483 </v>
   <v>       0.61195280       0.38804720       0.65832513 </v>
   <v>       0.38804722       0.61195278       0.34167483 </v>
   <v>       0.38804722       0.61195278       0.65832513 </v>
   <v>       0.38804720       0.38804720       0.34167483 </v>
   <v>       0.38804720       0.38804720       0.65832513 </v>
   <v>       0.61195278       0.61195278       0.34167483 </v>
   <v>       0.61195278       0.61195278       0.65832513 </v>
   <v>       0.44576020       0.32826710       0.58308023 </v>
   <v>       0.67173288       0.55423978       0.58308023 </v>
   <v>       0.55791699       0.44208301       0.41809300 </v>
   <v>       0.32826705       0.44576024       0.41691983 </v>
   <v>       0.55423973       0.67173293       0.41691983 </v>
   <v>       0.55423980       0.32826710       0.58308023 </v>
   <v>       0.32826712       0.55423978       0.58308023 </v>
   <v>       0.67173295       0.44576024       0.41691983 </v>
   <v>       0.44576027       0.67173293       0.41691983 </v>
   <v>       0.44208301       0.44208301       0.41809300 </v>
   <v>       0.50000000       0.38416601       0.50000000 </v>
   <v>       0.61749315       0.50000005       0.34021317 </v>
   <v>       0.61749315       0.50000005       0.65978680 </v>
   <v>       0.38250685       0.50000005       0.34021317 </v>
   <v>       0.38250685       0.50000005       0.65978680 </v>
   <v>       0.38317830       0.38317830       0.50000000 </v>
   <v>       0.61682172       0.61682172       0.50000000 </v>
   <v>       0.61682170       0.38317830       0.50000000 </v>
   <v>       0.38317828       0.61682172       0.50000000 </v>
   <v>       0.50000000       0.50000000       0.33478917 </v>
   <v>       0.50000000       0.50000000       0.66521087 </v>
   <v>       0.32826705       0.44576024       0.58308023 </v>
   <v>       0.55423973       0.67173293       0.58308023 </v>
   <v>       0.55791699       0.44208301       0.58190703 </v>
   <v>       0.44208298       0.55791702       0.41809300 </v>
   <v>       0.44208301       0.44208301       0.58190703 </v>
   <v>       0.67173295       0.44576024       0.58308023 </v>
   <v>       0.44576027       0.67173293       0.58308023 </v>
   <v>       0.55791702       0.55791702       0.41809300 </v>
   <v>       0.38416599       0.50000002       0.50000000 </v>
   <v>       0.61583401       0.50000002       0.50000000 </v>
   <v>       0.50000000       0.61749319       0.34021317 </v>
   <v>       0.50000000       0.61749319       0.65978680 </v>
   <v>       0.50000000       0.50000000       0.50000000 </v>
   <v>       0.44208298       0.55791702       0.58190703 </v>
   <v>       0.55791702       0.55791702       0.58190703 </v>
   <v>       0.50000000       0.61583404       0.50000000 </v>
   <v>       0.28352187       0.55423217       0.45362277 </v>
   <v>       0.24781193       0.56317823       0.44597243 </v>
  </varray>
  <varray name="selective"  type="logical" >
   <v type="logical" >  F  F  F </v>
   <v type="logical" >  F  F  F </v>
   <v type="logical" >  F  F  F </v>
   <v type="logical" >  F  F  F </v>
   <v type="logical" >  F  F  F </v>
   <v type="logical" >  F  F  F </v>
   <v type="logical" >  F  F  F </v>
   <v type="logical" >  F  F  F </v>
   <v type="logical" >  F  F  F </v>
   <v type="logical" >  F  F  F </v>
   <v type="logical" >  F  F  F </v>
   <v type="logical" >  F  F  F </v>
   <v type="logical" >  F  F  F </v>
   <v type="logical" >  F  F  F </v>
   <v type="logical" >  F  F  F </v>
   <v type="logical" >  F  F  F </v>
   <v type="logical" >  F  F  F </v>
   <v type="logical" >  F  F  F </v>
   <v type="logical" >  F  F  F </v>
   <v type="logical" >  F  F  F </v>
   <v type="logical" >  F  F  F </v>
   <v type="logical" >  F  F  F </v>
   <v type="logical" >  F  F  F </v>
   <v type="logical" >  F  F  F </v>
   <v type="logical" >  F  F  F </v>
   <v type="logical" >  F  F  F </v>
   <v type="logical" >  F  F  F </v>
   <v type="logical" >  F  F  F </v>
   <v type="logical" >  F  F  F </v>
   <v type="logical" >  F  F  F </v>
   <v type="logical" >  F  F  F </v>
   <v type="logical" >  F  F  F </v>
   <v type="logical" >  F  F  F </v>
   <v type="logical" >  F  F  F </v>
   <v type="logical" >  F  F  F </v>
   <v type="logical" >  F  F  F </v>
   <v type="logical" >  F  F  F </v>
   <v type="logical" >  F  F  F </v>
   <v type="logical" >  F  F  F </v>
   <v type="logical" >  F  F  F </v>
   <v type="logical" >  F  F  F </v>
   <v type="logical" >  F  F  F </v>
   <v type="logical" >  F  F  F </v>
   <v type="logical" >  F  F  F </v>
   <v type="logical" >  F  F  F </v>
   <v type="logical" >  F  F  F </v>
   <v type="logical" >  F  F  F </v>
   <v type="logical" >  F  F  F </v>
   <v type="logical" >  F  F  F </v>
   <v type="logical" >  F  F  F </v>
   <v type="logical" >  F  F  F </v>
   <v type="logical" >  F  F  F </v>
   <v type="logical" >  F  F  F </v>
   <v type="logical" >  F  F  F </v>
   <v type="logical" >  F  F  F </v>
   <v type="logical" >  F  F  F </v>
   <v type="logical" >  F  F  F </v>
  </varray>
  <nose>
   <v>      -3.00000000       0.00000000       0.00010000       0.00010000 </v>
  </nose>
 </structure>
 <calculation>
  <scstep>
   <time name="dav">  367.14  367.21</time>
   <time name="total">  381.63  381.71</time>
   <energy>
    <i name="alphaZ">     75.25431677 </i>
    <i name="ewald"> 138995.15935939 </i>
    <i name="hartreedc">-182343.72723016 </i>
    <i name="XCdc">  -1701.80318350 </i>
    <i name="pawpsdc">  44873.02882129 </i>
    <i name="pawaedc"> -41398.84523641 </i>
    <i name="eentropy">      0.00181645 </i>
    <i name="bandstr">    815.97403890 </i>
    <i name="atom">  45086.50549395 </i>
    <i name="e_fr_energy">   4401.54819668 </i>
    <i name="e_wo_entrp">   4401.54638023 </i>
    <i name="e_0_energy">   4401.54774257 </i>
   </energy>
  </scstep>
  <scstep>
   <time name="dav">  589.27  589.28</time>
   <time name="total">  589.27  589.28</time>
   <energy>
    <i name="e_fr_energy">   2012.72833522 </i>
    <i name="e_wo_entrp">   2012.73732720 </i>
    <i name="e_0_energy">   2012.73058322 </i>
   </energy>
  </scstep>
  <scstep>
   <time name="dav">  500.11  500.12</time>
   <time name="total">  500.11  500.12</time>
   <energy>
    <i name="e_fr_energy">    231.15001499 </i>
    <i name="e_wo_entrp">    231.10893838 </i>
    <i name="e_0_energy">    231.13974584 </i>
   </energy>
  </scstep>
  <scstep>
   <time name="dav">  421.81  421.82</time>
   <time name="total">  421.81  421.82</time>
   <energy>
    <i name="e_fr_energy">   -135.95865110 </i>
    <i name="e_wo_entrp">   -135.93628757 </i>
    <i name="e_0_energy">   -135.95306021 </i>
   </energy>
  </scstep>
  <scstep>
   <time name="dav">  519.99  520.00</time>
   <time name="total">  546.21  546.22</time>
   <energy>
    <i name="e_fr_energy">   -180.58518475 </i>
    <i name="e_wo_entrp">   -181.07480995 </i>
    <i name="e_0_energy">   -180.70759105 </i>
   </energy>
  </scstep>
  <scstep>
   <time name="diag">   67.81   67.81</time>
   <time name="diis">  193.28  193.29</time>
   <time name="orth">   13.89   13.89</time>
   <time name="total">  314.62  314.62</time>
   <energy>
    <i name="e_fr_energy">   -179.48720760 </i>
    <i name="e_wo_entrp">   -179.24590035 </i>
    <i name="e_0_energy">   -179.42688079 </i>
   </energy>
  </scstep>
  <scstep>
   <time name="diag">   67.70   67.70</time>
   <time name="diis">  219.16  219.16</time>
   <time name="orth">   13.67   13.67</time>
   <time name="total">  340.25  340.26</time>
   <energy>
    <i name="e_fr_energy">   -182.39820012 </i>
    <i name="e_wo_entrp">   -182.23327175 </i>
    <i name="e_0_energy">   -182.35696803 </i>
   </energy>
  </scstep>
  <scstep>
   <time name="diag">   67.56   67.56</time>
   <time name="diis">  197.92  197.92</time>
   <time name="orth">   13.70   13.71</time>
   <time name="total">  317.84  317.85</time>
   <energy>
    <i name="e_fr_energy">   -184.89091776 </i>
    <i name="e_wo_entrp">   -184.91484513 </i>
    <i name="e_0_energy">   -184.89689960 </i>
   </energy>
  </scstep>
  <scstep>
   <time name="diag">   67.50   67.51</time>
   <time name="diis">  208.60  208.60</time>
   <time name="orth">   13.56   13.56</time>
   <time name="total">  328.30  328.31</time>
   <energy>
    <i name="e_fr_energy">   -183.28989804 </i>
    <i name="e_wo_entrp">   -183.11410589 </i>
    <i name="e_0_energy">   -183.24595000 </i>
   </energy>
  </scstep>
  <scstep>
   <time name="diag">   67.51   67.51</time>
   <time name="diis">  198.35  198.35</time>
   <time name="orth">   13.17   13.17</time>
   <time name="total">  318.55  318.56</time>
   <energy>
    <i name="e_fr_energy">   -180.49460359 </i>
    <i name="e_wo_entrp">   -180.34741437 </i>
    <i name="e_0_energy">   -180.45780628 </i>
   </energy>
  </scstep>
  <scstep>
   <time name="diag">   67.35   67.35</time>
   <time name="diis">  194.15  194.16</time>
   <time name="orth">   13.05   13.05</time>
   <time name="total">  314.15  314.16</time>
   <energy>
    <i name="e_fr_energy">   -177.58955435 </i>
    <i name="e_wo_entrp">   -177.54650444 </i>
    <i name="e_0_energy">   -177.57879187 </i>
   </energy>
  </scstep>
  <scstep>
   <time name="diag">   68.31   68.33</time>
   <time name="diis">  197.08  197.09</time>
   <time name="orth">   13.07   13.07</time>
   <time name="total">  317.79  317.82</time>
   <energy>
    <i name="e_fr_energy">   -177.69236848 </i>
    <i name="e_wo_entrp">   -177.63203359 </i>
    <i name="e_0_energy">   -177.67728475 </i>
   </energy>
  </scstep>
  <scstep>
   <time name="diag">   67.17   67.18</time>
   <time name="diis">  196.54  196.54</time>
   <time name="orth">   13.72   13.72</time>
   <time name="total">  316.95  316.95</time>
   <energy>
    <i name="e_fr_energy">   -178.09643961 </i>
    <i name="e_wo_entrp">   -178.09561980 </i>
    <i name="e_0_energy">   -178.09623466 </i>
   </energy>
  </scstep>
  <scstep>
   <time name="diag">   67.88   67.89</time>
   <time name="diis">  195.13  195.14</time>
   <time name="orth">   13.84   13.84</time>
   <time name="total">  316.52  316.53</time>
   <energy>
    <i name="e_fr_energy">   -177.30924115 </i>
    <i name="e_wo_entrp">   -177.27603787 </i>
    <i name="e_0_energy">   -177.30094033 </i>
   </energy>
  </scstep>
  <scstep>
   <time name="diag">   67.80   67.80</time>
   <time name="diis">  194.15  194.15</time>
   <time name="orth">   13.59   13.59</time>
   <time name="total">  315.60  315.61</time>
   <energy>
    <i name="e_fr_energy">   -177.09346217 </i>
    <i name="e_wo_entrp">   -177.06386129 </i>
    <i name="e_0_energy">   -177.08606195 </i>
   </energy>
  </scstep>
  <scstep>
   <time name="diag">   68.27   68.27</time>
   <time name="diis">  193.09  193.10</time>
   <time name="orth">   13.91   13.91</time>
   <time name="total">  315.53  315.54</time>
   <energy>
    <i name="e_fr_energy">   -176.19852856 </i>
    <i name="e_wo_entrp">   -176.28059605 </i>
    <i name="e_0_energy">   -176.21904543 </i>
   </energy>
  </scstep>
  <scstep>
   <time name="diag">   68.60   68.60</time>
   <time name="diis">  188.18  188.18</time>
   <time name="orth">   13.95   13.95</time>
   <time name="total">  311.07  311.07</time>
   <energy>
    <i name="e_fr_energy">   -175.85363253 </i>
    <i name="e_wo_entrp">   -175.93725137 </i>
    <i name="e_0_energy">   -175.87453724 </i>
   </energy>
  </scstep>
  <scstep>
   <time name="diag">   68.01   68.01</time>
   <time name="diis">  191.26  191.27</time>
   <time name="orth">   13.52   13.52</time>
   <time name="total">  313.35  313.37</time>
   <energy>
    <i name="e_fr_energy">   -175.55096549 </i>
    <i name="e_wo_entrp">   -175.58891493 </i>
    <i name="e_0_energy">   -175.56045285 </i>
   </energy>
  </scstep>
  <scstep>
   <time name="diag">   67.54   67.54</time>
   <time name="diis">  187.77  187.78</time>
   <time name="orth">   13.73   13.73</time>
   <time name="total">  309.16  309.17</time>
   <energy>
    <i name="e_fr_energy">   -175.44710474 </i>
    <i name="e_wo_entrp">   -175.42405005 </i>
    <i name="e_0_energy">   -175.44134106 </i>
   </energy>
  </scstep>
  <scstep>
   <time name="diag">   68.25   68.25</time>
   <time name="diis">  187.36  187.36</time>
   <time name="orth">   13.80   13.80</time>
   <time name="total">  309.70  309.70</time>
   <energy>
    <i name="e_fr_energy">   -175.34180193 </i>
    <i name="e_wo_entrp">   -175.30943443 </i>
    <i name="e_0_energy">   -175.33371005 </i>
   </energy>
  </scstep>
  <scstep>
   <time name="diag">   69.20   69.20</time>
   <time name="diis">  187.46  187.50</time>
   <time name="orth">   14.03   14.03</time>
   <time name="total">  311.37  311.43</time>
   <energy>
    <i name="e_fr_energy">   -175.31826499 </i>
    <i name="e_wo_entrp">   -175.27177774 </i>
    <i name="e_0_energy">   -175.30664318 </i>
   </energy>
  </scstep>
  <scstep>
   <time name="diag">   68.41   68.42</time>
   <time name="diis">  186.21  186.23</time>
   <time name="orth">   13.81   13.81</time>
   <time name="total">  308.89  308.92</time>
   <energy>
    <i name="e_fr_energy">   -175.18356678 </i>
    <i name="e_wo_entrp">   -175.16719721 </i>
    <i name="e_0_energy">   -175.17947439 </i>
   </energy>
  </scstep>
  <scstep>
   <time name="diag">   68.22   68.23</time>
   <time name="diis">  185.34  185.36</time>
   <time name="orth">   13.64   13.64</time>
   <time name="total">  307.39  307.43</time>
   <energy>
    <i name="e_fr_energy">   -175.09871324 </i>
    <i name="e_wo_entrp">   -175.08010413 </i>
    <i name="e_0_energy">   -175.09406096 </i>
   </energy>
  </scstep>
  <scstep>
   <time name="diag">   68.99   68.99</time>
   <time name="diis">  185.54  185.56</time>
   <time name="orth">   13.87   13.87</time>
   <time name="total">  309.11  309.15</time>
   <energy>
    <i name="e_fr_energy">   -175.04907110 </i>
    <i name="e_wo_entrp">   -175.02930314 </i>
    <i name="e_0_energy">   -175.04412911 </i>
   </energy>
  </scstep>
  <scstep>
   <time name="diag">   68.64   68.65</time>
   <time name="diis">  186.12  186.13</time>
   <time name="orth">   13.69   13.69</time>
   <time name="total">  308.64  308.67</time>
   <energy>
    <i name="e_fr_energy">   -175.05635779 </i>
    <i name="e_wo_entrp">   -175.03874647 </i>
    <i name="e_0_energy">   -175.05195496 </i>
   </energy>
  </scstep>
  <scstep>
   <time name="diag">   68.36   68.36</time>
   <time name="diis">  184.90  184.92</time>
   <time name="orth">   13.72   13.72</time>
   <time name="total">  307.55  307.59</time>
   <energy>
    <i name="e_fr_energy">   -174.99885240 </i>
    <i name="e_wo_entrp">   -174.96249674 </i>
    <i name="e_0_energy">   -174.98976349 </i>
   </energy>
  </scstep>
  <scstep>
   <time name="diag">   68.91   68.91</time>
   <time name="diis">  185.01  185.02</time>
   <time name="orth">   13.71   13.71</time>
   <time name="total">  308.11  308.13</time>
   <energy>
    <i name="e_fr_energy">   -174.98322475 </i>
    <i name="e_wo_entrp">   -174.93220344 </i>
    <i name="e_0_energy">   -174.97046942 </i>
   </energy>
  </scstep>
  <scstep>
   <time name="diag">   68.79   68.80</time>
   <time name="diis">  183.99  184.00</time>
   <time name="orth">   13.52   13.52</time>
   <time name="total">  306.80  306.83</time>
   <energy>
    <i name="e_fr_energy">   -174.97225756 </i>
    <i name="e_wo_entrp">   -174.91514352 </i>
    <i name="e_0_energy">   -174.95797905 </i>
   </energy>
  </scstep>
  <scstep>
   <time name="diag">   66.87   66.88</time>
   <time name="diis">  181.05  181.05</time>
   <time name="orth">   13.54   13.54</time>
   <time name="total">  301.93  301.93</time>
   <energy>
    <i name="e_fr_energy">   -174.96754011 </i>
    <i name="e_wo_entrp">   -174.91382273 </i>
    <i name="e_0_energy">   -174.95411076 </i>
   </energy>
  </scstep>
  <scstep>
   <time name="diag">   68.98   68.98</time>
   <time name="diis">  182.32  182.32</time>
   <time name="orth">   13.79   13.79</time>
   <time name="total">  306.59  306.60</time>
   <energy>
    <i name="e_fr_energy">   -174.96561638 </i>
    <i name="e_wo_entrp">   -174.92035638 </i>
    <i name="e_0_energy">   -174.95430138 </i>
   </energy>
  </scstep>
  <scstep>
   <time name="diag">   69.03   69.03</time>
   <time name="diis">  181.85  181.85</time>
   <time name="orth">   13.79   13.79</time>
   <time name="total">  306.26  306.26</time>
   <energy>
    <i name="e_fr_energy">   -174.96096100 </i>
    <i name="e_wo_entrp">   -174.91535293 </i>
    <i name="e_0_energy">   -174.94955898 </i>
   </energy>
  </scstep>
  <scstep>
   <time name="diag">   68.06   68.06</time>
   <time name="diis">  181.90  181.90</time>
   <time name="orth">   13.47   13.47</time>
   <time name="total">  304.95  304.95</time>
   <energy>
    <i name="e_fr_energy">   -174.96142259 </i>
    <i name="e_wo_entrp">   -174.91248347 </i>
    <i name="e_0_energy">   -174.94918781 </i>
   </energy>
  </scstep>
  <scstep>
   <time name="diag">   67.34   67.34</time>
   <time name="diis">  183.44  183.44</time>
   <time name="orth">   13.63   13.63</time>
   <time name="total">  305.21  305.22</time>
   <energy>
    <i name="e_fr_energy">   -174.95956142 </i>
    <i name="e_wo_entrp">   -174.91272664 </i>
    <i name="e_0_energy">   -174.94785273 </i>
   </energy>
  </scstep>
  <scstep>
   <time name="diag">   67.59   67.59</time>
   <time name="diis">  182.20  182.20</time>
   <time name="orth">   13.63   13.63</time>
   <time name="total">  304.90  304.91</time>
   <energy>
    <i name="e_fr_energy">   -174.96041680 </i>
    <i name="e_wo_entrp">   -174.91235088 </i>
    <i name="e_0_energy">   -174.94840032 </i>
   </energy>
  </scstep>
  <scstep>
   <time name="diag">   68.06   68.06</time>
   <time name="diis">  181.33  181.33</time>
   <time name="orth">   13.63   13.63</time>
   <time name="total">  304.35  304.36</time>
   <energy>
    <i name="e_fr_energy">   -174.96164799 </i>
    <i name="e_wo_entrp">   -174.91662234 </i>
    <i name="e_0_energy">   -174.95039157 </i>
   </energy>
  </scstep>
  <scstep>
   <time name="diag">   67.81   67.81</time>
   <time name="diis">  180.62  180.62</time>
   <time name="orth">   13.67   13.67</time>
   <time name="total">  303.72  303.72</time>
   <energy>
    <i name="e_fr_energy">   -174.96323998 </i>
    <i name="e_wo_entrp">   -174.91539307 </i>
    <i name="e_0_energy">   -174.95127825 </i>
   </energy>
  </scstep>
  <scstep>
   <time name="diag">   67.84   67.84</time>
   <time name="diis">  179.38  179.39</time>
   <time name="orth">   13.42   13.42</time>
   <time name="total">  302.32  302.32</time>
   <energy>
    <i name="e_fr_energy">   -174.96555884 </i>
    <i name="e_wo_entrp">   -174.91639429 </i>
    <i name="e_0_energy">   -174.95326770 </i>
   </energy>
  </scstep>
  <scstep>
   <time name="diag">   68.98   68.98</time>
   <time name="diis">  146.69  146.69</time>
   <time name="orth">   13.72   13.72</time>
   <time name="total">  271.30  271.31</time>
   <energy>
    <i name="e_fr_energy">   -174.96739643 </i>
    <i name="e_wo_entrp">   -174.91807267 </i>
    <i name="e_0_energy">   -174.95506549 </i>
   </energy>
  </scstep>
  <scstep>
   <time name="diag">   68.67   68.67</time>
   <time name="diis">  178.26  178.27</time>
   <time name="orth">   14.00   14.00</time>
   <time name="total">  302.51  302.53</time>
   <energy>
    <i name="e_fr_energy">   -174.97165625 </i>
    <i name="e_wo_entrp">   -174.92334321 </i>
    <i name="e_0_energy">   -174.95957799 </i>
   </energy>
  </scstep>
  <scstep>
   <time name="diag">   67.73   67.73</time>
   <time name="diis">  148.47  148.47</time>
   <time name="orth">   13.63   13.63</time>
   <time name="total">  271.89  271.90</time>
   <energy>
    <i name="e_fr_energy">   -174.97373268 </i>
    <i name="e_wo_entrp">   -174.92526189 </i>
    <i name="e_0_energy">   -174.96161498 </i>
   </energy>
  </scstep>
  <scstep>
   <time name="diag">   67.52   67.52</time>
   <time name="diis">  129.85  129.85</time>
   <time name="orth">   13.55   13.55</time>
   <time name="total">  252.68  252.69</time>
   <energy>
    <i name="e_fr_energy">   -174.97558577 </i>
    <i name="e_wo_entrp">   -174.92735107 </i>
    <i name="e_0_energy">   -174.96352710 </i>
   </energy>
  </scstep>
  <scstep>
   <time name="diag">   68.91   68.91</time>
   <time name="diis">  150.00  150.00</time>
   <time name="orth">   13.66   13.66</time>
   <time name="total">  274.78  274.78</time>
   <energy>
    <i name="e_fr_energy">   -174.97844091 </i>
    <i name="e_wo_entrp">   -174.93021586 </i>
    <i name="e_0_energy">   -174.96638465 </i>
   </energy>
  </scstep>
  <scstep>
   <time name="diag">   68.95   68.95</time>
   <time name="diis">  118.16  118.16</time>
   <time name="orth">   13.37   13.37</time>
   <time name="total">  243.63  243.64</time>
   <energy>
    <i name="e_fr_energy">   -174.97935319 </i>
    <i name="e_wo_entrp">   -174.93075328 </i>
    <i name="e_0_energy">   -174.96720321 </i>
   </energy>
  </scstep>
  <scstep>
   <time name="diag">   67.77   67.77</time>
   <time name="diis">  119.19  119.19</time>
   <time name="orth">   14.02   14.02</time>
   <time name="total">  243.95  243.96</time>
   <energy>
    <i name="e_fr_energy">   -174.98091730 </i>
    <i name="e_wo_entrp">   -174.93257802 </i>
    <i name="e_0_energy">   -174.96883248 </i>
   </energy>
  </scstep>
  <scstep>
   <time name="diag">   67.47   67.48</time>
   <time name="diis">  116.19  116.19</time>
   <time name="orth">   13.90   13.90</time>
   <time name="total">  240.50  240.50</time>
   <energy>
    <i name="e_fr_energy">   -174.98206930 </i>
    <i name="e_wo_entrp">   -174.93441888 </i>
    <i name="e_0_energy">   -174.97015670 </i>
   </energy>
  </scstep>
  <scstep>
   <time name="diag">   67.48   67.48</time>
   <time name="diis">  111.33  111.33</time>
   <time name="orth">   13.29   13.29</time>
   <time name="total">  234.44  234.45</time>
   <energy>
    <i name="e_fr_energy">   -174.98285680 </i>
    <i name="e_wo_entrp">   -174.93515430 </i>
    <i name="e_0_energy">   -174.97093118 </i>
   </energy>
  </scstep>
  <scstep>
   <time name="diag">   67.23   67.23</time>
   <time name="diis">  113.98  113.98</time>
   <time name="orth">   13.59   13.59</time>
   <time name="total">  237.43  237.43</time>
   <energy>
    <i name="e_fr_energy">   -174.98402635 </i>
    <i name="e_wo_entrp">   -174.93642514 </i>
    <i name="e_0_energy">   -174.97212605 </i>
   </energy>
  </scstep>
  <scstep>
   <time name="diag">   68.27   68.27</time>
   <time name="diis">  115.01  115.01</time>
   <time name="orth">   13.52   13.52</time>
   <time name="total">  239.48  239.48</time>
   <energy>
    <i name="e_fr_energy">   -174.98452886 </i>
    <i name="e_wo_entrp">   -174.93657711 </i>
    <i name="e_0_energy">   -174.97254092 </i>
   </energy>
  </scstep>
  <scstep>
   <time name="diag">   67.34   67.34</time>
   <time name="diis">  114.51  114.51</time>
   <time name="orth">   13.21   13.21</time>
   <time name="total">  238.14  238.14</time>
   <energy>
    <i name="e_fr_energy">   -174.98569559 </i>
    <i name="e_wo_entrp">   -174.93765274 </i>
    <i name="e_0_energy">   -174.97368488 </i>
   </energy>
  </scstep>
  <scstep>
   <time name="diag">   65.68   65.68</time>
   <time name="diis">  106.43  106.44</time>
   <time name="orth">   13.74   13.74</time>
   <time name="total">  228.91  228.93</time>
   <energy>
    <i name="e_fr_energy">   -174.98613415 </i>
    <i name="e_wo_entrp">   -174.93830657 </i>
    <i name="e_0_energy">   -174.97417725 </i>
   </energy>
  </scstep>
  <scstep>
   <time name="diag">   68.02   68.03</time>
   <time name="diis">  104.26  104.28</time>
   <time name="orth">   13.79   13.79</time>
   <time name="total">  229.77  229.79</time>
   <energy>
    <i name="e_fr_energy">   -174.98667941 </i>
    <i name="e_wo_entrp">   -174.93869348 </i>
    <i name="e_0_energy">   -174.97468293 </i>
   </energy>
  </scstep>
  <scstep>
   <time name="diag">   68.44   68.44</time>
   <time name="diis">  102.40  102.40</time>
   <time name="orth">   13.54   13.54</time>
   <time name="total">  227.77  227.78</time>
   <energy>
    <i name="e_fr_energy">   -174.98729438 </i>
    <i name="e_wo_entrp">   -174.93937718 </i>
    <i name="e_0_energy">   -174.97531508 </i>
   </energy>
  </scstep>
  <scstep>
   <time name="diag">   68.47   68.48</time>
   <time name="diis">   81.78   81.78</time>
   <time name="orth">   13.62   13.62</time>
   <time name="total">  207.62  207.63</time>
   <energy>
    <i name="e_fr_energy">   -174.98749560 </i>
    <i name="e_wo_entrp">   -174.93954376 </i>
    <i name="e_0_energy">   -174.97550764 </i>
   </energy>
  </scstep>
  <scstep>
   <time name="diag">   67.81   67.81</time>
   <time name="diis">   97.25   97.26</time>
   <time name="orth">   13.68   13.68</time>
   <time name="total">  222.94  222.94</time>
   <energy>
    <i name="e_fr_energy">   -174.98789099 </i>
    <i name="e_wo_entrp">   -174.94002743 </i>
    <i name="e_0_energy">   -174.97592510 </i>
   </energy>
  </scstep>
  <scstep>
   <time name="diag">   68.47   68.47</time>
   <time name="diis">   79.60   79.60</time>
   <time name="orth">   13.33   13.33</time>
   <time name="total">  204.80  204.81</time>
   <energy>
    <i name="e_fr_energy">   -174.98806781 </i>
    <i name="e_wo_entrp">   -174.94017905 </i>
    <i name="e_0_energy">   -174.97609562 </i>
   </energy>
  </scstep>
  <scstep>
   <time name="diag">   68.71   68.71</time>
   <time name="diis">   92.58   92.58</time>
   <time name="orth">   13.38   13.38</time>
   <time name="total">  217.65  217.66</time>
   <energy>
    <i name="e_fr_energy">   -174.98826555 </i>
    <i name="e_wo_entrp">   -174.94026273 </i>
    <i name="e_0_energy">   -174.97626484 </i>
   </energy>
  </scstep>
  <scstep>
   <time name="diag">   67.56   67.56</time>
   <time name="diis">   84.19   84.19</time>
   <time name="orth">   13.55   13.55</time>
   <time name="total">  208.45  208.45</time>
   <energy>
    <i name="e_fr_energy">   -174.98840797 </i>
    <i name="e_wo_entrp">   -174.94050966 </i>
    <i name="e_0_energy">   -174.97643339 </i>
   </energy>
  </scstep>
  <scstep>
   <time name="diag">   67.81   67.81</time>
   <time name="diis">   78.20   78.20</time>
   <time name="orth">   13.64   13.64</time>
   <time name="total">  173.73  173.73</time>
   <energy>
    <i name="alphaZ">     75.25431677 </i>
    <i name="ewald"> 138995.15935939 </i>
    <i name="hartreedc">-183343.92365293 </i>
    <i name="XCdc">  -1690.99598253 </i>
    <i name="pawpsdc">  46354.41170151 </i>
    <i name="pawaedc"> -42826.12121681 </i>
    <i name="eentropy">     -0.04790749 </i>
    <i name="bandstr">  -2825.23061507 </i>
    <i name="atom">  45086.50549395 </i>
    <i name="e_fr_energy">   -174.98850321 </i>
    <i name="e_wo_entrp">   -174.94059571 </i>
    <i name="e_0_energy">   -174.97652633 </i>
   </energy>
  </scstep>
  <structure>
   <crystal>
    <varray name="basis" >
     <v>      30.00000000       0.00000000       0.00000000 </v>
     <v>       0.00000000      30.00000000       0.00000000 </v>
     <v>       0.00000000       0.00000000      30.00000000 </v>
    </varray>
    <i name="volume">  27000.00000000 </i>
    <varray name="rec_basis" >
     <v>       0.03333333       0.00000000       0.00000000 </v>
     <v>       0.00000000       0.03333333       0.00000000 </v>
     <v>       0.00000000       0.00000000       0.03333333 </v>
    </varray>
   </crystal>
   <varray name="positions" >
    <v>       0.44576020       0.32826710       0.41691983 </v>
    <v>       0.67173288       0.55423978       0.41691983 </v>
    <v>       0.55423980       0.32826710       0.41691983 </v>
    <v>       0.32826712       0.55423978       0.41691983 </v>
    <v>       0.50000000       0.38250690       0.34021317 </v>
    <v>       0.50000000       0.38250690       0.65978680 </v>
    <v>       0.50000000       0.27609440       0.50000000 </v>
    <v>       0.27609443       0.49999998       0.50000000 </v>
    <v>       0.72390557       0.49999998       0.50000000 </v>
    <v>       0.50000000       0.72390555       0.50000000 </v>
    <v>       0.61195280       0.38804720       0.34167483 </v>
    <v>       0.61195280       0.38804720       0.65832513 </v>
    <v>       0.38804722       0.61195278       0.34167483 </v>
    <v>       0.38804722       0.61195278       0.65832513 </v>
    <v>       0.38804720       0.38804720       0.34167483 </v>
    <v>       0.38804720       0.38804720       0.65832513 </v>
    <v>       0.61195278       0.61195278       0.34167483 </v>
    <v>       0.61195278       0.61195278       0.65832513 </v>
    <v>       0.44576020       0.32826710       0.58308023 </v>
    <v>       0.67173288       0.55423978       0.58308023 </v>
    <v>       0.55791699       0.44208301       0.41809300 </v>
    <v>       0.32826705       0.44576024       0.41691983 </v>
    <v>       0.55423973       0.67173293       0.41691983 </v>
    <v>       0.55423980       0.32826710       0.58308023 </v>
    <v>       0.32826712       0.55423978       0.58308023 </v>
    <v>       0.67173295       0.44576024       0.41691983 </v>
    <v>       0.44576027       0.67173293       0.41691983 </v>
    <v>       0.44208301       0.44208301       0.41809300 </v>
    <v>       0.50000000       0.38416601       0.50000000 </v>
    <v>       0.61749315       0.50000005       0.34021317 </v>
    <v>       0.61749315       0.50000005       0.65978680 </v>
    <v>       0.38250685       0.50000005       0.34021317 </v>
    <v>       0.38250685       0.50000005       0.65978680 </v>
    <v>       0.38317830       0.38317830       0.50000000 </v>
    <v>       0.61682172       0.61682172       0.50000000 </v>
    <v>       0.61682170       0.38317830       0.50000000 </v>
    <v>       0.38317828       0.61682172       0.50000000 </v>
    <v>       0.50000000       0.50000000       0.33478917 </v>
    <v>       0.50000000       0.50000000       0.66521087 </v>
    <v>       0.32826705       0.44576024       0.58308023 </v>
    <v>       0.55423973       0.67173293       0.58308023 </v>
    <v>       0.55791699       0.44208301       0.58190703 </v>
    <v>       0.44208298       0.55791702       0.41809300 </v>
    <v>       0.44208301       0.44208301       0.58190703 </v>
    <v>       0.67173295       0.44576024       0.58308023 </v>
    <v>       0.44576027       0.67173293       0.58308023 </v>
    <v>       0.55791702       0.55791702       0.41809300 </v>
    <v>       0.38416599       0.50000002       0.50000000 </v>
    <v>       0.61583401       0.50000002       0.50000000 </v>
    <v>       0.50000000       0.61749319       0.34021317 </v>
    <v>       0.50000000       0.61749319       0.65978680 </v>
    <v>       0.50000000       0.50000000       0.50000000 </v>
    <v>       0.44208298       0.55791702       0.58190703 </v>
    <v>       0.55791702       0.55791702       0.58190703 </v>
    <v>       0.50000000       0.61583404       0.50000000 </v>
    <v>       0.28352187       0.55423217       0.45362277 </v>
    <v>       0.24781193       0.56317823       0.44597243 </v>
   </varray>
  </structure>
  <varray name="forces" >
   <v>       0.70403921       1.10894062       0.29483200 </v>
   <v>      -1.11474613      -0.69393980       0.28696622 </v>
   <v>      -0.70054481       1.10842373       0.29550663 </v>
   <v>       4.84939198      -0.64158200      -1.98193818 </v>
   <v>       0.00495396       0.41460395       1.28179857 </v>
   <v>       0.01583654       0.40362182      -1.27989262 </v>
   <v>       0.00093284       1.51804382       0.00319096 </v>
   <v>       1.68257024       0.47229500      -0.23845637 </v>
   <v>      -1.51086878       0.00702310      -0.00633501 </v>
   <v>       0.00022797      -1.51667652       0.00069453 </v>
   <v>      -0.75441597       0.75602471       1.07208366 </v>
   <v>      -0.75906503       0.75343029      -1.06952471 </v>
   <v>       0.77718665      -0.74975820       1.02609956 </v>
   <v>       0.75343361      -0.76044966      -1.07131753 </v>
   <v>       0.72241053       0.75685940       1.09946752 </v>
   <v>       0.74865207       0.74174250      -1.06647467 </v>
   <v>      -0.75356531      -0.75554589       1.07147366 </v>
   <v>      -0.75354356      -0.75298769      -1.06884734 </v>
   <v>       0.70875512       1.10955588      -0.29432190 </v>
   <v>      -1.11190289      -0.69455015      -0.28820069 </v>
   <v>       0.12112137      -0.11201230      -0.14924300 </v>
   <v>       1.16681796       0.59653271       0.15112099 </v>
   <v>      -0.70712435      -1.10499735       0.29666911 </v>
   <v>      -0.70430222       1.10382523      -0.29210519 </v>
   <v>       1.15745561      -0.70142446      -0.18041601 </v>
   <v>      -1.11392054       0.69481500       0.28096066 </v>
   <v>       0.71906011      -1.10345631       0.29394827 </v>
   <v>      -0.10814810      -0.10178570      -0.15960729 </v>
   <v>      -0.00363599      -0.22981791       0.00226007 </v>
   <v>      -0.40446020      -0.00027280       1.28225076 </v>
   <v>      -0.40926819      -0.00114348      -1.27476346 </v>
   <v>       0.48429030      -0.00802752       1.21512706 </v>
   <v>       0.38917653       0.01418417      -1.29513564 </v>
   <v>       0.84442768       0.81837513       0.00871440 </v>
   <v>      -0.82438281      -0.82726743       0.00231849 </v>
   <v>      -0.83396913       0.82319965      -0.00424001 </v>
   <v>       0.84859809      -0.77603535       0.01563122 </v>
   <v>      -0.01553613       0.00448473       1.18115725 </v>
   <v>       0.00279360       0.00387207      -1.18321967 </v>
   <v>       1.17728715       0.66872416      -0.17532803 </v>
   <v>      -0.70185485      -1.10609345      -0.29642353 </v>
   <v>       0.10663592      -0.11128617       0.15262536 </v>
   <v>      -0.04187058       0.10487260      -0.17825599 </v>
   <v>      -0.11295292      -0.10479372       0.14403761 </v>
   <v>      -1.11149445       0.70019822      -0.27880712 </v>
   <v>       0.70581049      -1.10324715      -0.29118517 </v>
   <v>       0.13530546       0.10846324      -0.15240562 </v>
   <v>      -0.08165463      -0.06255325       0.06396727 </v>
   <v>       0.22717669       0.00391842      -0.00017319 </v>
   <v>      -0.00478169      -0.41626695       1.27468817 </v>
   <v>       0.00318716      -0.40914853      -1.27938427 </v>
   <v>      -0.02142046      -0.00608948      -0.00336804 </v>
   <v>      -0.10671950       0.10349962       0.16817800 </v>
   <v>       0.11134321       0.11089789       0.14112897 </v>
   <v>      -0.00096711       0.22879433      -0.00125053 </v>
   <v>       3.62388663      -2.94787029       3.59296254 </v>
   <v>      -8.02564837       2.55985750      -1.13923875 </v>
  </varray>
  <varray name="stress" >
   <v>      -5.87115657      -0.17566356      -0.10614289 </v>
   <v>      -0.17566358      -6.71230886      -0.00481841 </v>
   <v>      -0.10614296      -0.00481838      -6.53450499 </v>
  </varray>
  <energy>
   <i name="e_fr_energy">   -174.98850321 </i>
   <i name="e_wo_entrp">   -174.97652633 </i>
   <i name="e_0_energy">     -0.04790749 </i>
  </energy>
  <time name="totalsc">17730.5317731.32</time>
  <eigenvalues>
   <array>
    <dimension dim="1">band</dimension>
    <dimension dim="2">kpoint</dimension>
    <dimension dim="3">spin</dimension>
    <field>eigene</field>
    <field>occ</field>
    <set>
     <set comment="spin 1">
      <set comment="kpoint 1">
       <r>  -28.1236    1.0000 </r>
       <r>  -13.5524    1.0000 </r>
       <r>  -11.5175    1.0000 </r>
       <r>  -11.0212    1.0000 </r>
       <r>  -10.5514    1.0000 </r>
       <r>   -6.7466    1.0000 </r>
       <r>   -6.6532    1.0000 </r>
       <r>   -6.5220    1.0000 </r>
       <r>   -6.1763    1.0000 </r>
       <r>   -6.1328    1.0000 </r>
       <r>   -6.1266    1.0000 </r>
       <r>   -5.9960    1.0000 </r>
       <r>   -5.8970    1.0000 </r>
       <r>   -5.8449    1.0000 </r>
       <r>   -5.8132    1.0000 </r>
       <r>   -5.7993    1.0000 </r>
       <r>   -5.7749    1.0000 </r>
       <r>   -5.7343    1.0000 </r>
       <r>   -5.6968    1.0000 </r>
       <r>   -5.6880    1.0000 </r>
       <r>   -5.6850    1.0000 </r>
       <r>   -5.6802    1.0000 </r>
       <r>   -5.6312    1.0000 </r>
       <r>   -5.6183    1.0000 </r>
       <r>   -5.6020    1.0000 </r>
       <r>   -5.5995    1.0000 </r>
       <r>   -5.5870    1.0000 </r>
       <r>   -5.5829    1.0000 </r>
       <r>   -5.5617    1.0000 </r>
       <r>   -5.5556    1.0000 </r>
       <r>   -5.5501    1.0000 </r>
       <r>   -5.5439    1.0000 </r>
       <r>   -5.5307    1.0000 </r>
       <r>   -5.5271    1.0000 </r>
       <r>   -5.5209    1.0000 </r>
       <r>   -5.5177    1.0000 </r>
       <r>   -5.5142    1.0000 </r>
       <r>   -5.5128    1.0000 </r>
       <r>   -5.5043    1.0000 </r>
       <r>   -5.4897    1.0000 </r>
       <r>   -5.4782    1.0000 </r>
       <r>   -5.4776    1.0000 </r>
       <r>   -5.4742    1.0000 </r>
       <r>   -5.4718    1.0000 </r>
       <r>   -5.4688    1.0000 </r>
       <r>   -5.4630    1.0000 </r>
       <r>   -5.4471    1.0000 </r>
       <r>   -5.4435    1.0000 </r>
       <r>   -5.4423    1.0000 </r>
       <r>   -5.4314    1.0000 </r>
       <r>   -5.4271    1.0000 </r>
       <r>   -5.4259    1.0000 </r>
       <r>   -5.4168    1.0000 </r>
       <r>   -5.4083    1.0000 </r>
       <r>   -5.4053    1.0000 </r>
       <r>   -5.4046    1.0000 </r>
       <r>   -5.4027    1.0000 </r>
       <r>   -5.3854    1.0000 </r>
       <r>   -5.3736    1.0000 </r>
       <r>   -5.3540    1.0000 </r>
       <r>   -5.3368    1.0000 </r>
       <r>   -5.3319    1.0000 </r>
       <r>   -5.3238    1.0000 </r>
       <r>   -5.3194    1.0000 </r>
       <r>   -5.3149    1.0000 </r>
       <r>   -5.3098    1.0000 </r>
       <r>   -5.3028    1.0000 </r>
       <r>   -5.3000    1.0000 </r>
       <r>   -5.2870    1.0000 </r>
       <r>   -5.2815    1.0000 </r>
       <r>   -5.2635    1.0000 </r>
       <r>   -5.2381    1.0000 </r>
       <r>   -5.2201    1.0000 </r>
       <r>   -5.2065    1.0000 </r>
       <r>   -5.2038    1.0000 </r>
       <r>   -5.1951    1.0000 </r>
       <r>   -5.1879    1.0000 </r>
       <r>   -5.1821    1.0000 </r>
       <r>   -5.1781    1.0000 </r>
       <r>   -5.1744    1.0000 </r>
       <r>   -5.1722    1.0000 </r>
       <r>   -5.1618    1.0000 </r>
       <r>   -5.1560    1.0000 </r>
       <r>   -5.1533    1.0000 </r>
       <r>   -5.1388    1.0000 </r>
       <r>   -5.1294    1.0000 </r>
       <r>   -5.1248    1.0000 </r>
       <r>   -5.1219    1.0000 </r>
       <r>   -5.1070    1.0000 </r>
       <r>   -5.1052    1.0000 </r>
       <r>   -5.0966    1.0000 </r>
       <r>   -5.0757    1.0000 </r>
       <r>   -5.0682    1.0000 </r>
       <r>   -5.0612    1.0000 </r>
       <r>   -5.0558    1.0000 </r>
       <r>   -5.0548    1.0000 </r>
       <r>   -5.0523    1.0000 </r>
       <r>   -5.0475    1.0000 </r>
       <r>   -5.0429    1.0000 </r>
       <r>   -5.0397    1.0000 </r>
       <r>   -5.0308    1.0000 </r>
       <r>   -5.0290    1.0000 </r>
       <r>   -5.0232    1.0000 </r>
       <r>   -5.0180    1.0000 </r>
       <r>   -5.0130    1.0000 </r>
       <r>   -5.0080    1.0000 </r>
       <r>   -5.0044    1.0000 </r>
       <r>   -5.0030    1.0000 </r>
       <r>   -4.9950    1.0000 </r>
       <r>   -4.9900    1.0000 </r>
       <r>   -4.9819    1.0000 </r>
       <r>   -4.9798    1.0000 </r>
       <r>   -4.9734    1.0000 </r>
       <r>   -4.9693    1.0000 </r>
       <r>   -4.9645    1.0000 </r>
       <r>   -4.9585    1.0000 </r>
       <r>   -4.9547    1.0000 </r>
       <r>   -4.9491    1.0000 </r>
       <r>   -4.9428    1.0000 </r>
       <r>   -4.9384    1.0000 </r>
       <r>   -4.9305    1.0000 </r>
       <r>   -4.9201    1.0000 </r>
       <r>   -4.9168    1.0000 </r>
       <r>   -4.9084    1.0000 </r>
       <r>   -4.9060    1.0000 </r>
       <r>   -4.9020    1.0000 </r>
       <r>   -4.9010    1.0000 </r>
       <r>   -4.8860    1.0000 </r>
       <r>   -4.8724    1.0000 </r>
       <r>   -4.8624    1.0000 </r>
       <r>   -4.8551    1.0000 </r>
       <r>   -4.8524    1.0000 </r>
       <r>   -4.8422    1.0000 </r>
       <r>   -4.8413    1.0000 </r>
       <r>   -4.8355    1.0000 </r>
       <r>   -4.8332    1.0000 </r>
       <r>   -4.8301    1.0000 </r>
       <r>   -4.8139    0.9999 </r>
       <r>   -4.8116    0.9999 </r>
       <r>   -4.8017    0.9999 </r>
       <r>   -4.7960    0.9999 </r>
       <r>   -4.7916    0.9999 </r>
       <r>   -4.7841    0.9999 </r>
       <r>   -4.7778    0.9998 </r>
       <r>   -4.7670    0.9998 </r>
       <r>   -4.7613    0.9998 </r>
       <r>   -4.7571    0.9997 </r>
       <r>   -4.7539    0.9997 </r>
       <r>   -4.7347    0.9996 </r>
       <r>   -4.7308    0.9995 </r>
       <r>   -4.7213    0.9994 </r>
       <r>   -4.7186    0.9994 </r>
       <r>   -4.7068    0.9992 </r>
       <r>   -4.6977    0.9991 </r>
       <r>   -4.6894    0.9989 </r>
       <r>   -4.6882    0.9989 </r>
       <r>   -4.6836    0.9988 </r>
       <r>   -4.6789    0.9987 </r>
       <r>   -4.6748    0.9986 </r>
       <r>   -4.6702    0.9985 </r>
       <r>   -4.6686    0.9984 </r>
       <r>   -4.6670    0.9984 </r>
       <r>   -4.6589    0.9982 </r>
       <r>   -4.6552    0.9981 </r>
       <r>   -4.6495    0.9979 </r>
       <r>   -4.6477    0.9978 </r>
       <r>   -4.6473    0.9978 </r>
       <r>   -4.6449    0.9977 </r>
       <r>   -4.6412    0.9976 </r>
       <r>   -4.6377    0.9975 </r>
       <r>   -4.6318    0.9973 </r>
       <r>   -4.6245    0.9970 </r>
       <r>   -4.6153    0.9967 </r>
       <r>   -4.6136    0.9966 </r>
       <r>   -4.6068    0.9963 </r>
       <r>   -4.5993    0.9961 </r>
       <r>   -4.5986    0.9961 </r>
       <r>   -4.5945    0.9959 </r>
       <r>   -4.5938    0.9959 </r>
       <r>   -4.5885    0.9957 </r>
       <r>   -4.5793    0.9954 </r>
       <r>   -4.5754    0.9953 </r>
       <r>   -4.5743    0.9953 </r>
       <r>   -4.5685    0.9952 </r>
       <r>   -4.5659    0.9951 </r>
       <r>   -4.5635    0.9951 </r>
       <r>   -4.5572    0.9951 </r>
       <r>   -4.5515    0.9951 </r>
       <r>   -4.5503    0.9951 </r>
       <r>   -4.5473    0.9951 </r>
       <r>   -4.5421    0.9952 </r>
       <r>   -4.5393    0.9953 </r>
       <r>   -4.5214    0.9962 </r>
       <r>   -4.5159    0.9966 </r>
       <r>   -4.5108    0.9971 </r>
       <r>   -4.5066    0.9976 </r>
       <r>   -4.5019    0.9982 </r>
       <r>   -4.4995    0.9986 </r>
       <r>   -4.4936    0.9995 </r>
       <r>   -4.4889    1.0004 </r>
       <r>   -4.4781    1.0027 </r>
       <r>   -4.4708    1.0046 </r>
       <r>   -4.4682    1.0053 </r>
       <r>   -4.4670    1.0056 </r>
       <r>   -4.4642    1.0065 </r>
       <r>   -4.4537    1.0099 </r>
       <r>   -4.4528    1.0102 </r>
       <r>   -4.4483    1.0119 </r>
       <r>   -4.4461    1.0127 </r>
       <r>   -4.4437    1.0136 </r>
       <r>   -4.4370    1.0163 </r>
       <r>   -4.4280    1.0202 </r>
       <r>   -4.4258    1.0212 </r>
       <r>   -4.4232    1.0224 </r>
       <r>   -4.4147    1.0264 </r>
       <r>   -4.4107    1.0283 </r>
       <r>   -4.4094    1.0289 </r>
       <r>   -4.4063    1.0304 </r>
       <r>   -4.3992    1.0338 </r>
       <r>   -4.3975    1.0346 </r>
       <r>   -4.3916    1.0374 </r>
       <r>   -4.3741    1.0448 </r>
       <r>   -4.3717    1.0457 </r>
       <r>   -4.3665    1.0475 </r>
       <r>   -4.3597    1.0494 </r>
       <r>   -4.3506    1.0511 </r>
       <r>   -4.3431    1.0516 </r>
       <r>   -4.3410    1.0516 </r>
       <r>   -4.3376    1.0514 </r>
       <r>   -4.3360    1.0512 </r>
       <r>   -4.3351    1.0511 </r>
       <r>   -4.3338    1.0509 </r>
       <r>   -4.3300    1.0502 </r>
       <r>   -4.3276    1.0495 </r>
       <r>   -4.3269    1.0493 </r>
       <r>   -4.3235    1.0481 </r>
       <r>   -4.3226    1.0478 </r>
       <r>   -4.3196    1.0465 </r>
       <r>   -4.3177    1.0455 </r>
       <r>   -4.3118    1.0419 </r>
       <r>   -4.3107    1.0412 </r>
       <r>   -4.3008    1.0327 </r>
       <r>   -4.2957    1.0271 </r>
       <r>   -4.2929    1.0236 </r>
       <r>   -4.2904    1.0205 </r>
       <r>   -4.2883    1.0175 </r>
       <r>   -4.2864    1.0147 </r>
       <r>   -4.2829    1.0093 </r>
       <r>   -4.2809    1.0060 </r>
       <r>   -4.2754    0.9963 </r>
       <r>   -4.2696    0.9848 </r>
       <r>   -4.2659    0.9769 </r>
       <r>   -4.2630    0.9701 </r>
       <r>   -4.2615    0.9666 </r>
       <r>   -4.2559    0.9525 </r>
       <r>   -4.2555    0.9514 </r>
       <r>   -4.2532    0.9453 </r>
       <r>   -4.2490    0.9336 </r>
       <r>   -4.2475    0.9291 </r>
       <r>   -4.2470    0.9276 </r>
       <r>   -4.2434    0.9168 </r>
       <r>   -4.2424    0.9137 </r>
       <r>   -4.2404    0.9074 </r>
       <r>   -4.2392    0.9035 </r>
       <r>   -4.2370    0.8960 </r>
       <r>   -4.2330    0.8826 </r>
       <r>   -4.2266    0.8593 </r>
       <r>   -4.2243    0.8509 </r>
       <r>   -4.2216    0.8404 </r>
       <r>   -4.2195    0.8321 </r>
       <r>   -4.2184    0.8276 </r>
       <r>   -4.2117    0.7998 </r>
       <r>   -4.2065    0.7773 </r>
       <r>   -4.2007    0.7514 </r>
       <r>   -4.1874    0.6887 </r>
       <r>   -4.1834    0.6690 </r>
       <r>   -4.1782    0.6426 </r>
       <r>   -4.1754    0.6283 </r>
       <r>   -4.1743    0.6228 </r>
       <r>   -4.1723    0.6128 </r>
       <r>   -4.1599    0.5479 </r>
       <r>   -4.1577    0.5361 </r>
       <r>   -4.1405    0.4457 </r>
       <r>   -4.1339    0.4111 </r>
       <r>   -4.1294    0.3875 </r>
       <r>   -4.1285    0.3830 </r>
       <r>   -4.1186    0.3327 </r>
       <r>   -4.1128    0.3043 </r>
       <r>   -4.0366    0.0252 </r>
       <r>   -3.9632   -0.0515 </r>
       <r>   -3.9019   -0.0336 </r>
       <r>   -3.8289   -0.0041 </r>
       <r>   -3.8162   -0.0011 </r>
       <r>   -3.6569    0.0023 </r>
       <r>   -3.5054    0.0001 </r>
       <r>   -3.4948    0.0001 </r>
       <r>   -3.3541    0.0000 </r>
       <r>   -3.0838    0.0000 </r>
       <r>   -3.0640    0.0000 </r>
       <r>   -3.0470    0.0000 </r>
       <r>   -3.0451    0.0000 </r>
       <r>   -3.0214    0.0000 </r>
       <r>   -2.9611    0.0000 </r>
       <r>   -2.9519    0.0000 </r>
       <r>   -2.7672    0.0000 </r>
       <r>   -2.5398    0.0000 </r>
       <r>   -2.5309    0.0000 </r>
       <r>   -2.3651    0.0000 </r>
       <r>   -2.2814    0.0000 </r>
       <r>   -2.1271    0.0000 </r>
       <r>   -2.1213    0.0000 </r>
       <r>   -2.1151    0.0000 </r>
       <r>   -2.0246    0.0000 </r>
       <r>   -1.9707    0.0000 </r>
       <r>   -1.9279    0.0000 </r>
       <r>   -1.8713    0.0000 </r>
       <r>   -1.8034    0.0000 </r>
       <r>   -1.7454    0.0000 </r>
       <r>   -1.7098    0.0000 </r>
       <r>   -1.6485    0.0000 </r>
       <r>   -1.5933    0.0000 </r>
       <r>   -1.5611    0.0000 </r>
       <r>   -1.4063    0.0000 </r>
       <r>   -1.2990    0.0000 </r>
       <r>   -1.2625    0.0000 </r>
       <r>   -1.1354    0.0000 </r>
       <r>   -1.1137    0.0000 </r>
       <r>   -0.9971    0.0000 </r>
       <r>   -0.9891    0.0000 </r>
       <r>   -0.9807    0.0000 </r>
       <r>   -0.9468    0.0000 </r>
       <r>   -0.9424    0.0000 </r>
       <r>   -0.8985    0.0000 </r>
       <r>   -0.8514    0.0000 </r>
       <r>   -0.7919    0.0000 </r>
       <r>   -0.5976    0.0000 </r>
      </set>
     </set>
    </set>
   </array>
  </eigenvalues>
  <separator name="orbital magnetization" >
   <v name="MAGDIPOLOUT">      0.00000000      0.00000000      0.00000000</v>
  </separator>
  <dos>
   <i name="efermi">     -4.15082000 </i>
   <total>
    <array>
     <dimension dim="1">gridpoints</dimension>
     <dimension dim="2">spin</dimension>
     <field>energy</field>
     <field>total</field>
     <field>integrated</field>
     <set>
      <set comment="spin 1">
       <r>   -30.1236     0.0000     0.0000 </r>
       <r>   -30.0185     0.0000     0.0000 </r>
       <r>   -29.9134     0.0000     0.0000 </r>
       <r>   -29.8083     0.0000     0.0000 </r>
       <r>   -29.7032     0.0000     0.0000 </r>
       <r>   -29.5981     0.0000     0.0000 </r>
       <r>   -29.4930     0.0000     0.0000 </r>
       <r>   -29.3880     0.0000     0.0000 </r>
       <r>   -29.2829     0.0000     0.0000 </r>
       <r>   -29.1778     0.0000     0.0000 </r>
       <r>   -29.0727     0.0000     0.0000 </r>
       <r>   -28.9676     0.0000     0.0000 </r>
       <r>   -28.8625     0.0001     0.0000 </r>
       <r>   -28.7574     0.0024     0.0003 </r>
       <r>   -28.6524     0.0221     0.0026 </r>
       <r>   -28.5473     0.0646     0.0094 </r>
       <r>   -28.4422    -0.1835    -0.0099 </r>
       <r>   -28.3371    -0.8220    -0.0963 </r>
       <r>   -28.2320     1.6558     0.0777 </r>
       <r>   -28.1269     8.4384     0.9645 </r>
       <r>   -28.0218     8.7798     1.8871 </r>
       <r>   -27.9167     2.0234     2.0997 </r>
       <r>   -27.8117    -0.8173     2.0139 </r>
       <r>   -27.7066    -0.2236     1.9904 </r>
       <r>   -27.6015     0.0641     1.9971 </r>
       <r>   -27.4964     0.0247     1.9997 </r>
       <r>   -27.3913     0.0028     2.0000 </r>
       <r>   -27.2862     0.0001     2.0000 </r>
       <r>   -27.1811     0.0000     2.0000 </r>
       <r>   -27.0761     0.0000     2.0000 </r>
       <r>   -26.9710     0.0000     2.0000 </r>
       <r>   -26.8659     0.0000     2.0000 </r>
       <r>   -26.7608     0.0000     2.0000 </r>
       <r>   -26.6557     0.0000     2.0000 </r>
       <r>   -26.5506     0.0000     2.0000 </r>
       <r>   -26.4455     0.0000     2.0000 </r>
       <r>   -26.3404     0.0000     2.0000 </r>
       <r>   -26.2354     0.0000     2.0000 </r>
       <r>   -26.1303     0.0000     2.0000 </r>
       <r>   -26.0252     0.0000     2.0000 </r>
       <r>   -25.9201     0.0000     2.0000 </r>
       <r>   -25.8150     0.0000     2.0000 </r>
       <r>   -25.7099     0.0000     2.0000 </r>
       <r>   -25.6048     0.0000     2.0000 </r>
       <r>   -25.4998     0.0000     2.0000 </r>
       <r>   -25.3947     0.0000     2.0000 </r>
       <r>   -25.2896     0.0000     2.0000 </r>
       <r>   -25.1845     0.0000     2.0000 </r>
       <r>   -25.0794     0.0000     2.0000 </r>
       <r>   -24.9743     0.0000     2.0000 </r>
       <r>   -24.8692     0.0000     2.0000 </r>
       <r>   -24.7642     0.0000     2.0000 </r>
       <r>   -24.6591     0.0000     2.0000 </r>
       <r>   -24.5540     0.0000     2.0000 </r>
       <r>   -24.4489     0.0000     2.0000 </r>
       <r>   -24.3438     0.0000     2.0000 </r>
       <r>   -24.2387     0.0000     2.0000 </r>
       <r>   -24.1336     0.0000     2.0000 </r>
       <r>   -24.0285     0.0000     2.0000 </r>
       <r>   -23.9235     0.0000     2.0000 </r>
       <r>   -23.8184     0.0000     2.0000 </r>
       <r>   -23.7133     0.0000     2.0000 </r>
       <r>   -23.6082     0.0000     2.0000 </r>
       <r>   -23.5031     0.0000     2.0000 </r>
       <r>   -23.3980     0.0000     2.0000 </r>
       <r>   -23.2929     0.0000     2.0000 </r>
       <r>   -23.1879     0.0000     2.0000 </r>
       <r>   -23.0828     0.0000     2.0000 </r>
       <r>   -22.9777     0.0000     2.0000 </r>
       <r>   -22.8726     0.0000     2.0000 </r>
       <r>   -22.7675     0.0000     2.0000 </r>
       <r>   -22.6624     0.0000     2.0000 </r>
       <r>   -22.5573     0.0000     2.0000 </r>
       <r>   -22.4523     0.0000     2.0000 </r>
       <r>   -22.3472     0.0000     2.0000 </r>
       <r>   -22.2421     0.0000     2.0000 </r>
       <r>   -22.1370     0.0000     2.0000 </r>
       <r>   -22.0319     0.0000     2.0000 </r>
       <r>   -21.9268     0.0000     2.0000 </r>
       <r>   -21.8217     0.0000     2.0000 </r>
       <r>   -21.7166     0.0000     2.0000 </r>
       <r>   -21.6116     0.0000     2.0000 </r>
       <r>   -21.5065     0.0000     2.0000 </r>
       <r>   -21.4014     0.0000     2.0000 </r>
       <r>   -21.2963     0.0000     2.0000 </r>
       <r>   -21.1912     0.0000     2.0000 </r>
       <r>   -21.0861     0.0000     2.0000 </r>
       <r>   -20.9810     0.0000     2.0000 </r>
       <r>   -20.8760     0.0000     2.0000 </r>
       <r>   -20.7709     0.0000     2.0000 </r>
       <r>   -20.6658     0.0000     2.0000 </r>
       <r>   -20.5607     0.0000     2.0000 </r>
       <r>   -20.4556     0.0000     2.0000 </r>
       <r>   -20.3505     0.0000     2.0000 </r>
       <r>   -20.2454     0.0000     2.0000 </r>
       <r>   -20.1404     0.0000     2.0000 </r>
       <r>   -20.0353     0.0000     2.0000 </r>
       <r>   -19.9302     0.0000     2.0000 </r>
       <r>   -19.8251     0.0000     2.0000 </r>
       <r>   -19.7200     0.0000     2.0000 </r>
       <r>   -19.6149     0.0000     2.0000 </r>
       <r>   -19.5098     0.0000     2.0000 </r>
       <r>   -19.4047     0.0000     2.0000 </r>
       <r>   -19.2997     0.0000     2.0000 </r>
       <r>   -19.1946     0.0000     2.0000 </r>
       <r>   -19.0895     0.0000     2.0000 </r>
       <r>   -18.9844     0.0000     2.0000 </r>
       <r>   -18.8793     0.0000     2.0000 </r>
       <r>   -18.7742     0.0000     2.0000 </r>
       <r>   -18.6691     0.0000     2.0000 </r>
       <r>   -18.5641     0.0000     2.0000 </r>
       <r>   -18.4590     0.0000     2.0000 </r>
       <r>   -18.3539     0.0000     2.0000 </r>
       <r>   -18.2488     0.0000     2.0000 </r>
       <r>   -18.1437     0.0000     2.0000 </r>
       <r>   -18.0386     0.0000     2.0000 </r>
       <r>   -17.9335     0.0000     2.0000 </r>
       <r>   -17.8285     0.0000     2.0000 </r>
       <r>   -17.7234     0.0000     2.0000 </r>
       <r>   -17.6183     0.0000     2.0000 </r>
       <r>   -17.5132     0.0000     2.0000 </r>
       <r>   -17.4081     0.0000     2.0000 </r>
       <r>   -17.3030     0.0000     2.0000 </r>
       <r>   -17.1979     0.0000     2.0000 </r>
       <r>   -17.0928     0.0000     2.0000 </r>
       <r>   -16.9878     0.0000     2.0000 </r>
       <r>   -16.8827     0.0000     2.0000 </r>
       <r>   -16.7776     0.0000     2.0000 </r>
       <r>   -16.6725     0.0000     2.0000 </r>
       <r>   -16.5674     0.0000     2.0000 </r>
       <r>   -16.4623     0.0000     2.0000 </r>
       <r>   -16.3572     0.0000     2.0000 </r>
       <r>   -16.2522     0.0000     2.0000 </r>
       <r>   -16.1471     0.0000     2.0000 </r>
       <r>   -16.0420     0.0000     2.0000 </r>
       <r>   -15.9369     0.0000     2.0000 </r>
       <r>   -15.8318     0.0000     2.0000 </r>
       <r>   -15.7267     0.0000     2.0000 </r>
       <r>   -15.6216     0.0000     2.0000 </r>
       <r>   -15.5166     0.0000     2.0000 </r>
       <r>   -15.4115     0.0000     2.0000 </r>
       <r>   -15.3064     0.0000     2.0000 </r>
       <r>   -15.2013     0.0000     2.0000 </r>
       <r>   -15.0962     0.0000     2.0000 </r>
       <r>   -14.9911     0.0000     2.0000 </r>
       <r>   -14.8860     0.0000     2.0000 </r>
       <r>   -14.7809     0.0000     2.0000 </r>
       <r>   -14.6759     0.0000     2.0000 </r>
       <r>   -14.5708     0.0000     2.0000 </r>
       <r>   -14.4657     0.0000     2.0000 </r>
       <r>   -14.3606     0.0000     2.0000 </r>
       <r>   -14.2555     0.0004     2.0000 </r>
       <r>   -14.1504     0.0056     2.0006 </r>
       <r>   -14.0453     0.0379     2.0046 </r>
       <r>   -13.9403     0.0457     2.0094 </r>
       <r>   -13.8352    -0.4279     1.9644 </r>
       <r>   -13.7301    -0.6092     1.9004 </r>
       <r>   -13.6250     3.8539     2.3054 </r>
       <r>   -13.5199     9.8143     3.3368 </r>
       <r>   -13.4148     6.6471     4.0353 </r>
       <r>   -13.3097     0.3594     4.0731 </r>
       <r>   -13.2046    -0.7196     3.9974 </r>
       <r>   -13.0996    -0.0473     3.9925 </r>
       <r>   -12.9945     0.0575     3.9985 </r>
       <r>   -12.8894     0.0130     3.9999 </r>
       <r>   -12.7843     0.0011     4.0000 </r>
       <r>   -12.6792     0.0000     4.0000 </r>
       <r>   -12.5741     0.0000     4.0000 </r>
       <r>   -12.4690     0.0000     4.0000 </r>
       <r>   -12.3640     0.0000     4.0000 </r>
       <r>   -12.2589     0.0001     4.0000 </r>
       <r>   -12.1538     0.0022     4.0002 </r>
       <r>   -12.0487     0.0212     4.0025 </r>
       <r>   -11.9436     0.0646     4.0093 </r>
       <r>   -11.8385    -0.1698     3.9914 </r>
       <r>   -11.7334    -0.8202     3.9052 </r>
       <r>   -11.6284     1.5338     4.0664 </r>
       <r>   -11.5233     8.3409     4.9429 </r>
       <r>   -11.4182     8.9493     5.8834 </r>
       <r>   -11.3131     1.8018     6.0727 </r>
       <r>   -11.2080    -1.5226     5.9127 </r>
       <r>   -11.1029     3.0237     6.2305 </r>
       <r>   -10.9978     9.7008     7.2499 </r>
       <r>   -10.8927     7.2030     8.0068 </r>
       <r>   -10.7877    -0.0423     8.0024 </r>
       <r>   -10.6826    -0.1678     7.9847 </r>
       <r>   -10.5775     6.9902     8.7193 </r>
       <r>   -10.4724     9.7172     9.7405 </r>
       <r>   -10.3673     3.4408    10.1020 </r>
       <r>   -10.2622    -0.6837    10.0302 </r>
       <r>   -10.1571    -0.3798     9.9903 </r>
       <r>   -10.0521     0.0525     9.9958 </r>
       <r>    -9.9470     0.0348     9.9995 </r>
       <r>    -9.8419     0.0048    10.0000 </r>
       <r>    -9.7368     0.0003    10.0000 </r>
       <r>    -9.6317     0.0000    10.0000 </r>
       <r>    -9.5266     0.0000    10.0000 </r>
       <r>    -9.4215     0.0000    10.0000 </r>
       <r>    -9.3165     0.0000    10.0000 </r>
       <r>    -9.2114     0.0000    10.0000 </r>
       <r>    -9.1063     0.0000    10.0000 </r>
       <r>    -9.0012     0.0000    10.0000 </r>
       <r>    -8.8961     0.0000    10.0000 </r>
       <r>    -8.7910     0.0000    10.0000 </r>
       <r>    -8.6859     0.0000    10.0000 </r>
       <r>    -8.5808     0.0000    10.0000 </r>
       <r>    -8.4758     0.0000    10.0000 </r>
       <r>    -8.3707     0.0000    10.0000 </r>
       <r>    -8.2656     0.0000    10.0000 </r>
       <r>    -8.1605     0.0000    10.0000 </r>
       <r>    -8.0554     0.0000    10.0000 </r>
       <r>    -7.9503     0.0000    10.0000 </r>
       <r>    -7.8452     0.0000    10.0000 </r>
       <r>    -7.7402     0.0000    10.0000 </r>
       <r>    -7.6351     0.0000    10.0000 </r>
       <r>    -7.5300     0.0000    10.0000 </r>
       <r>    -7.4249     0.0008    10.0001 </r>
       <r>    -7.3198     0.0106    10.0012 </r>
       <r>    -7.2147     0.0631    10.0078 </r>
       <r>    -7.1096     0.0627    10.0144 </r>
       <r>    -7.0046    -0.6086     9.9505 </r>
       <r>    -6.8995    -0.7824     9.8682 </r>
       <r>    -6.7944     5.3213    10.4274 </r>
       <r>    -6.6893    16.0280    12.1117 </r>
       <r>    -6.5842    19.5507    14.1663 </r>
       <r>    -6.4791    13.4262    15.5772 </r>
       <r>    -6.3740     2.7550    15.8667 </r>
       <r>    -6.2689     2.5346    16.1330 </r>
       <r>    -6.1639    20.8722    18.3264 </r>
       <r>    -6.0588    29.8903    21.4675 </r>
       <r>    -5.9537    23.1877    23.9042 </r>
       <r>    -5.8486    33.1509    27.3879 </r>
       <r>    -5.7435    60.0092    33.6941 </r>
       <r>    -5.6384   111.3829    45.3989 </r>
       <r>    -5.5333   215.6750    68.0634 </r>
       <r>    -5.4283   294.8740    99.0506 </r>
       <r>    -5.3232   262.1534   126.5994 </r>
       <r>    -5.2181   213.4335   149.0284 </r>
       <r>    -5.1130   255.1262   175.8387 </r>
       <r>    -5.0079   336.0486   211.1528 </r>
       <r>    -4.9028   347.7293   247.6944 </r>
       <r>    -4.7977   306.1802   279.8698 </r>
       <r>    -4.6927   330.5258   314.6036 </r>
       <r>    -4.5876   400.7347   356.7153 </r>
       <r>    -4.4825   412.5891   400.0728 </r>
       <r>    -4.3774   443.9846   446.7296 </r>
       <r>    -4.2723   542.1269   503.6997 </r>
       <r>    -4.1672   482.6133   554.4158 </r>
       <r>    -4.0621   219.3138   577.4627 </r>
       <r>    -3.9570    34.9359   581.1340 </r>
       <r>    -3.8520    15.4057   582.7529 </r>
       <r>    -3.7469    25.2919   585.4108 </r>
       <r>    -3.6418    17.2785   587.2265 </r>
       <r>    -3.5367    18.6544   589.1868 </r>
       <r>    -3.4316    23.9222   591.7007 </r>
       <r>    -3.3265    14.9298   593.2697 </r>
       <r>    -3.2214     2.9556   593.5802 </r>
       <r>    -3.1164    21.4482   595.8342 </r>
       <r>    -3.0113    57.5781   601.8848 </r>
       <r>    -2.9062    50.5583   607.1978 </r>
       <r>    -2.8011    17.4333   609.0298 </r>
       <r>    -2.6960     5.6416   609.6227 </r>
       <r>    -2.5909    11.7948   610.8622 </r>
       <r>    -2.4858    20.0587   612.9701 </r>
       <r>    -2.3807    18.8673   614.9528 </r>
       <r>    -2.2757    16.6578   616.7033 </r>
       <r>    -2.1706    24.7259   619.3016 </r>
       <r>    -2.0655    38.2613   623.3224 </r>
       <r>    -1.9604    40.6910   627.5984 </r>
       <r>    -1.8553    35.9244   631.3736 </r>
       <r>    -1.7502    36.4207   635.2009 </r>
       <r>    -1.6451    39.6790   639.3706 </r>
       <r>    -1.5401    32.5178   642.7878 </r>
       <r>    -1.4350    19.0397   644.7886 </r>
       <r>    -1.3299    18.2411   646.7055 </r>
       <r>    -1.2248    22.9886   649.1213 </r>
       <r>    -1.1197    26.3419   651.8895 </r>
       <r>    -1.0146    45.4315   656.6637 </r>
       <r>    -0.9095    64.6245   663.4549 </r>
       <r>    -0.8045    47.8421   668.4824 </r>
       <r>    -0.6994    17.5695   670.3287 </r>
       <r>    -0.5943     8.0581   671.1755 </r>
       <r>    -0.4892     6.8791   671.8984 </r>
       <r>    -0.3841     1.6538   672.0722 </r>
       <r>    -0.2790    -0.6423   672.0047 </r>
       <r>    -0.1739    -0.1389   671.9901 </r>
       <r>    -0.0688     0.0692   671.9974 </r>
       <r>     0.0362     0.0223   671.9997 </r>
       <r>     0.1413     0.0024   672.0000 </r>
       <r>     0.2464     0.0001   672.0000 </r>
       <r>     0.3515     0.0000   672.0000 </r>
       <r>     0.4566     0.0000   672.0000 </r>
       <r>     0.5617     0.0000   672.0000 </r>
       <r>     0.6668     0.0000   672.0000 </r>
       <r>     0.7718     0.0000   672.0000 </r>
       <r>     0.8769     0.0000   672.0000 </r>
       <r>     0.9820     0.0000   672.0000 </r>
       <r>     1.0871     0.0000   672.0000 </r>
       <r>     1.1922     0.0000   672.0000 </r>
       <r>     1.2973     0.0000   672.0000 </r>
       <r>     1.4024     0.0000   672.0000 </r>
      </set>
     </set>
    </array>
   </total>
  </dos>
 </calculation>
 <structure name="finalpos" >
  <crystal>
   <varray name="basis" >
    <v>      30.00000000       0.00000000       0.00000000 </v>
    <v>       0.00000000      30.00000000       0.00000000 </v>
    <v>       0.00000000       0.00000000      30.00000000 </v>
   </varray>
   <i name="volume">  27000.00000000 </i>
   <varray name="rec_basis" >
    <v>       0.03333333       0.00000000       0.00000000 </v>
    <v>       0.00000000       0.03333333       0.00000000 </v>
    <v>       0.00000000       0.00000000       0.03333333 </v>
   </varray>
  </crystal>
  <varray name="positions" >
   <v>       0.44576020       0.32826710       0.41691983 </v>
   <v>       0.67173288       0.55423978       0.41691983 </v>
   <v>       0.55423980       0.32826710       0.41691983 </v>
   <v>       0.32826712       0.55423978       0.41691983 </v>
   <v>       0.50000000       0.38250690       0.34021317 </v>
   <v>       0.50000000       0.38250690       0.65978680 </v>
   <v>       0.50000000       0.27609440       0.50000000 </v>
   <v>       0.27609443       0.49999998       0.50000000 </v>
   <v>       0.72390557       0.49999998       0.50000000 </v>
   <v>       0.50000000       0.72390555       0.50000000 </v>
   <v>       0.61195280       0.38804720       0.34167483 </v>
   <v>       0.61195280       0.38804720       0.65832513 </v>
   <v>       0.38804722       0.61195278       0.34167483 </v>
   <v>       0.38804722       0.61195278       0.65832513 </v>
   <v>       0.38804720       0.38804720       0.34167483 </v>
   <v>       0.38804720       0.38804720       0.65832513 </v>
   <v>       0.61195278       0.61195278       0.34167483 </v>
   <v>       0.61195278       0.61195278       0.65832513 </v>
   <v>       0.44576020       0.32826710       0.58308023 </v>
   <v>       0.67173288       0.55423978       0.58308023 </v>
   <v>       0.55791699       0.44208301       0.41809300 </v>
   <v>       0.32826705       0.44576024       0.41691983 </v>
   <v>       0.55423973       0.67173293       0.41691983 </v>
   <v>       0.55423980       0.32826710       0.58308023 </v>
   <v>       0.32826712       0.55423978       0.58308023 </v>
   <v>       0.67173295       0.44576024       0.41691983 </v>
   <v>       0.44576027       0.67173293       0.41691983 </v>
   <v>       0.44208301       0.44208301       0.41809300 </v>
   <v>       0.50000000       0.38416601       0.50000000 </v>
   <v>       0.61749315       0.50000005       0.34021317 </v>
   <v>       0.61749315       0.50000005       0.65978680 </v>
   <v>       0.38250685       0.50000005       0.34021317 </v>
   <v>       0.38250685       0.50000005       0.65978680 </v>
   <v>       0.38317830       0.38317830       0.50000000 </v>
   <v>       0.61682172       0.61682172       0.50000000 </v>
   <v>       0.61682170       0.38317830       0.50000000 </v>
   <v>       0.38317828       0.61682172       0.50000000 </v>
   <v>       0.50000000       0.50000000       0.33478917 </v>
   <v>       0.50000000       0.50000000       0.66521087 </v>
   <v>       0.32826705       0.44576024       0.58308023 </v>
   <v>       0.55423973       0.67173293       0.58308023 </v>
   <v>       0.55791699       0.44208301       0.58190703 </v>
   <v>       0.44208298       0.55791702       0.41809300 </v>
   <v>       0.44208301       0.44208301       0.58190703 </v>
   <v>       0.67173295       0.44576024       0.58308023 </v>
   <v>       0.44576027       0.67173293       0.58308023 </v>
   <v>       0.55791702       0.55791702       0.41809300 </v>
   <v>       0.38416599       0.50000002       0.50000000 </v>
   <v>       0.61583401       0.50000002       0.50000000 </v>
   <v>       0.50000000       0.61749319       0.34021317 </v>
   <v>       0.50000000       0.61749319       0.65978680 </v>
   <v>       0.50000000       0.50000000       0.50000000 </v>
   <v>       0.44208298       0.55791702       0.58190703 </v>
   <v>       0.55791702       0.55791702       0.58190703 </v>
   <v>       0.50000000       0.61583404       0.50000000 </v>
   <v>       0.28352187       0.55423217       0.45362277 </v>
   <v>       0.24781193       0.56317823       0.44597243 </v>
  </varray>
  <varray name="selective"  type="logical" >
   <v type="logical" >  F  F  F </v>
   <v type="logical" >  F  F  F </v>
   <v type="logical" >  F  F  F </v>
   <v type="logical" >  F  F  F </v>
   <v type="logical" >  F  F  F </v>
   <v type="logical" >  F  F  F </v>
   <v type="logical" >  F  F  F </v>
   <v type="logical" >  F  F  F </v>
   <v type="logical" >  F  F  F </v>
   <v type="logical" >  F  F  F </v>
   <v type="logical" >  F  F  F </v>
   <v type="logical" >  F  F  F </v>
   <v type="logical" >  F  F  F </v>
   <v type="logical" >  F  F  F </v>
   <v type="logical" >  F  F  F </v>
   <v type="logical" >  F  F  F </v>
   <v type="logical" >  F  F  F </v>
   <v type="logical" >  F  F  F </v>
   <v type="logical" >  F  F  F </v>
   <v type="logical" >  F  F  F </v>
   <v type="logical" >  F  F  F </v>
   <v type="logical" >  F  F  F </v>
   <v type="logical" >  F  F  F </v>
   <v type="logical" >  F  F  F </v>
   <v type="logical" >  F  F  F </v>
   <v type="logical" >  F  F  F </v>
   <v type="logical" >  F  F  F </v>
   <v type="logical" >  F  F  F </v>
   <v type="logical" >  F  F  F </v>
   <v type="logical" >  F  F  F </v>
   <v type="logical" >  F  F  F </v>
   <v type="logical" >  F  F  F </v>
   <v type="logical" >  F  F  F </v>
   <v type="logical" >  F  F  F </v>
   <v type="logical" >  F  F  F </v>
   <v type="logical" >  F  F  F </v>
   <v type="logical" >  F  F  F </v>
   <v type="logical" >  F  F  F </v>
   <v type="logical" >  F  F  F </v>
   <v type="logical" >  F  F  F </v>
   <v type="logical" >  F  F  F </v>
   <v type="logical" >  F  F  F </v>
   <v type="logical" >  F  F  F </v>
   <v type="logical" >  F  F  F </v>
   <v type="logical" >  F  F  F </v>
   <v type="logical" >  F  F  F </v>
   <v type="logical" >  F  F  F </v>
   <v type="logical" >  F  F  F </v>
   <v type="logical" >  F  F  F </v>
   <v type="logical" >  F  F  F </v>
   <v type="logical" >  F  F  F </v>
   <v type="logical" >  F  F  F </v>
   <v type="logical" >  F  F  F </v>
   <v type="logical" >  F  F  F </v>
   <v type="logical" >  F  F  F </v>
   <v type="logical" >  F  F  F </v>
   <v type="logical" >  F  F  F </v>
  </varray>
  <nose>
   <v>      -3.00000000       0.00000000       0.00010000       0.00010000 </v>
  </nose>
 </structure>
</modeling>
