<?xml version="1.0" encoding="ISO-8859-1"?>
<modeling>
 <generator>
  <i name="program" type="string">vasp </i>
  <i name="version" type="string">5.4.4.18Apr17-6-g9f103f2a35  </i>
  <i name="subversion" type="string">(build Sep 03 2018 23:53:05) complex            parallel </i>
  <i name="platform" type="string">LinuxIFC </i>
  <i name="date" type="string">2021 11 25 </i>
  <i name="time" type="string">16:48:02 </i>
 </generator>
 <incar>
  <i type="string" name="SYSTEM"> 6_Pd100_top_free_z(O)</i>
  <i type="int" name="ISTART">     0</i>
  <i type="string" name="PREC">normal   			! encut=max(enmax), ngx,y,z</i>
  <i type="string" name="ALGO"> Fast     			! Mix RMM-DIIS and Dav</i>
  <i type="logical" name="ADDGRID"> F  </i>
  <i type="int" name="ISPIN">     1</i>
  <i type="int" name="ICHARG">     2</i>
  <i type="int" name="NELM">   100</i>
  <i type="int" name="NELMIN">     6</i>
  <i type="int" name="IBRION">     2</i>
  <i name="EDIFF">      0.00010000</i>
  <i name="EDIFFG">     -0.05000000</i>
  <i type="int" name="NSW">     0</i>
  <i type="int" name="ISIF">     2</i>
  <i type="int" name="ISYM">     2</i>
  <i name="ENCUT">    400.00000000</i>
  <i type="string" name="LREAL"> Auto     			! Auto or A projection done</i>
  <i type="int" name="ISMEAR">     2</i>
  <i name="SIGMA">      0.20000000</i>
  <i type="logical" name="LWAVE"> F  </i>
  <i type="logical" name="LCHARG"> F  </i>
  <v type="int" name="KPOINT_BSE">    -1     0     0     0</v>
  <i type="int" name="MAXMEM"> 10000</i>
  <i type="int" name="NELM">   100</i>
  <i type="string" name="GGA"> RP         			! Revised PBE</i>
 </incar>
 <structure name="primitive_cell" >
  <crystal>
   <varray name="basis" >
    <v>      30.00000000       0.00000000       0.00000000 </v>
    <v>       0.00000000      30.00000000       0.00000000 </v>
    <v>       0.00000000       0.00000000      30.00000000 </v>
   </varray>
   <i name="volume">  27000.00000000 </i>
   <varray name="rec_basis" >
    <v>       0.03333333       0.00000000       0.00000000 </v>
    <v>       0.00000000       0.03333333       0.00000000 </v>
    <v>       0.00000000       0.00000000       0.03333333 </v>
   </varray>
  </crystal>
  <varray name="positions" >
   <v>       0.44576020       0.32826710       0.41691983 </v>
   <v>      -0.44576020       0.32826710       0.41691983 </v>
   <v>      -0.50000000       0.38250690       0.34021317 </v>
   <v>      -0.50000000       0.27609440      -0.50000000 </v>
   <v>       0.38804720       0.38804720       0.34167483 </v>
   <v>      -0.50000000       0.38416601      -0.50000000 </v>
   <v>       0.44208300       0.44208300       0.41809300 </v>
   <v>       0.38317830       0.38317830      -0.50000000 </v>
   <v>      -0.44208300       0.44208300       0.41809300 </v>
   <v>       0.44576020       0.32826710      -0.41691977 </v>
   <v>       0.32826705       0.44576024       0.41691983 </v>
   <v>      -0.38804720       0.38804720       0.34167483 </v>
   <v>      -0.38317830       0.38317830      -0.50000000 </v>
   <v>      -0.50000000      -0.50000000       0.33478917 </v>
   <v>      -0.50000000      -0.50000000      -0.50000000 </v>
   <v>      -0.44576020       0.32826710      -0.41691977 </v>
   <v>       0.38250685      -0.49999995       0.34021317 </v>
   <v>       0.44208300       0.44208300      -0.41809297 </v>
   <v>       0.38416599      -0.49999998      -0.50000000 </v>
   <v>      -0.44208300       0.44208300      -0.41809297 </v>
   <v>       0.44208298      -0.44208298       0.41809300 </v>
   <v>       0.32826705       0.44576024      -0.41691977 </v>
   <v>      -0.50000000       0.38250690      -0.34021320 </v>
   <v>       0.32826712      -0.44576022       0.41691983 </v>
   <v>      -0.38250685      -0.49999995       0.34021317 </v>
   <v>      -0.32826705       0.44576024       0.41691983 </v>
   <v>       0.27609443       0.49999998      -0.50000000 </v>
   <v>       0.38804720       0.38804720      -0.34167487 </v>
   <v>      -0.38416599      -0.49999998      -0.50000000 </v>
   <v>      -0.44208298      -0.44208298       0.41809300 </v>
   <v>       0.44208298      -0.44208298      -0.41809297 </v>
   <v>      -0.38804720       0.38804720      -0.34167487 </v>
   <v>       0.38804722      -0.38804722       0.34167483 </v>
   <v>       0.38250685      -0.49999995      -0.34021320 </v>
   <v>       0.32826712      -0.44576022      -0.41691977 </v>
   <v>      -0.32826705       0.44576024      -0.41691977 </v>
   <v>       0.50000000      -0.38250681       0.34021317 </v>
   <v>      -0.50000000      -0.38416596      -0.50000000 </v>
   <v>      -0.44208298      -0.44208298      -0.41809297 </v>
   <v>      -0.50000000      -0.50000000      -0.33478913 </v>
   <v>       0.38317828      -0.38317828      -0.50000000 </v>
   <v>      -0.32826712      -0.44576022       0.41691983 </v>
   <v>      -0.27609443       0.49999998      -0.50000000 </v>
   <v>      -0.38804722      -0.38804722       0.34167483 </v>
   <v>      -0.38250685      -0.49999995      -0.34021320 </v>
   <v>       0.44576027      -0.32826707       0.41691983 </v>
   <v>      -0.38317828      -0.38317828      -0.50000000 </v>
   <v>      -0.32826712      -0.44576022      -0.41691977 </v>
   <v>      -0.44576027      -0.32826707       0.41691983 </v>
   <v>       0.38804722      -0.38804722      -0.34167487 </v>
   <v>      -0.50000000      -0.38250681      -0.34021320 </v>
   <v>       0.44576027      -0.32826707      -0.41691977 </v>
   <v>      -0.44576027      -0.32826707      -0.41691977 </v>
   <v>      -0.41752643      -0.30219000       0.47031833 </v>
   <v>      -0.50000000      -0.27609445       0.50000000 </v>
   <v>      -0.38804722      -0.38804722      -0.34167487 </v>
   <v>      -0.40319380      -0.26781370       0.46516010 </v>
  </varray>
 </structure>
 <varray name="primitive_index" >
  <v type="int" >        1 </v>
  <v type="int" >        3 </v>
  <v type="int" >        5 </v>
  <v type="int" >        7 </v>
  <v type="int" >       15 </v>
  <v type="int" >       29 </v>
  <v type="int" >       28 </v>
  <v type="int" >       34 </v>
  <v type="int" >       21 </v>
  <v type="int" >       19 </v>
  <v type="int" >       22 </v>
  <v type="int" >       11 </v>
  <v type="int" >       36 </v>
  <v type="int" >       38 </v>
  <v type="int" >       52 </v>
  <v type="int" >       24 </v>
  <v type="int" >       32 </v>
  <v type="int" >       44 </v>
  <v type="int" >       48 </v>
  <v type="int" >       42 </v>
  <v type="int" >       43 </v>
  <v type="int" >       40 </v>
  <v type="int" >        6 </v>
  <v type="int" >        4 </v>
  <v type="int" >       30 </v>
  <v type="int" >       26 </v>
  <v type="int" >        8 </v>
  <v type="int" >       16 </v>
  <v type="int" >       49 </v>
  <v type="int" >       47 </v>
  <v type="int" >       53 </v>
  <v type="int" >       12 </v>
  <v type="int" >       13 </v>
  <v type="int" >       33 </v>
  <v type="int" >       25 </v>
  <v type="int" >       45 </v>
  <v type="int" >       50 </v>
  <v type="int" >       55 </v>
  <v type="int" >       54 </v>
  <v type="int" >       39 </v>
  <v type="int" >       37 </v>
  <v type="int" >        2 </v>
  <v type="int" >        9 </v>
  <v type="int" >       17 </v>
  <v type="int" >       31 </v>
  <v type="int" >       27 </v>
  <v type="int" >       35 </v>
  <v type="int" >       20 </v>
  <v type="int" >       23 </v>
  <v type="int" >       14 </v>
  <v type="int" >       51 </v>
  <v type="int" >       46 </v>
  <v type="int" >       41 </v>
  <v type="int" >       56 </v>
  <v type="int" >       10 </v>
  <v type="int" >       18 </v>
  <v type="int" >       57 </v>
 </varray>
 <kpoints>
  <generation param="Monkhorst-Pack">
   <v type="int" name="divisions">       1        1        1 </v>
   <v name="usershift">      0.00000000       0.00000000       0.00000000 </v>
   <v name="genvec1">      1.00000000       0.00000000       0.00000000 </v>
   <v name="genvec2">      0.00000000       1.00000000       0.00000000 </v>
   <v name="genvec3">      0.00000000       0.00000000       1.00000000 </v>
   <v name="shift">      0.00000000       0.00000000       0.00000000 </v>
  </generation>
  <varray name="kpointlist" >
   <v>       0.00000000       0.00000000       0.00000000 </v>
  </varray>
  <varray name="weights" >
   <v>       1.00000000 </v>
  </varray>
 </kpoints>
 <parameters>
  <separator name="general" >
   <i type="string" name="SYSTEM">6_Pd100_top_free_z(O)</i>
   <i type="logical" name="LCOMPAT"> F  </i>
  </separator>
  <separator name="electronic" >
   <i type="string" name="PREC">normal</i>
   <i name="ENMAX">    400.00000000</i>
   <i name="ENAUG">    644.87300000</i>
   <i name="EDIFF">      0.00010000</i>
   <i type="int" name="IALGO">    68</i>
   <i type="int" name="IWAVPR">    10</i>
   <i type="int" name="NBANDS">   336</i>
   <i name="NELECT">    560.00000000</i>
   <i type="int" name="TURBO">     0</i>
   <i type="int" name="IRESTART">     0</i>
   <i type="int" name="NREBOOT">     0</i>
   <i type="int" name="NMIN">     0</i>
   <i name="EREF">      0.00000000</i>
   <separator name="electronic smearing" >
    <i type="int" name="ISMEAR">     2</i>
    <i name="SIGMA">      0.20000000</i>
    <i name="KSPACING">      0.50000000</i>
    <i type="logical" name="KGAMMA"> T  </i>
   </separator>
   <separator name="electronic projectors" >
    <i type="logical" name="LREAL"> T  </i>
    <v name="ROPT">     -0.00050000     -0.00050000     -0.00050000</v>
    <i type="int" name="LMAXPAW">  -100</i>
    <i type="int" name="LMAXMIX">     2</i>
    <i type="logical" name="NLSPLINE"> F  </i>
   </separator>
   <separator name="electronic startup" >
    <i type="int" name="ISTART">     0</i>
    <i type="int" name="ICHARG">     2</i>
    <i type="int" name="INIWAV">     1</i>
   </separator>
   <separator name="electronic spin" >
    <i type="int" name="ISPIN">     1</i>
    <i type="logical" name="LNONCOLLINEAR"> F  </i>
    <v name="MAGMOM">      1.00000000      1.00000000      1.00000000      1.00000000      1.00000000      1.00000000      1.00000000      1.00000000      1.00000000      1.00000000      1.00000000      1.00000000      1.00000000      1.00000000      1.00000000      1.00000000      1.00000000      1.00000000      1.00000000      1.00000000
      1.00000000      1.00000000      1.00000000      1.00000000      1.00000000      1.00000000      1.00000000      1.00000000      1.00000000      1.00000000      1.00000000      1.00000000      1.00000000      1.00000000      1.00000000      1.00000000      1.00000000      1.00000000      1.00000000      1.00000000
      1.00000000      1.00000000      1.00000000      1.00000000      1.00000000      1.00000000      1.00000000      1.00000000      1.00000000      1.00000000      1.00000000      1.00000000      1.00000000      1.00000000      1.00000000      1.00000000      1.00000000</v>
    <i name="NUPDOWN">     -1.00000000</i>
    <i type="logical" name="LSORBIT"> F  </i>
    <v name="SAXIS">      0.00000000      0.00000000      1.00000000</v>
    <i type="logical" name="LSPIRAL"> F  </i>
    <v name="QSPIRAL">      0.00000000      0.00000000      0.00000000</v>
    <i type="logical" name="LZEROZ"> F  </i>
   </separator>
   <separator name="electronic exchange-correlation" >
    <i type="logical" name="LASPH"> F  </i>
    <i type="logical" name="LMETAGGA"> F  </i>
   </separator>
   <separator name="electronic convergence" >
    <i type="int" name="NELM">   100</i>
    <i type="int" name="NELMDL">    -5</i>
    <i type="int" name="NELMIN">     6</i>
    <i name="ENINI">    400.00000000</i>
    <separator name="electronic convergence detail" >
     <i type="logical" name="LDIAG"> T  </i>
     <i type="logical" name="LSUBROT"> F  </i>
     <i name="WEIMIN">      0.00000000</i>
     <i name="EBREAK">      0.00000007</i>
     <i name="DEPER">      0.30000000</i>
     <i type="int" name="NRMM">     4</i>
     <i name="TIME">      0.40000000</i>
    </separator>
   </separator>
   <separator name="electronic mixer" >
    <i name="AMIX">      0.40000000</i>
    <i name="BMIX">      1.00000000</i>
    <i name="AMIN">      0.10000000</i>
    <i name="AMIX_MAG">      1.60000000</i>
    <i name="BMIX_MAG">      1.00000000</i>
    <separator name="electronic mixer details" >
     <i type="int" name="IMIX">     4</i>
     <i type="logical" name="MIXFIRST"> F  </i>
     <i type="int" name="MAXMIX">   -45</i>
     <i name="WC">    100.00000000</i>
     <i type="int" name="INIMIX">     1</i>
     <i type="int" name="MIXPRE">     1</i>
     <i type="int" name="MREMOVE">     5</i>
    </separator>
   </separator>
   <separator name="electronic dipolcorrection" >
    <i type="logical" name="LDIPOL"> F  </i>
    <i type="logical" name="LMONO"> F  </i>
    <i type="int" name="IDIPOL">     0</i>
    <i name="EPSILON">      1.00000000</i>
    <v name="DIPOL">   -100.00000000   -100.00000000   -100.00000000</v>
    <i name="EFIELD">      0.00000000</i>
   </separator>
  </separator>
  <separator name="grids" >
   <i type="int" name="NGX">   150</i>
   <i type="int" name="NGY">   150</i>
   <i type="int" name="NGZ">   150</i>
   <i type="int" name="NGXF">   300</i>
   <i type="int" name="NGYF">   300</i>
   <i type="int" name="NGZF">   300</i>
   <i type="logical" name="ADDGRID"> F  </i>
  </separator>
  <separator name="ionic" >
   <i type="int" name="NSW">     0</i>
   <i type="int" name="IBRION">    -1</i>
   <i type="int" name="MDALGO">     0</i>
   <i type="int" name="ISIF">     2</i>
   <i name="PSTRESS">      0.00000000</i>
   <i name="EDIFFG">     -0.05000000</i>
   <i type="int" name="NFREE">     1</i>
   <i name="POTIM">      0.50000000</i>
   <i name="SMASS">     -3.00000000</i>
   <i name="SCALEE">      1.00000000</i>
  </separator>
  <separator name="ionic md" >
   <i name="TEBEG">      0.00010000</i>
   <i name="TEEND">      0.00010000</i>
   <i type="int" name="NBLOCK">     1</i>
   <i type="int" name="KBLOCK">     1</i>
   <i type="int" name="NPACO">   256</i>
   <i name="APACO">     16.00000000</i>
  </separator>
  <separator name="symmetry" >
   <i type="int" name="ISYM">     2</i>
   <i name="SYMPREC">      0.00001000</i>
  </separator>
  <separator name="dos" >
   <i type="int" name="LORBIT">     0</i>
   <v name="RWIGS">     -1.00000000     -1.00000000     -1.00000000</v>
   <i type="int" name="NEDOS">   301</i>
   <i name="EMIN">     10.00000000</i>
   <i name="EMAX">    -10.00000000</i>
   <i name="EFERMI">      0.00000000</i>
  </separator>
  <separator name="writing" >
   <i type="int" name="NWRITE">     2</i>
   <i type="logical" name="LWAVE"> F  </i>
   <i type="logical" name="LDOWNSAMPLE"> F  </i>
   <i type="logical" name="LCHARG"> F  </i>
   <i type="logical" name="LPARD"> F  </i>
   <i type="logical" name="LVTOT"> F  </i>
   <i type="logical" name="LVHAR"> F  </i>
   <i type="logical" name="LELF"> F  </i>
   <i type="logical" name="LOPTICS"> F  </i>
   <v name="STM">      0.00000000      0.00000000      0.00000000      0.00000000      0.00000000      0.00000000      0.00000000</v>
  </separator>
  <separator name="performance" >
   <i type="int" name="NPAR">     1</i>
   <i type="int" name="NSIM">     4</i>
   <i type="int" name="NBLK">    -1</i>
   <i type="logical" name="LPLANE"> T  </i>
   <i type="logical" name="LSCALAPACK"> T  </i>
   <i type="logical" name="LSCAAWARE"> F  </i>
   <i type="logical" name="LSCALU"> F  </i>
   <i type="logical" name="LASYNC"> F  </i>
   <i type="logical" name="LORBITALREAL"> F  </i>
  </separator>
  <separator name="miscellaneous" >
   <i type="int" name="IDIOT">     3</i>
   <i type="int" name="ISPECIAL">     0</i>
   <i type="logical" name="LMUSIC"> F  </i>
   <v name="POMASS">    106.42000000     12.01100000     16.00000000</v>
   <v name="DARWINR">      0.00000000      0.00000000      0.00000000</v>
   <v name="DARWINV">      1.00000000      1.00000000      1.00000000</v>
   <i type="logical" name="LCORR"> T  </i>
  </separator>
  <i type="logical" name="GGA_COMPAT"> T  </i>
  <i type="logical" name="LBERRY"> F  </i>
  <i type="int" name="ICORELEVEL">     0</i>
  <i type="logical" name="LDAU"> F  </i>
  <i type="int" name="I_CONSTRAINED_M">     0</i>
  <separator name="electronic exchange-correlation" >
   <i type="string" name="GGA">RP</i>
   <i type="int" name="VOSKOWN">     0</i>
   <i type="logical" name="LHFCALC"> F  </i>
   <i type="string" name="PRECFOCK"></i>
   <i type="logical" name="LSYMGRAD"> F  </i>
   <i type="logical" name="LHFONE"> F  </i>
   <i type="logical" name="LRHFCALC"> F  </i>
   <i type="logical" name="LTHOMAS"> F  </i>
   <i type="logical" name="LMODELHF"> F  </i>
   <i name="ENCUT4O">     -1.00000000</i>
   <i type="int" name="EXXOEP">     0</i>
   <i type="int" name="FOURORBIT">     0</i>
   <i name="AEXX">      0.00000000</i>
   <i name="HFALPHA">      0.00000000</i>
   <i name="MCALPHA">      0.00000000</i>
   <i name="ALDAX">      1.00000000</i>
   <i name="AGGAX">      1.00000000</i>
   <i name="ALDAC">      1.00000000</i>
   <i name="AGGAC">      1.00000000</i>
   <i type="int" name="NKREDX">     1</i>
   <i type="int" name="NKREDY">     1</i>
   <i type="int" name="NKREDZ">     1</i>
   <i type="logical" name="SHIFTRED"> F  </i>
   <i type="logical" name="ODDONLY"> F  </i>
   <i type="logical" name="EVENONLY"> F  </i>
   <i type="int" name="LMAXFOCK">     0</i>
   <i type="int" name="NMAXFOCKAE">     0</i>
   <i type="logical" name="LFOCKAEDFT"> F  </i>
   <i name="HFSCREEN">      0.00000000</i>
   <i name="HFSCREENC">      0.00000000</i>
   <i type="int" name="NBANDSGWLOW">     0</i>
  </separator>
  <separator name="vdW DFT" >
   <i type="logical" name="LUSE_VDW"> F  </i>
   <i name="Zab_VDW">     -0.84910000</i>
   <i name="PARAM1">      0.12340000</i>
   <i name="PARAM2">      1.00000000</i>
   <i name="PARAM3">      0.00000000</i>
  </separator>
  <separator name="model GW" >
   <i type="int" name="MODEL_GW">     0</i>
   <i name="MODEL_EPS0">    284.21052632</i>
   <i name="MODEL_ALPHA">      1.00000000</i>
  </separator>
  <separator name="linear response parameters" >
   <i type="logical" name="LEPSILON"> F  </i>
   <i type="logical" name="LRPA"> F  </i>
   <i type="logical" name="LNABLA"> F  </i>
   <i type="logical" name="LVEL"> F  </i>
   <i type="int" name="KINTER">     0</i>
   <i name="CSHIFT">      0.10000000</i>
   <i name="OMEGAMAX">     -1.00000000</i>
   <i name="DEG_THRESHOLD">      0.00200000</i>
   <i name="RTIME">     -0.10000000</i>
   <i name="WPLASMAI">      0.00000000</i>
   <v name="DFIELD">      0.00000000      0.00000000      0.00000000</v>
   <v name="WPLASMA">      0.00000000      0.00000000      0.00000000      0.00000000      0.00000000      0.00000000      0.00000000      0.00000000      0.00000000</v>
  </separator>
  <separator name="orbital magnetization" >
   <i type="logical" name="NUCIND"> F  </i>
   <v name="MAGPOS">      0.00000000      0.00000000      0.00000000</v>
   <i type="logical" name="LNICSALL"> T  </i>
   <i type="logical" name="ORBITALMAG"> F  </i>
   <i type="logical" name="LMAGBLOCH"> F  </i>
   <i type="logical" name="LCHIMAG"> F  </i>
   <i type="logical" name="LGAUGE"> T  </i>
   <i type="int" name="MAGATOM">     0</i>
   <v name="MAGDIPOL">      0.00000000      0.00000000      0.00000000</v>
   <v name="AVECCONST">      0.00000000      0.00000000      0.00000000</v>
  </separator>
  <separator name="response functions" >
   <i type="logical" name="LADDER"> F  </i>
   <i type="logical" name="LRPAFORCE"> F  </i>
   <i type="logical" name="LFXC"> F  </i>
   <i type="logical" name="LHARTREE"> T  </i>
   <i type="int" name="IBSE">     0</i>
   <v type="int" name="KPOINT">    -1     0     0     0</v>
   <i type="logical" name="LTCTE"> F  </i>
   <i type="logical" name="LTETE"> F  </i>
   <i type="logical" name="LTRIPLET"> F  </i>
   <i type="logical" name="LFXCEPS"> F  </i>
   <i type="logical" name="LFXHEG"> F  </i>
   <i type="int" name="NATURALO">     2</i>
   <i type="logical" name="L2ORDER"> F  </i>
   <i type="logical" name="LMP2LT"> F  </i>
   <i type="logical" name="LUSEW"> F  </i>
   <i name="ENCUTGW">     -2.00000000</i>
   <i name="ENCUTGWSOFT">     -2.00000000</i>
   <i name="ENCUTLF">     -1.00000000</i>
   <i type="int" name="LMAXMP2">    -1</i>
   <i name="SCISSOR">      0.00000000</i>
   <i type="int" name="NOMEGA">     0</i>
   <i type="int" name="NOMEGAR">     0</i>
   <i type="int" name="NBANDSGW">    -1</i>
   <i type="int" name="NBANDSO">    -1</i>
   <i type="int" name="NBANDSV">    -1</i>
   <i type="int" name="NELM">   100</i>
   <i type="int" name="NELMHF">     1</i>
   <i type="int" name="DIM">     3</i>
   <i type="int" name="ANTIRES">     0</i>
   <i name="OMEGAMAX">    -30.00000000</i>
   <i name="OMEGAMIN">    -30.00000000</i>
   <i name="OMEGATL">   -200.00000000</i>
   <i type="int" name="OMEGAGRID">   140</i>
   <i name="CSHIFT">     -0.10000000</i>
   <i type="logical" name="SELFENERGY"> F  </i>
   <i type="logical" name="LSPECTRAL"> F  </i>
   <i type="logical" name="LSPECTRALGW"> F  </i>
   <i type="logical" name="LSINGLES"> F  </i>
   <i type="logical" name="LFERMIGW"> F  </i>
   <i type="logical" name="ODDONLYGW"> F  </i>
   <i type="logical" name="EVENONLYGW"> F  </i>
   <i type="int" name="NKREDLFX">     1</i>
   <i type="int" name="NKREDLFY">     1</i>
   <i type="int" name="NKREDLFZ">     1</i>
   <i type="int" name="MAXMEM"> 10000</i>
   <i type="int" name="TELESCOPE">     0</i>
   <i type="int" name="TAUPAR">     1</i>
   <i type="int" name="OMEGAPAR">    -1</i>
   <i name="LAMBDA">      1.00000000</i>
  </separator>
  <separator name="External order field" >
   <i name="OFIELD_KAPPA">      0.00000000</i>
   <v name="OFIELD_K">      0.00000000      0.00000000      0.00000000</v>
   <i name="OFIELD_Q6_NEAR">      0.00000000</i>
   <i name="OFIELD_Q6_FAR">      0.00000000</i>
   <i name="OFIELD_A">      0.00000000</i>
  </separator>
 </parameters>
 <atominfo>
  <atoms>      57 </atoms>
  <types>       3 </types>
  <array name="atoms" >
   <dimension dim="1">ion</dimension>
   <field type="string">element</field>
   <field type="int">atomtype</field>
   <set>
    <rc><c>Pd</c><c>   1</c></rc>
    <rc><c>Pd</c><c>   1</c></rc>
    <rc><c>Pd</c><c>   1</c></rc>
    <rc><c>Pd</c><c>   1</c></rc>
    <rc><c>Pd</c><c>   1</c></rc>
    <rc><c>Pd</c><c>   1</c></rc>
    <rc><c>Pd</c><c>   1</c></rc>
    <rc><c>Pd</c><c>   1</c></rc>
    <rc><c>Pd</c><c>   1</c></rc>
    <rc><c>Pd</c><c>   1</c></rc>
    <rc><c>Pd</c><c>   1</c></rc>
    <rc><c>Pd</c><c>   1</c></rc>
    <rc><c>Pd</c><c>   1</c></rc>
    <rc><c>Pd</c><c>   1</c></rc>
    <rc><c>Pd</c><c>   1</c></rc>
    <rc><c>Pd</c><c>   1</c></rc>
    <rc><c>Pd</c><c>   1</c></rc>
    <rc><c>Pd</c><c>   1</c></rc>
    <rc><c>Pd</c><c>   1</c></rc>
    <rc><c>Pd</c><c>   1</c></rc>
    <rc><c>Pd</c><c>   1</c></rc>
    <rc><c>Pd</c><c>   1</c></rc>
    <rc><c>Pd</c><c>   1</c></rc>
    <rc><c>Pd</c><c>   1</c></rc>
    <rc><c>Pd</c><c>   1</c></rc>
    <rc><c>Pd</c><c>   1</c></rc>
    <rc><c>Pd</c><c>   1</c></rc>
    <rc><c>Pd</c><c>   1</c></rc>
    <rc><c>Pd</c><c>   1</c></rc>
    <rc><c>Pd</c><c>   1</c></rc>
    <rc><c>Pd</c><c>   1</c></rc>
    <rc><c>Pd</c><c>   1</c></rc>
    <rc><c>Pd</c><c>   1</c></rc>
    <rc><c>Pd</c><c>   1</c></rc>
    <rc><c>Pd</c><c>   1</c></rc>
    <rc><c>Pd</c><c>   1</c></rc>
    <rc><c>Pd</c><c>   1</c></rc>
    <rc><c>Pd</c><c>   1</c></rc>
    <rc><c>Pd</c><c>   1</c></rc>
    <rc><c>Pd</c><c>   1</c></rc>
    <rc><c>Pd</c><c>   1</c></rc>
    <rc><c>Pd</c><c>   1</c></rc>
    <rc><c>Pd</c><c>   1</c></rc>
    <rc><c>Pd</c><c>   1</c></rc>
    <rc><c>Pd</c><c>   1</c></rc>
    <rc><c>Pd</c><c>   1</c></rc>
    <rc><c>Pd</c><c>   1</c></rc>
    <rc><c>Pd</c><c>   1</c></rc>
    <rc><c>Pd</c><c>   1</c></rc>
    <rc><c>Pd</c><c>   1</c></rc>
    <rc><c>Pd</c><c>   1</c></rc>
    <rc><c>Pd</c><c>   1</c></rc>
    <rc><c>Pd</c><c>   1</c></rc>
    <rc><c>Pd</c><c>   1</c></rc>
    <rc><c>Pd</c><c>   1</c></rc>
    <rc><c>C </c><c>   2</c></rc>
    <rc><c>O </c><c>   3</c></rc>
   </set>
  </array>
  <array name="atomtypes" >
   <dimension dim="1">type</dimension>
   <field type="int">atomspertype</field>
   <field type="string">element</field>
   <field>mass</field>
   <field>valence</field>
   <field type="string">pseudopotential</field>
   <set>
    <rc><c>  55</c><c>Pd</c><c>    106.42000000</c><c>     10.00000000</c><c>  PAW_PBE Pd 04Jan2005                  </c></rc>
    <rc><c>   1</c><c>C </c><c>     12.01100000</c><c>      4.00000000</c><c>  PAW_PBE C 08Apr2002                   </c></rc>
    <rc><c>   1</c><c>O </c><c>     16.00000000</c><c>      6.00000000</c><c>  PAW_PBE O 08Apr2002                   </c></rc>
   </set>
  </array>
 </atominfo>
 <structure name="initialpos" >
  <crystal>
   <varray name="basis" >
    <v>      30.00000000       0.00000000       0.00000000 </v>
    <v>       0.00000000      30.00000000       0.00000000 </v>
    <v>       0.00000000       0.00000000      30.00000000 </v>
   </varray>
   <i name="volume">  27000.00000000 </i>
   <varray name="rec_basis" >
    <v>       0.03333333       0.00000000       0.00000000 </v>
    <v>       0.00000000       0.03333333       0.00000000 </v>
    <v>       0.00000000       0.00000000       0.03333333 </v>
   </varray>
  </crystal>
  <varray name="positions" >
   <v>       0.44576020       0.32826710       0.41691983 </v>
   <v>       0.67173288       0.55423978       0.41691983 </v>
   <v>       0.55423980       0.32826710       0.41691983 </v>
   <v>       0.32826712       0.55423978       0.41691983 </v>
   <v>       0.50000000       0.38250690       0.34021317 </v>
   <v>       0.50000000       0.38250690       0.65978680 </v>
   <v>       0.50000000       0.27609440       0.50000000 </v>
   <v>       0.27609443       0.49999998       0.50000000 </v>
   <v>       0.72390557       0.49999998       0.50000000 </v>
   <v>       0.50000000       0.72390555       0.50000000 </v>
   <v>       0.61195280       0.38804720       0.34167483 </v>
   <v>       0.61195280       0.38804720       0.65832513 </v>
   <v>       0.38804722       0.61195278       0.34167483 </v>
   <v>       0.38804722       0.61195278       0.65832513 </v>
   <v>       0.38804720       0.38804720       0.34167483 </v>
   <v>       0.38804720       0.38804720       0.65832513 </v>
   <v>       0.61195278       0.61195278       0.34167483 </v>
   <v>       0.61195278       0.61195278       0.65832513 </v>
   <v>       0.44576020       0.32826710       0.58308023 </v>
   <v>       0.67173288       0.55423978       0.58308023 </v>
   <v>       0.55791699       0.44208301       0.41809300 </v>
   <v>       0.32826705       0.44576024       0.41691983 </v>
   <v>       0.55423973       0.67173293       0.41691983 </v>
   <v>       0.55423980       0.32826710       0.58308023 </v>
   <v>       0.32826712       0.55423978       0.58308023 </v>
   <v>       0.67173295       0.44576024       0.41691983 </v>
   <v>       0.44576027       0.67173293       0.41691983 </v>
   <v>       0.44208301       0.44208301       0.41809300 </v>
   <v>       0.50000000       0.38416601       0.50000000 </v>
   <v>       0.61749315       0.50000005       0.34021317 </v>
   <v>       0.61749315       0.50000005       0.65978680 </v>
   <v>       0.38250685       0.50000005       0.34021317 </v>
   <v>       0.38250685       0.50000005       0.65978680 </v>
   <v>       0.38317830       0.38317830       0.50000000 </v>
   <v>       0.61682172       0.61682172       0.50000000 </v>
   <v>       0.61682170       0.38317830       0.50000000 </v>
   <v>       0.38317828       0.61682172       0.50000000 </v>
   <v>       0.50000000       0.50000000       0.33478917 </v>
   <v>       0.50000000       0.50000000       0.66521087 </v>
   <v>       0.32826705       0.44576024       0.58308023 </v>
   <v>       0.55423973       0.67173293       0.58308023 </v>
   <v>       0.55791699       0.44208301       0.58190703 </v>
   <v>       0.44208298       0.55791702       0.41809300 </v>
   <v>       0.44208301       0.44208301       0.58190703 </v>
   <v>       0.67173295       0.44576024       0.58308023 </v>
   <v>       0.44576027       0.67173293       0.58308023 </v>
   <v>       0.55791702       0.55791702       0.41809300 </v>
   <v>       0.38416599       0.50000002       0.50000000 </v>
   <v>       0.61583401       0.50000002       0.50000000 </v>
   <v>       0.50000000       0.61749319       0.34021317 </v>
   <v>       0.50000000       0.61749319       0.65978680 </v>
   <v>       0.50000000       0.50000000       0.50000000 </v>
   <v>       0.44208298       0.55791702       0.58190703 </v>
   <v>       0.55791702       0.55791702       0.58190703 </v>
   <v>       0.50000000       0.61583404       0.50000000 </v>
   <v>       0.58247357       0.69781000       0.47031833 </v>
   <v>       0.59680620       0.73218630       0.46516010 </v>
  </varray>
  <varray name="selective"  type="logical" >
   <v type="logical" >  F  F  F </v>
   <v type="logical" >  F  F  F </v>
   <v type="logical" >  F  F  F </v>
   <v type="logical" >  F  F  F </v>
   <v type="logical" >  F  F  F </v>
   <v type="logical" >  F  F  F </v>
   <v type="logical" >  F  F  F </v>
   <v type="logical" >  F  F  F </v>
   <v type="logical" >  F  F  F </v>
   <v type="logical" >  F  F  F </v>
   <v type="logical" >  F  F  F </v>
   <v type="logical" >  F  F  F </v>
   <v type="logical" >  F  F  F </v>
   <v type="logical" >  F  F  F </v>
   <v type="logical" >  F  F  F </v>
   <v type="logical" >  F  F  F </v>
   <v type="logical" >  F  F  F </v>
   <v type="logical" >  F  F  F </v>
   <v type="logical" >  F  F  F </v>
   <v type="logical" >  F  F  F </v>
   <v type="logical" >  F  F  F </v>
   <v type="logical" >  F  F  F </v>
   <v type="logical" >  F  F  F </v>
   <v type="logical" >  F  F  F </v>
   <v type="logical" >  F  F  F </v>
   <v type="logical" >  F  F  F </v>
   <v type="logical" >  F  F  F </v>
   <v type="logical" >  F  F  F </v>
   <v type="logical" >  F  F  F </v>
   <v type="logical" >  F  F  F </v>
   <v type="logical" >  F  F  F </v>
   <v type="logical" >  F  F  F </v>
   <v type="logical" >  F  F  F </v>
   <v type="logical" >  F  F  F </v>
   <v type="logical" >  F  F  F </v>
   <v type="logical" >  F  F  F </v>
   <v type="logical" >  F  F  F </v>
   <v type="logical" >  F  F  F </v>
   <v type="logical" >  F  F  F </v>
   <v type="logical" >  F  F  F </v>
   <v type="logical" >  F  F  F </v>
   <v type="logical" >  F  F  F </v>
   <v type="logical" >  F  F  F </v>
   <v type="logical" >  F  F  F </v>
   <v type="logical" >  F  F  F </v>
   <v type="logical" >  F  F  F </v>
   <v type="logical" >  F  F  F </v>
   <v type="logical" >  F  F  F </v>
   <v type="logical" >  F  F  F </v>
   <v type="logical" >  F  F  F </v>
   <v type="logical" >  F  F  F </v>
   <v type="logical" >  F  F  F </v>
   <v type="logical" >  F  F  F </v>
   <v type="logical" >  F  F  F </v>
   <v type="logical" >  F  F  F </v>
   <v type="logical" >  F  F  F </v>
   <v type="logical" >  F  F  F </v>
  </varray>
  <nose>
   <v>      -3.00000000       0.00000000       0.00010000       0.00010000 </v>
  </nose>
 </structure>
 <calculation>
  <scstep>
   <time name="dav">  360.27  360.36</time>
   <time name="total">  374.30  374.39</time>
   <energy>
    <i name="alphaZ">     75.25431677 </i>
    <i name="ewald"> 139185.37975436 </i>
    <i name="hartreedc">-182544.11650809 </i>
    <i name="XCdc">  -1702.61385861 </i>
    <i name="pawpsdc">  44873.02882129 </i>
    <i name="pawaedc"> -41398.84523641 </i>
    <i name="eentropy">     -0.02281341 </i>
    <i name="bandstr">    816.80664312 </i>
    <i name="atom">  45086.50549395 </i>
    <i name="e_fr_energy">   4391.37661298 </i>
    <i name="e_wo_entrp">   4391.39942639 </i>
    <i name="e_0_energy">   4391.38231633 </i>
   </energy>
  </scstep>
  <scstep>
   <time name="dav">  573.83  573.83</time>
   <time name="total">  573.83  573.83</time>
   <energy>
    <i name="e_fr_energy">   2009.95439234 </i>
    <i name="e_wo_entrp">   2009.97044309 </i>
    <i name="e_0_energy">   2009.95840503 </i>
   </energy>
  </scstep>
  <scstep>
   <time name="dav">  479.48  479.50</time>
   <time name="total">  479.48  479.50</time>
   <energy>
    <i name="e_fr_energy">    236.26576510 </i>
    <i name="e_wo_entrp">    236.28021240 </i>
    <i name="e_0_energy">    236.26937693 </i>
   </energy>
  </scstep>
  <scstep>
   <time name="dav">  418.73  418.74</time>
   <time name="total">  418.74  418.74</time>
   <energy>
    <i name="e_fr_energy">   -136.00834746 </i>
    <i name="e_wo_entrp">   -135.96731954 </i>
    <i name="e_0_energy">   -135.99809048 </i>
   </energy>
  </scstep>
  <scstep>
   <time name="dav">  504.54  504.54</time>
   <time name="total">  530.52  530.52</time>
   <energy>
    <i name="e_fr_energy">   -179.97530397 </i>
    <i name="e_wo_entrp">   -180.50895752 </i>
    <i name="e_0_energy">   -180.10871736 </i>
   </energy>
  </scstep>
  <scstep>
   <time name="diag">   66.23   66.23</time>
   <time name="diis">  202.75  202.75</time>
   <time name="orth">   12.99   12.99</time>
   <time name="total">  320.76  320.77</time>
   <energy>
    <i name="e_fr_energy">   -180.09861550 </i>
    <i name="e_wo_entrp">   -179.99922017 </i>
    <i name="e_0_energy">   -180.07376667 </i>
   </energy>
  </scstep>
  <scstep>
   <time name="diag">   66.32   66.32</time>
   <time name="diis">  239.86  239.86</time>
   <time name="orth">   13.06   13.06</time>
   <time name="total">  357.78  357.79</time>
   <energy>
    <i name="e_fr_energy">   -182.41230627 </i>
    <i name="e_wo_entrp">   -182.43115598 </i>
    <i name="e_0_energy">   -182.41701870 </i>
   </energy>
  </scstep>
  <scstep>
   <time name="diag">   66.45   66.45</time>
   <time name="diis">  217.21  217.21</time>
   <time name="orth">   13.20   13.20</time>
   <time name="total">  335.52  335.52</time>
   <energy>
    <i name="e_fr_energy">   -183.48082489 </i>
    <i name="e_wo_entrp">   -183.33755975 </i>
    <i name="e_0_energy">   -183.44500861 </i>
   </energy>
  </scstep>
  <scstep>
   <time name="diag">   66.31   66.31</time>
   <time name="diis">  201.10  201.10</time>
   <time name="orth">   13.14   13.14</time>
   <time name="total">  318.94  318.95</time>
   <energy>
    <i name="e_fr_energy">   -182.20119351 </i>
    <i name="e_wo_entrp">   -182.12509258 </i>
    <i name="e_0_energy">   -182.18216828 </i>
   </energy>
  </scstep>
  <scstep>
   <time name="diag">   66.34   66.34</time>
   <time name="diis">  202.81  202.81</time>
   <time name="orth">   13.15   13.15</time>
   <time name="total">  321.05  321.05</time>
   <energy>
    <i name="e_fr_energy">   -180.22423318 </i>
    <i name="e_wo_entrp">   -180.16858268 </i>
    <i name="e_0_energy">   -180.21032055 </i>
   </energy>
  </scstep>
  <scstep>
   <time name="diag">   66.18   66.18</time>
   <time name="diis">  204.18  204.18</time>
   <time name="orth">   13.18   13.18</time>
   <time name="total">  322.34  322.34</time>
   <energy>
    <i name="e_fr_energy">   -178.17047475 </i>
    <i name="e_wo_entrp">   -178.10391526 </i>
    <i name="e_0_energy">   -178.15383488 </i>
   </energy>
  </scstep>
  <scstep>
   <time name="diag">   66.25   66.25</time>
   <time name="diis">  197.21  197.22</time>
   <time name="orth">   13.31   13.31</time>
   <time name="total">  315.92  315.93</time>
   <energy>
    <i name="e_fr_energy">   -177.41715072 </i>
    <i name="e_wo_entrp">   -177.49996691 </i>
    <i name="e_0_energy">   -177.43785476 </i>
   </energy>
  </scstep>
  <scstep>
   <time name="diag">   66.28   66.28</time>
   <time name="diis">  202.41  202.42</time>
   <time name="orth">   13.25   13.25</time>
   <time name="total">  320.66  320.67</time>
   <energy>
    <i name="e_fr_energy">   -176.61956840 </i>
    <i name="e_wo_entrp">   -176.57101721 </i>
    <i name="e_0_energy">   -176.60743060 </i>
   </energy>
  </scstep>
  <scstep>
   <time name="diag">   66.26   66.26</time>
   <time name="diis">  194.71  194.72</time>
   <time name="orth">   13.15   13.15</time>
   <time name="total">  313.09  313.09</time>
   <energy>
    <i name="e_fr_energy">   -176.97992909 </i>
    <i name="e_wo_entrp">   -176.99498132 </i>
    <i name="e_0_energy">   -176.98369215 </i>
   </energy>
  </scstep>
  <scstep>
   <time name="diag">   66.43   66.43</time>
   <time name="diis">  198.28  198.28</time>
   <time name="orth">   13.31   13.31</time>
   <time name="total">  317.12  317.12</time>
   <energy>
    <i name="e_fr_energy">   -176.67097976 </i>
    <i name="e_wo_entrp">   -176.67345444 </i>
    <i name="e_0_energy">   -176.67159843 </i>
   </energy>
  </scstep>
  <scstep>
   <time name="diag">   66.38   66.38</time>
   <time name="diis">  198.05  198.05</time>
   <time name="orth">   13.48   13.48</time>
   <time name="total">  316.65  316.66</time>
   <energy>
    <i name="e_fr_energy">   -176.34813851 </i>
    <i name="e_wo_entrp">   -176.35285043 </i>
    <i name="e_0_energy">   -176.34931649 </i>
   </energy>
  </scstep>
  <scstep>
   <time name="diag">   66.54   66.54</time>
   <time name="diis">  196.75  196.75</time>
   <time name="orth">   13.39   13.39</time>
   <time name="total">  315.81  315.81</time>
   <energy>
    <i name="e_fr_energy">   -176.06146196 </i>
    <i name="e_wo_entrp">   -176.15327672 </i>
    <i name="e_0_energy">   -176.08441565 </i>
   </energy>
  </scstep>
  <scstep>
   <time name="diag">   66.37   66.37</time>
   <time name="diis">  193.40  193.40</time>
   <time name="orth">   13.31   13.31</time>
   <time name="total">  312.34  312.34</time>
   <energy>
    <i name="e_fr_energy">   -175.48554188 </i>
    <i name="e_wo_entrp">   -175.45519106 </i>
    <i name="e_0_energy">   -175.47795418 </i>
   </energy>
  </scstep>
  <scstep>
   <time name="diag">   66.33   66.34</time>
   <time name="diis">  192.72  192.73</time>
   <time name="orth">   13.21   13.21</time>
   <time name="total">  311.33  311.33</time>
   <energy>
    <i name="e_fr_energy">   -175.41637934 </i>
    <i name="e_wo_entrp">   -175.39361161 </i>
    <i name="e_0_energy">   -175.41068741 </i>
   </energy>
  </scstep>
  <scstep>
   <time name="diag">   66.33   66.33</time>
   <time name="diis">  193.64  193.65</time>
   <time name="orth">   13.35   13.35</time>
   <time name="total">  312.42  312.42</time>
   <energy>
    <i name="e_fr_energy">   -175.54241230 </i>
    <i name="e_wo_entrp">   -175.59203000 </i>
    <i name="e_0_energy">   -175.55481673 </i>
   </energy>
  </scstep>
  <scstep>
   <time name="diag">   66.44   66.44</time>
   <time name="diis">  194.56  194.56</time>
   <time name="orth">   13.41   13.41</time>
   <time name="total">  313.75  313.75</time>
   <energy>
    <i name="e_fr_energy">   -175.33873770 </i>
    <i name="e_wo_entrp">   -175.38768812 </i>
    <i name="e_0_energy">   -175.35097530 </i>
   </energy>
  </scstep>
  <scstep>
   <time name="diag">   66.61   66.61</time>
   <time name="diis">  192.40  192.41</time>
   <time name="orth">   13.33   13.33</time>
   <time name="total">  311.70  311.71</time>
   <energy>
    <i name="e_fr_energy">   -175.08963715 </i>
    <i name="e_wo_entrp">   -175.08586908 </i>
    <i name="e_0_energy">   -175.08869513 </i>
   </energy>
  </scstep>
  <scstep>
   <time name="diag">   66.36   66.36</time>
   <time name="diis">  191.91  191.91</time>
   <time name="orth">   13.46   13.46</time>
   <time name="total">  311.12  311.13</time>
   <energy>
    <i name="e_fr_energy">   -175.01804700 </i>
    <i name="e_wo_entrp">   -175.01153388 </i>
    <i name="e_0_energy">   -175.01641872 </i>
   </energy>
  </scstep>
  <scstep>
   <time name="diag">   66.34   66.35</time>
   <time name="diis">  192.62  192.62</time>
   <time name="orth">   13.37   13.37</time>
   <time name="total">  312.05  312.05</time>
   <energy>
    <i name="e_fr_energy">   -174.99244208 </i>
    <i name="e_wo_entrp">   -174.94539229 </i>
    <i name="e_0_energy">   -174.98067963 </i>
   </energy>
  </scstep>
  <scstep>
   <time name="diag">   66.56   66.57</time>
   <time name="diis">  192.89  192.89</time>
   <time name="orth">   13.31   13.31</time>
   <time name="total">  312.31  312.31</time>
   <energy>
    <i name="e_fr_energy">   -174.96123741 </i>
    <i name="e_wo_entrp">   -174.88991433 </i>
    <i name="e_0_energy">   -174.94340664 </i>
   </energy>
  </scstep>
  <scstep>
   <time name="diag">   66.48   66.48</time>
   <time name="diis">  190.98  190.98</time>
   <time name="orth">   13.42   13.42</time>
   <time name="total">  310.65  310.65</time>
   <energy>
    <i name="e_fr_energy">   -174.81102104 </i>
    <i name="e_wo_entrp">   -174.74764975 </i>
    <i name="e_0_energy">   -174.79517822 </i>
   </energy>
  </scstep>
  <scstep>
   <time name="diag">   66.53   66.53</time>
   <time name="diis">  191.26  191.26</time>
   <time name="orth">   13.41   13.41</time>
   <time name="total">  311.04  311.05</time>
   <energy>
    <i name="e_fr_energy">   -174.75806367 </i>
    <i name="e_wo_entrp">   -174.71725679 </i>
    <i name="e_0_energy">   -174.74786195 </i>
   </energy>
  </scstep>
  <scstep>
   <time name="diag">   66.55   66.55</time>
   <time name="diis">  190.96  190.96</time>
   <time name="orth">   13.37   13.37</time>
   <time name="total">  310.79  310.80</time>
   <energy>
    <i name="e_fr_energy">   -174.74212559 </i>
    <i name="e_wo_entrp">   -174.69507557 </i>
    <i name="e_0_energy">   -174.73036308 </i>
   </energy>
  </scstep>
  <scstep>
   <time name="diag">   66.47   66.47</time>
   <time name="diis">  190.27  190.27</time>
   <time name="orth">   13.44   13.44</time>
   <time name="total">  310.29  310.29</time>
   <energy>
    <i name="e_fr_energy">   -174.73002090 </i>
    <i name="e_wo_entrp">   -174.68970086 </i>
    <i name="e_0_energy">   -174.71994089 </i>
   </energy>
  </scstep>
  <scstep>
   <time name="diag">   66.51   66.51</time>
   <time name="diis">  190.95  190.95</time>
   <time name="orth">   13.33   13.33</time>
   <time name="total">  310.73  310.73</time>
   <energy>
    <i name="e_fr_energy">   -174.70914026 </i>
    <i name="e_wo_entrp">   -174.66304875 </i>
    <i name="e_0_energy">   -174.69761738 </i>
   </energy>
  </scstep>
  <scstep>
   <time name="diag">   66.53   66.53</time>
   <time name="diis">  189.94  189.94</time>
   <time name="orth">   13.43   13.43</time>
   <time name="total">  310.14  310.15</time>
   <energy>
    <i name="e_fr_energy">   -174.70630707 </i>
    <i name="e_wo_entrp">   -174.66391301 </i>
    <i name="e_0_energy">   -174.69570856 </i>
   </energy>
  </scstep>
  <scstep>
   <time name="diag">   66.47   66.47</time>
   <time name="diis">  191.32  191.32</time>
   <time name="orth">   13.42   13.42</time>
   <time name="total">  311.72  311.72</time>
   <energy>
    <i name="e_fr_energy">   -174.69360424 </i>
    <i name="e_wo_entrp">   -174.64991960 </i>
    <i name="e_0_energy">   -174.68268308 </i>
   </energy>
  </scstep>
  <scstep>
   <time name="diag">   66.46   66.46</time>
   <time name="diis">  190.47  190.48</time>
   <time name="orth">   13.46   13.46</time>
   <time name="total">  310.86  310.86</time>
   <energy>
    <i name="e_fr_energy">   -174.69097140 </i>
    <i name="e_wo_entrp">   -174.65023663 </i>
    <i name="e_0_energy">   -174.68078770 </i>
   </energy>
  </scstep>
  <scstep>
   <time name="diag">   66.68   66.68</time>
   <time name="diis">  190.28  190.29</time>
   <time name="orth">   13.43   13.43</time>
   <time name="total">  310.92  310.93</time>
   <energy>
    <i name="e_fr_energy">   -174.68686605 </i>
    <i name="e_wo_entrp">   -174.64601291 </i>
    <i name="e_0_energy">   -174.67665277 </i>
   </energy>
  </scstep>
  <scstep>
   <time name="diag">   66.42   66.42</time>
   <time name="diis">  189.72  189.72</time>
   <time name="orth">   13.48   13.48</time>
   <time name="total">  310.11  310.12</time>
   <energy>
    <i name="e_fr_energy">   -174.68570524 </i>
    <i name="e_wo_entrp">   -174.63804445 </i>
    <i name="e_0_energy">   -174.67379004 </i>
   </energy>
  </scstep>
  <scstep>
   <time name="diag">   66.38   66.38</time>
   <time name="diis">  189.23  189.23</time>
   <time name="orth">   13.53   13.53</time>
   <time name="total">  309.99  310.00</time>
   <energy>
    <i name="e_fr_energy">   -174.68637921 </i>
    <i name="e_wo_entrp">   -174.64514928 </i>
    <i name="e_0_energy">   -174.67607173 </i>
   </energy>
  </scstep>
  <scstep>
   <time name="diag">   66.51   66.51</time>
   <time name="diis">  190.03  190.03</time>
   <time name="orth">   13.41   13.41</time>
   <time name="total">  310.78  310.78</time>
   <energy>
    <i name="e_fr_energy">   -174.68610028 </i>
    <i name="e_wo_entrp">   -174.64654642 </i>
    <i name="e_0_energy">   -174.67621182 </i>
   </energy>
  </scstep>
  <scstep>
   <time name="diag">   66.60   66.60</time>
   <time name="diis">  189.31  189.31</time>
   <time name="orth">   13.66   13.66</time>
   <time name="total">  310.46  310.46</time>
   <energy>
    <i name="e_fr_energy">   -174.68765865 </i>
    <i name="e_wo_entrp">   -174.64845383 </i>
    <i name="e_0_energy">   -174.67785744 </i>
   </energy>
  </scstep>
  <scstep>
   <time name="diag">   66.61   66.61</time>
   <time name="diis">  186.97  186.97</time>
   <time name="orth">   13.88   13.88</time>
   <time name="total">  308.60  308.61</time>
   <energy>
    <i name="e_fr_energy">   -174.69185061 </i>
    <i name="e_wo_entrp">   -174.65050461 </i>
    <i name="e_0_energy">   -174.68151411 </i>
   </energy>
  </scstep>
  <scstep>
   <time name="diag">   67.28   67.28</time>
   <time name="diis">  186.86  186.86</time>
   <time name="orth">   13.42   13.42</time>
   <time name="total">  308.72  308.72</time>
   <energy>
    <i name="e_fr_energy">   -174.69411284 </i>
    <i name="e_wo_entrp">   -174.65304663 </i>
    <i name="e_0_energy">   -174.68384629 </i>
   </energy>
  </scstep>
  <scstep>
   <time name="diag">   67.53   67.53</time>
   <time name="diis">  175.79  175.79</time>
   <time name="orth">   13.23   13.23</time>
   <time name="total">  297.68  297.68</time>
   <energy>
    <i name="e_fr_energy">   -174.69656057 </i>
    <i name="e_wo_entrp">   -174.65476394 </i>
    <i name="e_0_energy">   -174.68611141 </i>
   </energy>
  </scstep>
  <scstep>
   <time name="diag">   67.75   67.75</time>
   <time name="diis">  126.01  126.01</time>
   <time name="orth">   13.37   13.37</time>
   <time name="total">  248.33  248.33</time>
   <energy>
    <i name="e_fr_energy">   -174.69764848 </i>
    <i name="e_wo_entrp">   -174.65739698 </i>
    <i name="e_0_energy">   -174.68758561 </i>
   </energy>
  </scstep>
  <scstep>
   <time name="diag">   67.73   67.73</time>
   <time name="diis">  119.04  119.04</time>
   <time name="orth">   13.73   13.73</time>
   <time name="total">  242.59  242.59</time>
   <energy>
    <i name="e_fr_energy">   -174.69892544 </i>
    <i name="e_wo_entrp">   -174.65739953 </i>
    <i name="e_0_energy">   -174.68854396 </i>
   </energy>
  </scstep>
  <scstep>
   <time name="diag">   67.77   67.77</time>
   <time name="diis">  117.32  117.32</time>
   <time name="orth">   13.42   13.42</time>
   <time name="total">  241.06  241.07</time>
   <energy>
    <i name="e_fr_energy">   -174.70063855 </i>
    <i name="e_wo_entrp">   -174.65880880 </i>
    <i name="e_0_energy">   -174.69018111 </i>
   </energy>
  </scstep>
  <scstep>
   <time name="diag">   68.04   68.04</time>
   <time name="diis">  116.92  116.92</time>
   <time name="orth">   13.43   13.43</time>
   <time name="total">  240.48  240.48</time>
   <energy>
    <i name="e_fr_energy">   -174.70208573 </i>
    <i name="e_wo_entrp">   -174.65957314 </i>
    <i name="e_0_energy">   -174.69145758 </i>
   </energy>
  </scstep>
  <scstep>
   <time name="diag">   67.91   67.92</time>
   <time name="diis">  118.56  118.57</time>
   <time name="orth">   13.58   13.58</time>
   <time name="total">  242.56  242.56</time>
   <energy>
    <i name="e_fr_energy">   -174.70435140 </i>
    <i name="e_wo_entrp">   -174.66260792 </i>
    <i name="e_0_energy">   -174.69391553 </i>
   </energy>
  </scstep>
  <scstep>
   <time name="diag">   67.96   67.96</time>
   <time name="diis">  116.75  116.75</time>
   <time name="orth">   13.62   13.62</time>
   <time name="total">  241.28  241.29</time>
   <energy>
    <i name="e_fr_energy">   -174.70591448 </i>
    <i name="e_wo_entrp">   -174.66525549 </i>
    <i name="e_0_energy">   -174.69574973 </i>
   </energy>
  </scstep>
  <scstep>
   <time name="diag">   67.99   67.99</time>
   <time name="diis">  116.83  116.83</time>
   <time name="orth">   13.53   13.53</time>
   <time name="total">  241.46  241.46</time>
   <energy>
    <i name="e_fr_energy">   -174.70709149 </i>
    <i name="e_wo_entrp">   -174.66636020 </i>
    <i name="e_0_energy">   -174.69690867 </i>
   </energy>
  </scstep>
  <scstep>
   <time name="diag">   68.09   68.09</time>
   <time name="diis">  116.26  116.27</time>
   <time name="orth">   13.44   13.44</time>
   <time name="total">  240.81  240.82</time>
   <energy>
    <i name="e_fr_energy">   -174.70812636 </i>
    <i name="e_wo_entrp">   -174.66672147 </i>
    <i name="e_0_energy">   -174.69777513 </i>
   </energy>
  </scstep>
  <scstep>
   <time name="diag">   68.22   68.22</time>
   <time name="diis">  116.42  116.42</time>
   <time name="orth">   13.41   13.41</time>
   <time name="total">  241.04  241.04</time>
   <energy>
    <i name="e_fr_energy">   -174.70876798 </i>
    <i name="e_wo_entrp">   -174.66781243 </i>
    <i name="e_0_energy">   -174.69852909 </i>
   </energy>
  </scstep>
  <scstep>
   <time name="diag">   68.44   68.44</time>
   <time name="diis">  117.56  117.58</time>
   <time name="orth">   13.35   13.35</time>
   <time name="total">  241.92  241.95</time>
   <energy>
    <i name="e_fr_energy">   -174.70985415 </i>
    <i name="e_wo_entrp">   -174.66878852 </i>
    <i name="e_0_energy">   -174.69958774 </i>
   </energy>
  </scstep>
  <scstep>
   <time name="diag">   68.15   68.16</time>
   <time name="diis">  112.90  112.90</time>
   <time name="orth">   13.21   13.21</time>
   <time name="total">  237.03  237.05</time>
   <energy>
    <i name="e_fr_energy">   -174.71038633 </i>
    <i name="e_wo_entrp">   -174.66916879 </i>
    <i name="e_0_energy">   -174.70008195 </i>
   </energy>
  </scstep>
  <scstep>
   <time name="diag">   68.76   68.78</time>
   <time name="diis">  113.37  113.39</time>
   <time name="orth">   13.38   13.38</time>
   <time name="total">  238.20  238.23</time>
   <energy>
    <i name="e_fr_energy">   -174.71142484 </i>
    <i name="e_wo_entrp">   -174.67005082 </i>
    <i name="e_0_energy">   -174.70108133 </i>
   </energy>
  </scstep>
  <scstep>
   <time name="diag">   68.05   68.06</time>
   <time name="diis">  113.12  113.13</time>
   <time name="orth">   13.33   13.33</time>
   <time name="total">  237.62  237.64</time>
   <energy>
    <i name="e_fr_energy">   -174.71218953 </i>
    <i name="e_wo_entrp">   -174.67093616 </i>
    <i name="e_0_energy">   -174.70187619 </i>
   </energy>
  </scstep>
  <scstep>
   <time name="diag">   67.83   67.84</time>
   <time name="diis">  107.20  107.21</time>
   <time name="orth">   13.36   13.36</time>
   <time name="total">  231.42  231.44</time>
   <energy>
    <i name="e_fr_energy">   -174.71239237 </i>
    <i name="e_wo_entrp">   -174.67122117 </i>
    <i name="e_0_energy">   -174.70209957 </i>
   </energy>
  </scstep>
  <scstep>
   <time name="diag">   67.44   67.45</time>
   <time name="diis">   95.71   95.71</time>
   <time name="orth">   13.46   13.46</time>
   <time name="total">  219.13  219.15</time>
   <energy>
    <i name="e_fr_energy">   -174.71273742 </i>
    <i name="e_wo_entrp">   -174.67133137 </i>
    <i name="e_0_energy">   -174.70238591 </i>
   </energy>
  </scstep>
  <scstep>
   <time name="diag">   67.38   67.39</time>
   <time name="diis">   81.24   81.24</time>
   <time name="orth">   13.22   13.22</time>
   <time name="total">  204.06  204.08</time>
   <energy>
    <i name="e_fr_energy">   -174.71284697 </i>
    <i name="e_wo_entrp">   -174.67163945 </i>
    <i name="e_0_energy">   -174.70254509 </i>
   </energy>
  </scstep>
  <scstep>
   <time name="diag">   66.48   66.48</time>
   <time name="diis">   76.41   76.41</time>
   <time name="orth">   13.18   13.18</time>
   <time name="total">  198.67  198.68</time>
   <energy>
    <i name="e_fr_energy">   -174.71296017 </i>
    <i name="e_wo_entrp">   -174.67166537 </i>
    <i name="e_0_energy">   -174.70263647 </i>
   </energy>
  </scstep>
  <scstep>
   <time name="diag">   66.22   66.23</time>
   <time name="diis">   78.08   78.08</time>
   <time name="orth">   13.25   13.25</time>
   <time name="total">  200.09  200.10</time>
   <energy>
    <i name="e_fr_energy">   -174.71316982 </i>
    <i name="e_wo_entrp">   -174.67186964 </i>
    <i name="e_0_energy">   -174.70284477 </i>
   </energy>
  </scstep>
  <scstep>
   <time name="diag">   66.40   66.40</time>
   <time name="diis">   80.54   80.54</time>
   <time name="orth">   13.22   13.22</time>
   <time name="total">  202.71  202.71</time>
   <energy>
    <i name="e_fr_energy">   -174.71333184 </i>
    <i name="e_wo_entrp">   -174.67203346 </i>
    <i name="e_0_energy">   -174.70300724 </i>
   </energy>
  </scstep>
  <scstep>
   <time name="diag">   66.48   66.48</time>
   <time name="diis">   85.83   85.83</time>
   <time name="orth">   13.36   13.36</time>
   <time name="total">  208.24  208.25</time>
   <energy>
    <i name="e_fr_energy">   -174.71356530 </i>
    <i name="e_wo_entrp">   -174.67234553 </i>
    <i name="e_0_energy">   -174.70326036 </i>
   </energy>
  </scstep>
  <scstep>
   <time name="diag">   66.46   66.46</time>
   <time name="diis">   78.92   78.93</time>
   <time name="orth">   13.17   13.17</time>
   <time name="total">  201.29  201.31</time>
   <energy>
    <i name="e_fr_energy">   -174.71370854 </i>
    <i name="e_wo_entrp">   -174.67240711 </i>
    <i name="e_0_energy">   -174.70338318 </i>
   </energy>
  </scstep>
  <scstep>
   <time name="diag">   66.91   66.91</time>
   <time name="diis">   72.97   72.97</time>
   <time name="orth">   13.29   13.29</time>
   <time name="total">  167.06  167.06</time>
   <energy>
    <i name="alphaZ">     75.25431677 </i>
    <i name="ewald"> 139185.37975436 </i>
    <i name="hartreedc">-183550.00768833 </i>
    <i name="XCdc">  -1691.86236506 </i>
    <i name="pawpsdc">  46160.65866020 </i>
    <i name="pawaedc"> -42630.56789495 </i>
    <i name="eentropy">     -0.04129355 </i>
    <i name="bandstr">  -2810.03276435 </i>
    <i name="atom">  45086.50549395 </i>
    <i name="e_fr_energy">   -174.71378096 </i>
    <i name="e_wo_entrp">   -174.67248741 </i>
    <i name="e_0_energy">   -174.70345758 </i>
   </energy>
  </scstep>
  <structure>
   <crystal>
    <varray name="basis" >
     <v>      30.00000000       0.00000000       0.00000000 </v>
     <v>       0.00000000      30.00000000       0.00000000 </v>
     <v>       0.00000000       0.00000000      30.00000000 </v>
    </varray>
    <i name="volume">  27000.00000000 </i>
    <varray name="rec_basis" >
     <v>       0.03333333       0.00000000       0.00000000 </v>
     <v>       0.00000000       0.03333333       0.00000000 </v>
     <v>       0.00000000       0.00000000       0.03333333 </v>
    </varray>
   </crystal>
   <varray name="positions" >
    <v>       0.44576020       0.32826710       0.41691983 </v>
    <v>       0.67173288       0.55423978       0.41691983 </v>
    <v>       0.55423980       0.32826710       0.41691983 </v>
    <v>       0.32826712       0.55423978       0.41691983 </v>
    <v>       0.50000000       0.38250690       0.34021317 </v>
    <v>       0.50000000       0.38250690       0.65978680 </v>
    <v>       0.50000000       0.27609440       0.50000000 </v>
    <v>       0.27609443       0.49999998       0.50000000 </v>
    <v>       0.72390557       0.49999998       0.50000000 </v>
    <v>       0.50000000       0.72390555       0.50000000 </v>
    <v>       0.61195280       0.38804720       0.34167483 </v>
    <v>       0.61195280       0.38804720       0.65832513 </v>
    <v>       0.38804722       0.61195278       0.34167483 </v>
    <v>       0.38804722       0.61195278       0.65832513 </v>
    <v>       0.38804720       0.38804720       0.34167483 </v>
    <v>       0.38804720       0.38804720       0.65832513 </v>
    <v>       0.61195278       0.61195278       0.34167483 </v>
    <v>       0.61195278       0.61195278       0.65832513 </v>
    <v>       0.44576020       0.32826710       0.58308023 </v>
    <v>       0.67173288       0.55423978       0.58308023 </v>
    <v>       0.55791699       0.44208301       0.41809300 </v>
    <v>       0.32826705       0.44576024       0.41691983 </v>
    <v>       0.55423973       0.67173293       0.41691983 </v>
    <v>       0.55423980       0.32826710       0.58308023 </v>
    <v>       0.32826712       0.55423978       0.58308023 </v>
    <v>       0.67173295       0.44576024       0.41691983 </v>
    <v>       0.44576027       0.67173293       0.41691983 </v>
    <v>       0.44208301       0.44208301       0.41809300 </v>
    <v>       0.50000000       0.38416601       0.50000000 </v>
    <v>       0.61749315       0.50000005       0.34021317 </v>
    <v>       0.61749315       0.50000005       0.65978680 </v>
    <v>       0.38250685       0.50000005       0.34021317 </v>
    <v>       0.38250685       0.50000005       0.65978680 </v>
    <v>       0.38317830       0.38317830       0.50000000 </v>
    <v>       0.61682172       0.61682172       0.50000000 </v>
    <v>       0.61682170       0.38317830       0.50000000 </v>
    <v>       0.38317828       0.61682172       0.50000000 </v>
    <v>       0.50000000       0.50000000       0.33478917 </v>
    <v>       0.50000000       0.50000000       0.66521087 </v>
    <v>       0.32826705       0.44576024       0.58308023 </v>
    <v>       0.55423973       0.67173293       0.58308023 </v>
    <v>       0.55791699       0.44208301       0.58190703 </v>
    <v>       0.44208298       0.55791702       0.41809300 </v>
    <v>       0.44208301       0.44208301       0.58190703 </v>
    <v>       0.67173295       0.44576024       0.58308023 </v>
    <v>       0.44576027       0.67173293       0.58308023 </v>
    <v>       0.55791702       0.55791702       0.41809300 </v>
    <v>       0.38416599       0.50000002       0.50000000 </v>
    <v>       0.61583401       0.50000002       0.50000000 </v>
    <v>       0.50000000       0.61749319       0.34021317 </v>
    <v>       0.50000000       0.61749319       0.65978680 </v>
    <v>       0.50000000       0.50000000       0.50000000 </v>
    <v>       0.44208298       0.55791702       0.58190703 </v>
    <v>       0.55791702       0.55791702       0.58190703 </v>
    <v>       0.50000000       0.61583404       0.50000000 </v>
    <v>       0.58247357       0.69781000       0.47031833 </v>
    <v>       0.59680620       0.73218630       0.46516010 </v>
   </varray>
  </structure>
  <varray name="forces" >
   <v>       0.70088918       1.10889449       0.28219063 </v>
   <v>      -1.09261466      -0.73993184       0.28727717 </v>
   <v>      -0.69773627       1.11050104       0.29347189 </v>
   <v>       1.11101820      -0.70313496       0.29928122 </v>
   <v>      -0.00214733       0.41176687       1.27964703 </v>
   <v>      -0.00281900       0.41127544      -1.27595168 </v>
   <v>       0.00918261       1.51207623      -0.00335875 </v>
   <v>       1.51584107       0.00010900       0.00013226 </v>
   <v>      -1.51727160       0.00082835      -0.00146673 </v>
   <v>       0.23753294      -1.55113622      -0.03158263 </v>
   <v>      -0.75556773       0.75721371       1.06485876 </v>
   <v>      -0.75502618       0.75557752      -1.06633793 </v>
   <v>       0.75999536      -0.71728879       1.08548950 </v>
   <v>       0.74908340      -0.73857410      -1.07218061 </v>
   <v>       0.75492335       0.75730752       1.06887184 </v>
   <v>       0.75448956       0.76005030      -1.06747983 </v>
   <v>      -0.73579239      -0.78037667       1.01384546 </v>
   <v>      -0.76006251      -0.75498390      -1.07022095 </v>
   <v>       0.70491562       1.10690869      -0.27890112 </v>
   <v>      -1.10395215      -0.71062134      -0.29394009 </v>
   <v>       0.10766618      -0.12553586      -0.14768531 </v>
   <v>       1.10741605       0.70122539       0.29305997 </v>
   <v>      -0.71590362      -1.52446975       0.53518872 </v>
   <v>      -0.69789308       1.10806145      -0.29311467 </v>
   <v>       1.11086729      -0.70493272      -0.29736354 </v>
   <v>      -1.10510320       0.70955923       0.29882062 </v>
   <v>       0.58365426      -1.15114743       0.20990171 </v>
   <v>      -0.11181654      -0.11578691      -0.15575087 </v>
   <v>       0.00772650      -0.22536618      -0.00136516 </v>
   <v>      -0.41353946       0.00299089       1.27574950 </v>
   <v>      -0.41240263       0.00123758      -1.27800866 </v>
   <v>       0.41334484      -0.01293412       1.28415791 </v>
   <v>       0.40952653      -0.01152332      -1.28105620 </v>
   <v>       0.82179579       0.84062769      -0.00577878 </v>
   <v>      -1.00572558      -0.17883721      -0.14310551 </v>
   <v>      -0.82800302       0.81327569       0.00353487 </v>
   <v>       0.83401807      -0.83519516       0.00454848 </v>
   <v>       0.00836391       0.00150787       1.18268241 </v>
   <v>       0.00384735      -0.00336266      -1.17984052 </v>
   <v>       1.10426895       0.70389792      -0.29124265 </v>
   <v>      -0.69714681      -1.14340206      -0.22469719 </v>
   <v>       0.10997842      -0.11057297       0.14217495 </v>
   <v>      -0.10597120       0.11299895      -0.15204115 </v>
   <v>      -0.10976878      -0.10837465       0.15754513 </v>
   <v>      -1.10646044       0.70510634      -0.30217920 </v>
   <v>       0.67496437      -1.13477424      -0.24361810 </v>
   <v>       0.09645186       0.05159180      -0.19416627 </v>
   <v>      -0.22903277       0.00359804       0.00178639 </v>
   <v>       0.22772280      -0.00153188       0.00197757 </v>
   <v>      -0.01661880      -0.42078128       1.24318107 </v>
   <v>       0.01429633      -0.39521113      -1.29066720 </v>
   <v>      -0.00748568       0.01131420      -0.00033015 </v>
   <v>      -0.11043250       0.10979544       0.14671752 </v>
   <v>       0.10487465       0.09284797       0.18606059 </v>
   <v>      -0.12459198       0.09914834       0.05836152 </v>
   <v>      -2.84844351      -5.79787962      -0.07451145 </v>
   <v>       3.03067397       5.93637302       0.01742818 </v>
  </varray>
  <varray name="stress" >
   <v>      -6.66924578       0.23661876      -0.02596812 </v>
   <v>       0.23661875      -6.41518999       0.01510393 </v>
   <v>      -0.02596811       0.01510393      -6.73661566 </v>
  </varray>
  <energy>
   <i name="e_fr_energy">   -174.71378096 </i>
   <i name="e_wo_entrp">   -174.70345758 </i>
   <i name="e_0_energy">     -0.04129355 </i>
  </energy>
  <time name="totalsc">19013.6819014.21</time>
  <eigenvalues>
   <array>
    <dimension dim="1">band</dimension>
    <dimension dim="2">kpoint</dimension>
    <dimension dim="3">spin</dimension>
    <field>eigene</field>
    <field>occ</field>
    <set>
     <set comment="spin 1">
      <set comment="kpoint 1">
       <r>  -28.3390    1.0000 </r>
       <r>  -13.2149    1.0000 </r>
       <r>  -11.2266    1.0000 </r>
       <r>  -10.9444    1.0000 </r>
       <r>   -9.8587    1.0000 </r>
       <r>   -6.6423    1.0000 </r>
       <r>   -6.1603    1.0000 </r>
       <r>   -6.1283    1.0000 </r>
       <r>   -6.1259    1.0000 </r>
       <r>   -5.9888    1.0000 </r>
       <r>   -5.9112    1.0000 </r>
       <r>   -5.8119    1.0000 </r>
       <r>   -5.8063    1.0000 </r>
       <r>   -5.7715    1.0000 </r>
       <r>   -5.7366    1.0000 </r>
       <r>   -5.6963    1.0000 </r>
       <r>   -5.6863    1.0000 </r>
       <r>   -5.6809    1.0000 </r>
       <r>   -5.6779    1.0000 </r>
       <r>   -5.6290    1.0000 </r>
       <r>   -5.6190    1.0000 </r>
       <r>   -5.6168    1.0000 </r>
       <r>   -5.6010    1.0000 </r>
       <r>   -5.5909    1.0000 </r>
       <r>   -5.5892    1.0000 </r>
       <r>   -5.5645    1.0000 </r>
       <r>   -5.5474    1.0000 </r>
       <r>   -5.5457    1.0000 </r>
       <r>   -5.5411    1.0000 </r>
       <r>   -5.5299    1.0000 </r>
       <r>   -5.5241    1.0000 </r>
       <r>   -5.5148    1.0000 </r>
       <r>   -5.5142    1.0000 </r>
       <r>   -5.5099    1.0000 </r>
       <r>   -5.5085    1.0000 </r>
       <r>   -5.5057    1.0000 </r>
       <r>   -5.4973    1.0000 </r>
       <r>   -5.4842    1.0000 </r>
       <r>   -5.4752    1.0000 </r>
       <r>   -5.4723    1.0000 </r>
       <r>   -5.4679    1.0000 </r>
       <r>   -5.4642    1.0000 </r>
       <r>   -5.4630    1.0000 </r>
       <r>   -5.4551    1.0000 </r>
       <r>   -5.4547    1.0000 </r>
       <r>   -5.4344    1.0000 </r>
       <r>   -5.4335    1.0000 </r>
       <r>   -5.4281    1.0000 </r>
       <r>   -5.4235    1.0000 </r>
       <r>   -5.4205    1.0000 </r>
       <r>   -5.4182    1.0000 </r>
       <r>   -5.4034    1.0000 </r>
       <r>   -5.3987    1.0000 </r>
       <r>   -5.3971    1.0000 </r>
       <r>   -5.3878    1.0000 </r>
       <r>   -5.3609    1.0000 </r>
       <r>   -5.3565    1.0000 </r>
       <r>   -5.3318    1.0000 </r>
       <r>   -5.3258    1.0000 </r>
       <r>   -5.3225    1.0000 </r>
       <r>   -5.3191    1.0000 </r>
       <r>   -5.3155    1.0000 </r>
       <r>   -5.3109    1.0000 </r>
       <r>   -5.2986    1.0000 </r>
       <r>   -5.2937    1.0000 </r>
       <r>   -5.2905    1.0000 </r>
       <r>   -5.2791    1.0000 </r>
       <r>   -5.2527    1.0000 </r>
       <r>   -5.2328    1.0000 </r>
       <r>   -5.2198    1.0000 </r>
       <r>   -5.2135    1.0000 </r>
       <r>   -5.2018    1.0000 </r>
       <r>   -5.1949    1.0000 </r>
       <r>   -5.1821    1.0000 </r>
       <r>   -5.1801    1.0000 </r>
       <r>   -5.1756    1.0000 </r>
       <r>   -5.1718    1.0000 </r>
       <r>   -5.1643    1.0000 </r>
       <r>   -5.1631    1.0000 </r>
       <r>   -5.1543    1.0000 </r>
       <r>   -5.1428    1.0000 </r>
       <r>   -5.1358    1.0000 </r>
       <r>   -5.1263    1.0000 </r>
       <r>   -5.1196    1.0000 </r>
       <r>   -5.1134    1.0000 </r>
       <r>   -5.1079    1.0000 </r>
       <r>   -5.1036    1.0000 </r>
       <r>   -5.0949    1.0000 </r>
       <r>   -5.0768    1.0000 </r>
       <r>   -5.0644    1.0000 </r>
       <r>   -5.0579    1.0000 </r>
       <r>   -5.0524    1.0000 </r>
       <r>   -5.0492    1.0000 </r>
       <r>   -5.0488    1.0000 </r>
       <r>   -5.0463    1.0000 </r>
       <r>   -5.0448    1.0000 </r>
       <r>   -5.0352    1.0000 </r>
       <r>   -5.0301    1.0000 </r>
       <r>   -5.0266    1.0000 </r>
       <r>   -5.0227    1.0000 </r>
       <r>   -5.0164    1.0000 </r>
       <r>   -5.0120    1.0000 </r>
       <r>   -5.0044    1.0000 </r>
       <r>   -5.0006    1.0000 </r>
       <r>   -4.9980    1.0000 </r>
       <r>   -4.9933    1.0000 </r>
       <r>   -4.9889    1.0000 </r>
       <r>   -4.9859    1.0000 </r>
       <r>   -4.9821    1.0000 </r>
       <r>   -4.9713    1.0000 </r>
       <r>   -4.9700    1.0000 </r>
       <r>   -4.9688    1.0000 </r>
       <r>   -4.9584    1.0000 </r>
       <r>   -4.9546    1.0000 </r>
       <r>   -4.9540    1.0000 </r>
       <r>   -4.9470    1.0000 </r>
       <r>   -4.9354    1.0000 </r>
       <r>   -4.9316    1.0000 </r>
       <r>   -4.9240    1.0000 </r>
       <r>   -4.9206    1.0000 </r>
       <r>   -4.9135    1.0000 </r>
       <r>   -4.9067    1.0000 </r>
       <r>   -4.9044    1.0000 </r>
       <r>   -4.9015    1.0000 </r>
       <r>   -4.8957    1.0000 </r>
       <r>   -4.8924    1.0000 </r>
       <r>   -4.8671    1.0000 </r>
       <r>   -4.8620    1.0000 </r>
       <r>   -4.8466    1.0000 </r>
       <r>   -4.8442    1.0000 </r>
       <r>   -4.8432    1.0000 </r>
       <r>   -4.8404    1.0000 </r>
       <r>   -4.8373    1.0000 </r>
       <r>   -4.8324    1.0000 </r>
       <r>   -4.8249    1.0000 </r>
       <r>   -4.8231    1.0000 </r>
       <r>   -4.8047    0.9999 </r>
       <r>   -4.7963    0.9999 </r>
       <r>   -4.7908    0.9999 </r>
       <r>   -4.7795    0.9999 </r>
       <r>   -4.7706    0.9999 </r>
       <r>   -4.7668    0.9998 </r>
       <r>   -4.7596    0.9998 </r>
       <r>   -4.7492    0.9997 </r>
       <r>   -4.7411    0.9997 </r>
       <r>   -4.7343    0.9996 </r>
       <r>   -4.7303    0.9996 </r>
       <r>   -4.7213    0.9995 </r>
       <r>   -4.7071    0.9994 </r>
       <r>   -4.7032    0.9993 </r>
       <r>   -4.7015    0.9993 </r>
       <r>   -4.6923    0.9991 </r>
       <r>   -4.6855    0.9990 </r>
       <r>   -4.6805    0.9989 </r>
       <r>   -4.6769    0.9989 </r>
       <r>   -4.6751    0.9988 </r>
       <r>   -4.6725    0.9988 </r>
       <r>   -4.6664    0.9986 </r>
       <r>   -4.6649    0.9986 </r>
       <r>   -4.6638    0.9986 </r>
       <r>   -4.6549    0.9983 </r>
       <r>   -4.6519    0.9982 </r>
       <r>   -4.6515    0.9982 </r>
       <r>   -4.6452    0.9980 </r>
       <r>   -4.6421    0.9979 </r>
       <r>   -4.6410    0.9979 </r>
       <r>   -4.6377    0.9978 </r>
       <r>   -4.6353    0.9977 </r>
       <r>   -4.6330    0.9976 </r>
       <r>   -4.6257    0.9974 </r>
       <r>   -4.6133    0.9969 </r>
       <r>   -4.6130    0.9969 </r>
       <r>   -4.6052    0.9966 </r>
       <r>   -4.5966    0.9963 </r>
       <r>   -4.5947    0.9962 </r>
       <r>   -4.5915    0.9961 </r>
       <r>   -4.5898    0.9961 </r>
       <r>   -4.5867    0.9960 </r>
       <r>   -4.5835    0.9958 </r>
       <r>   -4.5771    0.9956 </r>
       <r>   -4.5728    0.9955 </r>
       <r>   -4.5631    0.9953 </r>
       <r>   -4.5599    0.9952 </r>
       <r>   -4.5570    0.9952 </r>
       <r>   -4.5528    0.9951 </r>
       <r>   -4.5516    0.9951 </r>
       <r>   -4.5498    0.9951 </r>
       <r>   -4.5462    0.9951 </r>
       <r>   -4.5416    0.9951 </r>
       <r>   -4.5301    0.9953 </r>
       <r>   -4.5253    0.9954 </r>
       <r>   -4.5231    0.9955 </r>
       <r>   -4.5074    0.9966 </r>
       <r>   -4.5051    0.9968 </r>
       <r>   -4.5003    0.9973 </r>
       <r>   -4.4970    0.9977 </r>
       <r>   -4.4917    0.9984 </r>
       <r>   -4.4827    0.9998 </r>
       <r>   -4.4778    1.0008 </r>
       <r>   -4.4729    1.0018 </r>
       <r>   -4.4682    1.0029 </r>
       <r>   -4.4667    1.0033 </r>
       <r>   -4.4572    1.0058 </r>
       <r>   -4.4552    1.0064 </r>
       <r>   -4.4510    1.0077 </r>
       <r>   -4.4455    1.0096 </r>
       <r>   -4.4435    1.0103 </r>
       <r>   -4.4395    1.0117 </r>
       <r>   -4.4343    1.0137 </r>
       <r>   -4.4339    1.0139 </r>
       <r>   -4.4275    1.0165 </r>
       <r>   -4.4221    1.0188 </r>
       <r>   -4.4133    1.0228 </r>
       <r>   -4.4101    1.0242 </r>
       <r>   -4.4062    1.0261 </r>
       <r>   -4.4008    1.0287 </r>
       <r>   -4.3976    1.0302 </r>
       <r>   -4.3968    1.0306 </r>
       <r>   -4.3905    1.0336 </r>
       <r>   -4.3874    1.0351 </r>
       <r>   -4.3736    1.0414 </r>
       <r>   -4.3730    1.0416 </r>
       <r>   -4.3621    1.0459 </r>
       <r>   -4.3517    1.0491 </r>
       <r>   -4.3489    1.0498 </r>
       <r>   -4.3401    1.0513 </r>
       <r>   -4.3320    1.0516 </r>
       <r>   -4.3315    1.0516 </r>
       <r>   -4.3307    1.0516 </r>
       <r>   -4.3291    1.0515 </r>
       <r>   -4.3266    1.0512 </r>
       <r>   -4.3257    1.0511 </r>
       <r>   -4.3232    1.0507 </r>
       <r>   -4.3184    1.0495 </r>
       <r>   -4.3169    1.0490 </r>
       <r>   -4.3152    1.0484 </r>
       <r>   -4.3145    1.0482 </r>
       <r>   -4.3115    1.0469 </r>
       <r>   -4.3093    1.0459 </r>
       <r>   -4.3029    1.0421 </r>
       <r>   -4.3011    1.0408 </r>
       <r>   -4.2943    1.0352 </r>
       <r>   -4.2901    1.0310 </r>
       <r>   -4.2861    1.0265 </r>
       <r>   -4.2808    1.0197 </r>
       <r>   -4.2800    1.0187 </r>
       <r>   -4.2775    1.0150 </r>
       <r>   -4.2759    1.0127 </r>
       <r>   -4.2728    1.0078 </r>
       <r>   -4.2709    1.0045 </r>
       <r>   -4.2597    0.9831 </r>
       <r>   -4.2578    0.9790 </r>
       <r>   -4.2566    0.9765 </r>
       <r>   -4.2514    0.9642 </r>
       <r>   -4.2489    0.9580 </r>
       <r>   -4.2451    0.9481 </r>
       <r>   -4.2432    0.9430 </r>
       <r>   -4.2407    0.9360 </r>
       <r>   -4.2376    0.9269 </r>
       <r>   -4.2365    0.9235 </r>
       <r>   -4.2355    0.9206 </r>
       <r>   -4.2327    0.9118 </r>
       <r>   -4.2298    0.9024 </r>
       <r>   -4.2291    0.9003 </r>
       <r>   -4.2278    0.8958 </r>
       <r>   -4.2202    0.8693 </r>
       <r>   -4.2159    0.8536 </r>
       <r>   -4.2141    0.8467 </r>
       <r>   -4.2122    0.8393 </r>
       <r>   -4.2095    0.8284 </r>
       <r>   -4.2074    0.8199 </r>
       <r>   -4.2008    0.7923 </r>
       <r>   -4.1941    0.7628 </r>
       <r>   -4.1870    0.7304 </r>
       <r>   -4.1788    0.6912 </r>
       <r>   -4.1772    0.6832 </r>
       <r>   -4.1704    0.6495 </r>
       <r>   -4.1655    0.6246 </r>
       <r>   -4.1652    0.6228 </r>
       <r>   -4.1620    0.6068 </r>
       <r>   -4.1567    0.5793 </r>
       <r>   -4.1496    0.5416 </r>
       <r>   -4.1343    0.4610 </r>
       <r>   -4.1231    0.4021 </r>
       <r>   -4.1209    0.3909 </r>
       <r>   -4.1201    0.3868 </r>
       <r>   -4.1107    0.3390 </r>
       <r>   -4.1026    0.2994 </r>
       <r>   -4.0194    0.0082 </r>
       <r>   -3.9608   -0.0505 </r>
       <r>   -3.8995   -0.0368 </r>
       <r>   -3.8201   -0.0041 </r>
       <r>   -3.8111   -0.0019 </r>
       <r>   -3.7280    0.0049 </r>
       <r>   -3.4932    0.0001 </r>
       <r>   -3.4872    0.0001 </r>
       <r>   -3.3448    0.0000 </r>
       <r>   -3.0646    0.0000 </r>
       <r>   -3.0551    0.0000 </r>
       <r>   -3.0336    0.0000 </r>
       <r>   -3.0269    0.0000 </r>
       <r>   -3.0125    0.0000 </r>
       <r>   -2.9789    0.0000 </r>
       <r>   -2.9403    0.0000 </r>
       <r>   -2.8231    0.0000 </r>
       <r>   -2.5681    0.0000 </r>
       <r>   -2.5158    0.0000 </r>
       <r>   -2.4264    0.0000 </r>
       <r>   -2.2404    0.0000 </r>
       <r>   -2.1158    0.0000 </r>
       <r>   -2.1130    0.0000 </r>
       <r>   -2.1087    0.0000 </r>
       <r>   -2.0027    0.0000 </r>
       <r>   -1.9694    0.0000 </r>
       <r>   -1.9319    0.0000 </r>
       <r>   -1.8583    0.0000 </r>
       <r>   -1.8491    0.0000 </r>
       <r>   -1.7515    0.0000 </r>
       <r>   -1.6897    0.0000 </r>
       <r>   -1.6438    0.0000 </r>
       <r>   -1.5878    0.0000 </r>
       <r>   -1.5635    0.0000 </r>
       <r>   -1.4724    0.0000 </r>
       <r>   -1.3877    0.0000 </r>
       <r>   -1.3076    0.0000 </r>
       <r>   -1.1387    0.0000 </r>
       <r>   -1.0448    0.0000 </r>
       <r>   -0.9942    0.0000 </r>
       <r>   -0.9788    0.0000 </r>
       <r>   -0.9651    0.0000 </r>
       <r>   -0.9464    0.0000 </r>
       <r>   -0.9359    0.0000 </r>
       <r>   -0.9006    0.0000 </r>
       <r>   -0.8894    0.0000 </r>
       <r>   -0.8228    0.0000 </r>
       <r>   -0.7796    0.0000 </r>
      </set>
     </set>
    </set>
   </array>
  </eigenvalues>
  <separator name="orbital magnetization" >
   <v name="MAGDIPOLOUT">      0.00000000      0.00000000      0.00000000</v>
  </separator>
  <dos>
   <i name="efermi">     -4.14169554 </i>
   <total>
    <array>
     <dimension dim="1">gridpoints</dimension>
     <dimension dim="2">spin</dimension>
     <field>energy</field>
     <field>total</field>
     <field>integrated</field>
     <set>
      <set comment="spin 1">
       <r>   -30.3390     0.0000     0.0000 </r>
       <r>   -30.2338     0.0000     0.0000 </r>
       <r>   -30.1286     0.0000     0.0000 </r>
       <r>   -30.0234     0.0000     0.0000 </r>
       <r>   -29.9182     0.0000     0.0000 </r>
       <r>   -29.8130     0.0000     0.0000 </r>
       <r>   -29.7078     0.0000     0.0000 </r>
       <r>   -29.6026     0.0000     0.0000 </r>
       <r>   -29.4974     0.0000     0.0000 </r>
       <r>   -29.3922     0.0000     0.0000 </r>
       <r>   -29.2870     0.0000     0.0000 </r>
       <r>   -29.1819     0.0000     0.0000 </r>
       <r>   -29.0767     0.0001     0.0000 </r>
       <r>   -28.9715     0.0025     0.0003 </r>
       <r>   -28.8663     0.0226     0.0027 </r>
       <r>   -28.7611     0.0646     0.0094 </r>
       <r>   -28.6559    -0.1936    -0.0109 </r>
       <r>   -28.5507    -0.8218    -0.0974 </r>
       <r>   -28.4455     1.7610     0.0879 </r>
       <r>   -28.3403     8.5463     0.9869 </r>
       <r>   -28.2351     8.6719     1.8992 </r>
       <r>   -28.1299     1.8959     2.0987 </r>
       <r>   -28.0247    -0.8203     2.0124 </r>
       <r>   -27.9195    -0.2083     1.9905 </r>
       <r>   -27.8143     0.0644     1.9972 </r>
       <r>   -27.7091     0.0236     1.9997 </r>
       <r>   -27.6039     0.0026     2.0000 </r>
       <r>   -27.4987     0.0001     2.0000 </r>
       <r>   -27.3935     0.0000     2.0000 </r>
       <r>   -27.2883     0.0000     2.0000 </r>
       <r>   -27.1831     0.0000     2.0000 </r>
       <r>   -27.0779     0.0000     2.0000 </r>
       <r>   -26.9727     0.0000     2.0000 </r>
       <r>   -26.8675     0.0000     2.0000 </r>
       <r>   -26.7623     0.0000     2.0000 </r>
       <r>   -26.6571     0.0000     2.0000 </r>
       <r>   -26.5519     0.0000     2.0000 </r>
       <r>   -26.4467     0.0000     2.0000 </r>
       <r>   -26.3415     0.0000     2.0000 </r>
       <r>   -26.2363     0.0000     2.0000 </r>
       <r>   -26.1311     0.0000     2.0000 </r>
       <r>   -26.0259     0.0000     2.0000 </r>
       <r>   -25.9207     0.0000     2.0000 </r>
       <r>   -25.8155     0.0000     2.0000 </r>
       <r>   -25.7103     0.0000     2.0000 </r>
       <r>   -25.6051     0.0000     2.0000 </r>
       <r>   -25.4999     0.0000     2.0000 </r>
       <r>   -25.3947     0.0000     2.0000 </r>
       <r>   -25.2895     0.0000     2.0000 </r>
       <r>   -25.1843     0.0000     2.0000 </r>
       <r>   -25.0791     0.0000     2.0000 </r>
       <r>   -24.9739     0.0000     2.0000 </r>
       <r>   -24.8687     0.0000     2.0000 </r>
       <r>   -24.7635     0.0000     2.0000 </r>
       <r>   -24.6583     0.0000     2.0000 </r>
       <r>   -24.5531     0.0000     2.0000 </r>
       <r>   -24.4479     0.0000     2.0000 </r>
       <r>   -24.3427     0.0000     2.0000 </r>
       <r>   -24.2375     0.0000     2.0000 </r>
       <r>   -24.1323     0.0000     2.0000 </r>
       <r>   -24.0271     0.0000     2.0000 </r>
       <r>   -23.9219     0.0000     2.0000 </r>
       <r>   -23.8167     0.0000     2.0000 </r>
       <r>   -23.7115     0.0000     2.0000 </r>
       <r>   -23.6063     0.0000     2.0000 </r>
       <r>   -23.5011     0.0000     2.0000 </r>
       <r>   -23.3960     0.0000     2.0000 </r>
       <r>   -23.2908     0.0000     2.0000 </r>
       <r>   -23.1856     0.0000     2.0000 </r>
       <r>   -23.0804     0.0000     2.0000 </r>
       <r>   -22.9752     0.0000     2.0000 </r>
       <r>   -22.8700     0.0000     2.0000 </r>
       <r>   -22.7648     0.0000     2.0000 </r>
       <r>   -22.6596     0.0000     2.0000 </r>
       <r>   -22.5544     0.0000     2.0000 </r>
       <r>   -22.4492     0.0000     2.0000 </r>
       <r>   -22.3440     0.0000     2.0000 </r>
       <r>   -22.2388     0.0000     2.0000 </r>
       <r>   -22.1336     0.0000     2.0000 </r>
       <r>   -22.0284     0.0000     2.0000 </r>
       <r>   -21.9232     0.0000     2.0000 </r>
       <r>   -21.8180     0.0000     2.0000 </r>
       <r>   -21.7128     0.0000     2.0000 </r>
       <r>   -21.6076     0.0000     2.0000 </r>
       <r>   -21.5024     0.0000     2.0000 </r>
       <r>   -21.3972     0.0000     2.0000 </r>
       <r>   -21.2920     0.0000     2.0000 </r>
       <r>   -21.1868     0.0000     2.0000 </r>
       <r>   -21.0816     0.0000     2.0000 </r>
       <r>   -20.9764     0.0000     2.0000 </r>
       <r>   -20.8712     0.0000     2.0000 </r>
       <r>   -20.7660     0.0000     2.0000 </r>
       <r>   -20.6608     0.0000     2.0000 </r>
       <r>   -20.5556     0.0000     2.0000 </r>
       <r>   -20.4504     0.0000     2.0000 </r>
       <r>   -20.3452     0.0000     2.0000 </r>
       <r>   -20.2400     0.0000     2.0000 </r>
       <r>   -20.1348     0.0000     2.0000 </r>
       <r>   -20.0296     0.0000     2.0000 </r>
       <r>   -19.9244     0.0000     2.0000 </r>
       <r>   -19.8192     0.0000     2.0000 </r>
       <r>   -19.7140     0.0000     2.0000 </r>
       <r>   -19.6088     0.0000     2.0000 </r>
       <r>   -19.5036     0.0000     2.0000 </r>
       <r>   -19.3984     0.0000     2.0000 </r>
       <r>   -19.2932     0.0000     2.0000 </r>
       <r>   -19.1880     0.0000     2.0000 </r>
       <r>   -19.0828     0.0000     2.0000 </r>
       <r>   -18.9776     0.0000     2.0000 </r>
       <r>   -18.8724     0.0000     2.0000 </r>
       <r>   -18.7672     0.0000     2.0000 </r>
       <r>   -18.6620     0.0000     2.0000 </r>
       <r>   -18.5568     0.0000     2.0000 </r>
       <r>   -18.4516     0.0000     2.0000 </r>
       <r>   -18.3464     0.0000     2.0000 </r>
       <r>   -18.2412     0.0000     2.0000 </r>
       <r>   -18.1360     0.0000     2.0000 </r>
       <r>   -18.0308     0.0000     2.0000 </r>
       <r>   -17.9256     0.0000     2.0000 </r>
       <r>   -17.8204     0.0000     2.0000 </r>
       <r>   -17.7153     0.0000     2.0000 </r>
       <r>   -17.6101     0.0000     2.0000 </r>
       <r>   -17.5049     0.0000     2.0000 </r>
       <r>   -17.3997     0.0000     2.0000 </r>
       <r>   -17.2945     0.0000     2.0000 </r>
       <r>   -17.1893     0.0000     2.0000 </r>
       <r>   -17.0841     0.0000     2.0000 </r>
       <r>   -16.9789     0.0000     2.0000 </r>
       <r>   -16.8737     0.0000     2.0000 </r>
       <r>   -16.7685     0.0000     2.0000 </r>
       <r>   -16.6633     0.0000     2.0000 </r>
       <r>   -16.5581     0.0000     2.0000 </r>
       <r>   -16.4529     0.0000     2.0000 </r>
       <r>   -16.3477     0.0000     2.0000 </r>
       <r>   -16.2425     0.0000     2.0000 </r>
       <r>   -16.1373     0.0000     2.0000 </r>
       <r>   -16.0321     0.0000     2.0000 </r>
       <r>   -15.9269     0.0000     2.0000 </r>
       <r>   -15.8217     0.0000     2.0000 </r>
       <r>   -15.7165     0.0000     2.0000 </r>
       <r>   -15.6113     0.0000     2.0000 </r>
       <r>   -15.5061     0.0000     2.0000 </r>
       <r>   -15.4009     0.0000     2.0000 </r>
       <r>   -15.2957     0.0000     2.0000 </r>
       <r>   -15.1905     0.0000     2.0000 </r>
       <r>   -15.0853     0.0000     2.0000 </r>
       <r>   -14.9801     0.0000     2.0000 </r>
       <r>   -14.8749     0.0000     2.0000 </r>
       <r>   -14.7697     0.0000     2.0000 </r>
       <r>   -14.6645     0.0000     2.0000 </r>
       <r>   -14.5593     0.0000     2.0000 </r>
       <r>   -14.4541     0.0000     2.0000 </r>
       <r>   -14.3489     0.0000     2.0000 </r>
       <r>   -14.2437     0.0000     2.0000 </r>
       <r>   -14.1385     0.0000     2.0000 </r>
       <r>   -14.0333     0.0000     2.0000 </r>
       <r>   -13.9281     0.0003     2.0000 </r>
       <r>   -13.8229     0.0044     2.0005 </r>
       <r>   -13.7177     0.0331     2.0040 </r>
       <r>   -13.6125     0.0554     2.0098 </r>
       <r>   -13.5073    -0.3552     1.9724 </r>
       <r>   -13.4021    -0.7161     1.8971 </r>
       <r>   -13.2969     3.2205     2.2359 </r>
       <r>   -13.1917     9.5665     3.2423 </r>
       <r>   -13.0865     7.2618     4.0062 </r>
       <r>   -12.9813     0.7142     4.0813 </r>
       <r>   -12.8761    -0.7682     4.0005 </r>
       <r>   -12.7709    -0.0826     3.9918 </r>
       <r>   -12.6657     0.0609     3.9982 </r>
       <r>   -12.5605     0.0153     3.9998 </r>
       <r>   -12.4553     0.0014     4.0000 </r>
       <r>   -12.3501     0.0001     4.0000 </r>
       <r>   -12.2449     0.0000     4.0000 </r>
       <r>   -12.1397     0.0000     4.0000 </r>
       <r>   -12.0345     0.0000     4.0000 </r>
       <r>   -11.9294     0.0004     4.0000 </r>
       <r>   -11.8242     0.0056     4.0006 </r>
       <r>   -11.7190     0.0382     4.0047 </r>
       <r>   -11.6138     0.0458     4.0095 </r>
       <r>   -11.5086    -0.4222     3.9651 </r>
       <r>   -11.4034    -0.5420     3.9080 </r>
       <r>   -11.2982     3.8942     4.3177 </r>
       <r>   -11.1930     9.1540     5.2807 </r>
       <r>   -11.0878     6.7270     5.9883 </r>
       <r>   -10.9826     6.5696     6.6795 </r>
       <r>   -10.8774     9.2061     7.6479 </r>
       <r>   -10.7722     4.1883     8.0885 </r>
       <r>   -10.6670    -0.4729     8.0388 </r>
       <r>   -10.5618    -0.4553     7.9909 </r>
       <r>   -10.4566     0.0455     7.9957 </r>
       <r>   -10.3514     0.0785     8.0039 </r>
       <r>   -10.2462     0.0515     8.0093 </r>
       <r>   -10.1410    -0.4311     7.9640 </r>
       <r>   -10.0358    -0.6009     7.9008 </r>
       <r>    -9.9306     3.9011     8.3112 </r>
       <r>    -9.8254     9.8301     9.3453 </r>
       <r>    -9.7202     6.5849    10.0380 </r>
       <r>    -9.6150     0.3237    10.0720 </r>
       <r>    -9.5098    -0.7126     9.9971 </r>
       <r>    -9.4046    -0.0429     9.9926 </r>
       <r>    -9.2994     0.0570     9.9986 </r>
       <r>    -9.1942     0.0126     9.9999 </r>
       <r>    -9.0890     0.0011    10.0000 </r>
       <r>    -8.9838     0.0000    10.0000 </r>
       <r>    -8.8786     0.0000    10.0000 </r>
       <r>    -8.7734     0.0000    10.0000 </r>
       <r>    -8.6682     0.0000    10.0000 </r>
       <r>    -8.5630     0.0000    10.0000 </r>
       <r>    -8.4578     0.0000    10.0000 </r>
       <r>    -8.3526     0.0000    10.0000 </r>
       <r>    -8.2474     0.0000    10.0000 </r>
       <r>    -8.1422     0.0000    10.0000 </r>
       <r>    -8.0370     0.0000    10.0000 </r>
       <r>    -7.9318     0.0000    10.0000 </r>
       <r>    -7.8266     0.0000    10.0000 </r>
       <r>    -7.7214     0.0000    10.0000 </r>
       <r>    -7.6162     0.0000    10.0000 </r>
       <r>    -7.5110     0.0000    10.0000 </r>
       <r>    -7.4058     0.0001    10.0000 </r>
       <r>    -7.3006     0.0013    10.0001 </r>
       <r>    -7.1954     0.0142    10.0016 </r>
       <r>    -7.0902     0.0595    10.0079 </r>
       <r>    -6.9850    -0.0661    10.0009 </r>
       <r>    -6.8798    -0.7478     9.9223 </r>
       <r>    -6.7746     0.5607     9.9812 </r>
       <r>    -6.6694     7.0664    10.7246 </r>
       <r>    -6.5642     9.8784    11.7638 </r>
       <r>    -6.4590     3.0162    12.0811 </r>
       <r>    -6.3538    -2.9175    11.7742 </r>
       <r>    -6.2487     4.0220    12.1973 </r>
       <r>    -6.1435    24.1136    14.7340 </r>
       <r>    -6.0383    30.8981    17.9844 </r>
       <r>    -5.9331    22.3594    20.3366 </r>
       <r>    -5.8279    28.4071    23.3250 </r>
       <r>    -5.7227    58.5378    29.4830 </r>
       <r>    -5.6175   127.1446    42.8584 </r>
       <r>    -5.5123   238.1954    67.9161 </r>
       <r>    -5.4071   295.4681    98.9988 </r>
       <r>    -5.3019   245.8108   124.8577 </r>
       <r>    -5.1967   210.9301   147.0471 </r>
       <r>    -5.0915   272.4954   175.7131 </r>
       <r>    -4.9863   354.7624   213.0335 </r>
       <r>    -4.8811   345.6653   249.3968 </r>
       <r>    -4.7759   297.4872   280.6920 </r>
       <r>    -4.6707   345.3261   317.0196 </r>
       <r>    -4.5655   418.1451   361.0077 </r>
       <r>    -4.4603   417.5064   404.9286 </r>
       <r>    -4.3551   459.3476   453.2511 </r>
       <r>    -4.2499   550.6179   511.1751 </r>
       <r>    -4.1447   455.0149   559.0419 </r>
       <r>    -4.0395   185.2983   578.5349 </r>
       <r>    -3.9343    26.1155   581.2822 </r>
       <r>    -3.8291    20.5061   583.4394 </r>
       <r>    -3.7239    29.1122   586.5020 </r>
       <r>    -3.6187    14.7439   588.0530 </r>
       <r>    -3.5135    14.3513   589.5627 </r>
       <r>    -3.4083    22.5423   591.9341 </r>
       <r>    -3.3031    13.5218   593.3566 </r>
       <r>    -3.1979     2.4154   593.6107 </r>
       <r>    -3.0927    25.8246   596.3274 </r>
       <r>    -2.9875    62.1408   602.8645 </r>
       <r>    -2.8823    50.4667   608.1735 </r>
       <r>    -2.7771    15.3028   609.7833 </r>
       <r>    -2.6719     2.7424   610.0718 </r>
       <r>    -2.5667    13.4778   611.4897 </r>
       <r>    -2.4615    23.9132   614.0053 </r>
       <r>    -2.3563    16.1487   615.7041 </r>
       <r>    -2.2511    10.8456   616.8451 </r>
       <r>    -2.1459    25.7287   619.5517 </r>
       <r>    -2.0407    41.7301   623.9416 </r>
       <r>    -1.9355    43.9829   628.5685 </r>
       <r>    -1.8303    38.4516   632.6136 </r>
       <r>    -1.7251    33.8082   636.1701 </r>
       <r>    -1.6199    36.8439   640.0460 </r>
       <r>    -1.5147    36.1061   643.8443 </r>
       <r>    -1.4095    27.8692   646.7761 </r>
       <r>    -1.3043    19.6508   648.8433 </r>
       <r>    -1.1991    10.6039   649.9589 </r>
       <r>    -1.0939    17.6986   651.8207 </r>
       <r>    -0.9887    53.9051   657.4915 </r>
       <r>    -0.8835    76.6937   665.5595 </r>
       <r>    -0.7783    50.7279   670.8960 </r>
       <r>    -0.6731    13.3017   672.2953 </r>
       <r>    -0.5679    -1.6797   672.1186 </r>
       <r>    -0.4628    -1.4556   671.9654 </r>
       <r>    -0.3576     0.1061   671.9766 </r>
       <r>    -0.2524     0.1805   671.9956 </r>
       <r>    -0.1472     0.0382   671.9996 </r>
       <r>    -0.0420     0.0035   672.0000 </r>
       <r>     0.0632     0.0002   672.0000 </r>
       <r>     0.1684     0.0000   672.0000 </r>
       <r>     0.2736     0.0000   672.0000 </r>
       <r>     0.3788     0.0000   672.0000 </r>
       <r>     0.4840     0.0000   672.0000 </r>
       <r>     0.5892     0.0000   672.0000 </r>
       <r>     0.6944     0.0000   672.0000 </r>
       <r>     0.7996     0.0000   672.0000 </r>
       <r>     0.9048     0.0000   672.0000 </r>
       <r>     1.0100     0.0000   672.0000 </r>
       <r>     1.1152     0.0000   672.0000 </r>
       <r>     1.2204     0.0000   672.0000 </r>
      </set>
     </set>
    </array>
   </total>
  </dos>
 </calculation>
 <structure name="finalpos" >
  <crystal>
   <varray name="basis" >
    <v>      30.00000000       0.00000000       0.00000000 </v>
    <v>       0.00000000      30.00000000       0.00000000 </v>
    <v>       0.00000000       0.00000000      30.00000000 </v>
   </varray>
   <i name="volume">  27000.00000000 </i>
   <varray name="rec_basis" >
    <v>       0.03333333       0.00000000       0.00000000 </v>
    <v>       0.00000000       0.03333333       0.00000000 </v>
    <v>       0.00000000       0.00000000       0.03333333 </v>
   </varray>
  </crystal>
  <varray name="positions" >
   <v>       0.44576020       0.32826710       0.41691983 </v>
   <v>       0.67173288       0.55423978       0.41691983 </v>
   <v>       0.55423980       0.32826710       0.41691983 </v>
   <v>       0.32826712       0.55423978       0.41691983 </v>
   <v>       0.50000000       0.38250690       0.34021317 </v>
   <v>       0.50000000       0.38250690       0.65978680 </v>
   <v>       0.50000000       0.27609440       0.50000000 </v>
   <v>       0.27609443       0.49999998       0.50000000 </v>
   <v>       0.72390557       0.49999998       0.50000000 </v>
   <v>       0.50000000       0.72390555       0.50000000 </v>
   <v>       0.61195280       0.38804720       0.34167483 </v>
   <v>       0.61195280       0.38804720       0.65832513 </v>
   <v>       0.38804722       0.61195278       0.34167483 </v>
   <v>       0.38804722       0.61195278       0.65832513 </v>
   <v>       0.38804720       0.38804720       0.34167483 </v>
   <v>       0.38804720       0.38804720       0.65832513 </v>
   <v>       0.61195278       0.61195278       0.34167483 </v>
   <v>       0.61195278       0.61195278       0.65832513 </v>
   <v>       0.44576020       0.32826710       0.58308023 </v>
   <v>       0.67173288       0.55423978       0.58308023 </v>
   <v>       0.55791699       0.44208301       0.41809300 </v>
   <v>       0.32826705       0.44576024       0.41691983 </v>
   <v>       0.55423973       0.67173293       0.41691983 </v>
   <v>       0.55423980       0.32826710       0.58308023 </v>
   <v>       0.32826712       0.55423978       0.58308023 </v>
   <v>       0.67173295       0.44576024       0.41691983 </v>
   <v>       0.44576027       0.67173293       0.41691983 </v>
   <v>       0.44208301       0.44208301       0.41809300 </v>
   <v>       0.50000000       0.38416601       0.50000000 </v>
   <v>       0.61749315       0.50000005       0.34021317 </v>
   <v>       0.61749315       0.50000005       0.65978680 </v>
   <v>       0.38250685       0.50000005       0.34021317 </v>
   <v>       0.38250685       0.50000005       0.65978680 </v>
   <v>       0.38317830       0.38317830       0.50000000 </v>
   <v>       0.61682172       0.61682172       0.50000000 </v>
   <v>       0.61682170       0.38317830       0.50000000 </v>
   <v>       0.38317828       0.61682172       0.50000000 </v>
   <v>       0.50000000       0.50000000       0.33478917 </v>
   <v>       0.50000000       0.50000000       0.66521087 </v>
   <v>       0.32826705       0.44576024       0.58308023 </v>
   <v>       0.55423973       0.67173293       0.58308023 </v>
   <v>       0.55791699       0.44208301       0.58190703 </v>
   <v>       0.44208298       0.55791702       0.41809300 </v>
   <v>       0.44208301       0.44208301       0.58190703 </v>
   <v>       0.67173295       0.44576024       0.58308023 </v>
   <v>       0.44576027       0.67173293       0.58308023 </v>
   <v>       0.55791702       0.55791702       0.41809300 </v>
   <v>       0.38416599       0.50000002       0.50000000 </v>
   <v>       0.61583401       0.50000002       0.50000000 </v>
   <v>       0.50000000       0.61749319       0.34021317 </v>
   <v>       0.50000000       0.61749319       0.65978680 </v>
   <v>       0.50000000       0.50000000       0.50000000 </v>
   <v>       0.44208298       0.55791702       0.58190703 </v>
   <v>       0.55791702       0.55791702       0.58190703 </v>
   <v>       0.50000000       0.61583404       0.50000000 </v>
   <v>       0.58247357       0.69781000       0.47031833 </v>
   <v>       0.59680620       0.73218630       0.46516010 </v>
  </varray>
  <varray name="selective"  type="logical" >
   <v type="logical" >  F  F  F </v>
   <v type="logical" >  F  F  F </v>
   <v type="logical" >  F  F  F </v>
   <v type="logical" >  F  F  F </v>
   <v type="logical" >  F  F  F </v>
   <v type="logical" >  F  F  F </v>
   <v type="logical" >  F  F  F </v>
   <v type="logical" >  F  F  F </v>
   <v type="logical" >  F  F  F </v>
   <v type="logical" >  F  F  F </v>
   <v type="logical" >  F  F  F </v>
   <v type="logical" >  F  F  F </v>
   <v type="logical" >  F  F  F </v>
   <v type="logical" >  F  F  F </v>
   <v type="logical" >  F  F  F </v>
   <v type="logical" >  F  F  F </v>
   <v type="logical" >  F  F  F </v>
   <v type="logical" >  F  F  F </v>
   <v type="logical" >  F  F  F </v>
   <v type="logical" >  F  F  F </v>
   <v type="logical" >  F  F  F </v>
   <v type="logical" >  F  F  F </v>
   <v type="logical" >  F  F  F </v>
   <v type="logical" >  F  F  F </v>
   <v type="logical" >  F  F  F </v>
   <v type="logical" >  F  F  F </v>
   <v type="logical" >  F  F  F </v>
   <v type="logical" >  F  F  F </v>
   <v type="logical" >  F  F  F </v>
   <v type="logical" >  F  F  F </v>
   <v type="logical" >  F  F  F </v>
   <v type="logical" >  F  F  F </v>
   <v type="logical" >  F  F  F </v>
   <v type="logical" >  F  F  F </v>
   <v type="logical" >  F  F  F </v>
   <v type="logical" >  F  F  F </v>
   <v type="logical" >  F  F  F </v>
   <v type="logical" >  F  F  F </v>
   <v type="logical" >  F  F  F </v>
   <v type="logical" >  F  F  F </v>
   <v type="logical" >  F  F  F </v>
   <v type="logical" >  F  F  F </v>
   <v type="logical" >  F  F  F </v>
   <v type="logical" >  F  F  F </v>
   <v type="logical" >  F  F  F </v>
   <v type="logical" >  F  F  F </v>
   <v type="logical" >  F  F  F </v>
   <v type="logical" >  F  F  F </v>
   <v type="logical" >  F  F  F </v>
   <v type="logical" >  F  F  F </v>
   <v type="logical" >  F  F  F </v>
   <v type="logical" >  F  F  F </v>
   <v type="logical" >  F  F  F </v>
   <v type="logical" >  F  F  F </v>
   <v type="logical" >  F  F  F </v>
   <v type="logical" >  F  F  F </v>
   <v type="logical" >  F  F  F </v>
  </varray>
  <nose>
   <v>      -3.00000000       0.00000000       0.00010000       0.00010000 </v>
  </nose>
 </structure>
</modeling>
