<?xml version="1.0" encoding="ISO-8859-1"?>
<modeling>
 <generator>
  <i name="program" type="string">vasp </i>
  <i name="version" type="string">5.4.4.18Apr17-6-g9f103f2a35  </i>
  <i name="subversion" type="string">(build Sep 03 2018 23:53:05) complex            parallel </i>
  <i name="platform" type="string">LinuxIFC </i>
  <i name="date" type="string">2021 12 02 </i>
  <i name="time" type="string">16:08:27 </i>
 </generator>
 <incar>
  <i type="string" name="SYSTEM"> 6_Pd100_top_free_z(O)</i>
  <i type="int" name="ISTART">     0</i>
  <i type="string" name="PREC">normal   			! encut=max(enmax), ngx,y,z</i>
  <i type="string" name="ALGO"> Fast     			! Mix RMM-DIIS and Dav</i>
  <i type="logical" name="ADDGRID"> F  </i>
  <i type="int" name="ISPIN">     1</i>
  <i type="int" name="ICHARG">     2</i>
  <i type="int" name="NELM">   100</i>
  <i type="int" name="NELMIN">     6</i>
  <i type="int" name="IBRION">     2</i>
  <i name="EDIFF">      0.00010000</i>
  <i name="EDIFFG">     -0.05000000</i>
  <i type="int" name="NSW">     0</i>
  <i type="int" name="ISIF">     2</i>
  <i type="int" name="ISYM">     2</i>
  <i name="ENCUT">    400.00000000</i>
  <i type="string" name="LREAL"> Auto     			! Auto or A projection done</i>
  <i type="int" name="ISMEAR">     2</i>
  <i name="SIGMA">      0.20000000</i>
  <i type="logical" name="LWAVE"> F  </i>
  <i type="logical" name="LCHARG"> F  </i>
  <v type="int" name="KPOINT_BSE">    -1     0     0     0</v>
  <i type="int" name="MAXMEM"> 10000</i>
  <i type="int" name="NELM">   100</i>
  <i type="string" name="GGA"> RP         			! Revised PBE</i>
 </incar>
 <structure name="primitive_cell" >
  <crystal>
   <varray name="basis" >
    <v>      30.00000000       0.00000000       0.00000000 </v>
    <v>       0.00000000      30.00000000       0.00000000 </v>
    <v>       0.00000000       0.00000000      30.00000000 </v>
   </varray>
   <i name="volume">  27000.00000000 </i>
   <varray name="rec_basis" >
    <v>       0.03333333       0.00000000       0.00000000 </v>
    <v>       0.00000000       0.03333333       0.00000000 </v>
    <v>       0.00000000       0.00000000       0.03333333 </v>
   </varray>
  </crystal>
  <varray name="positions" >
   <v>       0.44576020       0.32826710       0.41691983 </v>
   <v>      -0.44576020       0.32826710       0.41691983 </v>
   <v>      -0.50000000       0.38250690       0.34021317 </v>
   <v>      -0.50000000       0.27609440      -0.50000000 </v>
   <v>       0.38804720       0.38804720       0.34167483 </v>
   <v>      -0.50000000       0.38416601      -0.50000000 </v>
   <v>       0.44208300       0.44208300       0.41809300 </v>
   <v>       0.38317830       0.38317830      -0.50000000 </v>
   <v>      -0.44208300       0.44208300       0.41809300 </v>
   <v>       0.44576020       0.32826710      -0.41691977 </v>
   <v>       0.32826705       0.44576024       0.41691983 </v>
   <v>      -0.38804720       0.38804720       0.34167483 </v>
   <v>      -0.38317830       0.38317830      -0.50000000 </v>
   <v>      -0.50000000      -0.50000000       0.33478917 </v>
   <v>      -0.50000000      -0.50000000      -0.50000000 </v>
   <v>      -0.44576020       0.32826710      -0.41691977 </v>
   <v>       0.38250685      -0.49999995       0.34021317 </v>
   <v>       0.44208300       0.44208300      -0.41809297 </v>
   <v>       0.38416599      -0.49999998      -0.50000000 </v>
   <v>      -0.44208300       0.44208300      -0.41809297 </v>
   <v>       0.44208298      -0.44208298       0.41809300 </v>
   <v>       0.32826705       0.44576024      -0.41691977 </v>
   <v>      -0.50000000       0.38250690      -0.34021320 </v>
   <v>       0.32826712      -0.44576022       0.41691983 </v>
   <v>      -0.38250685      -0.49999995       0.34021317 </v>
   <v>      -0.32826705       0.44576024       0.41691983 </v>
   <v>       0.27609443       0.49999998      -0.50000000 </v>
   <v>       0.38804720       0.38804720      -0.34167487 </v>
   <v>      -0.38416599      -0.49999998      -0.50000000 </v>
   <v>      -0.44208298      -0.44208298       0.41809300 </v>
   <v>       0.44208298      -0.44208298      -0.41809297 </v>
   <v>      -0.38804720       0.38804720      -0.34167487 </v>
   <v>       0.38804722      -0.38804722       0.34167483 </v>
   <v>       0.38250685      -0.49999995      -0.34021320 </v>
   <v>       0.32826712      -0.44576022      -0.41691977 </v>
   <v>      -0.32826705       0.44576024      -0.41691977 </v>
   <v>       0.50000000      -0.38250681       0.34021317 </v>
   <v>      -0.50000000      -0.38416596      -0.50000000 </v>
   <v>      -0.44208298      -0.44208298      -0.41809297 </v>
   <v>      -0.50000000      -0.50000000      -0.33478913 </v>
   <v>       0.38317828      -0.38317828      -0.50000000 </v>
   <v>      -0.32826712      -0.44576022       0.41691983 </v>
   <v>      -0.27609443       0.49999998      -0.50000000 </v>
   <v>      -0.38804722      -0.38804722       0.34167483 </v>
   <v>      -0.38250685      -0.49999995      -0.34021320 </v>
   <v>       0.44576027      -0.32826707       0.41691983 </v>
   <v>      -0.38317828      -0.38317828      -0.50000000 </v>
   <v>      -0.32826712      -0.44576022      -0.41691977 </v>
   <v>      -0.44576027      -0.32826707       0.41691983 </v>
   <v>       0.38804722      -0.38804722      -0.34167487 </v>
   <v>      -0.50000000      -0.38250681      -0.34021320 </v>
   <v>       0.44576027      -0.32826707      -0.41691977 </v>
   <v>       0.49987147       0.49697623      -0.23842220 </v>
   <v>      -0.44576027      -0.32826707      -0.41691977 </v>
   <v>      -0.50000000      -0.27609445       0.50000000 </v>
   <v>      -0.38804722      -0.38804722      -0.34167487 </v>
   <v>       0.49985300       0.49654160      -0.20082473 </v>
  </varray>
 </structure>
 <varray name="primitive_index" >
  <v type="int" >        1 </v>
  <v type="int" >        3 </v>
  <v type="int" >        5 </v>
  <v type="int" >        7 </v>
  <v type="int" >       15 </v>
  <v type="int" >       29 </v>
  <v type="int" >       28 </v>
  <v type="int" >       34 </v>
  <v type="int" >       21 </v>
  <v type="int" >       19 </v>
  <v type="int" >       22 </v>
  <v type="int" >       11 </v>
  <v type="int" >       36 </v>
  <v type="int" >       38 </v>
  <v type="int" >       52 </v>
  <v type="int" >       24 </v>
  <v type="int" >       32 </v>
  <v type="int" >       44 </v>
  <v type="int" >       48 </v>
  <v type="int" >       42 </v>
  <v type="int" >       43 </v>
  <v type="int" >       40 </v>
  <v type="int" >        6 </v>
  <v type="int" >        4 </v>
  <v type="int" >       30 </v>
  <v type="int" >       26 </v>
  <v type="int" >        8 </v>
  <v type="int" >       16 </v>
  <v type="int" >       49 </v>
  <v type="int" >       47 </v>
  <v type="int" >       53 </v>
  <v type="int" >       12 </v>
  <v type="int" >       13 </v>
  <v type="int" >       33 </v>
  <v type="int" >       25 </v>
  <v type="int" >       45 </v>
  <v type="int" >       50 </v>
  <v type="int" >       55 </v>
  <v type="int" >       54 </v>
  <v type="int" >       39 </v>
  <v type="int" >       37 </v>
  <v type="int" >        2 </v>
  <v type="int" >        9 </v>
  <v type="int" >       17 </v>
  <v type="int" >       31 </v>
  <v type="int" >       27 </v>
  <v type="int" >       35 </v>
  <v type="int" >       20 </v>
  <v type="int" >       23 </v>
  <v type="int" >       14 </v>
  <v type="int" >       51 </v>
  <v type="int" >       46 </v>
  <v type="int" >       56 </v>
  <v type="int" >       41 </v>
  <v type="int" >       10 </v>
  <v type="int" >       18 </v>
  <v type="int" >       57 </v>
 </varray>
 <kpoints>
  <generation param="Monkhorst-Pack">
   <v type="int" name="divisions">       1        1        1 </v>
   <v name="usershift">      0.00000000       0.00000000       0.00000000 </v>
   <v name="genvec1">      1.00000000       0.00000000       0.00000000 </v>
   <v name="genvec2">      0.00000000       1.00000000       0.00000000 </v>
   <v name="genvec3">      0.00000000       0.00000000       1.00000000 </v>
   <v name="shift">      0.00000000       0.00000000       0.00000000 </v>
  </generation>
  <varray name="kpointlist" >
   <v>       0.00000000       0.00000000       0.00000000 </v>
  </varray>
  <varray name="weights" >
   <v>       1.00000000 </v>
  </varray>
 </kpoints>
 <parameters>
  <separator name="general" >
   <i type="string" name="SYSTEM">6_Pd100_top_free_z(O)</i>
   <i type="logical" name="LCOMPAT"> F  </i>
  </separator>
  <separator name="electronic" >
   <i type="string" name="PREC">normal</i>
   <i name="ENMAX">    400.00000000</i>
   <i name="ENAUG">    644.87300000</i>
   <i name="EDIFF">      0.00010000</i>
   <i type="int" name="IALGO">    68</i>
   <i type="int" name="IWAVPR">    10</i>
   <i type="int" name="NBANDS">   336</i>
   <i name="NELECT">    560.00000000</i>
   <i type="int" name="TURBO">     0</i>
   <i type="int" name="IRESTART">     0</i>
   <i type="int" name="NREBOOT">     0</i>
   <i type="int" name="NMIN">     0</i>
   <i name="EREF">      0.00000000</i>
   <separator name="electronic smearing" >
    <i type="int" name="ISMEAR">     2</i>
    <i name="SIGMA">      0.20000000</i>
    <i name="KSPACING">      0.50000000</i>
    <i type="logical" name="KGAMMA"> T  </i>
   </separator>
   <separator name="electronic projectors" >
    <i type="logical" name="LREAL"> T  </i>
    <v name="ROPT">     -0.00050000     -0.00050000     -0.00050000</v>
    <i type="int" name="LMAXPAW">  -100</i>
    <i type="int" name="LMAXMIX">     2</i>
    <i type="logical" name="NLSPLINE"> F  </i>
   </separator>
   <separator name="electronic startup" >
    <i type="int" name="ISTART">     0</i>
    <i type="int" name="ICHARG">     2</i>
    <i type="int" name="INIWAV">     1</i>
   </separator>
   <separator name="electronic spin" >
    <i type="int" name="ISPIN">     1</i>
    <i type="logical" name="LNONCOLLINEAR"> F  </i>
    <v name="MAGMOM">      1.00000000      1.00000000      1.00000000      1.00000000      1.00000000      1.00000000      1.00000000      1.00000000      1.00000000      1.00000000      1.00000000      1.00000000      1.00000000      1.00000000      1.00000000      1.00000000      1.00000000      1.00000000      1.00000000      1.00000000
      1.00000000      1.00000000      1.00000000      1.00000000      1.00000000      1.00000000      1.00000000      1.00000000      1.00000000      1.00000000      1.00000000      1.00000000      1.00000000      1.00000000      1.00000000      1.00000000      1.00000000      1.00000000      1.00000000      1.00000000
      1.00000000      1.00000000      1.00000000      1.00000000      1.00000000      1.00000000      1.00000000      1.00000000      1.00000000      1.00000000      1.00000000      1.00000000      1.00000000      1.00000000      1.00000000      1.00000000      1.00000000</v>
    <i name="NUPDOWN">     -1.00000000</i>
    <i type="logical" name="LSORBIT"> F  </i>
    <v name="SAXIS">      0.00000000      0.00000000      1.00000000</v>
    <i type="logical" name="LSPIRAL"> F  </i>
    <v name="QSPIRAL">      0.00000000      0.00000000      0.00000000</v>
    <i type="logical" name="LZEROZ"> F  </i>
   </separator>
   <separator name="electronic exchange-correlation" >
    <i type="logical" name="LASPH"> F  </i>
    <i type="logical" name="LMETAGGA"> F  </i>
   </separator>
   <separator name="electronic convergence" >
    <i type="int" name="NELM">   100</i>
    <i type="int" name="NELMDL">    -5</i>
    <i type="int" name="NELMIN">     6</i>
    <i name="ENINI">    400.00000000</i>
    <separator name="electronic convergence detail" >
     <i type="logical" name="LDIAG"> T  </i>
     <i type="logical" name="LSUBROT"> F  </i>
     <i name="WEIMIN">      0.00000000</i>
     <i name="EBREAK">      0.00000007</i>
     <i name="DEPER">      0.30000000</i>
     <i type="int" name="NRMM">     4</i>
     <i name="TIME">      0.40000000</i>
    </separator>
   </separator>
   <separator name="electronic mixer" >
    <i name="AMIX">      0.40000000</i>
    <i name="BMIX">      1.00000000</i>
    <i name="AMIN">      0.10000000</i>
    <i name="AMIX_MAG">      1.60000000</i>
    <i name="BMIX_MAG">      1.00000000</i>
    <separator name="electronic mixer details" >
     <i type="int" name="IMIX">     4</i>
     <i type="logical" name="MIXFIRST"> F  </i>
     <i type="int" name="MAXMIX">   -45</i>
     <i name="WC">    100.00000000</i>
     <i type="int" name="INIMIX">     1</i>
     <i type="int" name="MIXPRE">     1</i>
     <i type="int" name="MREMOVE">     5</i>
    </separator>
   </separator>
   <separator name="electronic dipolcorrection" >
    <i type="logical" name="LDIPOL"> F  </i>
    <i type="logical" name="LMONO"> F  </i>
    <i type="int" name="IDIPOL">     0</i>
    <i name="EPSILON">      1.00000000</i>
    <v name="DIPOL">   -100.00000000   -100.00000000   -100.00000000</v>
    <i name="EFIELD">      0.00000000</i>
   </separator>
  </separator>
  <separator name="grids" >
   <i type="int" name="NGX">   150</i>
   <i type="int" name="NGY">   150</i>
   <i type="int" name="NGZ">   150</i>
   <i type="int" name="NGXF">   300</i>
   <i type="int" name="NGYF">   300</i>
   <i type="int" name="NGZF">   300</i>
   <i type="logical" name="ADDGRID"> F  </i>
  </separator>
  <separator name="ionic" >
   <i type="int" name="NSW">     0</i>
   <i type="int" name="IBRION">    -1</i>
   <i type="int" name="MDALGO">     0</i>
   <i type="int" name="ISIF">     2</i>
   <i name="PSTRESS">      0.00000000</i>
   <i name="EDIFFG">     -0.05000000</i>
   <i type="int" name="NFREE">     1</i>
   <i name="POTIM">      0.50000000</i>
   <i name="SMASS">     -3.00000000</i>
   <i name="SCALEE">      1.00000000</i>
  </separator>
  <separator name="ionic md" >
   <i name="TEBEG">      0.00010000</i>
   <i name="TEEND">      0.00010000</i>
   <i type="int" name="NBLOCK">     1</i>
   <i type="int" name="KBLOCK">     1</i>
   <i type="int" name="NPACO">   256</i>
   <i name="APACO">     16.00000000</i>
  </separator>
  <separator name="symmetry" >
   <i type="int" name="ISYM">     2</i>
   <i name="SYMPREC">      0.00001000</i>
  </separator>
  <separator name="dos" >
   <i type="int" name="LORBIT">     0</i>
   <v name="RWIGS">     -1.00000000     -1.00000000     -1.00000000</v>
   <i type="int" name="NEDOS">   301</i>
   <i name="EMIN">     10.00000000</i>
   <i name="EMAX">    -10.00000000</i>
   <i name="EFERMI">      0.00000000</i>
  </separator>
  <separator name="writing" >
   <i type="int" name="NWRITE">     2</i>
   <i type="logical" name="LWAVE"> F  </i>
   <i type="logical" name="LDOWNSAMPLE"> F  </i>
   <i type="logical" name="LCHARG"> F  </i>
   <i type="logical" name="LPARD"> F  </i>
   <i type="logical" name="LVTOT"> F  </i>
   <i type="logical" name="LVHAR"> F  </i>
   <i type="logical" name="LELF"> F  </i>
   <i type="logical" name="LOPTICS"> F  </i>
   <v name="STM">      0.00000000      0.00000000      0.00000000      0.00000000      0.00000000      0.00000000      0.00000000</v>
  </separator>
  <separator name="performance" >
   <i type="int" name="NPAR">     1</i>
   <i type="int" name="NSIM">     4</i>
   <i type="int" name="NBLK">    -1</i>
   <i type="logical" name="LPLANE"> T  </i>
   <i type="logical" name="LSCALAPACK"> T  </i>
   <i type="logical" name="LSCAAWARE"> F  </i>
   <i type="logical" name="LSCALU"> F  </i>
   <i type="logical" name="LASYNC"> F  </i>
   <i type="logical" name="LORBITALREAL"> F  </i>
  </separator>
  <separator name="miscellaneous" >
   <i type="int" name="IDIOT">     3</i>
   <i type="int" name="ISPECIAL">     0</i>
   <i type="logical" name="LMUSIC"> F  </i>
   <v name="POMASS">    106.42000000     12.01100000     16.00000000</v>
   <v name="DARWINR">      0.00000000      0.00000000      0.00000000</v>
   <v name="DARWINV">      1.00000000      1.00000000      1.00000000</v>
   <i type="logical" name="LCORR"> T  </i>
  </separator>
  <i type="logical" name="GGA_COMPAT"> T  </i>
  <i type="logical" name="LBERRY"> F  </i>
  <i type="int" name="ICORELEVEL">     0</i>
  <i type="logical" name="LDAU"> F  </i>
  <i type="int" name="I_CONSTRAINED_M">     0</i>
  <separator name="electronic exchange-correlation" >
   <i type="string" name="GGA">RP</i>
   <i type="int" name="VOSKOWN">     0</i>
   <i type="logical" name="LHFCALC"> F  </i>
   <i type="string" name="PRECFOCK"></i>
   <i type="logical" name="LSYMGRAD"> F  </i>
   <i type="logical" name="LHFONE"> F  </i>
   <i type="logical" name="LRHFCALC"> F  </i>
   <i type="logical" name="LTHOMAS"> F  </i>
   <i type="logical" name="LMODELHF"> F  </i>
   <i name="ENCUT4O">     -1.00000000</i>
   <i type="int" name="EXXOEP">     0</i>
   <i type="int" name="FOURORBIT">     0</i>
   <i name="AEXX">      0.00000000</i>
   <i name="HFALPHA">      0.00000000</i>
   <i name="MCALPHA">      0.00000000</i>
   <i name="ALDAX">      1.00000000</i>
   <i name="AGGAX">      1.00000000</i>
   <i name="ALDAC">      1.00000000</i>
   <i name="AGGAC">      1.00000000</i>
   <i type="int" name="NKREDX">     1</i>
   <i type="int" name="NKREDY">     1</i>
   <i type="int" name="NKREDZ">     1</i>
   <i type="logical" name="SHIFTRED"> F  </i>
   <i type="logical" name="ODDONLY"> F  </i>
   <i type="logical" name="EVENONLY"> F  </i>
   <i type="int" name="LMAXFOCK">     0</i>
   <i type="int" name="NMAXFOCKAE">     0</i>
   <i type="logical" name="LFOCKAEDFT"> F  </i>
   <i name="HFSCREEN">      0.00000000</i>
   <i name="HFSCREENC">      0.00000000</i>
   <i type="int" name="NBANDSGWLOW">     0</i>
  </separator>
  <separator name="vdW DFT" >
   <i type="logical" name="LUSE_VDW"> F  </i>
   <i name="Zab_VDW">     -0.84910000</i>
   <i name="PARAM1">      0.12340000</i>
   <i name="PARAM2">      1.00000000</i>
   <i name="PARAM3">      0.00000000</i>
  </separator>
  <separator name="model GW" >
   <i type="int" name="MODEL_GW">     0</i>
   <i name="MODEL_EPS0">    284.21052632</i>
   <i name="MODEL_ALPHA">      1.00000000</i>
  </separator>
  <separator name="linear response parameters" >
   <i type="logical" name="LEPSILON"> F  </i>
   <i type="logical" name="LRPA"> F  </i>
   <i type="logical" name="LNABLA"> F  </i>
   <i type="logical" name="LVEL"> F  </i>
   <i type="int" name="KINTER">     0</i>
   <i name="CSHIFT">      0.10000000</i>
   <i name="OMEGAMAX">     -1.00000000</i>
   <i name="DEG_THRESHOLD">      0.00200000</i>
   <i name="RTIME">     -0.10000000</i>
   <i name="WPLASMAI">      0.00000000</i>
   <v name="DFIELD">      0.00000000      0.00000000      0.00000000</v>
   <v name="WPLASMA">      0.00000000      0.00000000      0.00000000      0.00000000      0.00000000      0.00000000      0.00000000      0.00000000      0.00000000</v>
  </separator>
  <separator name="orbital magnetization" >
   <i type="logical" name="NUCIND"> F  </i>
   <v name="MAGPOS">      0.00000000      0.00000000      0.00000000</v>
   <i type="logical" name="LNICSALL"> T  </i>
   <i type="logical" name="ORBITALMAG"> F  </i>
   <i type="logical" name="LMAGBLOCH"> F  </i>
   <i type="logical" name="LCHIMAG"> F  </i>
   <i type="logical" name="LGAUGE"> T  </i>
   <i type="int" name="MAGATOM">     0</i>
   <v name="MAGDIPOL">      0.00000000      0.00000000      0.00000000</v>
   <v name="AVECCONST">      0.00000000      0.00000000      0.00000000</v>
  </separator>
  <separator name="response functions" >
   <i type="logical" name="LADDER"> F  </i>
   <i type="logical" name="LRPAFORCE"> F  </i>
   <i type="logical" name="LFXC"> F  </i>
   <i type="logical" name="LHARTREE"> T  </i>
   <i type="int" name="IBSE">     0</i>
   <v type="int" name="KPOINT">    -1     0     0     0</v>
   <i type="logical" name="LTCTE"> F  </i>
   <i type="logical" name="LTETE"> F  </i>
   <i type="logical" name="LTRIPLET"> F  </i>
   <i type="logical" name="LFXCEPS"> F  </i>
   <i type="logical" name="LFXHEG"> F  </i>
   <i type="int" name="NATURALO">     2</i>
   <i type="logical" name="L2ORDER"> F  </i>
   <i type="logical" name="LMP2LT"> F  </i>
   <i type="logical" name="LUSEW"> F  </i>
   <i name="ENCUTGW">     -2.00000000</i>
   <i name="ENCUTGWSOFT">     -2.00000000</i>
   <i name="ENCUTLF">     -1.00000000</i>
   <i type="int" name="LMAXMP2">    -1</i>
   <i name="SCISSOR">      0.00000000</i>
   <i type="int" name="NOMEGA">     0</i>
   <i type="int" name="NOMEGAR">     0</i>
   <i type="int" name="NBANDSGW">    -1</i>
   <i type="int" name="NBANDSO">    -1</i>
   <i type="int" name="NBANDSV">    -1</i>
   <i type="int" name="NELM">   100</i>
   <i type="int" name="NELMHF">     1</i>
   <i type="int" name="DIM">     3</i>
   <i type="int" name="ANTIRES">     0</i>
   <i name="OMEGAMAX">    -30.00000000</i>
   <i name="OMEGAMIN">    -30.00000000</i>
   <i name="OMEGATL">   -200.00000000</i>
   <i type="int" name="OMEGAGRID">   140</i>
   <i name="CSHIFT">     -0.10000000</i>
   <i type="logical" name="SELFENERGY"> F  </i>
   <i type="logical" name="LSPECTRAL"> F  </i>
   <i type="logical" name="LSPECTRALGW"> F  </i>
   <i type="logical" name="LSINGLES"> F  </i>
   <i type="logical" name="LFERMIGW"> F  </i>
   <i type="logical" name="ODDONLYGW"> F  </i>
   <i type="logical" name="EVENONLYGW"> F  </i>
   <i type="int" name="NKREDLFX">     1</i>
   <i type="int" name="NKREDLFY">     1</i>
   <i type="int" name="NKREDLFZ">     1</i>
   <i type="int" name="MAXMEM"> 10000</i>
   <i type="int" name="TELESCOPE">     0</i>
   <i type="int" name="TAUPAR">     1</i>
   <i type="int" name="OMEGAPAR">    -1</i>
   <i name="LAMBDA">      1.00000000</i>
  </separator>
  <separator name="External order field" >
   <i name="OFIELD_KAPPA">      0.00000000</i>
   <v name="OFIELD_K">      0.00000000      0.00000000      0.00000000</v>
   <i name="OFIELD_Q6_NEAR">      0.00000000</i>
   <i name="OFIELD_Q6_FAR">      0.00000000</i>
   <i name="OFIELD_A">      0.00000000</i>
  </separator>
 </parameters>
 <atominfo>
  <atoms>      57 </atoms>
  <types>       3 </types>
  <array name="atoms" >
   <dimension dim="1">ion</dimension>
   <field type="string">element</field>
   <field type="int">atomtype</field>
   <set>
    <rc><c>Pd</c><c>   1</c></rc>
    <rc><c>Pd</c><c>   1</c></rc>
    <rc><c>Pd</c><c>   1</c></rc>
    <rc><c>Pd</c><c>   1</c></rc>
    <rc><c>Pd</c><c>   1</c></rc>
    <rc><c>Pd</c><c>   1</c></rc>
    <rc><c>Pd</c><c>   1</c></rc>
    <rc><c>Pd</c><c>   1</c></rc>
    <rc><c>Pd</c><c>   1</c></rc>
    <rc><c>Pd</c><c>   1</c></rc>
    <rc><c>Pd</c><c>   1</c></rc>
    <rc><c>Pd</c><c>   1</c></rc>
    <rc><c>Pd</c><c>   1</c></rc>
    <rc><c>Pd</c><c>   1</c></rc>
    <rc><c>Pd</c><c>   1</c></rc>
    <rc><c>Pd</c><c>   1</c></rc>
    <rc><c>Pd</c><c>   1</c></rc>
    <rc><c>Pd</c><c>   1</c></rc>
    <rc><c>Pd</c><c>   1</c></rc>
    <rc><c>Pd</c><c>   1</c></rc>
    <rc><c>Pd</c><c>   1</c></rc>
    <rc><c>Pd</c><c>   1</c></rc>
    <rc><c>Pd</c><c>   1</c></rc>
    <rc><c>Pd</c><c>   1</c></rc>
    <rc><c>Pd</c><c>   1</c></rc>
    <rc><c>Pd</c><c>   1</c></rc>
    <rc><c>Pd</c><c>   1</c></rc>
    <rc><c>Pd</c><c>   1</c></rc>
    <rc><c>Pd</c><c>   1</c></rc>
    <rc><c>Pd</c><c>   1</c></rc>
    <rc><c>Pd</c><c>   1</c></rc>
    <rc><c>Pd</c><c>   1</c></rc>
    <rc><c>Pd</c><c>   1</c></rc>
    <rc><c>Pd</c><c>   1</c></rc>
    <rc><c>Pd</c><c>   1</c></rc>
    <rc><c>Pd</c><c>   1</c></rc>
    <rc><c>Pd</c><c>   1</c></rc>
    <rc><c>Pd</c><c>   1</c></rc>
    <rc><c>Pd</c><c>   1</c></rc>
    <rc><c>Pd</c><c>   1</c></rc>
    <rc><c>Pd</c><c>   1</c></rc>
    <rc><c>Pd</c><c>   1</c></rc>
    <rc><c>Pd</c><c>   1</c></rc>
    <rc><c>Pd</c><c>   1</c></rc>
    <rc><c>Pd</c><c>   1</c></rc>
    <rc><c>Pd</c><c>   1</c></rc>
    <rc><c>Pd</c><c>   1</c></rc>
    <rc><c>Pd</c><c>   1</c></rc>
    <rc><c>Pd</c><c>   1</c></rc>
    <rc><c>Pd</c><c>   1</c></rc>
    <rc><c>Pd</c><c>   1</c></rc>
    <rc><c>Pd</c><c>   1</c></rc>
    <rc><c>Pd</c><c>   1</c></rc>
    <rc><c>Pd</c><c>   1</c></rc>
    <rc><c>Pd</c><c>   1</c></rc>
    <rc><c>C </c><c>   2</c></rc>
    <rc><c>O </c><c>   3</c></rc>
   </set>
  </array>
  <array name="atomtypes" >
   <dimension dim="1">type</dimension>
   <field type="int">atomspertype</field>
   <field type="string">element</field>
   <field>mass</field>
   <field>valence</field>
   <field type="string">pseudopotential</field>
   <set>
    <rc><c>  55</c><c>Pd</c><c>    106.42000000</c><c>     10.00000000</c><c>  PAW_PBE Pd 04Jan2005                  </c></rc>
    <rc><c>   1</c><c>C </c><c>     12.01100000</c><c>      4.00000000</c><c>  PAW_PBE C 08Apr2002                   </c></rc>
    <rc><c>   1</c><c>O </c><c>     16.00000000</c><c>      6.00000000</c><c>  PAW_PBE O 08Apr2002                   </c></rc>
   </set>
  </array>
 </atominfo>
 <structure name="initialpos" >
  <crystal>
   <varray name="basis" >
    <v>      30.00000000       0.00000000       0.00000000 </v>
    <v>       0.00000000      30.00000000       0.00000000 </v>
    <v>       0.00000000       0.00000000      30.00000000 </v>
   </varray>
   <i name="volume">  27000.00000000 </i>
   <varray name="rec_basis" >
    <v>       0.03333333       0.00000000       0.00000000 </v>
    <v>       0.00000000       0.03333333       0.00000000 </v>
    <v>       0.00000000       0.00000000       0.03333333 </v>
   </varray>
  </crystal>
  <varray name="positions" >
   <v>       0.44576020       0.32826710       0.41691983 </v>
   <v>       0.67173288       0.55423978       0.41691983 </v>
   <v>       0.55423980       0.32826710       0.41691983 </v>
   <v>       0.32826712       0.55423978       0.41691983 </v>
   <v>       0.50000000       0.38250690       0.34021317 </v>
   <v>       0.50000000       0.38250690       0.65978680 </v>
   <v>       0.50000000       0.27609440       0.50000000 </v>
   <v>       0.27609443       0.49999998       0.50000000 </v>
   <v>       0.72390557       0.49999998       0.50000000 </v>
   <v>       0.50000000       0.72390555       0.50000000 </v>
   <v>       0.61195280       0.38804720       0.34167483 </v>
   <v>       0.61195280       0.38804720       0.65832513 </v>
   <v>       0.38804722       0.61195278       0.34167483 </v>
   <v>       0.38804722       0.61195278       0.65832513 </v>
   <v>       0.38804720       0.38804720       0.34167483 </v>
   <v>       0.38804720       0.38804720       0.65832513 </v>
   <v>       0.61195278       0.61195278       0.34167483 </v>
   <v>       0.61195278       0.61195278       0.65832513 </v>
   <v>       0.44576020       0.32826710       0.58308023 </v>
   <v>       0.67173288       0.55423978       0.58308023 </v>
   <v>       0.55791699       0.44208301       0.41809300 </v>
   <v>       0.32826705       0.44576024       0.41691983 </v>
   <v>       0.55423973       0.67173293       0.41691983 </v>
   <v>       0.55423980       0.32826710       0.58308023 </v>
   <v>       0.32826712       0.55423978       0.58308023 </v>
   <v>       0.67173295       0.44576024       0.41691983 </v>
   <v>       0.44576027       0.67173293       0.41691983 </v>
   <v>       0.44208301       0.44208301       0.41809300 </v>
   <v>       0.50000000       0.38416601       0.50000000 </v>
   <v>       0.61749315       0.50000005       0.34021317 </v>
   <v>       0.61749315       0.50000005       0.65978680 </v>
   <v>       0.38250685       0.50000005       0.34021317 </v>
   <v>       0.38250685       0.50000005       0.65978680 </v>
   <v>       0.38317830       0.38317830       0.50000000 </v>
   <v>       0.61682172       0.61682172       0.50000000 </v>
   <v>       0.61682170       0.38317830       0.50000000 </v>
   <v>       0.38317828       0.61682172       0.50000000 </v>
   <v>       0.50000000       0.50000000       0.33478917 </v>
   <v>       0.50000000       0.50000000       0.66521087 </v>
   <v>       0.32826705       0.44576024       0.58308023 </v>
   <v>       0.55423973       0.67173293       0.58308023 </v>
   <v>       0.55791699       0.44208301       0.58190703 </v>
   <v>       0.44208298       0.55791702       0.41809300 </v>
   <v>       0.44208301       0.44208301       0.58190703 </v>
   <v>       0.67173295       0.44576024       0.58308023 </v>
   <v>       0.44576027       0.67173293       0.58308023 </v>
   <v>       0.55791702       0.55791702       0.41809300 </v>
   <v>       0.38416599       0.50000002       0.50000000 </v>
   <v>       0.61583401       0.50000002       0.50000000 </v>
   <v>       0.50000000       0.61749319       0.34021317 </v>
   <v>       0.50000000       0.61749319       0.65978680 </v>
   <v>       0.50000000       0.50000000       0.50000000 </v>
   <v>       0.44208298       0.55791702       0.58190703 </v>
   <v>       0.55791702       0.55791702       0.58190703 </v>
   <v>       0.50000000       0.61583404       0.50000000 </v>
   <v>       0.49987147       0.49697623       0.76157780 </v>
   <v>       0.49985300       0.49654160       0.79917527 </v>
  </varray>
  <varray name="selective"  type="logical" >
   <v type="logical" >  F  F  F </v>
   <v type="logical" >  F  F  F </v>
   <v type="logical" >  F  F  F </v>
   <v type="logical" >  F  F  F </v>
   <v type="logical" >  F  F  F </v>
   <v type="logical" >  F  F  F </v>
   <v type="logical" >  F  F  F </v>
   <v type="logical" >  F  F  F </v>
   <v type="logical" >  F  F  F </v>
   <v type="logical" >  F  F  F </v>
   <v type="logical" >  F  F  F </v>
   <v type="logical" >  F  F  F </v>
   <v type="logical" >  F  F  F </v>
   <v type="logical" >  F  F  F </v>
   <v type="logical" >  F  F  F </v>
   <v type="logical" >  F  F  F </v>
   <v type="logical" >  F  F  F </v>
   <v type="logical" >  F  F  F </v>
   <v type="logical" >  F  F  F </v>
   <v type="logical" >  F  F  F </v>
   <v type="logical" >  F  F  F </v>
   <v type="logical" >  F  F  F </v>
   <v type="logical" >  F  F  F </v>
   <v type="logical" >  F  F  F </v>
   <v type="logical" >  F  F  F </v>
   <v type="logical" >  F  F  F </v>
   <v type="logical" >  F  F  F </v>
   <v type="logical" >  F  F  F </v>
   <v type="logical" >  F  F  F </v>
   <v type="logical" >  F  F  F </v>
   <v type="logical" >  F  F  F </v>
   <v type="logical" >  F  F  F </v>
   <v type="logical" >  F  F  F </v>
   <v type="logical" >  F  F  F </v>
   <v type="logical" >  F  F  F </v>
   <v type="logical" >  F  F  F </v>
   <v type="logical" >  F  F  F </v>
   <v type="logical" >  F  F  F </v>
   <v type="logical" >  F  F  F </v>
   <v type="logical" >  F  F  F </v>
   <v type="logical" >  F  F  F </v>
   <v type="logical" >  F  F  F </v>
   <v type="logical" >  F  F  F </v>
   <v type="logical" >  F  F  F </v>
   <v type="logical" >  F  F  F </v>
   <v type="logical" >  F  F  F </v>
   <v type="logical" >  F  F  F </v>
   <v type="logical" >  F  F  F </v>
   <v type="logical" >  F  F  F </v>
   <v type="logical" >  F  F  F </v>
   <v type="logical" >  F  F  F </v>
   <v type="logical" >  F  F  F </v>
   <v type="logical" >  F  F  F </v>
   <v type="logical" >  F  F  F </v>
   <v type="logical" >  F  F  F </v>
   <v type="logical" >  F  F  F </v>
   <v type="logical" >  F  F  F </v>
  </varray>
  <nose>
   <v>      -3.00000000       0.00000000       0.00010000       0.00010000 </v>
  </nose>
 </structure>
 <calculation>
  <scstep>
   <time name="dav">  387.80  387.90</time>
   <time name="total">  402.83  402.93</time>
   <energy>
    <i name="alphaZ">     75.25431677 </i>
    <i name="ewald"> 137658.05806320 </i>
    <i name="hartreedc">-181026.60767830 </i>
    <i name="XCdc">  -1704.13289785 </i>
    <i name="pawpsdc">  44873.02882129 </i>
    <i name="pawaedc"> -41398.84523641 </i>
    <i name="eentropy">      0.03015106 </i>
    <i name="bandstr">    818.80386681 </i>
    <i name="atom">  45086.50549395 </i>
    <i name="e_fr_energy">   4382.09490053 </i>
    <i name="e_wo_entrp">   4382.06474946 </i>
    <i name="e_0_energy">   4382.08736276 </i>
   </energy>
  </scstep>
  <scstep>
   <time name="dav">  614.64  614.66</time>
   <time name="total">  614.64  614.66</time>
   <energy>
    <i name="e_fr_energy">   2028.73699846 </i>
    <i name="e_wo_entrp">   2028.79097008 </i>
    <i name="e_0_energy">   2028.75049136 </i>
   </energy>
  </scstep>
  <scstep>
   <time name="dav">  518.63  518.63</time>
   <time name="total">  518.63  518.63</time>
   <energy>
    <i name="e_fr_energy">    241.62581750 </i>
    <i name="e_wo_entrp">    241.61634895 </i>
    <i name="e_0_energy">    241.62345036 </i>
   </energy>
  </scstep>
  <scstep>
   <time name="dav">  445.52  445.52</time>
   <time name="total">  445.52  445.52</time>
   <energy>
    <i name="e_fr_energy">   -132.44880996 </i>
    <i name="e_wo_entrp">   -132.39395449 </i>
    <i name="e_0_energy">   -132.43509610 </i>
   </energy>
  </scstep>
  <scstep>
   <time name="dav">  538.80  538.80</time>
   <time name="total">  565.85  565.86</time>
   <energy>
    <i name="e_fr_energy">   -178.21824654 </i>
    <i name="e_wo_entrp">   -178.73710193 </i>
    <i name="e_0_energy">   -178.34796039 </i>
   </energy>
  </scstep>
  <scstep>
   <time name="diag">   68.61   68.61</time>
   <time name="diis">  200.77  200.78</time>
   <time name="orth">   13.70   13.70</time>
   <time name="total">  323.08  323.09</time>
   <energy>
    <i name="e_fr_energy">   -177.97428220 </i>
    <i name="e_wo_entrp">   -177.76942842 </i>
    <i name="e_0_energy">   -177.92306876 </i>
   </energy>
  </scstep>
  <scstep>
   <time name="diag">   69.51   69.51</time>
   <time name="diis">  229.95  229.95</time>
   <time name="orth">   13.74   13.74</time>
   <time name="total">  354.22  354.22</time>
   <energy>
    <i name="e_fr_energy">   -180.82176809 </i>
    <i name="e_wo_entrp">   -180.80374004 </i>
    <i name="e_0_energy">   -180.81726108 </i>
   </energy>
  </scstep>
  <scstep>
   <time name="diag">   70.93   70.93</time>
   <time name="diis">  218.83  218.83</time>
   <time name="orth">   14.06   14.06</time>
   <time name="total">  345.21  345.21</time>
   <energy>
    <i name="e_fr_energy">   -182.47488767 </i>
    <i name="e_wo_entrp">   -182.39175297 </i>
    <i name="e_0_energy">   -182.45410399 </i>
   </energy>
  </scstep>
  <scstep>
   <time name="diag">   69.73   69.73</time>
   <time name="diis">  196.76  196.76</time>
   <time name="orth">   13.85   13.85</time>
   <time name="total">  320.20  320.20</time>
   <energy>
    <i name="e_fr_energy">   -180.78314075 </i>
    <i name="e_wo_entrp">   -180.80371606 </i>
    <i name="e_0_energy">   -180.78828458 </i>
   </energy>
  </scstep>
  <scstep>
   <time name="diag">   69.89   69.89</time>
   <time name="diis">  201.78  201.78</time>
   <time name="orth">   13.41   13.41</time>
   <time name="total">  325.87  325.87</time>
   <energy>
    <i name="e_fr_energy">   -179.08645324 </i>
    <i name="e_wo_entrp">   -178.94548307 </i>
    <i name="e_0_energy">   -179.05121070 </i>
   </energy>
  </scstep>
  <scstep>
   <time name="diag">   70.13   70.13</time>
   <time name="diis">  196.14  196.14</time>
   <time name="orth">   13.97   13.97</time>
   <time name="total">  320.88  320.88</time>
   <energy>
    <i name="e_fr_energy">   -177.09077858 </i>
    <i name="e_wo_entrp">   -176.99988134 </i>
    <i name="e_0_energy">   -177.06805427 </i>
   </energy>
  </scstep>
  <scstep>
   <time name="diag">   69.07   69.07</time>
   <time name="diis">  194.31  194.31</time>
   <time name="orth">   13.74   13.74</time>
   <time name="total">  318.01  318.01</time>
   <energy>
    <i name="e_fr_energy">   -175.52473774 </i>
    <i name="e_wo_entrp">   -175.40207862 </i>
    <i name="e_0_energy">   -175.49407296 </i>
   </energy>
  </scstep>
  <scstep>
   <time name="diag">   69.85   69.85</time>
   <time name="diis">  193.98  193.98</time>
   <time name="orth">   14.09   14.09</time>
   <time name="total">  318.61  318.62</time>
   <energy>
    <i name="e_fr_energy">   -175.15356087 </i>
    <i name="e_wo_entrp">   -174.99123194 </i>
    <i name="e_0_energy">   -175.11297863 </i>
   </energy>
  </scstep>
  <scstep>
   <time name="diag">   70.28   70.28</time>
   <time name="diis">  191.82  191.82</time>
   <time name="orth">   13.92   13.91</time>
   <time name="total">  316.39  316.39</time>
   <energy>
    <i name="e_fr_energy">   -175.60792943 </i>
    <i name="e_wo_entrp">   -175.51827510 </i>
    <i name="e_0_energy">   -175.58551585 </i>
   </energy>
  </scstep>
  <scstep>
   <time name="diag">   68.45   68.45</time>
   <time name="diis">  187.39  187.39</time>
   <time name="orth">   12.83   12.83</time>
   <time name="total">  307.27  307.28</time>
   <energy>
    <i name="e_fr_energy">   -175.08111662 </i>
    <i name="e_wo_entrp">   -175.05099257 </i>
    <i name="e_0_energy">   -175.07358561 </i>
   </energy>
  </scstep>
  <scstep>
   <time name="diag">   67.57   67.57</time>
   <time name="diis">  189.60  189.60</time>
   <time name="orth">   13.64   13.64</time>
   <time name="total">  310.68  310.68</time>
   <energy>
    <i name="e_fr_energy">   -175.10713151 </i>
    <i name="e_wo_entrp">   -175.15271900 </i>
    <i name="e_0_energy">   -175.11852838 </i>
   </energy>
  </scstep>
  <scstep>
   <time name="diag">   68.60   68.60</time>
   <time name="diis">  184.29  184.29</time>
   <time name="orth">   13.42   13.42</time>
   <time name="total">  306.29  306.29</time>
   <energy>
    <i name="e_fr_energy">   -174.55968668 </i>
    <i name="e_wo_entrp">   -174.56046218 </i>
    <i name="e_0_energy">   -174.55988056 </i>
   </energy>
  </scstep>
  <scstep>
   <time name="diag">   68.38   68.38</time>
   <time name="diis">  186.88  186.88</time>
   <time name="orth">   13.52   13.52</time>
   <time name="total">  308.83  308.83</time>
   <energy>
    <i name="e_fr_energy">   -174.49845493 </i>
    <i name="e_wo_entrp">   -174.46493401 </i>
    <i name="e_0_energy">   -174.49007470 </i>
   </energy>
  </scstep>
  <scstep>
   <time name="diag">   69.06   69.06</time>
   <time name="diis">  181.49  181.49</time>
   <time name="orth">   13.30   13.30</time>
   <time name="total">  304.04  304.04</time>
   <energy>
    <i name="e_fr_energy">   -174.32732343 </i>
    <i name="e_wo_entrp">   -174.28542464 </i>
    <i name="e_0_energy">   -174.31684874 </i>
   </energy>
  </scstep>
  <scstep>
   <time name="diag">   67.87   67.87</time>
   <time name="diis">  188.32  188.32</time>
   <time name="orth">   13.46   13.46</time>
   <time name="total">  309.75  309.75</time>
   <energy>
    <i name="e_fr_energy">   -174.42601380 </i>
    <i name="e_wo_entrp">   -174.34517777 </i>
    <i name="e_0_energy">   -174.40580479 </i>
   </energy>
  </scstep>
  <scstep>
   <time name="diag">   68.73   68.73</time>
   <time name="diis">  187.49  187.49</time>
   <time name="orth">   13.54   13.54</time>
   <time name="total">  309.99  309.99</time>
   <energy>
    <i name="e_fr_energy">   -174.13598991 </i>
    <i name="e_wo_entrp">   -174.03381388 </i>
    <i name="e_0_energy">   -174.11044590 </i>
   </energy>
  </scstep>
  <scstep>
   <time name="diag">   68.18   68.18</time>
   <time name="diis">  183.49  183.49</time>
   <time name="orth">   13.44   13.44</time>
   <time name="total">  305.47  305.47</time>
   <energy>
    <i name="e_fr_energy">   -173.92212646 </i>
    <i name="e_wo_entrp">   -173.81492458 </i>
    <i name="e_0_energy">   -173.89532599 </i>
   </energy>
  </scstep>
  <scstep>
   <time name="diag">   68.28   68.28</time>
   <time name="diis">  188.34  188.34</time>
   <time name="orth">   13.51   13.51</time>
   <time name="total">  310.47  310.47</time>
   <energy>
    <i name="e_fr_energy">   -173.93529452 </i>
    <i name="e_wo_entrp">   -173.85558555 </i>
    <i name="e_0_energy">   -173.91536728 </i>
   </energy>
  </scstep>
  <scstep>
   <time name="diag">   68.31   68.31</time>
   <time name="diis">  192.38  192.38</time>
   <time name="orth">   13.90   13.90</time>
   <time name="total">  315.86  315.86</time>
   <energy>
    <i name="e_fr_energy">   -173.81027175 </i>
    <i name="e_wo_entrp">   -173.72243912 </i>
    <i name="e_0_energy">   -173.78831359 </i>
   </energy>
  </scstep>
  <scstep>
   <time name="diag">   69.88   69.88</time>
   <time name="diis">  190.52  190.52</time>
   <time name="orth">   13.85   13.85</time>
   <time name="total">  316.06  316.06</time>
   <energy>
    <i name="e_fr_energy">   -173.79109710 </i>
    <i name="e_wo_entrp">   -173.69909222 </i>
    <i name="e_0_energy">   -173.76809588 </i>
   </energy>
  </scstep>
  <scstep>
   <time name="diag">   69.59   69.59</time>
   <time name="diis">  193.71  193.72</time>
   <time name="orth">   14.51   14.51</time>
   <time name="total">  320.38  320.40</time>
   <energy>
    <i name="e_fr_energy">   -173.76639460 </i>
    <i name="e_wo_entrp">   -173.66797722 </i>
    <i name="e_0_energy">   -173.74179025 </i>
   </energy>
  </scstep>
  <scstep>
   <time name="diag">   70.35   70.36</time>
   <time name="diis">  193.20  193.23</time>
   <time name="orth">   14.12   14.12</time>
   <time name="total">  320.42  320.45</time>
   <energy>
    <i name="e_fr_energy">   -173.74156928 </i>
    <i name="e_wo_entrp">   -173.64197501 </i>
    <i name="e_0_energy">   -173.71667071 </i>
   </energy>
  </scstep>
  <scstep>
   <time name="diag">   69.90   69.90</time>
   <time name="diis">  194.52  194.52</time>
   <time name="orth">   14.38   14.38</time>
   <time name="total">  321.51  321.52</time>
   <energy>
    <i name="e_fr_energy">   -173.73589917 </i>
    <i name="e_wo_entrp">   -173.64042965 </i>
    <i name="e_0_energy">   -173.71203179 </i>
   </energy>
  </scstep>
  <scstep>
   <time name="diag">   69.94   69.94</time>
   <time name="diis">  193.33  193.33</time>
   <time name="orth">   14.35   14.35</time>
   <time name="total">  321.56  321.56</time>
   <energy>
    <i name="e_fr_energy">   -173.71920199 </i>
    <i name="e_wo_entrp">   -173.62897250 </i>
    <i name="e_0_energy">   -173.69664461 </i>
   </energy>
  </scstep>
  <scstep>
   <time name="diag">   70.70   70.70</time>
   <time name="diis">  192.46  192.46</time>
   <time name="orth">   14.23   14.23</time>
   <time name="total">  321.30  321.30</time>
   <energy>
    <i name="e_fr_energy">   -173.71254975 </i>
    <i name="e_wo_entrp">   -173.61881710 </i>
    <i name="e_0_energy">   -173.68911659 </i>
   </energy>
  </scstep>
  <scstep>
   <time name="diag">   71.51   71.51</time>
   <time name="diis">  196.77  196.78</time>
   <time name="orth">   14.27   14.28</time>
   <time name="total">  326.56  326.57</time>
   <energy>
    <i name="e_fr_energy">   -173.71116398 </i>
    <i name="e_wo_entrp">   -173.60789535 </i>
    <i name="e_0_energy">   -173.68534682 </i>
   </energy>
  </scstep>
  <scstep>
   <time name="diag">   72.33   72.33</time>
   <time name="diis">  196.09  196.10</time>
   <time name="orth">   14.10   14.10</time>
   <time name="total">  326.88  326.90</time>
   <energy>
    <i name="e_fr_energy">   -173.70896032 </i>
    <i name="e_wo_entrp">   -173.60654841 </i>
    <i name="e_0_energy">   -173.68335734 </i>
   </energy>
  </scstep>
  <scstep>
   <time name="diag">   72.01   72.02</time>
   <time name="diis">  195.92  195.93</time>
   <time name="orth">   14.26   14.27</time>
   <time name="total">  326.35  326.37</time>
   <energy>
    <i name="e_fr_energy">   -173.70784220 </i>
    <i name="e_wo_entrp">   -173.61070644 </i>
    <i name="e_0_energy">   -173.68355826 </i>
   </energy>
  </scstep>
  <scstep>
   <time name="diag">   72.11   72.11</time>
   <time name="diis">  195.21  195.23</time>
   <time name="orth">   14.30   14.30</time>
   <time name="total">  325.87  325.89</time>
   <energy>
    <i name="e_fr_energy">   -173.70510168 </i>
    <i name="e_wo_entrp">   -173.60996841 </i>
    <i name="e_0_energy">   -173.68131836 </i>
   </energy>
  </scstep>
  <scstep>
   <time name="diag">   72.30   72.30</time>
   <time name="diis">  193.91  193.93</time>
   <time name="orth">   14.24   14.24</time>
   <time name="total">  325.20  325.23</time>
   <energy>
    <i name="e_fr_energy">   -173.70526470 </i>
    <i name="e_wo_entrp">   -173.61340058 </i>
    <i name="e_0_energy">   -173.68229867 </i>
   </energy>
  </scstep>
  <scstep>
   <time name="diag">   72.03   72.03</time>
   <time name="diis">  190.20  190.21</time>
   <time name="orth">   14.26   14.26</time>
   <time name="total">  321.52  321.55</time>
   <energy>
    <i name="e_fr_energy">   -173.71032424 </i>
    <i name="e_wo_entrp">   -173.62118900 </i>
    <i name="e_0_energy">   -173.68804043 </i>
   </energy>
  </scstep>
  <scstep>
   <time name="diag">   72.36   72.36</time>
   <time name="diis">  191.22  191.24</time>
   <time name="orth">   14.18   14.18</time>
   <time name="total">  323.03  323.05</time>
   <energy>
    <i name="e_fr_energy">   -173.71102708 </i>
    <i name="e_wo_entrp">   -173.62197344 </i>
    <i name="e_0_energy">   -173.68876367 </i>
   </energy>
  </scstep>
  <scstep>
   <time name="diag">   72.49   72.50</time>
   <time name="diis">  187.55  187.57</time>
   <time name="orth">   14.19   14.19</time>
   <time name="total">  319.41  319.44</time>
   <energy>
    <i name="e_fr_energy">   -173.71270852 </i>
    <i name="e_wo_entrp">   -173.62224388 </i>
    <i name="e_0_energy">   -173.69009236 </i>
   </energy>
  </scstep>
  <scstep>
   <time name="diag">   72.32   72.32</time>
   <time name="diis">  166.13  166.15</time>
   <time name="orth">   14.21   14.21</time>
   <time name="total">  297.41  297.44</time>
   <energy>
    <i name="e_fr_energy">   -173.71526886 </i>
    <i name="e_wo_entrp">   -173.62413713 </i>
    <i name="e_0_energy">   -173.69248592 </i>
   </energy>
  </scstep>
  <scstep>
   <time name="diag">   73.33   73.34</time>
   <time name="diis">  124.91  124.92</time>
   <time name="orth">   13.58   13.58</time>
   <time name="total">  257.07  257.09</time>
   <energy>
    <i name="e_fr_energy">   -173.71617112 </i>
    <i name="e_wo_entrp">   -173.62573269 </i>
    <i name="e_0_energy">   -173.69356151 </i>
   </energy>
  </scstep>
  <scstep>
   <time name="diag">   72.97   72.98</time>
   <time name="diis">  131.19  131.20</time>
   <time name="orth">   13.49   13.50</time>
   <time name="total">  261.59  261.61</time>
   <energy>
    <i name="e_fr_energy">   -173.71886315 </i>
    <i name="e_wo_entrp">   -173.62837146 </i>
    <i name="e_0_energy">   -173.69624023 </i>
   </energy>
  </scstep>
  <scstep>
   <time name="diag">   71.21   71.21</time>
   <time name="diis">  128.79  128.80</time>
   <time name="orth">   14.45   14.45</time>
   <time name="total">  257.19  257.22</time>
   <energy>
    <i name="e_fr_energy">   -173.72019520 </i>
    <i name="e_wo_entrp">   -173.63033950 </i>
    <i name="e_0_energy">   -173.69773127 </i>
   </energy>
  </scstep>
  <scstep>
   <time name="diag">   69.15   69.15</time>
   <time name="diis">  129.41  129.42</time>
   <time name="orth">   14.56   14.56</time>
   <time name="total">  258.32  258.34</time>
   <energy>
    <i name="e_fr_energy">   -173.72221762 </i>
    <i name="e_wo_entrp">   -173.63186365 </i>
    <i name="e_0_energy">   -173.69962913 </i>
   </energy>
  </scstep>
  <scstep>
   <time name="diag">   71.03   71.04</time>
   <time name="diis">  137.37  137.39</time>
   <time name="orth">   14.22   14.22</time>
   <time name="total">  268.50  268.53</time>
   <energy>
    <i name="e_fr_energy">   -173.72561258 </i>
    <i name="e_wo_entrp">   -173.63478656 </i>
    <i name="e_0_energy">   -173.70290608 </i>
   </energy>
  </scstep>
  <scstep>
   <time name="diag">   73.46   73.46</time>
   <time name="diis">  121.42  121.43</time>
   <time name="orth">   14.00   14.00</time>
   <time name="total">  255.04  255.06</time>
   <energy>
    <i name="e_fr_energy">   -173.72661478 </i>
    <i name="e_wo_entrp">   -173.63593816 </i>
    <i name="e_0_energy">   -173.70394562 </i>
   </energy>
  </scstep>
  <scstep>
   <time name="diag">   72.54   72.55</time>
   <time name="diis">  128.89  128.89</time>
   <time name="orth">   13.50   13.50</time>
   <time name="total">  259.23  259.24</time>
   <energy>
    <i name="e_fr_energy">   -173.72847443 </i>
    <i name="e_wo_entrp">   -173.63815124 </i>
    <i name="e_0_energy">   -173.70589363 </i>
   </energy>
  </scstep>
  <scstep>
   <time name="diag">   71.79   71.79</time>
   <time name="diis">  128.68  128.69</time>
   <time name="orth">   13.74   13.74</time>
   <time name="total">  257.95  257.97</time>
   <energy>
    <i name="e_fr_energy">   -173.72925604 </i>
    <i name="e_wo_entrp">   -173.63863887 </i>
    <i name="e_0_energy">   -173.70660175 </i>
   </energy>
  </scstep>
  <scstep>
   <time name="diag">   69.06   69.06</time>
   <time name="diis">  126.42  126.43</time>
   <time name="orth">   14.57   14.57</time>
   <time name="total">  256.01  256.02</time>
   <energy>
    <i name="e_fr_energy">   -173.72989492 </i>
    <i name="e_wo_entrp">   -173.63944382 </i>
    <i name="e_0_energy">   -173.70728214 </i>
   </energy>
  </scstep>
  <scstep>
   <time name="diag">   70.43   70.43</time>
   <time name="diis">  121.94  121.95</time>
   <time name="orth">   14.22   14.22</time>
   <time name="total">  253.69  253.71</time>
   <energy>
    <i name="e_fr_energy">   -173.73078763 </i>
    <i name="e_wo_entrp">   -173.63987092 </i>
    <i name="e_0_energy">   -173.70805845 </i>
   </energy>
  </scstep>
  <scstep>
   <time name="diag">   73.36   73.37</time>
   <time name="diis">  113.47  113.48</time>
   <time name="orth">   13.60   13.60</time>
   <time name="total">  246.73  246.75</time>
   <energy>
    <i name="e_fr_energy">   -173.73109954 </i>
    <i name="e_wo_entrp">   -173.64028521 </i>
    <i name="e_0_energy">   -173.70839596 </i>
   </energy>
  </scstep>
  <scstep>
   <time name="diag">   72.78   72.78</time>
   <time name="diis">  106.52  106.53</time>
   <time name="orth">   13.83   13.83</time>
   <time name="total">  237.65  237.66</time>
   <energy>
    <i name="e_fr_energy">   -173.73165084 </i>
    <i name="e_wo_entrp">   -173.64073564 </i>
    <i name="e_0_energy">   -173.70892204 </i>
   </energy>
  </scstep>
  <scstep>
   <time name="diag">   69.94   69.94</time>
   <time name="diis">  116.33  116.33</time>
   <time name="orth">   14.55   14.55</time>
   <time name="total">  246.57  246.57</time>
   <energy>
    <i name="e_fr_energy">   -173.73202372 </i>
    <i name="e_wo_entrp">   -173.64116429 </i>
    <i name="e_0_energy">   -173.70930886 </i>
   </energy>
  </scstep>
  <scstep>
   <time name="diag">   69.45   69.45</time>
   <time name="diis">  107.37  107.37</time>
   <time name="orth">   14.25   14.25</time>
   <time name="total">  237.88  237.89</time>
   <energy>
    <i name="e_fr_energy">   -173.73252621 </i>
    <i name="e_wo_entrp">   -173.64181130 </i>
    <i name="e_0_energy">   -173.70984748 </i>
   </energy>
  </scstep>
  <scstep>
   <time name="diag">   73.11   73.11</time>
   <time name="diis">   90.09   90.09</time>
   <time name="orth">   13.49   13.49</time>
   <time name="total">  222.74  222.74</time>
   <energy>
    <i name="e_fr_energy">   -173.73273847 </i>
    <i name="e_wo_entrp">   -173.64192049 </i>
    <i name="e_0_energy">   -173.71003397 </i>
   </energy>
  </scstep>
  <scstep>
   <time name="diag">   72.22   72.23</time>
   <time name="diis">  104.24  104.24</time>
   <time name="orth">   13.50   13.50</time>
   <time name="total">  234.87  234.87</time>
   <energy>
    <i name="e_fr_energy">   -173.73294882 </i>
    <i name="e_wo_entrp">   -173.64212335 </i>
    <i name="e_0_energy">   -173.71024245 </i>
   </energy>
  </scstep>
  <scstep>
   <time name="diag">   68.82   68.82</time>
   <time name="diis">   89.58   89.59</time>
   <time name="orth">   14.47   14.47</time>
   <time name="total">  219.30  219.30</time>
   <energy>
    <i name="e_fr_energy">   -173.73312578 </i>
    <i name="e_wo_entrp">   -173.64225724 </i>
    <i name="e_0_energy">   -173.71040864 </i>
   </energy>
  </scstep>
  <scstep>
   <time name="diag">   71.78   71.79</time>
   <time name="diis">   77.81   77.82</time>
   <time name="orth">   13.83   13.83</time>
   <time name="total">  178.82  178.83</time>
   <energy>
    <i name="alphaZ">     75.25431677 </i>
    <i name="ewald"> 137658.05806320 </i>
    <i name="hartreedc">-182035.77012343 </i>
    <i name="XCdc">  -1693.42481821 </i>
    <i name="pawpsdc">  46032.55561239 </i>
    <i name="pawaedc"> -42501.88758531 </i>
    <i name="eentropy">     -0.09082146 </i>
    <i name="bandstr">  -2794.93336272 </i>
    <i name="atom">  45086.50549395 </i>
    <i name="e_fr_energy">   -173.73322482 </i>
    <i name="e_wo_entrp">   -173.64240335 </i>
    <i name="e_0_energy">   -173.71051945 </i>
   </energy>
  </scstep>
  <structure>
   <crystal>
    <varray name="basis" >
     <v>      30.00000000       0.00000000       0.00000000 </v>
     <v>       0.00000000      30.00000000       0.00000000 </v>
     <v>       0.00000000       0.00000000      30.00000000 </v>
    </varray>
    <i name="volume">  27000.00000000 </i>
    <varray name="rec_basis" >
     <v>       0.03333333       0.00000000       0.00000000 </v>
     <v>       0.00000000       0.03333333       0.00000000 </v>
     <v>       0.00000000       0.00000000       0.03333333 </v>
    </varray>
   </crystal>
   <varray name="positions" >
    <v>       0.44576020       0.32826710       0.41691983 </v>
    <v>       0.67173288       0.55423978       0.41691983 </v>
    <v>       0.55423980       0.32826710       0.41691983 </v>
    <v>       0.32826712       0.55423978       0.41691983 </v>
    <v>       0.50000000       0.38250690       0.34021317 </v>
    <v>       0.50000000       0.38250690       0.65978680 </v>
    <v>       0.50000000       0.27609440       0.50000000 </v>
    <v>       0.27609443       0.49999998       0.50000000 </v>
    <v>       0.72390557       0.49999998       0.50000000 </v>
    <v>       0.50000000       0.72390555       0.50000000 </v>
    <v>       0.61195280       0.38804720       0.34167483 </v>
    <v>       0.61195280       0.38804720       0.65832513 </v>
    <v>       0.38804722       0.61195278       0.34167483 </v>
    <v>       0.38804722       0.61195278       0.65832513 </v>
    <v>       0.38804720       0.38804720       0.34167483 </v>
    <v>       0.38804720       0.38804720       0.65832513 </v>
    <v>       0.61195278       0.61195278       0.34167483 </v>
    <v>       0.61195278       0.61195278       0.65832513 </v>
    <v>       0.44576020       0.32826710       0.58308023 </v>
    <v>       0.67173288       0.55423978       0.58308023 </v>
    <v>       0.55791699       0.44208301       0.41809300 </v>
    <v>       0.32826705       0.44576024       0.41691983 </v>
    <v>       0.55423973       0.67173293       0.41691983 </v>
    <v>       0.55423980       0.32826710       0.58308023 </v>
    <v>       0.32826712       0.55423978       0.58308023 </v>
    <v>       0.67173295       0.44576024       0.41691983 </v>
    <v>       0.44576027       0.67173293       0.41691983 </v>
    <v>       0.44208301       0.44208301       0.41809300 </v>
    <v>       0.50000000       0.38416601       0.50000000 </v>
    <v>       0.61749315       0.50000005       0.34021317 </v>
    <v>       0.61749315       0.50000005       0.65978680 </v>
    <v>       0.38250685       0.50000005       0.34021317 </v>
    <v>       0.38250685       0.50000005       0.65978680 </v>
    <v>       0.38317830       0.38317830       0.50000000 </v>
    <v>       0.61682172       0.61682172       0.50000000 </v>
    <v>       0.61682170       0.38317830       0.50000000 </v>
    <v>       0.38317828       0.61682172       0.50000000 </v>
    <v>       0.50000000       0.50000000       0.33478917 </v>
    <v>       0.50000000       0.50000000       0.66521087 </v>
    <v>       0.32826705       0.44576024       0.58308023 </v>
    <v>       0.55423973       0.67173293       0.58308023 </v>
    <v>       0.55791699       0.44208301       0.58190703 </v>
    <v>       0.44208298       0.55791702       0.41809300 </v>
    <v>       0.44208301       0.44208301       0.58190703 </v>
    <v>       0.67173295       0.44576024       0.58308023 </v>
    <v>       0.44576027       0.67173293       0.58308023 </v>
    <v>       0.55791702       0.55791702       0.41809300 </v>
    <v>       0.38416599       0.50000002       0.50000000 </v>
    <v>       0.61583401       0.50000002       0.50000000 </v>
    <v>       0.50000000       0.61749319       0.34021317 </v>
    <v>       0.50000000       0.61749319       0.65978680 </v>
    <v>       0.50000000       0.50000000       0.50000000 </v>
    <v>       0.44208298       0.55791702       0.58190703 </v>
    <v>       0.55791702       0.55791702       0.58190703 </v>
    <v>       0.50000000       0.61583404       0.50000000 </v>
    <v>       0.49987147       0.49697623       0.76157780 </v>
    <v>       0.49985300       0.49654160       0.79917527 </v>
   </varray>
  </structure>
  <varray name="forces" >
   <v>       0.70269841       1.10783181       0.29212346 </v>
   <v>      -1.10797655      -0.70278373       0.29237475 </v>
   <v>      -0.70289170       1.10794028       0.29216109 </v>
   <v>       1.10797034      -0.70284598       0.29246104 </v>
   <v>      -0.00007694       0.41134016       1.28103513 </v>
   <v>      -0.00014922       0.39150518      -1.30469573 </v>
   <v>      -0.00007132       1.51504101      -0.00025883 </v>
   <v>       1.51574709       0.00016113      -0.00031324 </v>
   <v>      -1.51532035       0.00015400      -0.00031991 </v>
   <v>      -0.00003466      -1.51557559      -0.00039180 </v>
   <v>      -0.75592593       0.75588086       1.07287929 </v>
   <v>      -0.75658718       0.75678260      -1.07312484 </v>
   <v>       0.75567325      -0.75573974       1.07285906 </v>
   <v>       0.75686106      -0.75668029      -1.07294169 </v>
   <v>       0.75574579       0.75581821       1.07274130 </v>
   <v>       0.75667324       0.75696567      -1.07343130 </v>
   <v>      -0.75570241      -0.75560912       1.07272975 </v>
   <v>      -0.75683886      -0.75649154      -1.07275947 </v>
   <v>       0.70240237       1.10801149      -0.29162347 </v>
   <v>      -1.10772319      -0.70226615      -0.29160672 </v>
   <v>       0.11248837      -0.11243331      -0.15719685 </v>
   <v>       1.10737152       0.70277146       0.29215734 </v>
   <v>      -0.70298215      -1.10758271       0.29240586 </v>
   <v>      -0.70235710       1.10766838      -0.29161083 </v>
   <v>       1.10766894      -0.70225297      -0.29170164 </v>
   <v>      -1.10759553       0.70285932       0.29209731 </v>
   <v>       0.70293113      -1.10768199       0.29237831 </v>
   <v>      -0.11259531      -0.11243529      -0.15722426 </v>
   <v>      -0.00005540      -0.22446775      -0.00105895 </v>
   <v>      -0.41124581       0.00008662       1.28091662 </v>
   <v>      -0.39307766       0.00020211      -1.30377762 </v>
   <v>       0.41121202       0.00010511       1.28102841 </v>
   <v>       0.39294171       0.00019126      -1.30407928 </v>
   <v>       0.82427488       0.82453051      -0.00706057 </v>
   <v>      -0.82448807      -0.82419509      -0.00751229 </v>
   <v>      -0.82446518       0.82461214      -0.00710398 </v>
   <v>       0.82439499      -0.82428033      -0.00747430 </v>
   <v>      -0.00006701      -0.00009657       1.18007964 </v>
   <v>      -0.00057732      -0.01101320      -0.55010133 </v>
   <v>       1.10761841       0.70237037      -0.29180941 </v>
   <v>      -0.70245952      -1.10762662      -0.29172767 </v>
   <v>       0.11066658      -0.10993092       0.15542642 </v>
   <v>      -0.11262311       0.11268244      -0.15722274 </v>
   <v>      -0.11085868      -0.11006390       0.15538685 </v>
   <v>      -1.10757073       0.70225051      -0.29176616 </v>
   <v>       0.70217353      -1.10745020      -0.29172161 </v>
   <v>       0.11249510       0.11265765      -0.15722392 </v>
   <v>      -0.22473463       0.00033585      -0.00088210 </v>
   <v>       0.22448319       0.00027434      -0.00090435 </v>
   <v>      -0.00008635      -0.41102031       1.28102696 </v>
   <v>      -0.00007764      -0.39447229      -1.30367757 </v>
   <v>      -0.00014188       0.00008330       0.00574386 </v>
   <v>      -0.10757394       0.10830000       0.15715781 </v>
   <v>       0.10724547       0.10808558       0.15714414 </v>
   <v>      -0.00008151       0.22478953      -0.00077403 </v>
   <v>       0.00220003       0.04621219      -3.04688819 </v>
   <v>       0.00107540      -0.03350545       2.53765229 </v>
  </varray>
  <varray name="stress" >
   <v>      -6.74729292       0.00002677      -0.00001037 </v>
   <v>       0.00002679      -6.74844186       0.00153369 </v>
   <v>      -0.00001035       0.00153369      -6.68168475 </v>
  </varray>
  <energy>
   <i name="e_fr_energy">   -173.73322482 </i>
   <i name="e_wo_entrp">   -173.71051945 </i>
   <i name="e_0_energy">     -0.09082146 </i>
  </energy>
  <time name="totalsc">18170.1418170.86</time>
  <eigenvalues>
   <array>
    <dimension dim="1">band</dimension>
    <dimension dim="2">kpoint</dimension>
    <dimension dim="3">spin</dimension>
    <field>eigene</field>
    <field>occ</field>
    <set>
     <set comment="spin 1">
      <set comment="kpoint 1">
       <r>  -29.2639    1.0000 </r>
       <r>  -13.7730    1.0000 </r>
       <r>  -11.5603    1.0000 </r>
       <r>  -11.5595    1.0000 </r>
       <r>   -9.1201    1.0000 </r>
       <r>   -6.6184    1.0000 </r>
       <r>   -6.1000    1.0000 </r>
       <r>   -6.1000    1.0000 </r>
       <r>   -6.0949    1.0000 </r>
       <r>   -5.7854    1.0000 </r>
       <r>   -5.7854    1.0000 </r>
       <r>   -5.7846    1.0000 </r>
       <r>   -5.7180    1.0000 </r>
       <r>   -5.6659    1.0000 </r>
       <r>   -5.6575    1.0000 </r>
       <r>   -5.6575    1.0000 </r>
       <r>   -5.6573    1.0000 </r>
       <r>   -5.5943    1.0000 </r>
       <r>   -5.5932    1.0000 </r>
       <r>   -5.5803    1.0000 </r>
       <r>   -5.5688    1.0000 </r>
       <r>   -5.5688    1.0000 </r>
       <r>   -5.5686    1.0000 </r>
       <r>   -5.5235    1.0000 </r>
       <r>   -5.5213    1.0000 </r>
       <r>   -5.5213    1.0000 </r>
       <r>   -5.5198    1.0000 </r>
       <r>   -5.4930    1.0000 </r>
       <r>   -5.4930    1.0000 </r>
       <r>   -5.4918    1.0000 </r>
       <r>   -5.4864    1.0000 </r>
       <r>   -5.4864    1.0000 </r>
       <r>   -5.4862    1.0000 </r>
       <r>   -5.4857    1.0000 </r>
       <r>   -5.4847    1.0000 </r>
       <r>   -5.4507    1.0000 </r>
       <r>   -5.4506    1.0000 </r>
       <r>   -5.4417    1.0000 </r>
       <r>   -5.4417    1.0000 </r>
       <r>   -5.4398    1.0000 </r>
       <r>   -5.4397    1.0000 </r>
       <r>   -5.4397    1.0000 </r>
       <r>   -5.4394    1.0000 </r>
       <r>   -5.4026    1.0000 </r>
       <r>   -5.4019    1.0000 </r>
       <r>   -5.4019    1.0000 </r>
       <r>   -5.4001    1.0000 </r>
       <r>   -5.3996    1.0000 </r>
       <r>   -5.3950    1.0000 </r>
       <r>   -5.3950    1.0000 </r>
       <r>   -5.3939    1.0000 </r>
       <r>   -5.3792    1.0000 </r>
       <r>   -5.3786    1.0000 </r>
       <r>   -5.3786    1.0000 </r>
       <r>   -5.3630    1.0000 </r>
       <r>   -5.3014    1.0000 </r>
       <r>   -5.2998    1.0000 </r>
       <r>   -5.2998    1.0000 </r>
       <r>   -5.2991    1.0000 </r>
       <r>   -5.2890    1.0000 </r>
       <r>   -5.2888    1.0000 </r>
       <r>   -5.2888    1.0000 </r>
       <r>   -5.2743    1.0000 </r>
       <r>   -5.2742    1.0000 </r>
       <r>   -5.2725    1.0000 </r>
       <r>   -5.2596    1.0000 </r>
       <r>   -5.2595    1.0000 </r>
       <r>   -5.1879    1.0000 </r>
       <r>   -5.1783    1.0000 </r>
       <r>   -5.1775    1.0000 </r>
       <r>   -5.1775    1.0000 </r>
       <r>   -5.1532    1.0000 </r>
       <r>   -5.1522    1.0000 </r>
       <r>   -5.1522    1.0000 </r>
       <r>   -5.1503    1.0000 </r>
       <r>   -5.1471    1.0000 </r>
       <r>   -5.1349    1.0000 </r>
       <r>   -5.1349    1.0000 </r>
       <r>   -5.1345    1.0000 </r>
       <r>   -5.1197    1.0000 </r>
       <r>   -5.0966    1.0000 </r>
       <r>   -5.0964    1.0000 </r>
       <r>   -5.0964    1.0000 </r>
       <r>   -5.0848    1.0000 </r>
       <r>   -5.0754    1.0000 </r>
       <r>   -5.0754    1.0000 </r>
       <r>   -5.0750    1.0000 </r>
       <r>   -5.0321    1.0000 </r>
       <r>   -5.0311    1.0000 </r>
       <r>   -5.0275    1.0000 </r>
       <r>   -5.0275    1.0000 </r>
       <r>   -5.0272    1.0000 </r>
       <r>   -5.0224    1.0000 </r>
       <r>   -5.0207    1.0000 </r>
       <r>   -5.0207    1.0000 </r>
       <r>   -5.0070    1.0000 </r>
       <r>   -5.0069    1.0000 </r>
       <r>   -5.0004    1.0000 </r>
       <r>   -4.9903    1.0000 </r>
       <r>   -4.9900    1.0000 </r>
       <r>   -4.9775    1.0000 </r>
       <r>   -4.9774    1.0000 </r>
       <r>   -4.9774    1.0000 </r>
       <r>   -4.9650    1.0000 </r>
       <r>   -4.9650    1.0000 </r>
       <r>   -4.9636    1.0000 </r>
       <r>   -4.9522    1.0000 </r>
       <r>   -4.9520    1.0000 </r>
       <r>   -4.9520    1.0000 </r>
       <r>   -4.9415    1.0000 </r>
       <r>   -4.9410    1.0000 </r>
       <r>   -4.9314    1.0000 </r>
       <r>   -4.9311    1.0000 </r>
       <r>   -4.9261    1.0000 </r>
       <r>   -4.9251    1.0000 </r>
       <r>   -4.9251    1.0000 </r>
       <r>   -4.9085    1.0000 </r>
       <r>   -4.8901    1.0000 </r>
       <r>   -4.8901    1.0000 </r>
       <r>   -4.8897    1.0000 </r>
       <r>   -4.8764    1.0000 </r>
       <r>   -4.8751    1.0000 </r>
       <r>   -4.8750    1.0000 </r>
       <r>   -4.8739    1.0000 </r>
       <r>   -4.8739    1.0000 </r>
       <r>   -4.8733    1.0000 </r>
       <r>   -4.8184    1.0000 </r>
       <r>   -4.8155    1.0000 </r>
       <r>   -4.8152    1.0000 </r>
       <r>   -4.8152    1.0000 </r>
       <r>   -4.8139    1.0000 </r>
       <r>   -4.8134    1.0000 </r>
       <r>   -4.8031    1.0000 </r>
       <r>   -4.8030    1.0000 </r>
       <r>   -4.8022    1.0000 </r>
       <r>   -4.7654    0.9999 </r>
       <r>   -4.7635    0.9999 </r>
       <r>   -4.7635    0.9999 </r>
       <r>   -4.7625    0.9999 </r>
       <r>   -4.7459    0.9998 </r>
       <r>   -4.7458    0.9998 </r>
       <r>   -4.7340    0.9998 </r>
       <r>   -4.7095    0.9996 </r>
       <r>   -4.7094    0.9996 </r>
       <r>   -4.7092    0.9996 </r>
       <r>   -4.6968    0.9995 </r>
       <r>   -4.6965    0.9995 </r>
       <r>   -4.6786    0.9993 </r>
       <r>   -4.6647    0.9990 </r>
       <r>   -4.6647    0.9990 </r>
       <r>   -4.6602    0.9990 </r>
       <r>   -4.6551    0.9988 </r>
       <r>   -4.6461    0.9986 </r>
       <r>   -4.6461    0.9986 </r>
       <r>   -4.6453    0.9986 </r>
       <r>   -4.6453    0.9986 </r>
       <r>   -4.6445    0.9986 </r>
       <r>   -4.6445    0.9986 </r>
       <r>   -4.6232    0.9980 </r>
       <r>   -4.6230    0.9980 </r>
       <r>   -4.6229    0.9980 </r>
       <r>   -4.6211    0.9980 </r>
       <r>   -4.6209    0.9980 </r>
       <r>   -4.6193    0.9979 </r>
       <r>   -4.6177    0.9979 </r>
       <r>   -4.6177    0.9979 </r>
       <r>   -4.6140    0.9977 </r>
       <r>   -4.6135    0.9977 </r>
       <r>   -4.6020    0.9973 </r>
       <r>   -4.6002    0.9973 </r>
       <r>   -4.5756    0.9963 </r>
       <r>   -4.5755    0.9963 </r>
       <r>   -4.5695    0.9961 </r>
       <r>   -4.5695    0.9961 </r>
       <r>   -4.5679    0.9961 </r>
       <r>   -4.5668    0.9960 </r>
       <r>   -4.5651    0.9960 </r>
       <r>   -4.5612    0.9958 </r>
       <r>   -4.5543    0.9956 </r>
       <r>   -4.5543    0.9956 </r>
       <r>   -4.5454    0.9954 </r>
       <r>   -4.5245    0.9951 </r>
       <r>   -4.5245    0.9951 </r>
       <r>   -4.5242    0.9951 </r>
       <r>   -4.5237    0.9951 </r>
       <r>   -4.5237    0.9951 </r>
       <r>   -4.5232    0.9951 </r>
       <r>   -4.5214    0.9951 </r>
       <r>   -4.5207    0.9951 </r>
       <r>   -4.5207    0.9951 </r>
       <r>   -4.4786    0.9973 </r>
       <r>   -4.4773    0.9974 </r>
       <r>   -4.4773    0.9974 </r>
       <r>   -4.4759    0.9976 </r>
       <r>   -4.4755    0.9977 </r>
       <r>   -4.4631    0.9995 </r>
       <r>   -4.4529    1.0015 </r>
       <r>   -4.4528    1.0015 </r>
       <r>   -4.4510    1.0019 </r>
       <r>   -4.4402    1.0045 </r>
       <r>   -4.4399    1.0046 </r>
       <r>   -4.4301    1.0075 </r>
       <r>   -4.4284    1.0081 </r>
       <r>   -4.4284    1.0081 </r>
       <r>   -4.4195    1.0111 </r>
       <r>   -4.4194    1.0112 </r>
       <r>   -4.4194    1.0112 </r>
       <r>   -4.4157    1.0125 </r>
       <r>   -4.4157    1.0125 </r>
       <r>   -4.4117    1.0141 </r>
       <r>   -4.3938    1.0218 </r>
       <r>   -4.3811    1.0277 </r>
       <r>   -4.3807    1.0280 </r>
       <r>   -4.3806    1.0280 </r>
       <r>   -4.3803    1.0281 </r>
       <r>   -4.3767    1.0299 </r>
       <r>   -4.3730    1.0317 </r>
       <r>   -4.3729    1.0317 </r>
       <r>   -4.3720    1.0321 </r>
       <r>   -4.3406    1.0459 </r>
       <r>   -4.3406    1.0459 </r>
       <r>   -4.3305    1.0490 </r>
       <r>   -4.3110    1.0516 </r>
       <r>   -4.3110    1.0516 </r>
       <r>   -4.3097    1.0516 </r>
       <r>   -4.3094    1.0516 </r>
       <r>   -4.3076    1.0515 </r>
       <r>   -4.3073    1.0515 </r>
       <r>   -4.3073    1.0515 </r>
       <r>   -4.3060    1.0513 </r>
       <r>   -4.3001    1.0504 </r>
       <r>   -4.2997    1.0503 </r>
       <r>   -4.2995    1.0502 </r>
       <r>   -4.2952    1.0490 </r>
       <r>   -4.2931    1.0483 </r>
       <r>   -4.2929    1.0482 </r>
       <r>   -4.2929    1.0482 </r>
       <r>   -4.2892    1.0466 </r>
       <r>   -4.2886    1.0463 </r>
       <r>   -4.2886    1.0463 </r>
       <r>   -4.2730    1.0355 </r>
       <r>   -4.2716    1.0341 </r>
       <r>   -4.2595    1.0203 </r>
       <r>   -4.2595    1.0202 </r>
       <r>   -4.2553    1.0143 </r>
       <r>   -4.2553    1.0143 </r>
       <r>   -4.2549    1.0136 </r>
       <r>   -4.2548    1.0136 </r>
       <r>   -4.2489    1.0041 </r>
       <r>   -4.2338    0.9739 </r>
       <r>   -4.2330    0.9720 </r>
       <r>   -4.2268    0.9569 </r>
       <r>   -4.2260    0.9549 </r>
       <r>   -4.2260    0.9548 </r>
       <r>   -4.2207    0.9407 </r>
       <r>   -4.2207    0.9406 </r>
       <r>   -4.2196    0.9374 </r>
       <r>   -4.2155    0.9255 </r>
       <r>   -4.2146    0.9229 </r>
       <r>   -4.2146    0.9229 </r>
       <r>   -4.2089    0.9050 </r>
       <r>   -4.2079    0.9017 </r>
       <r>   -4.2079    0.9017 </r>
       <r>   -4.2078    0.9014 </r>
       <r>   -4.2045    0.8905 </r>
       <r>   -4.1940    0.8524 </r>
       <r>   -4.1929    0.8482 </r>
       <r>   -4.1890    0.8331 </r>
       <r>   -4.1890    0.8330 </r>
       <r>   -4.1888    0.8322 </r>
       <r>   -4.1863    0.8222 </r>
       <r>   -4.1858    0.8202 </r>
       <r>   -4.1633    0.7208 </r>
       <r>   -4.1633    0.7207 </r>
       <r>   -4.1624    0.7164 </r>
       <r>   -4.1506    0.6585 </r>
       <r>   -4.1505    0.6584 </r>
       <r>   -4.1471    0.6411 </r>
       <r>   -4.1402    0.6059 </r>
       <r>   -4.1402    0.6058 </r>
       <r>   -4.1398    0.6035 </r>
       <r>   -4.1260    0.5313 </r>
       <r>   -4.0992    0.3908 </r>
       <r>   -4.0992    0.3907 </r>
       <r>   -4.0986    0.3875 </r>
       <r>   -4.0958    0.3735 </r>
       <r>   -4.0828    0.3081 </r>
       <r>   -4.0814    0.3015 </r>
       <r>   -4.0810    0.2994 </r>
       <r>   -3.9403   -0.0503 </r>
       <r>   -3.8688   -0.0324 </r>
       <r>   -3.7895   -0.0020 </r>
       <r>   -3.7895   -0.0020 </r>
       <r>   -3.7885   -0.0017 </r>
       <r>   -3.4619    0.0001 </r>
       <r>   -3.4619    0.0001 </r>
       <r>   -3.4288    0.0000 </r>
       <r>   -3.0261    0.0000 </r>
       <r>   -3.0261    0.0000 </r>
       <r>   -3.0013    0.0000 </r>
       <r>   -2.9846    0.0000 </r>
       <r>   -2.9845    0.0000 </r>
       <r>   -2.9844    0.0000 </r>
       <r>   -2.9014    0.0000 </r>
       <r>   -2.8710    0.0000 </r>
       <r>   -2.5184    0.0000 </r>
       <r>   -2.5183    0.0000 </r>
       <r>   -2.4900    0.0000 </r>
       <r>   -2.2760    0.0000 </r>
       <r>   -2.0918    0.0000 </r>
       <r>   -2.0918    0.0000 </r>
       <r>   -2.0887    0.0000 </r>
       <r>   -1.9211    0.0000 </r>
       <r>   -1.9210    0.0000 </r>
       <r>   -1.8766    0.0000 </r>
       <r>   -1.8262    0.0000 </r>
       <r>   -1.8213    0.0000 </r>
       <r>   -1.7763    0.0000 </r>
       <r>   -1.7758    0.0000 </r>
       <r>   -1.7077    0.0000 </r>
       <r>   -1.6157    0.0000 </r>
       <r>   -1.5295    0.0000 </r>
       <r>   -1.5294    0.0000 </r>
       <r>   -1.5227    0.0000 </r>
       <r>   -1.4940    0.0000 </r>
       <r>   -1.1657    0.0000 </r>
       <r>   -1.1210    0.0000 </r>
       <r>   -0.9616    0.0000 </r>
       <r>   -0.9616    0.0000 </r>
       <r>   -0.9609    0.0000 </r>
       <r>   -0.9537    0.0000 </r>
       <r>   -0.9153    0.0000 </r>
       <r>   -0.9044    0.0000 </r>
       <r>   -0.8199    0.0000 </r>
       <r>   -0.7457    0.0000 </r>
       <r>   -0.6386    0.0000 </r>
      </set>
     </set>
    </set>
   </array>
  </eigenvalues>
  <separator name="orbital magnetization" >
   <v name="MAGDIPOLOUT">      0.00000000      0.00000000      0.00000000</v>
  </separator>
  <dos>
   <i name="efermi">     -4.12004736 </i>
   <total>
    <array>
     <dimension dim="1">gridpoints</dimension>
     <dimension dim="2">spin</dimension>
     <field>energy</field>
     <field>total</field>
     <field>integrated</field>
     <set>
      <set comment="spin 1">
       <r>   -31.2639     0.0000     0.0000 </r>
       <r>   -31.1552     0.0000     0.0000 </r>
       <r>   -31.0464     0.0000     0.0000 </r>
       <r>   -30.9377     0.0000     0.0000 </r>
       <r>   -30.8289     0.0000     0.0000 </r>
       <r>   -30.7202     0.0000     0.0000 </r>
       <r>   -30.6114     0.0000     0.0000 </r>
       <r>   -30.5027     0.0000     0.0000 </r>
       <r>   -30.3939     0.0000     0.0000 </r>
       <r>   -30.2852     0.0000     0.0000 </r>
       <r>   -30.1764     0.0000     0.0000 </r>
       <r>   -30.0677     0.0000     0.0000 </r>
       <r>   -29.9589     0.0004     0.0000 </r>
       <r>   -29.8502     0.0070     0.0008 </r>
       <r>   -29.7414     0.0448     0.0057 </r>
       <r>   -29.6327     0.0154     0.0074 </r>
       <r>   -29.5239    -0.5874    -0.0565 </r>
       <r>   -29.4152    -0.1030    -0.0677 </r>
       <r>   -29.3064     5.8273     0.5660 </r>
       <r>   -29.1977     9.9179     1.6446 </r>
       <r>   -29.0889     4.1688     2.0980 </r>
       <r>   -28.9802    -0.5818     2.0347 </r>
       <r>   -28.8714    -0.4077     1.9904 </r>
       <r>   -28.7627     0.0513     1.9959 </r>
       <r>   -28.6539     0.0331     1.9995 </r>
       <r>   -28.5452     0.0041     2.0000 </r>
       <r>   -28.4364     0.0002     2.0000 </r>
       <r>   -28.3277     0.0000     2.0000 </r>
       <r>   -28.2189     0.0000     2.0000 </r>
       <r>   -28.1102     0.0000     2.0000 </r>
       <r>   -28.0014     0.0000     2.0000 </r>
       <r>   -27.8927     0.0000     2.0000 </r>
       <r>   -27.7839     0.0000     2.0000 </r>
       <r>   -27.6752     0.0000     2.0000 </r>
       <r>   -27.5664     0.0000     2.0000 </r>
       <r>   -27.4576     0.0000     2.0000 </r>
       <r>   -27.3489     0.0000     2.0000 </r>
       <r>   -27.2401     0.0000     2.0000 </r>
       <r>   -27.1314     0.0000     2.0000 </r>
       <r>   -27.0226     0.0000     2.0000 </r>
       <r>   -26.9139     0.0000     2.0000 </r>
       <r>   -26.8051     0.0000     2.0000 </r>
       <r>   -26.6964     0.0000     2.0000 </r>
       <r>   -26.5876     0.0000     2.0000 </r>
       <r>   -26.4789     0.0000     2.0000 </r>
       <r>   -26.3701     0.0000     2.0000 </r>
       <r>   -26.2614     0.0000     2.0000 </r>
       <r>   -26.1526     0.0000     2.0000 </r>
       <r>   -26.0439     0.0000     2.0000 </r>
       <r>   -25.9351     0.0000     2.0000 </r>
       <r>   -25.8264     0.0000     2.0000 </r>
       <r>   -25.7176     0.0000     2.0000 </r>
       <r>   -25.6089     0.0000     2.0000 </r>
       <r>   -25.5001     0.0000     2.0000 </r>
       <r>   -25.3914     0.0000     2.0000 </r>
       <r>   -25.2826     0.0000     2.0000 </r>
       <r>   -25.1739     0.0000     2.0000 </r>
       <r>   -25.0651     0.0000     2.0000 </r>
       <r>   -24.9564     0.0000     2.0000 </r>
       <r>   -24.8476     0.0000     2.0000 </r>
       <r>   -24.7389     0.0000     2.0000 </r>
       <r>   -24.6301     0.0000     2.0000 </r>
       <r>   -24.5214     0.0000     2.0000 </r>
       <r>   -24.4126     0.0000     2.0000 </r>
       <r>   -24.3039     0.0000     2.0000 </r>
       <r>   -24.1951     0.0000     2.0000 </r>
       <r>   -24.0864     0.0000     2.0000 </r>
       <r>   -23.9776     0.0000     2.0000 </r>
       <r>   -23.8689     0.0000     2.0000 </r>
       <r>   -23.7601     0.0000     2.0000 </r>
       <r>   -23.6514     0.0000     2.0000 </r>
       <r>   -23.5426     0.0000     2.0000 </r>
       <r>   -23.4339     0.0000     2.0000 </r>
       <r>   -23.3251     0.0000     2.0000 </r>
       <r>   -23.2164     0.0000     2.0000 </r>
       <r>   -23.1076     0.0000     2.0000 </r>
       <r>   -22.9989     0.0000     2.0000 </r>
       <r>   -22.8901     0.0000     2.0000 </r>
       <r>   -22.7813     0.0000     2.0000 </r>
       <r>   -22.6726     0.0000     2.0000 </r>
       <r>   -22.5638     0.0000     2.0000 </r>
       <r>   -22.4551     0.0000     2.0000 </r>
       <r>   -22.3463     0.0000     2.0000 </r>
       <r>   -22.2376     0.0000     2.0000 </r>
       <r>   -22.1288     0.0000     2.0000 </r>
       <r>   -22.0201     0.0000     2.0000 </r>
       <r>   -21.9113     0.0000     2.0000 </r>
       <r>   -21.8026     0.0000     2.0000 </r>
       <r>   -21.6938     0.0000     2.0000 </r>
       <r>   -21.5851     0.0000     2.0000 </r>
       <r>   -21.4763     0.0000     2.0000 </r>
       <r>   -21.3676     0.0000     2.0000 </r>
       <r>   -21.2588     0.0000     2.0000 </r>
       <r>   -21.1501     0.0000     2.0000 </r>
       <r>   -21.0413     0.0000     2.0000 </r>
       <r>   -20.9326     0.0000     2.0000 </r>
       <r>   -20.8238     0.0000     2.0000 </r>
       <r>   -20.7151     0.0000     2.0000 </r>
       <r>   -20.6063     0.0000     2.0000 </r>
       <r>   -20.4976     0.0000     2.0000 </r>
       <r>   -20.3888     0.0000     2.0000 </r>
       <r>   -20.2801     0.0000     2.0000 </r>
       <r>   -20.1713     0.0000     2.0000 </r>
       <r>   -20.0626     0.0000     2.0000 </r>
       <r>   -19.9538     0.0000     2.0000 </r>
       <r>   -19.8451     0.0000     2.0000 </r>
       <r>   -19.7363     0.0000     2.0000 </r>
       <r>   -19.6276     0.0000     2.0000 </r>
       <r>   -19.5188     0.0000     2.0000 </r>
       <r>   -19.4101     0.0000     2.0000 </r>
       <r>   -19.3013     0.0000     2.0000 </r>
       <r>   -19.1926     0.0000     2.0000 </r>
       <r>   -19.0838     0.0000     2.0000 </r>
       <r>   -18.9751     0.0000     2.0000 </r>
       <r>   -18.8663     0.0000     2.0000 </r>
       <r>   -18.7576     0.0000     2.0000 </r>
       <r>   -18.6488     0.0000     2.0000 </r>
       <r>   -18.5401     0.0000     2.0000 </r>
       <r>   -18.4313     0.0000     2.0000 </r>
       <r>   -18.3225     0.0000     2.0000 </r>
       <r>   -18.2138     0.0000     2.0000 </r>
       <r>   -18.1050     0.0000     2.0000 </r>
       <r>   -17.9963     0.0000     2.0000 </r>
       <r>   -17.8875     0.0000     2.0000 </r>
       <r>   -17.7788     0.0000     2.0000 </r>
       <r>   -17.6700     0.0000     2.0000 </r>
       <r>   -17.5613     0.0000     2.0000 </r>
       <r>   -17.4525     0.0000     2.0000 </r>
       <r>   -17.3438     0.0000     2.0000 </r>
       <r>   -17.2350     0.0000     2.0000 </r>
       <r>   -17.1263     0.0000     2.0000 </r>
       <r>   -17.0175     0.0000     2.0000 </r>
       <r>   -16.9088     0.0000     2.0000 </r>
       <r>   -16.8000     0.0000     2.0000 </r>
       <r>   -16.6913     0.0000     2.0000 </r>
       <r>   -16.5825     0.0000     2.0000 </r>
       <r>   -16.4738     0.0000     2.0000 </r>
       <r>   -16.3650     0.0000     2.0000 </r>
       <r>   -16.2563     0.0000     2.0000 </r>
       <r>   -16.1475     0.0000     2.0000 </r>
       <r>   -16.0388     0.0000     2.0000 </r>
       <r>   -15.9300     0.0000     2.0000 </r>
       <r>   -15.8213     0.0000     2.0000 </r>
       <r>   -15.7125     0.0000     2.0000 </r>
       <r>   -15.6038     0.0000     2.0000 </r>
       <r>   -15.4950     0.0000     2.0000 </r>
       <r>   -15.3863     0.0000     2.0000 </r>
       <r>   -15.2775     0.0000     2.0000 </r>
       <r>   -15.1688     0.0000     2.0000 </r>
       <r>   -15.0600     0.0000     2.0000 </r>
       <r>   -14.9513     0.0000     2.0000 </r>
       <r>   -14.8425     0.0000     2.0000 </r>
       <r>   -14.7338     0.0000     2.0000 </r>
       <r>   -14.6250     0.0000     2.0000 </r>
       <r>   -14.5163     0.0001     2.0000 </r>
       <r>   -14.4075     0.0023     2.0003 </r>
       <r>   -14.2988     0.0227     2.0027 </r>
       <r>   -14.1900     0.0636     2.0096 </r>
       <r>   -14.0813    -0.2373     1.9838 </r>
       <r>   -13.9725    -0.7917     1.8977 </r>
       <r>   -13.8637     2.5751     2.1778 </r>
       <r>   -13.7550     9.2991     3.1891 </r>
       <r>   -13.6462     7.4616     4.0005 </r>
       <r>   -13.5375     0.7272     4.0796 </r>
       <r>   -13.4287    -0.7453     3.9986 </r>
       <r>   -13.3200    -0.0559     3.9925 </r>
       <r>   -13.2112     0.0565     3.9986 </r>
       <r>   -13.1025     0.0117     3.9999 </r>
       <r>   -12.9937     0.0009     4.0000 </r>
       <r>   -12.8850     0.0000     4.0000 </r>
       <r>   -12.7762     0.0000     4.0000 </r>
       <r>   -12.6675     0.0000     4.0000 </r>
       <r>   -12.5587     0.0000     4.0000 </r>
       <r>   -12.4500     0.0000     4.0000 </r>
       <r>   -12.3412     0.0001     4.0000 </r>
       <r>   -12.2325     0.0017     4.0002 </r>
       <r>   -12.1237     0.0225     4.0026 </r>
       <r>   -12.0150     0.1113     4.0147 </r>
       <r>   -11.9062    -0.0966     4.0042 </r>
       <r>   -11.7975    -1.4688     3.8445 </r>
       <r>   -11.6887     1.2860     3.9843 </r>
       <r>   -11.5800    14.6621     5.5789 </r>
       <r>   -11.4712    18.7483     7.6178 </r>
       <r>   -11.3625     5.4037     8.2054 </r>
       <r>   -11.2537    -1.5664     8.0351 </r>
       <r>   -11.1450    -0.5010     7.9806 </r>
       <r>   -11.0362     0.1266     7.9944 </r>
       <r>   -10.9275     0.0469     7.9995 </r>
       <r>   -10.8187     0.0048     8.0000 </r>
       <r>   -10.7100     0.0002     8.0000 </r>
       <r>   -10.6012     0.0000     8.0000 </r>
       <r>   -10.4925     0.0000     8.0000 </r>
       <r>   -10.3837     0.0000     8.0000 </r>
       <r>   -10.2750     0.0000     8.0000 </r>
       <r>   -10.1662     0.0000     8.0000 </r>
       <r>   -10.0575     0.0000     8.0000 </r>
       <r>    -9.9487     0.0000     8.0000 </r>
       <r>    -9.8400     0.0002     8.0000 </r>
       <r>    -9.7312     0.0040     8.0005 </r>
       <r>    -9.6225     0.0326     8.0040 </r>
       <r>    -9.5137     0.0522     8.0097 </r>
       <r>    -9.4050    -0.3999     7.9662 </r>
       <r>    -9.2962    -0.5961     7.9014 </r>
       <r>    -9.1874     4.0975     8.3470 </r>
       <r>    -9.0787     9.9040     9.4241 </r>
       <r>    -8.9699     5.8997    10.0657 </r>
       <r>    -8.8612    -0.0749    10.0575 </r>
       <r>    -8.7524    -0.5950     9.9928 </r>
       <r>    -8.6437     0.0132     9.9942 </r>
       <r>    -8.5349     0.0454     9.9992 </r>
       <r>    -8.4262     0.0072     9.9999 </r>
       <r>    -8.3174     0.0004    10.0000 </r>
       <r>    -8.2087     0.0000    10.0000 </r>
       <r>    -8.0999     0.0000    10.0000 </r>
       <r>    -7.9912     0.0000    10.0000 </r>
       <r>    -7.8824     0.0000    10.0000 </r>
       <r>    -7.7737     0.0000    10.0000 </r>
       <r>    -7.6649     0.0000    10.0000 </r>
       <r>    -7.5562     0.0000    10.0000 </r>
       <r>    -7.4474     0.0000    10.0000 </r>
       <r>    -7.3387     0.0002    10.0000 </r>
       <r>    -7.2299     0.0040    10.0005 </r>
       <r>    -7.1212     0.0324    10.0040 </r>
       <r>    -7.0124     0.0526    10.0097 </r>
       <r>    -6.9037    -0.3968     9.9666 </r>
       <r>    -6.7949    -0.6004     9.9013 </r>
       <r>    -6.6862     4.0894    10.3460 </r>
       <r>    -6.5774    10.0302    11.4368 </r>
       <r>    -6.4687     5.9869    12.0879 </r>
       <r>    -6.3599    -1.7580    11.8967 </r>
       <r>    -6.2512    -0.8289    11.8065 </r>
       <r>    -6.1424    17.4380    13.7029 </r>
       <r>    -6.0337    28.4046    16.7920 </r>
       <r>    -5.9249    11.5955    18.0530 </r>
       <r>    -5.8162    13.8817    19.5626 </r>
       <r>    -5.7074    47.7918    24.7601 </r>
       <r>    -5.5987   115.1600    37.2838 </r>
       <r>    -5.4899   239.4410    63.3233 </r>
       <r>    -5.3812   310.2449    97.0628 </r>
       <r>    -5.2724   247.4100   123.9690 </r>
       <r>    -5.1637   203.5341   146.1035 </r>
       <r>    -5.0549   278.3572   176.3752 </r>
       <r>    -4.9462   365.0766   216.0777 </r>
       <r>    -4.8374   337.6159   252.7939 </r>
       <r>    -4.7286   292.6381   284.6186 </r>
       <r>    -4.6199   368.1537   324.6558 </r>
       <r>    -4.5111   429.4031   371.3539 </r>
       <r>    -4.4024   421.1465   417.1541 </r>
       <r>    -4.2936   501.8379   471.7295 </r>
       <r>    -4.1849   560.1984   532.6518 </r>
       <r>    -4.0761   358.4831   571.6372 </r>
       <r>    -3.9674    87.8343   581.1893 </r>
       <r>    -3.8586    11.1591   582.4029 </r>
       <r>    -3.7499    32.0116   585.8842 </r>
       <r>    -3.6411    18.2546   587.8694 </r>
       <r>    -3.5324     9.6267   588.9163 </r>
       <r>    -3.4236    27.1489   591.8688 </r>
       <r>    -3.3149    19.4036   593.9790 </r>
       <r>    -3.2061    -3.3630   593.6132 </r>
       <r>    -3.0974    10.4326   594.7478 </r>
       <r>    -2.9886    57.5507   601.0065 </r>
       <r>    -2.8799    63.8761   607.9531 </r>
       <r>    -2.7711    20.8989   610.2259 </r>
       <r>    -2.6624    -2.0842   609.9992 </r>
       <r>    -2.5536    14.6324   611.5905 </r>
       <r>    -2.4449    29.1742   614.7632 </r>
       <r>    -2.3361    15.9943   616.5026 </r>
       <r>    -2.2274     9.2814   617.5120 </r>
       <r>    -2.1186    21.6602   619.8676 </r>
       <r>    -2.0099    31.6058   623.3047 </r>
       <r>    -1.9011    42.3517   627.9105 </r>
       <r>    -1.7924    56.9859   634.1078 </r>
       <r>    -1.6836    47.2328   639.2444 </r>
       <r>    -1.5749    40.0591   643.6009 </r>
       <r>    -1.4661    42.5253   648.2256 </r>
       <r>    -1.3574    18.2089   650.2058 </r>
       <r>    -1.2486     0.7153   650.2836 </r>
       <r>    -1.1399    10.8597   651.4646 </r>
       <r>    -1.0311    32.4639   654.9951 </r>
       <r>    -0.9224    58.9960   661.4110 </r>
       <r>    -0.8136    53.7562   667.2570 </r>
       <r>    -0.7049    26.6721   670.1577 </r>
       <r>    -0.5961    13.1150   671.5839 </r>
       <r>    -0.4874     4.6101   672.0853 </r>
       <r>    -0.3786    -0.4863   672.0324 </r>
       <r>    -0.2699    -0.4414   671.9844 </r>
       <r>    -0.1611     0.0819   671.9933 </r>
       <r>    -0.0523     0.0536   671.9991 </r>
       <r>     0.0564     0.0076   671.9999 </r>
       <r>     0.1652     0.0005   672.0000 </r>
       <r>     0.2739     0.0000   672.0000 </r>
       <r>     0.3827     0.0000   672.0000 </r>
       <r>     0.4914     0.0000   672.0000 </r>
       <r>     0.6002     0.0000   672.0000 </r>
       <r>     0.7089     0.0000   672.0000 </r>
       <r>     0.8177     0.0000   672.0000 </r>
       <r>     0.9264     0.0000   672.0000 </r>
       <r>     1.0352     0.0000   672.0000 </r>
       <r>     1.1439     0.0000   672.0000 </r>
       <r>     1.2527     0.0000   672.0000 </r>
       <r>     1.3614     0.0000   672.0000 </r>
      </set>
     </set>
    </array>
   </total>
  </dos>
 </calculation>
 <structure name="finalpos" >
  <crystal>
   <varray name="basis" >
    <v>      30.00000000       0.00000000       0.00000000 </v>
    <v>       0.00000000      30.00000000       0.00000000 </v>
    <v>       0.00000000       0.00000000      30.00000000 </v>
   </varray>
   <i name="volume">  27000.00000000 </i>
   <varray name="rec_basis" >
    <v>       0.03333333       0.00000000       0.00000000 </v>
    <v>       0.00000000       0.03333333       0.00000000 </v>
    <v>       0.00000000       0.00000000       0.03333333 </v>
   </varray>
  </crystal>
  <varray name="positions" >
   <v>       0.44576020       0.32826710       0.41691983 </v>
   <v>       0.67173288       0.55423978       0.41691983 </v>
   <v>       0.55423980       0.32826710       0.41691983 </v>
   <v>       0.32826712       0.55423978       0.41691983 </v>
   <v>       0.50000000       0.38250690       0.34021317 </v>
   <v>       0.50000000       0.38250690       0.65978680 </v>
   <v>       0.50000000       0.27609440       0.50000000 </v>
   <v>       0.27609443       0.49999998       0.50000000 </v>
   <v>       0.72390557       0.49999998       0.50000000 </v>
   <v>       0.50000000       0.72390555       0.50000000 </v>
   <v>       0.61195280       0.38804720       0.34167483 </v>
   <v>       0.61195280       0.38804720       0.65832513 </v>
   <v>       0.38804722       0.61195278       0.34167483 </v>
   <v>       0.38804722       0.61195278       0.65832513 </v>
   <v>       0.38804720       0.38804720       0.34167483 </v>
   <v>       0.38804720       0.38804720       0.65832513 </v>
   <v>       0.61195278       0.61195278       0.34167483 </v>
   <v>       0.61195278       0.61195278       0.65832513 </v>
   <v>       0.44576020       0.32826710       0.58308023 </v>
   <v>       0.67173288       0.55423978       0.58308023 </v>
   <v>       0.55791699       0.44208301       0.41809300 </v>
   <v>       0.32826705       0.44576024       0.41691983 </v>
   <v>       0.55423973       0.67173293       0.41691983 </v>
   <v>       0.55423980       0.32826710       0.58308023 </v>
   <v>       0.32826712       0.55423978       0.58308023 </v>
   <v>       0.67173295       0.44576024       0.41691983 </v>
   <v>       0.44576027       0.67173293       0.41691983 </v>
   <v>       0.44208301       0.44208301       0.41809300 </v>
   <v>       0.50000000       0.38416601       0.50000000 </v>
   <v>       0.61749315       0.50000005       0.34021317 </v>
   <v>       0.61749315       0.50000005       0.65978680 </v>
   <v>       0.38250685       0.50000005       0.34021317 </v>
   <v>       0.38250685       0.50000005       0.65978680 </v>
   <v>       0.38317830       0.38317830       0.50000000 </v>
   <v>       0.61682172       0.61682172       0.50000000 </v>
   <v>       0.61682170       0.38317830       0.50000000 </v>
   <v>       0.38317828       0.61682172       0.50000000 </v>
   <v>       0.50000000       0.50000000       0.33478917 </v>
   <v>       0.50000000       0.50000000       0.66521087 </v>
   <v>       0.32826705       0.44576024       0.58308023 </v>
   <v>       0.55423973       0.67173293       0.58308023 </v>
   <v>       0.55791699       0.44208301       0.58190703 </v>
   <v>       0.44208298       0.55791702       0.41809300 </v>
   <v>       0.44208301       0.44208301       0.58190703 </v>
   <v>       0.67173295       0.44576024       0.58308023 </v>
   <v>       0.44576027       0.67173293       0.58308023 </v>
   <v>       0.55791702       0.55791702       0.41809300 </v>
   <v>       0.38416599       0.50000002       0.50000000 </v>
   <v>       0.61583401       0.50000002       0.50000000 </v>
   <v>       0.50000000       0.61749319       0.34021317 </v>
   <v>       0.50000000       0.61749319       0.65978680 </v>
   <v>       0.50000000       0.50000000       0.50000000 </v>
   <v>       0.44208298       0.55791702       0.58190703 </v>
   <v>       0.55791702       0.55791702       0.58190703 </v>
   <v>       0.50000000       0.61583404       0.50000000 </v>
   <v>       0.49987147       0.49697623       0.76157780 </v>
   <v>       0.49985300       0.49654160       0.79917527 </v>
  </varray>
  <varray name="selective"  type="logical" >
   <v type="logical" >  F  F  F </v>
   <v type="logical" >  F  F  F </v>
   <v type="logical" >  F  F  F </v>
   <v type="logical" >  F  F  F </v>
   <v type="logical" >  F  F  F </v>
   <v type="logical" >  F  F  F </v>
   <v type="logical" >  F  F  F </v>
   <v type="logical" >  F  F  F </v>
   <v type="logical" >  F  F  F </v>
   <v type="logical" >  F  F  F </v>
   <v type="logical" >  F  F  F </v>
   <v type="logical" >  F  F  F </v>
   <v type="logical" >  F  F  F </v>
   <v type="logical" >  F  F  F </v>
   <v type="logical" >  F  F  F </v>
   <v type="logical" >  F  F  F </v>
   <v type="logical" >  F  F  F </v>
   <v type="logical" >  F  F  F </v>
   <v type="logical" >  F  F  F </v>
   <v type="logical" >  F  F  F </v>
   <v type="logical" >  F  F  F </v>
   <v type="logical" >  F  F  F </v>
   <v type="logical" >  F  F  F </v>
   <v type="logical" >  F  F  F </v>
   <v type="logical" >  F  F  F </v>
   <v type="logical" >  F  F  F </v>
   <v type="logical" >  F  F  F </v>
   <v type="logical" >  F  F  F </v>
   <v type="logical" >  F  F  F </v>
   <v type="logical" >  F  F  F </v>
   <v type="logical" >  F  F  F </v>
   <v type="logical" >  F  F  F </v>
   <v type="logical" >  F  F  F </v>
   <v type="logical" >  F  F  F </v>
   <v type="logical" >  F  F  F </v>
   <v type="logical" >  F  F  F </v>
   <v type="logical" >  F  F  F </v>
   <v type="logical" >  F  F  F </v>
   <v type="logical" >  F  F  F </v>
   <v type="logical" >  F  F  F </v>
   <v type="logical" >  F  F  F </v>
   <v type="logical" >  F  F  F </v>
   <v type="logical" >  F  F  F </v>
   <v type="logical" >  F  F  F </v>
   <v type="logical" >  F  F  F </v>
   <v type="logical" >  F  F  F </v>
   <v type="logical" >  F  F  F </v>
   <v type="logical" >  F  F  F </v>
   <v type="logical" >  F  F  F </v>
   <v type="logical" >  F  F  F </v>
   <v type="logical" >  F  F  F </v>
   <v type="logical" >  F  F  F </v>
   <v type="logical" >  F  F  F </v>
   <v type="logical" >  F  F  F </v>
   <v type="logical" >  F  F  F </v>
   <v type="logical" >  F  F  F </v>
   <v type="logical" >  F  F  F </v>
  </varray>
  <nose>
   <v>      -3.00000000       0.00000000       0.00010000       0.00010000 </v>
  </nose>
 </structure>
</modeling>
