 running on    1 total cores
 distrk:  each k-point on    1 cores,    1 groups
 distr:  one band on    1 cores,    1 groups
 using from now: INCAR     
 vasp.5.4.4.18Apr17-6-g9f103f2a35 (build Sep 03 2018 23:53:05) complex          
  
 POSCAR found type information on POSCAR  Pd C  O 
 POSCAR found :  3 types and      57 ions
 scaLAPACK will be used

 ----------------------------------------------------------------------------- 
|                                                                             |
|  ADVICE TO THIS USER RUNNING 'VASP/VAMP'   (HEAR YOUR MASTER'S VOICE ...):  |
|                                                                             |
|      You enforced a specific xc-type in the INCAR file,                     |
|      a different type was found on the POTCAR file                          |
|          I HOPE YOU KNOW, WHAT YOU ARE  DOING                               |
|                                                                             |
 ----------------------------------------------------------------------------- 

 LDA part: xc-table for Pade appr. of Perdew
 POSCAR, INCAR and KPOINTS ok, starting setup
 FFT: planning ...
 WAVECAR not read
 entering main loop
       N       E                     dE             d eps       ncg     rms          rms(c)
DAV:   1     0.438430505484E+04    0.43843E+04   -0.10052E+05   688   0.815E+02
DAV:   2     0.202725527971E+04   -0.23570E+04   -0.21146E+04  1208   0.105E+02
DAV:   3     0.239619529722E+03   -0.17876E+04   -0.16783E+04  1008   0.919E+01
DAV:   4    -0.132661031887E+03   -0.37228E+03   -0.31709E+03   832   0.436E+01
DAV:   5    -0.179243662001E+03   -0.46583E+02   -0.38729E+02  1048   0.146E+01    0.142E+01
RMM:   6    -0.179593186971E+03   -0.34952E+00   -0.55556E+01   735   0.877E+00    0.263E+01
RMM:   7    -0.180818100547E+03   -0.12249E+01   -0.18396E+01   875   0.394E+00    0.199E+01
RMM:   8    -0.183511998985E+03   -0.26939E+01   -0.69839E+00   772   0.341E+00    0.256E+01
RMM:   9    -0.182061982787E+03    0.14500E+01   -0.51244E+00   734   0.315E+00    0.255E+01
RMM:  10    -0.180808843528E+03    0.12531E+01   -0.29830E+00   744   0.238E+00    0.229E+01
RMM:  11    -0.178984685671E+03    0.18242E+01   -0.17464E+00   738   0.196E+00    0.195E+01
RMM:  12    -0.177869177203E+03    0.11155E+01   -0.15934E+00   726   0.189E+00    0.193E+01
RMM:  13    -0.176838318037E+03    0.10309E+01   -0.85622E-01   729   0.136E+00    0.135E+01
RMM:  14    -0.176310730031E+03    0.52759E+00   -0.96340E-01   713   0.147E+00    0.117E+01
RMM:  15    -0.176531121480E+03   -0.22039E+00   -0.10807E+00   719   0.153E+00    0.168E+01
RMM:  16    -0.176549204357E+03   -0.18083E-01   -0.10885E+00   706   0.155E+00    0.285E+01
RMM:  17    -0.175469673013E+03    0.10795E+01   -0.55959E-01   712   0.110E+00    0.978E+00
RMM:  18    -0.175313457106E+03    0.15622E+00   -0.58545E-01   708   0.113E+00    0.976E+00
RMM:  19    -0.175199570462E+03    0.11389E+00   -0.41542E-01   712   0.958E-01    0.922E+00
RMM:  20    -0.175159192443E+03    0.40378E-01   -0.28348E-01   706   0.808E-01    0.964E+00
RMM:  21    -0.174979279962E+03    0.17991E+00   -0.20608E-01   701   0.715E-01    0.738E+00
RMM:  22    -0.174820201167E+03    0.15908E+00   -0.14501E-01   701   0.608E-01    0.569E+00
RMM:  23    -0.174801218772E+03    0.18982E-01   -0.14722E-01   698   0.593E-01    0.486E+00
RMM:  24    -0.174819956477E+03   -0.18738E-01   -0.17137E-01   696   0.627E-01    0.538E+00
RMM:  25    -0.174691886824E+03    0.12807E+00   -0.11810E-01   700   0.541E-01    0.410E+00
RMM:  26    -0.174663846323E+03    0.28041E-01   -0.82271E-02   693   0.452E-01    0.371E+00
RMM:  27    -0.174655769493E+03    0.80768E-02   -0.59489E-02   694   0.393E-01    0.351E+00
RMM:  28    -0.174616135090E+03    0.39634E-01   -0.33705E-02   691   0.308E-01    0.231E+00
RMM:  29    -0.174605176699E+03    0.10958E-01   -0.20671E-02   691   0.239E-01    0.201E+00
RMM:  30    -0.174591123737E+03    0.14053E-01   -0.12586E-02   697   0.183E-01    0.153E+00
RMM:  31    -0.174580081225E+03    0.11043E-01   -0.67517E-03   695   0.133E-01    0.110E+00
RMM:  32    -0.174577289726E+03    0.27915E-02   -0.47632E-03   698   0.108E-01    0.102E+00
RMM:  33    -0.174572642788E+03    0.46469E-02   -0.39890E-03   692   0.995E-02    0.824E-01
RMM:  34    -0.174571806836E+03    0.83595E-03   -0.28350E-03   689   0.850E-02    0.799E-01
RMM:  35    -0.174572508752E+03   -0.70192E-03   -0.23820E-03   688   0.787E-02    0.734E-01
RMM:  36    -0.174571866125E+03    0.64263E-03   -0.18728E-03   689   0.696E-02    0.591E-01
RMM:  37    -0.174572250486E+03   -0.38436E-03   -0.90651E-04   684   0.494E-02    0.471E-01
RMM:  38    -0.174573722115E+03   -0.14716E-02   -0.81585E-04   682   0.442E-02    0.389E-01
RMM:  39    -0.174574686201E+03   -0.96409E-03   -0.50165E-04   569   0.347E-02    0.293E-01
RMM:  40    -0.174577581189E+03   -0.28950E-02   -0.77536E-04   659   0.391E-02    0.327E-01
RMM:  41    -0.174579861374E+03   -0.22802E-02   -0.69065E-04   626   0.359E-02    0.224E-01
RMM:  42    -0.174583011525E+03   -0.31502E-02   -0.75931E-04   659   0.383E-02    0.321E-01
RMM:  43    -0.174586478465E+03   -0.34669E-02   -0.10078E-03   677   0.420E-02    0.236E-01
RMM:  44    -0.174587272392E+03   -0.79393E-03   -0.29877E-04   451   0.272E-02    0.167E-01
RMM:  45    -0.174588761406E+03   -0.14890E-02   -0.22811E-04   418   0.227E-02    0.158E-01
RMM:  46    -0.174589326484E+03   -0.56508E-03   -0.12321E-04   415   0.180E-02    0.857E-02
RMM:  47    -0.174590259658E+03   -0.93317E-03   -0.10109E-04   409   0.141E-02    0.106E-01
RMM:  48    -0.174591778910E+03   -0.15193E-02   -0.10961E-04   405   0.147E-02    0.101E-01
RMM:  49    -0.174592124797E+03   -0.34589E-03   -0.45078E-05   401   0.949E-03    0.722E-02
RMM:  50    -0.174592919173E+03   -0.79438E-03   -0.29433E-05   399   0.767E-03    0.536E-02
RMM:  51    -0.174593367132E+03   -0.44796E-03   -0.20034E-05   385   0.657E-03    0.522E-02
RMM:  52    -0.174594385496E+03   -0.10184E-02   -0.23217E-05   397   0.681E-03    0.382E-02
RMM:  53    -0.174594813902E+03   -0.42841E-03   -0.13600E-05   316   0.531E-03    0.336E-02
RMM:  54    -0.174595564127E+03   -0.75022E-03   -0.24699E-05   397   0.602E-03    0.354E-02
RMM:  55    -0.174596020452E+03   -0.45633E-03   -0.15511E-05   298   0.510E-03    0.231E-02
RMM:  56    -0.174596361361E+03   -0.34091E-03   -0.11203E-05   276   0.463E-03    0.213E-02
RMM:  57    -0.174596684160E+03   -0.32280E-03   -0.10934E-05   241   0.449E-03    0.164E-02
RMM:  58    -0.174596926529E+03   -0.24237E-03   -0.10637E-05   218   0.450E-03    0.123E-02
RMM:  59    -0.174597042352E+03   -0.11582E-03   -0.85018E-06   199   0.408E-03    0.768E-03
RMM:  60    -0.174597102518E+03   -0.60166E-04   -0.31259E-06   133   0.346E-03
   1 F= -.17459710E+03 E0= -.17457942E+03  d E =-.707226E-01
================================= SLURM INFO ===================================
Command: run-cluster -n 1 -m 10000 -j 0482_vasp --same-node /opt/VASP/vasp
Exit code: 0
Job name: 0482_vasp
Job time: 0 days 4h:58m:15s
MPI task count: 1
Working dir: /home/pashkov/pyFitIt/pyfitit/data/random_pd_co_new/sample/0482
Job was running on nodes: h23
Task per node: 1
       JobID     MaxRSS  MaxDiskRead MaxDiskWrite    Elapsed    JobName 
------------ ---------- ------------ ------------ ---------- ---------- 
106247                                              04:58:15  0482_vasp 
106247.batch                                        04:58:15      batch 
