 vasp.5.4.4.18Apr17-6-g9f103f2a35 (build Sep 03 2018 23:53:05) complex          
  
 executed on             LinuxIFC date 2021.11.26  15:24:28
 running on    1 total cores
 distrk:  each k-point on    1 cores,    1 groups
 distr:  one band on NCORES_PER_BAND=   1 cores,    1 groups


--------------------------------------------------------------------------------------------------------


 INCAR:
 POTCAR:    PAW_PBE Pd 04Jan2005                  
 POTCAR:    PAW_PBE C 08Apr2002                   
 POTCAR:    PAW_PBE O 08Apr2002                   
 POTCAR:    PAW_PBE Pd 04Jan2005                  
   VRHFIN =Pd : s1 d9                                                           
   LEXCH  = PE                                                                  
   EATOM  =   809.7530 eV,   59.5152 Ry                                         
                                                                                
   TITEL  = PAW_PBE Pd 04Jan2005                                                
   LULTRA =        F    use ultrasoft PP ?                                      
   IUNSCR =        1    unscreen: 0-lin 1-nonlin 2-no                           
   RPACOR =    2.000    partial core radius                                     
   POMASS =  106.420; ZVAL   =   10.000    mass and valenz                      
   RCORE  =    2.600    outmost cutoff radius                                   
   RWIGS  =    2.710; RWIGS  =    1.434    wigner-seitz radius (au A)           
   ENMAX  =  250.925; ENMIN  =  188.194 eV                                      
   ICORE  =        3    local potential                                         
   LCOR   =        T    correct aug charges                                     
   LPAW   =        T    paw PP                                                  
   EAUG   =  416.230                                                            
   DEXC   =    0.000                                                            
   RMAX   =    2.653    core radius for proj-oper                               
   RAUG   =    1.300    factor for augmentation sphere                          
   RDEP   =    2.734    radius for radial grids                                 
   RDEPT  =    2.103    core radius for aug-charge                              
                                                                                
   Atomic configuration                                                         
   12 entries                                                                   
     n  l   j            E        occ.                                          
     1  0  0.50    -24164.6631   2.0000                                         
     2  0  0.50     -3530.9218   2.0000                                         
     2  1  1.50     -3165.6822   6.0000                                         
     3  0  0.50      -639.4577   2.0000                                         
     3  1  1.50      -519.4532   6.0000                                         
     3  2  2.50      -328.9757  10.0000                                         
     4  0  0.50       -88.7014   2.0000                                         
     4  1  1.50       -54.4540   6.0000                                         
     4  2  2.50        -6.6878   9.0000                                         
     5  0  0.50        -4.3543   1.0000                                         
     5  1  0.50        -1.3606   0.0000                                         
     4  3  2.50        -1.3606   0.0000                                         
   Description                                                                  
     l       E           TYP  RCUT    TYP  RCUT                                 
     2     -6.6878251     23  2.400                                             
     2     -8.0484077     23  2.400                                             
     0     -4.3542939     23  2.400                                             
     0      4.3406793     23  2.400                                             
     1     -4.0817478     23  2.600                                             
     1     15.8380318     23  2.600                                             
     3     -4.0817478     23  2.400                                             
  local pseudopotential read in
  partial core-charges read in
  partial kinetic energy density read in
  atomic valenz-charges read in
  non local Contribution for L=           2  read in
    real space projection operators read in
  non local Contribution for L=           2  read in
    real space projection operators read in
  non local Contribution for L=           0  read in
    real space projection operators read in
  non local Contribution for L=           0  read in
    real space projection operators read in
  non local Contribution for L=           1  read in
    real space projection operators read in
  non local Contribution for L=           1  read in
    real space projection operators read in
    PAW grid and wavefunctions read in
 
   number of l-projection  operators is LMAX  =           6
   number of lm-projection operators is LMMAX =          18
 
 POTCAR:    PAW_PBE C 08Apr2002                   
   VRHFIN =C: s2p2                                                              
   LEXCH  = PE                                                                  
   EATOM  =   147.1560 eV,   10.8157 Ry                                         
                                                                                
   TITEL  = PAW_PBE C 08Apr2002                                                 
   LULTRA =        F    use ultrasoft PP ?                                      
   IUNSCR =        1    unscreen: 0-lin 1-nonlin 2-no                           
   RPACOR =    1.200    partial core radius                                     
   POMASS =   12.011; ZVAL   =    4.000    mass and valenz                      
   RCORE  =    1.500    outmost cutoff radius                                   
   RWIGS  =    1.630; RWIGS  =    0.863    wigner-seitz radius (au A)           
   ENMAX  =  400.000; ENMIN  =  300.000 eV                                      
   ICORE  =        2    local potential                                         
   LCOR   =        T    correct aug charges                                     
   LPAW   =        T    paw PP                                                  
   EAUG   =  644.873                                                            
   DEXC   =    0.000                                                            
   RMAX   =    1.529    core radius for proj-oper                               
   RAUG   =    1.300    factor for augmentation sphere                          
   RDEP   =    1.501    radius for radial grids                                 
   RDEPT  =    1.300    core radius for aug-charge                              
                                                                                
   Atomic configuration                                                         
    4 entries                                                                   
     n  l   j            E        occ.                                          
     1  0  0.50      -273.3789   2.0000                                         
     2  0  0.50       -13.7508   2.0000                                         
     2  1  0.50        -5.2854   2.0000                                         
     3  2  1.50        -5.4423   0.0000                                         
   Description                                                                  
     l       E           TYP  RCUT    TYP  RCUT                                 
     0    -13.7508458     23  1.200                                             
     0     -8.2022199     23  1.200                                             
     1     -5.2854383     23  1.500                                             
     1     34.0145650     23  1.500                                             
     2     -5.4423304      7  1.500                                             
  local pseudopotential read in
  partial core-charges read in
  partial kinetic energy density read in
  atomic valenz-charges read in
  non local Contribution for L=           0  read in
    real space projection operators read in
  non local Contribution for L=           0  read in
    real space projection operators read in
  non local Contribution for L=           1  read in
    real space projection operators read in
  non local Contribution for L=           1  read in
    real space projection operators read in
    PAW grid and wavefunctions read in
 
   number of l-projection  operators is LMAX  =           4
   number of lm-projection operators is LMMAX =           8
 
 POTCAR:    PAW_PBE O 08Apr2002                   
   VRHFIN =O: s2p4                                                              
   LEXCH  = PE                                                                  
   EATOM  =   432.3788 eV,   31.7789 Ry                                         
                                                                                
   TITEL  = PAW_PBE O 08Apr2002                                                 
   LULTRA =        F    use ultrasoft PP ?                                      
   IUNSCR =        1    unscreen: 0-lin 1-nonlin 2-no                           
   RPACOR =    1.200    partial core radius                                     
   POMASS =   16.000; ZVAL   =    6.000    mass and valenz                      
   RCORE  =    1.520    outmost cutoff radius                                   
   RWIGS  =    1.550; RWIGS  =    0.820    wigner-seitz radius (au A)           
   ENMAX  =  400.000; ENMIN  =  300.000 eV                                      
   ICORE  =        2    local potential                                         
   LCOR   =        T    correct aug charges                                     
   LPAW   =        T    paw PP                                                  
   EAUG   =  605.392                                                            
   DEXC   =    0.000                                                            
   RMAX   =    1.553    core radius for proj-oper                               
   RAUG   =    1.300    factor for augmentation sphere                          
   RDEP   =    1.550    radius for radial grids                                 
   RDEPT  =    1.329    core radius for aug-charge                              
                                                                                
   Atomic configuration                                                         
    4 entries                                                                   
     n  l   j            E        occ.                                          
     1  0  0.50      -514.6923   2.0000                                         
     2  0  0.50       -23.9615   2.0000                                         
     2  1  0.50        -9.0305   4.0000                                         
     3  2  1.50        -9.5241   0.0000                                         
   Description                                                                  
     l       E           TYP  RCUT    TYP  RCUT                                 
     0    -23.9615318     23  1.200                                             
     0     -9.5240782     23  1.200                                             
     1     -9.0304911     23  1.520                                             
     1      8.1634956     23  1.520                                             
     2     -9.5240782      7  1.500                                             
  local pseudopotential read in
  partial core-charges read in
  partial kinetic energy density read in
  kinetic energy density of atom read in
  atomic valenz-charges read in
  non local Contribution for L=           0  read in
    real space projection operators read in
  non local Contribution for L=           0  read in
    real space projection operators read in
  non local Contribution for L=           1  read in
    real space projection operators read in
  non local Contribution for L=           1  read in
    real space projection operators read in
    PAW grid and wavefunctions read in
 
   number of l-projection  operators is LMAX  =           4
   number of lm-projection operators is LMMAX =           8
 
 Optimization of the real space projectors (new method)

 maximal supplied QI-value         = 14.36
 optimisation between [QCUT,QGAM] = [ 10.20, 20.39] = [ 29.12,116.47] Ry 
 Optimized for a Real-space Cutoff    1.51 Angstroem

   l    n(q)    QCUT    max X(q) W(low)/X(q) W(high)/X(q)  e(spline) 
   2      8    10.197    59.108    0.26E-03    0.14E-03    0.96E-07
   2      8    10.197    58.101    0.27E-03    0.14E-03    0.98E-07
   0      9    10.197   102.235    0.54E-04    0.60E-05    0.72E-07
   0      9    10.197    58.388    0.52E-04    0.60E-05    0.68E-07
   1      9    10.197    22.191    0.18E-03    0.25E-03    0.79E-07
   1      9    10.197    15.590    0.15E-03    0.21E-03    0.69E-07
 Optimization of the real space projectors (new method)

 maximal supplied QI-value         = 25.13
 optimisation between [QCUT,QGAM] = [ 10.05, 20.36] = [ 28.30,116.06] Ry 
 Optimized for a Real-space Cutoff    1.30 Angstroem

   l    n(q)    QCUT    max X(q) W(low)/X(q) W(high)/X(q)  e(spline) 
   0      8    10.053   115.676    0.49E-03    0.72E-03    0.18E-06
   0      8    10.053    87.132    0.49E-03    0.71E-03    0.18E-06
   1      7    10.053     4.429    0.32E-03    0.31E-03    0.18E-06
   1      7    10.053     2.733    0.23E-03    0.19E-03    0.20E-06
 Optimization of the real space projectors (new method)

 maximal supplied QI-value         = 24.76
 optimisation between [QCUT,QGAM] = [ 10.15, 20.30] = [ 28.85,115.39] Ry 
 Optimized for a Real-space Cutoff    1.38 Angstroem

   l    n(q)    QCUT    max X(q) W(low)/X(q) W(high)/X(q)  e(spline) 
   0      8    10.150    20.381    0.22E-03    0.32E-03    0.29E-06
   0      8    10.150    15.268    0.23E-03    0.35E-03    0.30E-06
   1      8    10.150     5.964    0.46E-03    0.53E-03    0.21E-06
   1      8    10.150     5.382    0.38E-03    0.45E-03    0.19E-06

 ----------------------------------------------------------------------------- 
|                                                                             |
|  ADVICE TO THIS USER RUNNING 'VASP/VAMP'   (HEAR YOUR MASTER'S VOICE ...):  |
|                                                                             |
|      You enforced a specific xc-type in the INCAR file,                     |
|      a different type was found on the POTCAR file                          |
|          I HOPE YOU KNOW, WHAT YOU ARE  DOING                               |
|                                                                             |
 ----------------------------------------------------------------------------- 

  PAW_PBE Pd 04Jan2005                  :
 energy of atom  1       EATOM= -809.7530
 kinetic energy error for atom=    0.0091 (will be added to EATOM!!)
  PAW_PBE C 08Apr2002                   :
 energy of atom  2       EATOM= -147.1560
 kinetic energy error for atom=    0.0288 (will be added to EATOM!!)
  PAW_PBE O 08Apr2002                   :
 energy of atom  3       EATOM= -432.3788
 kinetic energy error for atom=    0.1156 (will be added to EATOM!!)
 
 
 POSCAR: Pd55PES                                 
  positions in cartesian coordinates
  No initial velocities read in
 exchange correlation table for  LEXCH =        9
   RHO(1)=    0.500       N(1)  =     2000
   RHO(2)=  100.500       N(2)  =     4000
 


--------------------------------------------------------------------------------------------------------


 ion  position               nearest neighbor table
   1  0.446  0.328  0.417-   3 3.25   5 3.25   7 3.36  15 3.36  29 3.42  28 3.42
   2  0.672  0.554  0.417-  26 3.25  30 3.25  17 3.36   9 3.36  47 3.42  49 3.42
   3  0.554  0.328  0.417-   1 3.25   5 3.25   7 3.36  11 3.36  29 3.42  21 3.42
   4  0.328  0.554  0.417-  32 3.25  22 3.25  13 3.36   8 3.36  43 3.42  48 3.42
   5  0.500  0.383  0.340-   1 3.25   3 3.25  11 3.36  15 3.36  21 3.42  28 3.42
   6  0.500  0.383  0.660-  24 3.25  19 3.25  16 3.36  12 3.36  42 3.42  44 3.42
   7  0.500  0.276  0.500-  29 3.24   3 3.36   1 3.36  19 3.36  24 3.36
   8  0.276  0.500  0.500-  48 3.24  22 3.36  40 3.36   4 3.36  25 3.36
   9  0.724  0.500  0.500-  49 3.24  26 3.36  45 3.36   2 3.36  20 3.36
  10  0.500  0.724  0.500-  55 3.24  27 3.36  23 3.36  46 3.36  41 3.36
  11  0.612  0.388  0.342-  21 3.24   5 3.36   3 3.36  30 3.36  26 3.36
  12  0.612  0.388  0.658-  42 3.24  24 3.36  45 3.36   6 3.36  31 3.36
  13  0.388  0.612  0.342-  43 3.24  32 3.36  50 3.36   4 3.36  27 3.36
  14  0.388  0.612  0.658-  53 3.24  25 3.36  33 3.36  51 3.36  46 3.36
  15  0.388  0.388  0.342-  28 3.24   5 3.36   1 3.36  32 3.36  22 3.36
  16  0.388  0.388  0.658-  44 3.24  19 3.36  40 3.36   6 3.36  33 3.36
  17  0.612  0.612  0.342-  47 3.24  30 3.36  50 3.36   2 3.36  23 3.36
  18  0.612  0.612  0.658-  54 3.24  31 3.36  20 3.36  51 3.36  41 3.36
  19  0.446  0.328  0.583-   6 3.25  24 3.25  16 3.36   7 3.36  44 3.42  29 3.42
  20  0.672  0.554  0.583-  56 2.27  57 2.69  31 3.25  45 3.25  18 3.36   9 3.36  54 3.42  49 3.42

  21  0.558  0.442  0.418-  11 3.24   5 3.42   3 3.42  30 3.42  26 3.42
  22  0.328  0.446  0.417-   4 3.25  32 3.25   8 3.36  15 3.36  48 3.42  28 3.42
  23  0.554  0.672  0.417-  27 3.25  50 3.25  10 3.36  17 3.36  55 3.42  47 3.42
  24  0.554  0.328  0.583-   6 3.25  19 3.25  12 3.36   7 3.36  42 3.42  29 3.42
  25  0.328  0.554  0.583-  33 3.25  40 3.25  14 3.36   8 3.36  53 3.42  48 3.42
  26  0.672  0.446  0.417-   2 3.25  30 3.25   9 3.36  11 3.36  49 3.42  21 3.42
  27  0.446  0.672  0.417-  23 3.25  50 3.25  10 3.36  13 3.36  55 3.42  43 3.42
  28  0.442  0.442  0.418-  15 3.24   5 3.42   1 3.42  32 3.42  22 3.42
  29  0.500  0.384  0.500-   7 3.24   3 3.42   1 3.42  24 3.42  19 3.42
  30  0.617  0.500  0.340-   2 3.25  26 3.25  17 3.36  11 3.36  47 3.42  21 3.42
  31  0.617  0.500  0.660-  20 3.25  45 3.25  18 3.36  12 3.36  54 3.42  42 3.42
  32  0.383  0.500  0.340-   4 3.25  22 3.25  13 3.36  15 3.36  43 3.42  28 3.42
  33  0.383  0.500  0.660-  25 3.25  40 3.25  14 3.36  16 3.36  53 3.42  44 3.42
  34  0.383  0.383  0.500-
  35  0.617  0.617  0.500-  56 1.90
  36  0.617  0.383  0.500-
  37  0.383  0.617  0.500-
  38  0.500  0.500  0.335-
  39  0.500  0.500  0.665-
  40  0.328  0.446  0.583-  33 3.25  25 3.25  16 3.36   8 3.36  44 3.42  48 3.42
  41  0.554  0.672  0.583-  46 3.25  51 3.25  10 3.36  18 3.36  54 3.42  55 3.42
  42  0.558  0.442  0.582-  12 3.24   6 3.42  24 3.42  31 3.42  45 3.42
  43  0.442  0.558  0.418-  13 3.24   4 3.42  32 3.42  27 3.42  50 3.42
  44  0.442  0.442  0.582-  16 3.24   6 3.42  19 3.42  33 3.42  40 3.42
  45  0.672  0.446  0.583-  20 3.25  31 3.25   9 3.36  12 3.36  49 3.42  42 3.42
  46  0.446  0.672  0.583-  41 3.25  51 3.25  10 3.36  14 3.36  53 3.42  55 3.42
  47  0.558  0.558  0.418-  17 3.24   2 3.42  30 3.42  23 3.42  50 3.42
  48  0.384  0.500  0.500-   8 3.24   4 3.42  22 3.42  25 3.42  40 3.42
  49  0.616  0.500  0.500-   9 3.24   2 3.42  26 3.42  20 3.42  45 3.42
  50  0.500  0.617  0.340-  27 3.25  23 3.25  13 3.36  17 3.36  43 3.42  47 3.42
  51  0.500  0.617  0.660-  41 3.25  46 3.25  14 3.36  18 3.36  53 3.42  54 3.42
  52  0.500  0.500  0.500-
  53  0.442  0.558  0.582-  14 3.24  25 3.42  33 3.42  51 3.42  46 3.42
  54  0.558  0.558  0.582-  18 3.24  31 3.42  20 3.42  51 3.42  41 3.42
  55  0.500  0.616  0.500-  10 3.24  23 3.42  27 3.42  41 3.42  46 3.42
  56  0.644  0.620  0.557-  57 1.13  35 1.90  20 2.27
  57  0.671  0.643  0.568-  56 1.13  20 2.69
 
  LATTYP: Found a simple cubic cell.
 ALAT       =    30.0000000000
  
  Lattice vectors:
  
 A1 = (  30.0000000000,   0.0000000000,   0.0000000000)
 A2 = (   0.0000000000,  30.0000000000,   0.0000000000)
 A3 = (   0.0000000000,   0.0000000000,  30.0000000000)


Analysis of symmetry for initial positions (statically):
=====================================================================
 Subroutine PRICEL returns:
 Original cell was already a primitive cell.
 

 Routine SETGRP: Setting up the symmetry group for a 
 simple cubic supercell.


 Subroutine GETGRP returns: Found  1 space group operations
 (whereof  1 operations were pure point group operations)
 out of a pool of 48 trial point group operations.


The static configuration has the point symmetry C_1 .


Analysis of symmetry for dynamics (positions and initial velocities):
=====================================================================
 Subroutine PRICEL returns:
 Original cell was already a primitive cell.
 

 Routine SETGRP: Setting up the symmetry group for a 
 simple cubic supercell.


 Subroutine GETGRP returns: Found  1 space group operations
 (whereof  1 operations were pure point group operations)
 out of a pool of 48 trial point group operations.


The dynamic configuration has the point symmetry C_1 .


Analysis of constrained symmetry for selective dynamics:
=====================================================================
 Subroutine PRICEL returns:
 Original cell was already a primitive cell.
 

 Routine SETGRP: Setting up the symmetry group for a 
 simple cubic supercell.


 Subroutine GETGRP returns: Found  1 space group operations
 (whereof  1 operations were pure point group operations)
 out of a pool of 48 trial point group operations.


The constrained configuration has the point symmetry C_1 .


 Subroutine INISYM returns: Found  1 space group operations
 (whereof  1 operations are pure point group operations),
 and found     1 'primitive' translations

 
 
 KPOINTS: K-points                                

Automatic generation of k-mesh.
Space group operators:
 irot       det(A)        alpha          n_x          n_y          n_z        tau_x        tau_y        tau_z
    1     1.000000     0.000000     1.000000     0.000000     0.000000     0.000000     0.000000     0.000000
 
 Subroutine IBZKPT returns following result:
 ===========================================
 
 Found      1 irreducible k-points:
 
 Following reciprocal coordinates:
            Coordinates               Weight
  0.000000  0.000000  0.000000      1.000000
 
 Following cartesian coordinates:
            Coordinates               Weight
  0.000000  0.000000  0.000000      1.000000
 


--------------------------------------------------------------------------------------------------------




 Dimension of arrays:
   k-points           NKPTS =      1   k-points in BZ     NKDIM =      1   number of bands    NBANDS=    336
   number of dos      NEDOS =    301   number of ions     NIONS =     57
   non local maximal  LDIM  =      6   non local SUM 2l+1 LMDIM =     18
   total plane-waves  NPLWV = ******
   max r-space proj   IRMAX =   1847   max aug-charges    IRDMAX=   6262
   dimension x,y,z NGX =   150 NGY =  150 NGZ =  150
   dimension x,y,z NGXF=   300 NGYF=  300 NGZF=  300
   support grid    NGXF=   300 NGYF=  300 NGZF=  300
   ions per type =              55   1   1
   NGX,Y,Z   is equivalent  to a cutoff of   8.31,  8.31,  8.31 a.u.
   NGXF,Y,Z  is equivalent  to a cutoff of  16.62, 16.62, 16.62 a.u.

 SYSTEM =  6_Pd100_top_free_z(O)                   
 POSCAR =  Pd55PES                                 

 Startparameter for this run:
   NWRITE =      2    write-flag & timer
   PREC   = normal    normal or accurate (medium, high low for compatibility)
   ISTART =      0    job   : 0-new  1-cont  2-samecut
   ICHARG =      2    charge: 1-file 2-atom 10-const
   ISPIN  =      1    spin polarized calculation?
   LNONCOLLINEAR =      F non collinear calculations
   LSORBIT =      F    spin-orbit coupling
   INIWAV =      1    electr: 0-lowe 1-rand  2-diag
   LASPH  =      F    aspherical Exc in radial PAW
   METAGGA=      F    non-selfconsistent MetaGGA calc.

 Electronic Relaxation 1
   ENCUT  =  400.0 eV  29.40 Ry    5.42 a.u.  48.92 48.92 48.92*2*pi/ulx,y,z
   ENINI  =  400.0     initial cutoff
   ENAUG  =  644.9 eV  augmentation charge cutoff
   NELM   =    100;   NELMIN=  6; NELMDL= -5     # of ELM steps 
   EDIFF  = 0.1E-03   stopping-criterion for ELM
   LREAL  =      T    real-space projection
   NLSPLINE    = F    spline interpolate recip. space projectors
   LCOMPAT=      F    compatible to vasp.4.4
   GGA_COMPAT  = T    GGA compatible to vasp.4.4-vasp.4.6
   LMAXPAW     = -100 max onsite density
   LMAXMIX     =    2 max onsite mixed and CHGCAR
   VOSKOWN=      0    Vosko Wilk Nusair interpolation
   ROPT   =   -0.00050  -0.00050  -0.00050
 Ionic relaxation
   EDIFFG = -.5E-01   stopping-criterion for IOM
   NSW    =      0    number of steps for IOM
   NBLOCK =      1;   KBLOCK =      1    inner block; outer block 
   IBRION =     -1    ionic relax: 0-MD 1-quasi-New 2-CG
   NFREE  =      1    steps in history (QN), initial steepest desc. (CG)
   ISIF   =      2    stress and relaxation
   IWAVPR =     10    prediction:  0-non 1-charg 2-wave 3-comb
   ISYM   =      2    0-nonsym 1-usesym 2-fastsym
   LCORR  =      T    Harris-Foulkes like correction to forces

   POTIM  = 0.5000    time-step for ionic-motion
   TEIN   =    0.0    initial temperature
   TEBEG  =    0.0;   TEEND  =   0.0 temperature during run
   SMASS  =  -3.00    Nose mass-parameter (am)
   estimated Nose-frequenzy (Omega)   =  0.10E-29 period in steps =****** mass=  -0.206E-25a.u.
   SCALEE = 1.0000    scale energy and forces
   NPACO  =    256;   APACO  = 16.0  distance and # of slots for P.C.
   PSTRESS=    0.0 pullay stress

  Mass of Ions in am
   POMASS = 106.42 12.01 16.00
  Ionic Valenz
   ZVAL   =  10.00  4.00  6.00
  Atomic Wigner-Seitz radii
   RWIGS  =  -1.00 -1.00 -1.00
  virtual crystal weights 
   VCA    =   1.00  1.00  1.00
   NELECT =     560.0000    total number of electrons
   NUPDOWN=      -1.0000    fix difference up-down

 DOS related values:
   EMIN   =  10.00;   EMAX   =-10.00  energy-range for DOS
   EFERMI =   0.00
   ISMEAR =     2;   SIGMA  =   0.20  broadening in eV -4-tet -1-fermi 0-gaus

 Electronic relaxation 2 (details)
   IALGO  =     68    algorithm
   LDIAG  =      T    sub-space diagonalisation (order eigenvalues)
   LSUBROT=      F    optimize rotation matrix (better conditioning)
   TURBO    =      0    0=normal 1=particle mesh
   IRESTART =      0    0=no restart 2=restart with 2 vectors
   NREBOOT  =      0    no. of reboots
   NMIN     =      0    reboot dimension
   EREF     =   0.00    reference energy to select bands
   IMIX   =      4    mixing-type and parameters
     AMIX     =   0.40;   BMIX     =  1.00
     AMIX_MAG =   1.60;   BMIX_MAG =  1.00
     AMIN     =   0.10
     WC   =   100.;   INIMIX=   1;  MIXPRE=   1;  MAXMIX= -45

 Intra band minimization:
   WEIMIN = 0.0000     energy-eigenvalue tresh-hold
   EBREAK =  0.74E-07  absolut break condition
   DEPER  =   0.30     relativ break condition  

   TIME   =   0.40     timestep for ELM

  volume/ion in A,a.u.               =     473.68      3196.58
  Fermi-wavevector in a.u.,A,eV,Ry     =   0.449797  0.849992  2.752691  0.202317
  Thomas-Fermi vector in A             =   1.430086
 
 Write flags
   LWAVE        =      F    write WAVECAR
   LDOWNSAMPLE  =      F    k-point downsampling of WAVECAR
   LCHARG       =      F    write CHGCAR
   LVTOT        =      F    write LOCPOT, total local potential
   LVHAR        =      F    write LOCPOT, Hartree potential only
   LELF         =      F    write electronic localiz. function (ELF)
   LORBIT       =      0    0 simple, 1 ext, 2 COOP (PROOUT), +10 PAW based schemes


 Dipole corrections
   LMONO  =      F    monopole corrections only (constant potential shift)
   LDIPOL =      F    correct potential (dipole corrections)
   IDIPOL =      0    1-x, 2-y, 3-z, 4-all directions 
   EPSILON=  1.0000000 bulk dielectric constant

 Exchange correlation treatment:
   GGA     =    RP    GGA type
   LEXCH   =     9    internal setting for exchange type
   VOSKOWN=      0    Vosko Wilk Nusair interpolation
   LHFCALC =     F    Hartree Fock is set to
   LHFONE  =     F    Hartree Fock one center treatment
   AEXX    =    0.0000 exact exchange contribution

 Linear response parameters
   LEPSILON=     F    determine dielectric tensor
   LRPA    =     F    only Hartree local field effects (RPA)
   LNABLA  =     F    use nabla operator in PAW spheres
   LVEL    =     F    velocity operator in full k-point grid
   LINTERFAST=   F  fast interpolation
   KINTER  =     0    interpolate to denser k-point grid
   CSHIFT  =0.1000    complex shift for real part using Kramers Kronig
   OMEGAMAX=  -1.0    maximum frequency
   DEG_THRESHOLD= 0.2000000E-02 threshold for treating states as degnerate
   RTIME   =   -0.100 relaxation time in fs
  (WPLASMAI=    0.000 imaginary part of plasma frequency in eV, 0.658/RTIME)
   DFIELD  = 0.0000000 0.0000000 0.0000000 field for delta impulse in time
 
 Orbital magnetization related:
   ORBITALMAG=     F  switch on orbital magnetization
   LCHIMAG   =     F  perturbation theory with respect to B field
   DQ        =  0.001000  dq finite difference perturbation B field
   LLRAUG    =     F  two centre corrections for induced B field



--------------------------------------------------------------------------------------------------------


 Static calculation
 charge density and potential will be updated during run
 non-spin polarized calculation
 RMM-DIIS sequential band-by-band and
  variant of blocked Davidson during initial phase
 perform sub-space diagonalisation
    before iterative eigenvector-optimisation
 modified Broyden-mixing scheme, WC =      100.0
 initial mixing is a Kerker type mixing with AMIX =  0.4000 and BMIX =      1.0000
 Hartree-type preconditioning will be used
 using additional bands           56
 real space projection scheme for non local part
 use partial core corrections
 calculate Harris-corrections to forces 
   (improved forces if not selfconsistent)
 use gradient corrections 
 use of overlap-Matrix (Vanderbilt PP)
 Methfessel and Paxton  Order N= 2 SIGMA  =   0.20


--------------------------------------------------------------------------------------------------------


  energy-cutoff  :      400.00
  volume of cell :    27000.00
      direct lattice vectors                 reciprocal lattice vectors
    30.000000000  0.000000000  0.000000000     0.033333333  0.000000000  0.000000000
     0.000000000 30.000000000  0.000000000     0.000000000  0.033333333  0.000000000
     0.000000000  0.000000000 30.000000000     0.000000000  0.000000000  0.033333333

  length of vectors
    30.000000000 30.000000000 30.000000000     0.033333333  0.033333333  0.033333333


 
 k-points in units of 2pi/SCALE and weight: K-points                                
   0.00000000  0.00000000  0.00000000       1.000
 
 k-points in reciprocal lattice and weights: K-points                                
   0.00000000  0.00000000  0.00000000       1.000
 
 position of ions in fractional coordinates (direct lattice) 
   0.44576020  0.32826710  0.41691983
   0.67173288  0.55423978  0.41691983
   0.55423980  0.32826710  0.41691983
   0.32826712  0.55423978  0.41691983
   0.50000000  0.38250690  0.34021317
   0.50000000  0.38250690  0.65978680
   0.50000000  0.27609440  0.50000000
   0.27609443  0.49999998  0.50000000
   0.72390557  0.49999998  0.50000000
   0.50000000  0.72390555  0.50000000
   0.61195280  0.38804720  0.34167483
   0.61195280  0.38804720  0.65832513
   0.38804722  0.61195278  0.34167483
   0.38804722  0.61195278  0.65832513
   0.38804720  0.38804720  0.34167483
   0.38804720  0.38804720  0.65832513
   0.61195278  0.61195278  0.34167483
   0.61195278  0.61195278  0.65832513
   0.44576020  0.32826710  0.58308023
   0.67173288  0.55423978  0.58308023
   0.55791699  0.44208301  0.41809300
   0.32826705  0.44576024  0.41691983
   0.55423973  0.67173293  0.41691983
   0.55423980  0.32826710  0.58308023
   0.32826712  0.55423978  0.58308023
   0.67173295  0.44576024  0.41691983
   0.44576027  0.67173293  0.41691983
   0.44208301  0.44208301  0.41809300
   0.50000000  0.38416601  0.50000000
   0.61749315  0.50000005  0.34021317
   0.61749315  0.50000005  0.65978680
   0.38250685  0.50000005  0.34021317
   0.38250685  0.50000005  0.65978680
   0.38317830  0.38317830  0.50000000
   0.61682172  0.61682172  0.50000000
   0.61682170  0.38317830  0.50000000
   0.38317828  0.61682172  0.50000000
   0.50000000  0.50000000  0.33478917
   0.50000000  0.50000000  0.66521087
   0.32826705  0.44576024  0.58308023
   0.55423973  0.67173293  0.58308023
   0.55791699  0.44208301  0.58190703
   0.44208298  0.55791702  0.41809300
   0.44208301  0.44208301  0.58190703
   0.67173295  0.44576024  0.58308023
   0.44576027  0.67173293  0.58308023
   0.55791702  0.55791702  0.41809300
   0.38416599  0.50000002  0.50000000
   0.61583401  0.50000002  0.50000000
   0.50000000  0.61749319  0.34021317
   0.50000000  0.61749319  0.65978680
   0.50000000  0.50000000  0.50000000
   0.44208298  0.55791702  0.58190703
   0.55791702  0.55791702  0.58190703
   0.50000000  0.61583404  0.50000000
   0.64360523  0.61952750  0.55723963
   0.67123693  0.64252630  0.56825333
 
 position of ions in cartesian coordinates  (Angst):
  13.37280588  9.84801292 12.50759500
  20.15198637 16.62719342 12.50759500
  16.62719412  9.84801292 12.50759500
   9.84801363 16.62719342 12.50759500
  15.00000000 11.47520705 10.20639500
  15.00000000 11.47520705 19.79360400
  15.00000000  8.28283206 15.00000000
   8.28283277 14.99999929 15.00000000
  21.71716723 14.99999929 15.00000000
  15.00000000 21.71716652 14.99999999
  18.35858397 11.64141603 10.25024500
  18.35858397 11.64141603 19.74975399
  11.64141674 18.35858326 10.25024500
  11.64141674 18.35858326 19.74975400
  11.64141603 11.64141603 10.25024500
  11.64141603 11.64141603 19.74975400
  18.35858326 18.35858326 10.25024500
  18.35858326 18.35858326 19.74975400
  13.37280588  9.84801291 17.49240700
  20.15198638 16.62719341 17.49240700
  16.73750985 13.26249015 12.54279000
   9.84801151 13.37280729 12.50759500
  16.62719200 20.15198779 12.50759500
  16.62719412  9.84801292 17.49240700
   9.84801363 16.62719342 17.49240700
  20.15198849 13.37280729 12.50759500
  13.37280800 20.15198779 12.50759500
  13.26249015 13.26249015 12.54279000
  15.00000000 11.52498029 15.00000000
  18.52479437 15.00000140 10.20639500
  18.52479437 15.00000141 19.79360400
  11.47520562 15.00000141 10.20639501
  11.47520563 15.00000141 19.79360400
  11.49534898 11.49534898 15.00000000
  18.50465172 18.50465172 15.00000000
  18.50465102 11.49534898 15.00000000
  11.49534828 18.50465172 15.00000000
  15.00000000 15.00000000 10.04367500
  15.00000000 15.00000000 19.95632599
   9.84801151 13.37280729 17.49240700
  16.62719200 20.15198779 17.49240700
  16.73750985 13.26249015 17.45721100
  13.26248944 16.73751056 12.54279001
  13.26249015 13.26249015 17.45721100
  20.15198849 13.37280729 17.49240699
  13.37280800 20.15198779 17.49240700
  16.73751056 16.73751056 12.54279000
  11.52497959 15.00000071 15.00000000
  18.47502041 15.00000071 15.00000000
  14.99999999 18.52479579 10.20639500
  15.00000000 18.52479578 19.79360400
  15.00000000 15.00000000 15.00000000
  13.26248944 16.73751057 17.45721101
  16.73751056 16.73751057 17.45721100
  15.00000000 18.47502112 15.00000000
  19.30815700 18.58582500 16.71718900
  20.13710800 19.27578900 17.04760000
 


--------------------------------------------------------------------------------------------------------


 k-point  1 :   0.0000 0.0000 0.0000  plane waves:  490521

 maximum and minimum number of plane-waves per node :    490521   490521

 maximum number of plane-waves:    490521
 maximum index in each direction: 
   IXMAX=   48   IYMAX=   48   IZMAX=   48
   IXMIN=  -48   IYMIN=  -48   IZMIN=  -48


 serial   3D FFT for wavefunctions
 parallel 3D FFT for charge:
    minimum data exchange during FFTs selected (reduces bandwidth)


 total amount of memory used by VASP MPI-rank0  5486941. kBytes
=======================================================================

   base      :      30000. kBytes
   nonlr-proj:      17126. kBytes
   fftplans  :     924480. kBytes
   grid      :    1872000. kBytes
   one-center:        886. kBytes
   wavefun   :    2642449. kBytes
 
     INWAV:  cpu time    0.0001: real time    0.0004
 Broyden mixing: mesh for mixing (old mesh)
   NGX = 97   NGY = 97   NGZ = 97
  (NGX  =300   NGY  =300   NGZ  =300)
  gives a total of 912673 points

 initial charge density was supplied:
 charge density of overlapping atoms calculated
 number of electron     560.0000000 magnetization 
 keeping initial charge density in first step


--------------------------------------------------------------------------------------------------------


 Maximum index for non-local projection operator         1763
 Maximum index for augmentation-charges         5898 (set IRDMAX)


--------------------------------------------------------------------------------------------------------


 First call to EWALD:  gamma=   0.059
 Maximum number of real-space cells 3x 3x 3
 Maximum number of reciprocal cells 3x 3x 3

    FEWALD:  cpu time    0.0147: real time    0.0147


--------------------------------------- Iteration      1(   1)  ---------------------------------------


    POTLOK:  cpu time   14.4829: real time   14.4899
    SETDIJ:  cpu time    0.1169: real time    0.1169
     EDDAV:  cpu time  365.6897: real time  365.7927
       DOS:  cpu time    0.0013: real time    0.0013
    --------------------------------------------
      LOOP:  cpu time  380.2908: real time  380.4008

 eigenvalue-minimisations  :   688
 total energy-change (2. order) : 0.4396839E+04  (-0.1005256E+05)
 number of electron     560.0000000 magnetization 
 augmentation part      560.0000000 magnetization 

 Free energy of the ion-electron system (eV)
  ---------------------------------------------------
  alpha Z        PSCENC =        75.25431677
  Ewald energy   TEWEN  =    139823.02081796
  -Hartree energ DENC   =   -183177.44008366
  -exchange      EXHF   =         0.00000000
  -V(xc)+E(xc)   XCENC  =     -1702.08773897
  PAW double counting   =     44873.02882129   -41398.84523641
  entropy T*S    EENTRO =         0.03978424
  eigenvalues    EBANDS =       817.36327738
  atomic energy  EATOM  =     45086.50549395
  Solvation  Ediel_sol  =         0.00000000
  ---------------------------------------------------
  free energy    TOTEN  =      4396.83945257 eV

  energy without entropy =     4396.79966832  energy(sigma->0) =     4396.82950651


--------------------------------------------------------------------------------------------------------




--------------------------------------- Iteration      1(   2)  ---------------------------------------


     EDDAV:  cpu time  578.8620: real time  578.9196
       DOS:  cpu time    0.0012: real time    0.0012
    --------------------------------------------
      LOOP:  cpu time  578.8633: real time  578.9209

 eigenvalue-minimisations  :  1208
 total energy-change (2. order) :-0.2368652E+04  (-0.2127484E+04)
 number of electron     560.0000000 magnetization 
 augmentation part      560.0000000 magnetization 

 Free energy of the ion-electron system (eV)
  ---------------------------------------------------
  alpha Z        PSCENC =        75.25431677
  Ewald energy   TEWEN  =    139823.02081796
  -Hartree energ DENC   =   -183177.44008366
  -exchange      EXHF   =         0.00000000
  -V(xc)+E(xc)   XCENC  =     -1702.08773897
  PAW double counting   =     44873.02882129   -41398.84523641
  entropy T*S    EENTRO =        -0.02342744
  eigenvalues    EBANDS =     -1551.22597967
  atomic energy  EATOM  =     45086.50549395
  Solvation  Ediel_sol  =         0.00000000
  ---------------------------------------------------
  free energy    TOTEN  =      2028.18698384 eV

  energy without entropy =     2028.21041128  energy(sigma->0) =     2028.19284070


--------------------------------------------------------------------------------------------------------




--------------------------------------- Iteration      1(   3)  ---------------------------------------


     EDDAV:  cpu time  496.9791: real time  496.9985
       DOS:  cpu time    0.0011: real time    0.0011
    --------------------------------------------
      LOOP:  cpu time  496.9801: real time  496.9996

 eigenvalue-minimisations  :  1008
 total energy-change (2. order) :-0.1788408E+04  (-0.1678950E+04)
 number of electron     560.0000000 magnetization 
 augmentation part      560.0000000 magnetization 

 Free energy of the ion-electron system (eV)
  ---------------------------------------------------
  alpha Z        PSCENC =        75.25431677
  Ewald energy   TEWEN  =    139823.02081796
  -Hartree energ DENC   =   -183177.44008366
  -exchange      EXHF   =         0.00000000
  -V(xc)+E(xc)   XCENC  =     -1702.08773897
  PAW double counting   =     44873.02882129   -41398.84523641
  entropy T*S    EENTRO =        -0.00224277
  eigenvalues    EBANDS =     -3339.65498173
  atomic energy  EATOM  =     45086.50549395
  Solvation  Ediel_sol  =         0.00000000
  ---------------------------------------------------
  free energy    TOTEN  =       239.77916644 eV

  energy without entropy =      239.78140921  energy(sigma->0) =      239.77972713


--------------------------------------------------------------------------------------------------------




--------------------------------------- Iteration      1(   4)  ---------------------------------------


     EDDAV:  cpu time  418.6470: real time  418.6600
       DOS:  cpu time    0.0012: real time    0.0012
    --------------------------------------------
      LOOP:  cpu time  418.6482: real time  418.6612

 eigenvalue-minimisations  :   824
 total energy-change (2. order) :-0.3723852E+03  (-0.3143810E+03)
 number of electron     560.0000000 magnetization 
 augmentation part      560.0000000 magnetization 

 Free energy of the ion-electron system (eV)
  ---------------------------------------------------
  alpha Z        PSCENC =        75.25431677
  Ewald energy   TEWEN  =    139823.02081796
  -Hartree energ DENC   =   -183177.44008366
  -exchange      EXHF   =         0.00000000
  -V(xc)+E(xc)   XCENC  =     -1702.08773897
  PAW double counting   =     44873.02882129   -41398.84523641
  entropy T*S    EENTRO =         0.02620877
  eigenvalues    EBANDS =     -3712.06858932
  atomic energy  EATOM  =     45086.50549395
  Solvation  Ediel_sol  =         0.00000000
  ---------------------------------------------------
  free energy    TOTEN  =      -132.60598961 eV

  energy without entropy =     -132.63219838  energy(sigma->0) =     -132.61254180


--------------------------------------------------------------------------------------------------------




--------------------------------------- Iteration      1(   5)  ---------------------------------------


     EDDAV:  cpu time  514.8599: real time  514.8754
       DOS:  cpu time    0.0014: real time    0.0014
    CHARGE:  cpu time   25.2228: real time   25.2229
    MIXING:  cpu time    0.4373: real time    0.4373
    --------------------------------------------
      LOOP:  cpu time  540.5215: real time  540.5370

 eigenvalue-minimisations  :  1064
 total energy-change (2. order) :-0.4746298E+02  (-0.3853660E+02)
 number of electron     559.9999811 magnetization 
 augmentation part      244.9290215 magnetization 

 Broyden mixing:
  rms(total) = 0.15906E+01    rms(broyden)= 0.15897E+01
  rms(prec ) = 0.16942E+01
  weight for this iteration     100.00

 Free energy of the ion-electron system (eV)
  ---------------------------------------------------
  alpha Z        PSCENC =        75.25431677
  Ewald energy   TEWEN  =    139823.02081796
  -Hartree energ DENC   =   -183177.44008366
  -exchange      EXHF   =         0.00000000
  -V(xc)+E(xc)   XCENC  =     -1702.08773897
  PAW double counting   =     44873.02882129   -41398.84523641
  entropy T*S    EENTRO =         0.48301631
  eigenvalues    EBANDS =     -3759.98837740
  atomic energy  EATOM  =     45086.50549395
  Solvation  Ediel_sol  =         0.00000000
  ---------------------------------------------------
  free energy    TOTEN  =      -180.06897015 eV

  energy without entropy =     -180.55198646  energy(sigma->0) =     -180.18972423


--------------------------------------------------------------------------------------------------------




--------------------------------------- Iteration      1(   6)  ---------------------------------------


    POTLOK:  cpu time   13.1582: real time   13.1615
    SETDIJ:  cpu time    0.1254: real time    0.1254
    EDDIAG:  cpu time   68.2138: real time   68.2145
  RMM-DIIS:  cpu time  188.0229: real time  188.0257
    ORTHCH:  cpu time   13.4558: real time   13.4558
       DOS:  cpu time    0.0014: real time    0.0014
    CHARGE:  cpu time   25.8401: real time   25.8437
    MIXING:  cpu time    0.4643: real time    0.4643
    --------------------------------------------
      LOOP:  cpu time  309.2819: real time  309.2924

 eigenvalue-minimisations  :   726
 total energy-change (2. order) : 0.1685358E+00  (-0.6342424E+01)
 number of electron     559.9999835 magnetization 
 augmentation part      240.7192390 magnetization 

 Broyden mixing:
  rms(total) = 0.23178E+01    rms(broyden)= 0.23175E+01
  rms(prec ) = 0.26555E+01
  weight for this iteration     100.00

 eigenvalues of (default mixing * dielectric matrix)
  average eigenvalue GAMMA=   0.3481
  0.3481

 Free energy of the ion-electron system (eV)
  ---------------------------------------------------
  alpha Z        PSCENC =        75.25431677
  Ewald energy   TEWEN  =    139823.02081796
  -Hartree energ DENC   =   -183576.75443978
  -exchange      EXHF   =         0.00000000
  -V(xc)+E(xc)   XCENC  =     -1695.78089438
  PAW double counting   =     45654.31983722   -42154.11415553
  entropy T*S    EENTRO =        -0.22864635
  eigenvalues    EBANDS =     -3392.12276419
  atomic energy  EATOM  =     45086.50549395
  Solvation  Ediel_sol  =         0.00000000
  ---------------------------------------------------
  free energy    TOTEN  =      -179.90043431 eV

  energy without entropy =     -179.67178797  energy(sigma->0) =     -179.84327273


--------------------------------------------------------------------------------------------------------




--------------------------------------- Iteration      1(   7)  ---------------------------------------


    POTLOK:  cpu time   13.2415: real time   13.2477
    SETDIJ:  cpu time    0.1229: real time    0.1229
    EDDIAG:  cpu time   67.7518: real time   67.7567
  RMM-DIIS:  cpu time  217.5654: real time  217.5912
    ORTHCH:  cpu time   13.3360: real time   13.3374
       DOS:  cpu time    0.0014: real time    0.0014
    CHARGE:  cpu time   25.2823: real time   25.2834
    MIXING:  cpu time    0.4821: real time    0.4821
    --------------------------------------------
      LOOP:  cpu time  337.7835: real time  337.8229

 eigenvalue-minimisations  :   843
 total energy-change (2. order) :-0.2076775E+01  (-0.2129716E+01)
 number of electron     559.9999821 magnetization 
 augmentation part      240.6694557 magnetization 

 Broyden mixing:
  rms(total) = 0.22824E+01    rms(broyden)= 0.22821E+01
  rms(prec ) = 0.27454E+01
  weight for this iteration     100.00

 eigenvalues of (default mixing * dielectric matrix)
  average eigenvalue GAMMA=   0.3377
  0.5152  0.1602

 Free energy of the ion-electron system (eV)
  ---------------------------------------------------
  alpha Z        PSCENC =        75.25431677
  Ewald energy   TEWEN  =    139823.02081796
  -Hartree energ DENC   =   -183667.35076002
  -exchange      EXHF   =         0.00000000
  -V(xc)+E(xc)   XCENC  =     -1695.96630382
  PAW double counting   =     45736.60851580   -42233.65344388
  entropy T*S    EENTRO =        -0.01432818
  eigenvalues    EBANDS =     -3306.38151810
  atomic energy  EATOM  =     45086.50549395
  Solvation  Ediel_sol  =         0.00000000
  ---------------------------------------------------
  free energy    TOTEN  =      -181.97720951 eV

  energy without entropy =     -181.96288133  energy(sigma->0) =     -181.97362746


--------------------------------------------------------------------------------------------------------




--------------------------------------- Iteration      1(   8)  ---------------------------------------


    POTLOK:  cpu time   13.1897: real time   13.1934
    SETDIJ:  cpu time    0.1188: real time    0.1188
    EDDIAG:  cpu time   67.5933: real time   67.5995
  RMM-DIIS:  cpu time  208.0217: real time  208.0357
    ORTHCH:  cpu time   13.4162: real time   13.4163
       DOS:  cpu time    0.0015: real time    0.0015
    CHARGE:  cpu time   25.0922: real time   25.0923
    MIXING:  cpu time    0.5161: real time    0.5161
    --------------------------------------------
      LOOP:  cpu time  327.9496: real time  327.9734

 eigenvalue-minimisations  :   793
 total energy-change (2. order) :-0.3670920E+01  (-0.7634402E+00)
 number of electron     559.9999805 magnetization 
 augmentation part      239.9289289 magnetization 

 Broyden mixing:
  rms(total) = 0.28426E+01    rms(broyden)= 0.28423E+01
  rms(prec ) = 0.34564E+01
  weight for this iteration     100.00

 eigenvalues of (default mixing * dielectric matrix)
  average eigenvalue GAMMA=   0.3082
  0.6399  0.1608  0.1240

 Free energy of the ion-electron system (eV)
  ---------------------------------------------------
  alpha Z        PSCENC =        75.25431677
  Ewald energy   TEWEN  =    139823.02081796
  -Hartree energ DENC   =   -183709.26101646
  -exchange      EXHF   =         0.00000000
  -V(xc)+E(xc)   XCENC  =     -1695.92565988
  PAW double counting   =     45813.52262780   -42307.84441340
  entropy T*S    EENTRO =        -0.20218249
  eigenvalues    EBANDS =     -3270.71811385
  atomic energy  EATOM  =     45086.50549395
  Solvation  Ediel_sol  =         0.00000000
  ---------------------------------------------------
  free energy    TOTEN  =      -185.64812960 eV

  energy without entropy =     -185.44594711  energy(sigma->0) =     -185.59758398


--------------------------------------------------------------------------------------------------------




--------------------------------------- Iteration      1(   9)  ---------------------------------------


    POTLOK:  cpu time   13.2075: real time   13.2090
    SETDIJ:  cpu time    0.1240: real time    0.1240
    EDDIAG:  cpu time   67.2607: real time   67.2608
  RMM-DIIS:  cpu time  195.3457: real time  195.3540
    ORTHCH:  cpu time   13.6301: real time   13.6301
       DOS:  cpu time    0.0014: real time    0.0014
    CHARGE:  cpu time   25.0101: real time   25.0100
    MIXING:  cpu time    0.5425: real time    0.5425
    --------------------------------------------
      LOOP:  cpu time  315.1219: real time  315.1318

 eigenvalue-minimisations  :   746
 total energy-change (2. order) : 0.1587050E+01  (-0.5116185E+00)
 number of electron     559.9999829 magnetization 
 augmentation part      240.6298456 magnetization 

 Broyden mixing:
  rms(total) = 0.26189E+01    rms(broyden)= 0.26186E+01
  rms(prec ) = 0.30601E+01
  weight for this iteration     100.00

 eigenvalues of (default mixing * dielectric matrix)
  average eigenvalue GAMMA=   0.2918
  0.7463  0.1582  0.1582  0.1044

 Free energy of the ion-electron system (eV)
  ---------------------------------------------------
  alpha Z        PSCENC =        75.25431677
  Ewald energy   TEWEN  =    139823.02081796
  -Hartree energ DENC   =   -183726.81952413
  -exchange      EXHF   =         0.00000000
  -V(xc)+E(xc)   XCENC  =     -1695.93421828
  PAW double counting   =     45869.53329714   -42362.04790248
  entropy T*S    EENTRO =        -0.19133270
  eigenvalues    EBANDS =     -3253.38202766
  atomic energy  EATOM  =     45086.50549395
  Solvation  Ediel_sol  =         0.00000000
  ---------------------------------------------------
  free energy    TOTEN  =      -184.06107942 eV

  energy without entropy =     -183.86974672  energy(sigma->0) =     -184.01324625


--------------------------------------------------------------------------------------------------------




--------------------------------------- Iteration      1(  10)  ---------------------------------------


    POTLOK:  cpu time   13.5995: real time   13.6148
    SETDIJ:  cpu time    0.1254: real time    0.1254
    EDDIAG:  cpu time   67.6323: real time   67.6384
  RMM-DIIS:  cpu time  191.2073: real time  191.2193
    ORTHCH:  cpu time   13.6582: real time   13.6584
       DOS:  cpu time    0.0015: real time    0.0015
    CHARGE:  cpu time   25.3458: real time   25.3461
    MIXING:  cpu time    0.5846: real time    0.5846
    --------------------------------------------
      LOOP:  cpu time  312.1544: real time  312.1883

 eigenvalue-minimisations  :   730
 total energy-change (2. order) : 0.2590682E+01  (-0.3861052E+00)
 number of electron     559.9999832 magnetization 
 augmentation part      241.2767575 magnetization 

 Broyden mixing:
  rms(total) = 0.24250E+01    rms(broyden)= 0.24247E+01
  rms(prec ) = 0.28716E+01
  weight for this iteration     100.00

 eigenvalues of (default mixing * dielectric matrix)
  average eigenvalue GAMMA=   0.2731
  0.8177  0.1737  0.1737  0.1001  0.1001

 Free energy of the ion-electron system (eV)
  ---------------------------------------------------
  alpha Z        PSCENC =        75.25431677
  Ewald energy   TEWEN  =    139823.02081796
  -Hartree energ DENC   =   -183752.17896877
  -exchange      EXHF   =         0.00000000
  -V(xc)+E(xc)   XCENC  =     -1695.84465065
  PAW double counting   =     45921.92003536   -42412.74463689
  entropy T*S    EENTRO =        -0.03861225
  eigenvalues    EBANDS =     -3227.36419261
  atomic energy  EATOM  =     45086.50549395
  Solvation  Ediel_sol  =         0.00000000
  ---------------------------------------------------
  free energy    TOTEN  =      -181.47039713 eV

  energy without entropy =     -181.43178488  energy(sigma->0) =     -181.46074406


--------------------------------------------------------------------------------------------------------




--------------------------------------- Iteration      1(  11)  ---------------------------------------


    POTLOK:  cpu time   13.1713: real time   13.1728
    SETDIJ:  cpu time    0.1229: real time    0.1229
    EDDIAG:  cpu time   67.2444: real time   67.2458
  RMM-DIIS:  cpu time  190.6019: real time  190.6044
    ORTHCH:  cpu time   13.5424: real time   13.5423
       DOS:  cpu time    0.0015: real time    0.0015
    CHARGE:  cpu time   25.0224: real time   25.0223
    MIXING:  cpu time    0.6043: real time    0.6043
    --------------------------------------------
      LOOP:  cpu time  310.3111: real time  310.3164

 eigenvalue-minimisations  :   730
 total energy-change (2. order) : 0.2174161E+01  (-0.2240877E+00)
 number of electron     559.9999826 magnetization 
 augmentation part      241.5399757 magnetization 

 Broyden mixing:
  rms(total) = 0.18945E+01    rms(broyden)= 0.18942E+01
  rms(prec ) = 0.22198E+01
  weight for this iteration     100.00

 eigenvalues of (default mixing * dielectric matrix)
  average eigenvalue GAMMA=   0.2652
  0.9018  0.1885  0.1885  0.1148  0.1148  0.0829

 Free energy of the ion-electron system (eV)
  ---------------------------------------------------
  alpha Z        PSCENC =        75.25431677
  Ewald energy   TEWEN  =    139823.02081796
  -Hartree energ DENC   =   -183770.66142090
  -exchange      EXHF   =         0.00000000
  -V(xc)+E(xc)   XCENC  =     -1695.71160638
  PAW double counting   =     45959.48564553   -42448.90566284
  entropy T*S    EENTRO =        -0.02974402
  eigenvalues    EBANDS =     -3208.25407575
  atomic energy  EATOM  =     45086.50549395
  Solvation  Ediel_sol  =         0.00000000
  ---------------------------------------------------
  free energy    TOTEN  =      -179.29623567 eV

  energy without entropy =     -179.26649166  energy(sigma->0) =     -179.28879967


--------------------------------------------------------------------------------------------------------




--------------------------------------- Iteration      1(  12)  ---------------------------------------


    POTLOK:  cpu time   13.1938: real time   13.1978
    SETDIJ:  cpu time    0.1267: real time    0.1267
    EDDIAG:  cpu time   68.4310: real time   68.4311
  RMM-DIIS:  cpu time  192.1151: real time  192.1177
    ORTHCH:  cpu time   13.5642: real time   13.5642
       DOS:  cpu time    0.0015: real time    0.0015
    CHARGE:  cpu time   25.3997: real time   25.3998
    MIXING:  cpu time    0.6085: real time    0.6085
    --------------------------------------------
      LOOP:  cpu time  313.4403: real time  313.4473

 eigenvalue-minimisations  :   727
 total energy-change (2. order) : 0.1430015E+01  (-0.1924529E+00)
 number of electron     559.9999811 magnetization 
 augmentation part      241.7790604 magnetization 

 Broyden mixing:
  rms(total) = 0.15377E+01    rms(broyden)= 0.15373E+01
  rms(prec ) = 0.18008E+01
  weight for this iteration     100.00

 eigenvalues of (default mixing * dielectric matrix)
  average eigenvalue GAMMA=   0.2631
  0.9647  0.2282  0.2282  0.1243  0.1243  0.0911  0.0811

 Free energy of the ion-electron system (eV)
  ---------------------------------------------------
  alpha Z        PSCENC =        75.25431677
  Ewald energy   TEWEN  =    139823.02081796
  -Hartree energ DENC   =   -183788.69779608
  -exchange      EXHF   =         0.00000000
  -V(xc)+E(xc)   XCENC  =     -1695.48698845
  PAW double counting   =     46000.54536522   -42488.34596043
  entropy T*S    EENTRO =        -0.02263826
  eigenvalues    EBANDS =     -3190.63883169
  atomic energy  EATOM  =     45086.50549395
  Solvation  Ediel_sol  =         0.00000000
  ---------------------------------------------------
  free energy    TOTEN  =      -177.86622100 eV

  energy without entropy =     -177.84358274  energy(sigma->0) =     -177.86056144


--------------------------------------------------------------------------------------------------------




--------------------------------------- Iteration      1(  13)  ---------------------------------------


    POTLOK:  cpu time   13.1182: real time   13.1199
    SETDIJ:  cpu time    0.1242: real time    0.1242
    EDDIAG:  cpu time   67.8444: real time   67.8495
  RMM-DIIS:  cpu time  189.3702: real time  189.3790
    ORTHCH:  cpu time   13.4836: real time   13.4843
       DOS:  cpu time    0.0015: real time    0.0015
    CHARGE:  cpu time   25.0185: real time   25.0247
    MIXING:  cpu time    0.6772: real time    0.6772
    --------------------------------------------
      LOOP:  cpu time  309.6378: real time  309.6604

 eigenvalue-minimisations  :   714
 total energy-change (2. order) : 0.6869439E+00  (-0.1428007E+00)
 number of electron     559.9999829 magnetization 
 augmentation part      241.7675160 magnetization 

 Broyden mixing:
  rms(total) = 0.15694E+01    rms(broyden)= 0.15691E+01
  rms(prec ) = 0.18569E+01
  weight for this iteration     100.00

 eigenvalues of (default mixing * dielectric matrix)
  average eigenvalue GAMMA=   0.2741
  1.0526  0.3124  0.3124  0.1248  0.1248  0.1020  0.1020  0.0619

 Free energy of the ion-electron system (eV)
  ---------------------------------------------------
  alpha Z        PSCENC =        75.25431677
  Ewald energy   TEWEN  =    139823.02081796
  -Hartree energ DENC   =   -183813.80450313
  -exchange      EXHF   =         0.00000000
  -V(xc)+E(xc)   XCENC  =     -1695.19415076
  PAW double counting   =     46039.34329234   -42525.48814114
  entropy T*S    EENTRO =         0.03517319
  eigenvalues    EBANDS =     -3166.85157629
  atomic energy  EATOM  =     45086.50549395
  Solvation  Ediel_sol  =         0.00000000
  ---------------------------------------------------
  free energy    TOTEN  =      -177.17927710 eV

  energy without entropy =     -177.21445029  energy(sigma->0) =     -177.18807040


--------------------------------------------------------------------------------------------------------




--------------------------------------- Iteration      1(  14)  ---------------------------------------


    POTLOK:  cpu time   13.1430: real time   13.1450
    SETDIJ:  cpu time    0.1218: real time    0.1218
    EDDIAG:  cpu time   67.6525: real time   67.6600
  RMM-DIIS:  cpu time  187.9705: real time  187.9900
    ORTHCH:  cpu time   13.5937: real time   13.5943
       DOS:  cpu time    0.0015: real time    0.0015
    CHARGE:  cpu time   25.3806: real time   25.3827
    MIXING:  cpu time    0.6991: real time    0.6991
    --------------------------------------------
      LOOP:  cpu time  308.5628: real time  308.5944

 eigenvalue-minimisations  :   710
 total energy-change (2. order) :-0.9321918E+00  (-0.1229975E+00)
 number of electron     559.9999824 magnetization 
 augmentation part      241.6290797 magnetization 

 Broyden mixing:
  rms(total) = 0.30028E+01    rms(broyden)= 0.30026E+01
  rms(prec ) = 0.34993E+01
  weight for this iteration     100.00

 eigenvalues of (default mixing * dielectric matrix)
  average eigenvalue GAMMA=   0.2817
  1.1918  0.3778  0.3778  0.1124  0.1124  0.1241  0.1241  0.0624  0.0528

 Free energy of the ion-electron system (eV)
  ---------------------------------------------------
  alpha Z        PSCENC =        75.25431677
  Ewald energy   TEWEN  =    139823.02081796
  -Hartree energ DENC   =   -183844.51405007
  -exchange      EXHF   =         0.00000000
  -V(xc)+E(xc)   XCENC  =     -1694.77020291
  PAW double counting   =     46088.83680633   -42572.71677347
  entropy T*S    EENTRO =         0.32451067
  eigenvalues    EBANDS =     -3140.05238810
  atomic energy  EATOM  =     45086.50549395
  Solvation  Ediel_sol  =         0.00000000
  ---------------------------------------------------
  free energy    TOTEN  =      -178.11146887 eV

  energy without entropy =     -178.43597954  energy(sigma->0) =     -178.19259654


--------------------------------------------------------------------------------------------------------




--------------------------------------- Iteration      1(  15)  ---------------------------------------


    POTLOK:  cpu time   13.0003: real time   13.0019
    SETDIJ:  cpu time    0.1190: real time    0.1190
    EDDIAG:  cpu time   67.3175: real time   67.3250
  RMM-DIIS:  cpu time  186.9745: real time  186.9942
    ORTHCH:  cpu time   13.5944: real time   13.5960
       DOS:  cpu time    0.0014: real time    0.0014
    CHARGE:  cpu time   25.2067: real time   25.2097
    MIXING:  cpu time    0.7513: real time    0.7514
    --------------------------------------------
      LOOP:  cpu time  306.9650: real time  306.9984

 eigenvalue-minimisations  :   712
 total energy-change (2. order) : 0.5049515E+00  (-0.1410694E+00)
 number of electron     559.9999825 magnetization 
 augmentation part      241.2381229 magnetization 

 Broyden mixing:
  rms(total) = 0.22581E+01    rms(broyden)= 0.22579E+01
  rms(prec ) = 0.26394E+01
  weight for this iteration     100.00

 eigenvalues of (default mixing * dielectric matrix)
  average eigenvalue GAMMA=   0.2706
  1.2544  0.3933  0.3933  0.1180  0.1180  0.1245  0.1245  0.0707  0.0568  0.0519

 Free energy of the ion-electron system (eV)
  ---------------------------------------------------
  alpha Z        PSCENC =        75.25431677
  Ewald energy   TEWEN  =    139823.02081796
  -Hartree energ DENC   =   -183884.16170270
  -exchange      EXHF   =         0.00000000
  -V(xc)+E(xc)   XCENC  =     -1694.23667321
  PAW double counting   =     46148.35561160   -42629.49273915
  entropy T*S    EENTRO =         0.10632771
  eigenvalues    EBANDS =     -3102.95797027
  atomic energy  EATOM  =     45086.50549395
  Solvation  Ediel_sol  =         0.00000000
  ---------------------------------------------------
  free energy    TOTEN  =      -177.60651734 eV

  energy without entropy =     -177.71284506  energy(sigma->0) =     -177.63309927


--------------------------------------------------------------------------------------------------------




--------------------------------------- Iteration      1(  16)  ---------------------------------------


    POTLOK:  cpu time   13.0170: real time   13.0188
    SETDIJ:  cpu time    0.1206: real time    0.1206
    EDDIAG:  cpu time   66.8769: real time   66.8845
  RMM-DIIS:  cpu time  187.5582: real time  187.5831
    ORTHCH:  cpu time   13.4944: real time   13.4946
       DOS:  cpu time    0.0015: real time    0.0015
    CHARGE:  cpu time   25.1936: real time   25.1939
    MIXING:  cpu time    0.8178: real time    0.8178
    --------------------------------------------
      LOOP:  cpu time  307.0800: real time  307.1148

 eigenvalue-minimisations  :   717
 total energy-change (2. order) : 0.7320723E+00  (-0.7638884E-01)
 number of electron     559.9999818 magnetization 
 augmentation part      241.1240364 magnetization 

 Broyden mixing:
  rms(total) = 0.14542E+01    rms(broyden)= 0.14540E+01
  rms(prec ) = 0.16912E+01
  weight for this iteration     100.00

 eigenvalues of (default mixing * dielectric matrix)
  average eigenvalue GAMMA=   0.2747
  1.3741  0.4860  0.3648  0.1513  0.1513  0.1177  0.1007  0.1007  0.0649  0.0649
  0.0455

 Free energy of the ion-electron system (eV)
  ---------------------------------------------------
  alpha Z        PSCENC =        75.25431677
  Ewald energy   TEWEN  =    139823.02081796
  -Hartree energ DENC   =   -183901.72325796
  -exchange      EXHF   =         0.00000000
  -V(xc)+E(xc)   XCENC  =     -1693.99536990
  PAW double counting   =     46174.05663456   -42654.03231770
  entropy T*S    EENTRO =        -0.05261990
  eigenvalues    EBANDS =     -3085.90814287
  atomic energy  EATOM  =     45086.50549395
  Solvation  Ediel_sol  =         0.00000000
  ---------------------------------------------------
  free energy    TOTEN  =      -176.87444507 eV

  energy without entropy =     -176.82182518  energy(sigma->0) =     -176.86129010


--------------------------------------------------------------------------------------------------------




--------------------------------------- Iteration      1(  17)  ---------------------------------------


    POTLOK:  cpu time   12.9920: real time   12.9929
    SETDIJ:  cpu time    0.1192: real time    0.1192
    EDDIAG:  cpu time   66.8732: real time   66.8769
  RMM-DIIS:  cpu time  186.6557: real time  186.6842
    ORTHCH:  cpu time   13.5559: real time   13.5559
       DOS:  cpu time    0.0015: real time    0.0015
    CHARGE:  cpu time   25.5890: real time   25.5892
    MIXING:  cpu time    0.8303: real time    0.8303
    --------------------------------------------
      LOOP:  cpu time  306.6167: real time  306.6502

 eigenvalue-minimisations  :   711
 total energy-change (2. order) : 0.4384653E+00  (-0.9387846E-01)
 number of electron     559.9999826 magnetization 
 augmentation part      241.0757395 magnetization 

 Broyden mixing:
  rms(total) = 0.13807E+01    rms(broyden)= 0.13805E+01
  rms(prec ) = 0.16188E+01
  weight for this iteration     100.00

 eigenvalues of (default mixing * dielectric matrix)
  average eigenvalue GAMMA=   0.2710
  1.4153  0.5636  0.2961  0.2018  0.2018  0.1067  0.1067  0.1004  0.0780  0.0780
  0.0592  0.0443

 Free energy of the ion-electron system (eV)
  ---------------------------------------------------
  alpha Z        PSCENC =        75.25431677
  Ewald energy   TEWEN  =    139823.02081796
  -Hartree energ DENC   =   -183928.20604560
  -exchange      EXHF   =         0.00000000
  -V(xc)+E(xc)   XCENC  =     -1693.60457311
  PAW double counting   =     46214.45388325   -42692.42761252
  entropy T*S    EENTRO =        -0.02197158
  eigenvalues    EBANDS =     -3061.41028890
  atomic energy  EATOM  =     45086.50549395
  Solvation  Ediel_sol  =         0.00000000
  ---------------------------------------------------
  free energy    TOTEN  =      -176.43597978 eV

  energy without entropy =     -176.41400820  energy(sigma->0) =     -176.43048688


--------------------------------------------------------------------------------------------------------




--------------------------------------- Iteration      1(  18)  ---------------------------------------


    POTLOK:  cpu time   13.1943: real time   13.1959
    SETDIJ:  cpu time    0.1243: real time    0.1243
    EDDIAG:  cpu time   67.4848: real time   67.4894
  RMM-DIIS:  cpu time  186.6995: real time  186.7220
    ORTHCH:  cpu time   13.4400: real time   13.4403
       DOS:  cpu time    0.0014: real time    0.0014
    CHARGE:  cpu time   25.8068: real time   25.8076
    MIXING:  cpu time    0.9228: real time    0.9228
    --------------------------------------------
      LOOP:  cpu time  307.6739: real time  307.7037

 eigenvalue-minimisations  :   704
 total energy-change (2. order) : 0.2499548E+00  (-0.4886786E-01)
 number of electron     559.9999817 magnetization 
 augmentation part      241.0457696 magnetization 

 Broyden mixing:
  rms(total) = 0.13224E+01    rms(broyden)= 0.13222E+01
  rms(prec ) = 0.15587E+01
  weight for this iteration     100.00

 eigenvalues of (default mixing * dielectric matrix)
  average eigenvalue GAMMA=   0.2808
  1.4493  0.6914  0.3203  0.3203  0.1889  0.1156  0.1156  0.1210  0.0827  0.0827
  0.0634  0.0572  0.0428

 Free energy of the ion-electron system (eV)
  ---------------------------------------------------
  alpha Z        PSCENC =        75.25431677
  Ewald energy   TEWEN  =    139823.02081796
  -Hartree energ DENC   =   -183939.53160300
  -exchange      EXHF   =         0.00000000
  -V(xc)+E(xc)   XCENC  =     -1693.46855838
  PAW double counting   =     46228.21963254   -42705.44815700
  entropy T*S    EENTRO =         0.01379008
  eigenvalues    EBANDS =     -3050.75175792
  atomic energy  EATOM  =     45086.50549395
  Solvation  Ediel_sol  =         0.00000000
  ---------------------------------------------------
  free energy    TOTEN  =      -176.18602499 eV

  energy without entropy =     -176.19981507  energy(sigma->0) =     -176.18947251


--------------------------------------------------------------------------------------------------------




--------------------------------------- Iteration      1(  19)  ---------------------------------------


    POTLOK:  cpu time   12.9995: real time   13.0007
    SETDIJ:  cpu time    0.1238: real time    0.1238
    EDDIAG:  cpu time   67.3809: real time   67.3840
  RMM-DIIS:  cpu time  183.9807: real time  183.9891
    ORTHCH:  cpu time   13.5036: real time   13.5077
       DOS:  cpu time    0.0015: real time    0.0015
    CHARGE:  cpu time   25.7014: real time   25.7021
    MIXING:  cpu time    0.9972: real time    0.9972
    --------------------------------------------
      LOOP:  cpu time  304.6886: real time  304.7061

 eigenvalue-minimisations  :   697
 total energy-change (2. order) : 0.2361750E+00  (-0.5291406E-01)
 number of electron     559.9999820 magnetization 
 augmentation part      241.0381894 magnetization 

 Broyden mixing:
  rms(total) = 0.91951E+00    rms(broyden)= 0.91931E+00
  rms(prec ) = 0.10266E+01
  weight for this iteration     100.00

 eigenvalues of (default mixing * dielectric matrix)
  average eigenvalue GAMMA=   0.2935
  1.5286  0.8464  0.3821  0.3821  0.1414  0.1414  0.1314  0.1147  0.1147  0.0812
  0.0812  0.0601  0.0601  0.0429

 Free energy of the ion-electron system (eV)
  ---------------------------------------------------
  alpha Z        PSCENC =        75.25431677
  Ewald energy   TEWEN  =    139823.02081796
  -Hartree energ DENC   =   -183953.42780822
  -exchange      EXHF   =         0.00000000
  -V(xc)+E(xc)   XCENC  =     -1693.31245081
  PAW double counting   =     46241.42990813   -42717.72995383
  entropy T*S    EENTRO =        -0.02985000
  eigenvalues    EBANDS =     -3037.66032391
  atomic energy  EATOM  =     45086.50549395
  Solvation  Ediel_sol  =         0.00000000
  ---------------------------------------------------
  free energy    TOTEN  =      -175.94984995 eV

  energy without entropy =     -175.91999994  energy(sigma->0) =     -175.94238744


--------------------------------------------------------------------------------------------------------




--------------------------------------- Iteration      1(  20)  ---------------------------------------


    POTLOK:  cpu time   13.1897: real time   13.1920
    SETDIJ:  cpu time    0.1207: real time    0.1207
    EDDIAG:  cpu time   67.6111: real time   67.6126
  RMM-DIIS:  cpu time  184.8807: real time  184.8938
    ORTHCH:  cpu time   13.5803: real time   13.5803
       DOS:  cpu time    0.0015: real time    0.0015
    CHARGE:  cpu time   25.1330: real time   25.1330
    MIXING:  cpu time    1.0671: real time    1.0671
    --------------------------------------------
      LOOP:  cpu time  305.5840: real time  305.6011

 eigenvalue-minimisations  :   696
 total energy-change (2. order) : 0.2302450E-01  (-0.4509034E-01)
 number of electron     559.9999833 magnetization 
 augmentation part      241.2092903 magnetization 

 Broyden mixing:
  rms(total) = 0.10863E+01    rms(broyden)= 0.10862E+01
  rms(prec ) = 0.12440E+01
  weight for this iteration     100.00

 eigenvalues of (default mixing * dielectric matrix)
  average eigenvalue GAMMA=   0.3008
  1.5269  1.0355  0.4200  0.4200  0.1791  0.1791  0.1104  0.1104  0.1182  0.0841
  0.0841  0.0814  0.0601  0.0601  0.0428

 Free energy of the ion-electron system (eV)
  ---------------------------------------------------
  alpha Z        PSCENC =        75.25431677
  Ewald energy   TEWEN  =    139823.02081796
  -Hartree energ DENC   =   -183966.26244524
  -exchange      EXHF   =         0.00000000
  -V(xc)+E(xc)   XCENC  =     -1693.11338651
  PAW double counting   =     46255.43248598   -42730.65719566
  entropy T*S    EENTRO =         0.04781604
  eigenvalues    EBANDS =     -3026.15472875
  atomic energy  EATOM  =     45086.50549395
  Solvation  Ediel_sol  =         0.00000000
  ---------------------------------------------------
  free energy    TOTEN  =      -175.92682545 eV

  energy without entropy =     -175.97464149  energy(sigma->0) =     -175.93877946


--------------------------------------------------------------------------------------------------------




--------------------------------------- Iteration      1(  21)  ---------------------------------------


    POTLOK:  cpu time   13.2673: real time   13.2689
    SETDIJ:  cpu time    0.1218: real time    0.1218
    EDDIAG:  cpu time   67.2145: real time   67.2153
  RMM-DIIS:  cpu time  184.8225: real time  184.8309
    ORTHCH:  cpu time   13.6837: real time   13.6837
       DOS:  cpu time    0.0015: real time    0.0015
    CHARGE:  cpu time   25.2898: real time   25.2898
    MIXING:  cpu time    1.1446: real time    1.1446
    --------------------------------------------
      LOOP:  cpu time  305.5456: real time  305.5565

 eigenvalue-minimisations  :   697
 total energy-change (2. order) : 0.3975712E-01  (-0.3244675E-01)
 number of electron     559.9999827 magnetization 
 augmentation part      241.2109371 magnetization 

 Broyden mixing:
  rms(total) = 0.11046E+01    rms(broyden)= 0.11045E+01
  rms(prec ) = 0.12899E+01
  weight for this iteration     100.00

 eigenvalues of (default mixing * dielectric matrix)
  average eigenvalue GAMMA=   0.3080
  1.6398  1.0584  0.4701  0.4701  0.2188  0.2188  0.1140  0.1140  0.1149  0.1149
  0.0819  0.0819  0.0694  0.0591  0.0591  0.0428

 Free energy of the ion-electron system (eV)
  ---------------------------------------------------
  alpha Z        PSCENC =        75.25431677
  Ewald energy   TEWEN  =    139823.02081796
  -Hartree energ DENC   =   -183981.11732925
  -exchange      EXHF   =         0.00000000
  -V(xc)+E(xc)   XCENC  =     -1692.99174190
  PAW double counting   =     46261.87681484   -42736.42453766
  entropy T*S    EENTRO =         0.06293196
  eigenvalues    EBANDS =     -3012.07383500
  atomic energy  EATOM  =     45086.50549395
  Solvation  Ediel_sol  =         0.00000000
  ---------------------------------------------------
  free energy    TOTEN  =      -175.88706833 eV

  energy without entropy =     -175.95000029  energy(sigma->0) =     -175.90280132


--------------------------------------------------------------------------------------------------------




--------------------------------------- Iteration      1(  22)  ---------------------------------------


    POTLOK:  cpu time   13.4489: real time   13.4512
    SETDIJ:  cpu time    0.1223: real time    0.1223
    EDDIAG:  cpu time   67.7632: real time   67.7649
  RMM-DIIS:  cpu time  183.9142: real time  183.9335
    ORTHCH:  cpu time   13.6915: real time   13.6915
       DOS:  cpu time    0.0016: real time    0.0016
    CHARGE:  cpu time   25.3432: real time   25.3436
    MIXING:  cpu time    1.1436: real time    1.1436
    --------------------------------------------
      LOOP:  cpu time  305.4284: real time  305.4522

 eigenvalue-minimisations  :   695
 total energy-change (2. order) : 0.1418936E+00  (-0.2852728E-01)
 number of electron     559.9999839 magnetization 
 augmentation part      241.2702081 magnetization 

 Broyden mixing:
  rms(total) = 0.97650E+00    rms(broyden)= 0.97633E+00
  rms(prec ) = 0.11145E+01
  weight for this iteration     100.00

 eigenvalues of (default mixing * dielectric matrix)
  average eigenvalue GAMMA=   0.3116
  1.6631  1.2474  0.4762  0.4762  0.2418  0.2418  0.1159  0.1159  0.1170  0.1170
  0.0888  0.0888  0.0735  0.0735  0.0590  0.0590  0.0427

 Free energy of the ion-electron system (eV)
  ---------------------------------------------------
  alpha Z        PSCENC =        75.25431677
  Ewald energy   TEWEN  =    139823.02081796
  -Hartree energ DENC   =   -183992.70108878
  -exchange      EXHF   =         0.00000000
  -V(xc)+E(xc)   XCENC  =     -1692.87161562
  PAW double counting   =     46268.44131292   -42742.36611072
  entropy T*S    EENTRO =         0.03920219
  eigenvalues    EBANDS =     -3001.06750341
  atomic energy  EATOM  =     45086.50549395
  Solvation  Ediel_sol  =         0.00000000
  ---------------------------------------------------
  free energy    TOTEN  =      -175.74517473 eV

  energy without entropy =     -175.78437691  energy(sigma->0) =     -175.75497527


--------------------------------------------------------------------------------------------------------




--------------------------------------- Iteration      1(  23)  ---------------------------------------


    POTLOK:  cpu time   13.3119: real time   13.3133
    SETDIJ:  cpu time    0.1218: real time    0.1218
    EDDIAG:  cpu time   67.3916: real time   67.3920
  RMM-DIIS:  cpu time  184.3529: real time  184.3567
    ORTHCH:  cpu time   13.6761: real time   13.6761
       DOS:  cpu time    0.0015: real time    0.0015
    CHARGE:  cpu time   25.2821: real time   25.2820
    MIXING:  cpu time    1.1998: real time    1.1998
    --------------------------------------------
      LOOP:  cpu time  305.3376: real time  305.3433

 eigenvalue-minimisations  :   697
 total energy-change (2. order) : 0.2085767E+00  (-0.2315602E-01)
 number of electron     559.9999829 magnetization 
 augmentation part      241.2106918 magnetization 

 Broyden mixing:
  rms(total) = 0.78059E+00    rms(broyden)= 0.78045E+00
  rms(prec ) = 0.91749E+00
  weight for this iteration     100.00

 eigenvalues of (default mixing * dielectric matrix)
  average eigenvalue GAMMA=   0.3104
[...]
 -0.007  -0.012   0.003   0.004   0.005  -0.006  -0.011   0.003
 -0.011  -0.020   0.006   0.007   0.009  -0.011  -0.019   0.006
 -0.015  -0.005   0.012   0.000   0.022  -0.015  -0.005   0.012
  0.000  -0.023  -0.006  -0.016  -0.000   0.000  -0.022  -0.006
 -0.022   0.000   0.009  -0.005  -0.016  -0.021   0.000   0.009
 -0.018  -0.006   0.015   0.000   0.027  -0.017  -0.006   0.015
  0.000  -0.027  -0.007  -0.019  -0.000   0.000  -0.026  -0.007
 -0.027   0.000   0.011  -0.006  -0.019  -0.026   0.000   0.010
 total augmentation occupancy for first ion, spin component:           1
  1.527  -0.030   0.005   0.015   0.021   0.079  -0.008  -0.002   0.036  -0.009   0.087  -0.031   0.011   0.002   0.004  -0.019
 -0.030   1.399   0.030   0.070  -0.001  -0.007   0.072   0.011  -0.014  -0.008   0.215  -0.065   0.019   0.001   0.002  -0.006
  0.005   0.030   1.538   0.002   0.001  -0.002   0.013   0.076  -0.013   0.017  -0.050   0.016  -0.003  -0.007  -0.005   0.016
  0.015   0.070   0.002   1.334   0.044   0.033  -0.013  -0.012   0.093  -0.023  -0.082   0.021  -0.001  -0.009  -0.004   0.001
  0.021  -0.001   0.001   0.044   1.435  -0.009  -0.008   0.016  -0.022   0.070  -0.099   0.031  -0.003  -0.009  -0.009   0.026
  0.079  -0.007  -0.002   0.033  -0.009   0.218   0.019  -0.002  -0.045   0.003  -0.047   0.002   0.017  -0.010   0.034  -0.004
 -0.008   0.072   0.013  -0.013  -0.008   0.019   0.264  -0.023  -0.003   0.006  -0.109   0.007  -0.001   0.052  -0.010  -0.000
 -0.002   0.011   0.076  -0.012   0.016  -0.002  -0.023   0.216   0.014  -0.020   0.028  -0.001  -0.012   0.009  -0.018   0.003
  0.036  -0.014  -0.013   0.093  -0.022  -0.045  -0.003   0.014   0.262   0.007   0.043  -0.004  -0.009   0.036   0.004   0.000
 -0.009  -0.008   0.017  -0.023   0.070   0.003   0.006  -0.020   0.007   0.259   0.048  -0.003  -0.038   0.002   0.049   0.007
  0.087   0.215  -0.050  -0.082  -0.099  -0.047  -0.109   0.028   0.043   0.048   0.944  -0.140   0.083   0.014   0.065  -0.012
 -0.031  -0.065   0.016   0.021   0.031   0.002   0.007  -0.001  -0.004  -0.003  -0.140   0.023  -0.014  -0.003  -0.010   0.003
  0.011   0.019  -0.003  -0.001  -0.003   0.017  -0.001  -0.012  -0.009  -0.038   0.083  -0.014   0.029  -0.008  -0.004  -0.003
  0.002   0.001  -0.007  -0.009  -0.009  -0.010   0.052   0.009   0.036   0.002   0.014  -0.003  -0.008   0.036   0.005   0.000
  0.004   0.002  -0.005  -0.004  -0.009   0.034  -0.010  -0.018   0.004   0.049   0.065  -0.010  -0.004   0.005   0.034  -0.000
 -0.019  -0.006   0.016   0.001   0.026  -0.004  -0.000   0.003   0.000   0.007  -0.012   0.003  -0.003   0.000  -0.000   0.001
  0.001  -0.028  -0.007  -0.018   0.001   0.001  -0.008  -0.002  -0.006  -0.000  -0.003   0.001   0.000  -0.003  -0.000   0.000
 -0.028   0.001   0.012  -0.005  -0.020  -0.006   0.001   0.003  -0.001  -0.007  -0.008   0.001  -0.000  -0.000  -0.003   0.000


------------------------ aborting loop because EDIFF is reached ----------------------------------------


    CHARGE:  cpu time   25.5298: real time   25.5299
    FORLOC:  cpu time    6.8143: real time    6.8144
    FORNL :  cpu time   66.2860: real time   66.2869
    STRESS:  cpu time  199.1149: real time  199.1294
    FORCOR:  cpu time   22.1150: real time   22.1152
    FORHAR:  cpu time    9.7352: real time    9.7352
    MIXING:  cpu time    3.8919: real time    3.8919
    OFIELD:  cpu time    0.0000: real time    0.0000

  FORCE on cell =-STRESS in cart. coord.  units (eV):
  Direction    XX          YY          ZZ          XY          YZ          ZX
  --------------------------------------------------------------------------------------
  Alpha Z    75.25432    75.25432    75.25432
  Ewald   47479.41660 46806.89261 45536.60567  1397.61341   576.55840   795.88530
  Hartree 62247.94763 61590.40616 60346.68633  1296.12437   544.89457   680.88921
  E(xc)   -2905.90804 -2905.78324 -2905.73937     0.38579    -0.08356     0.90177
  Local  ************************************ -2679.55089 -1117.77513 -1461.41975
  n-local  -886.53515  -886.03311  -879.82405    -4.81304    -1.36066     2.00857
  augment  4104.72545  4104.91641  4100.67439     0.79330     1.02452    -4.15173
  Kinetic  7808.66024  7811.95331  7808.30181    -6.09476    -0.88207   -11.99004
  Fock        0.00000     0.00000     0.00000     0.00000     0.00000     0.00000
  -------------------------------------------------------------------------------------
  Total    -108.50132  -110.29043  -111.47690     4.45818     2.37607     2.12334
  in kB      -6.43846    -6.54462    -6.61503     0.26455     0.14100     0.12600
  external pressure =       -6.53 kB  Pullay stress =        0.00 kB


 VOLUME and BASIS-vectors are now :
 -----------------------------------------------------------------------------
  energy-cutoff  :      400.00
  volume of cell :    27000.00
      direct lattice vectors                 reciprocal lattice vectors
    30.000000000  0.000000000  0.000000000     0.033333333  0.000000000  0.000000000
     0.000000000 30.000000000  0.000000000     0.000000000  0.033333333  0.000000000
     0.000000000  0.000000000 30.000000000     0.000000000  0.000000000  0.033333333

  length of vectors
    30.000000000 30.000000000 30.000000000     0.033333333  0.033333333  0.033333333


 FORCES acting on ions
    electron-ion (+dipol)            ewald-force                    non-local-force                 convergence-correction
 -----------------------------------------------------------------------------------------------
   0.398E+03 0.976E+03 0.419E+03   -.396E+03 -.973E+03 -.418E+03   -.152E+01 -.182E+01 -.220E+00   0.395E-02 -.401E-02 0.157E-02
   -.975E+03 -.368E+03 0.465E+03   0.972E+03 0.365E+03 -.464E+03   0.191E+01 0.152E+01 -.204E+00   0.244E-03 0.969E-03 0.121E-01
   -.390E+03 0.979E+03 0.420E+03   0.388E+03 -.976E+03 -.420E+03   0.151E+01 -.181E+01 -.233E+00   0.302E-02 -.876E-03 0.457E-02
   0.978E+03 -.391E+03 0.420E+03   -.975E+03 0.389E+03 -.419E+03   -.182E+01 0.152E+01 -.232E+00   -.226E-02 0.919E-02 0.317E-03
   0.427E+01 0.592E+03 0.969E+03   -.429E+01 -.591E+03 -.966E+03   0.184E-01 -.325E+00 -.236E+01   0.257E-02 -.340E-02 -.189E-02
   0.753E+01 0.597E+03 -.968E+03   -.756E+01 -.596E+03 0.964E+03   0.220E-01 -.304E+00 0.233E+01   0.346E-02 0.448E-02 -.136E-02
   0.362E+01 0.114E+04 0.149E+01   -.362E+01 -.113E+04 -.149E+01   -.468E-02 -.311E+01 -.462E-02   0.327E-02 0.527E-03 0.349E-02
   0.114E+04 0.280E+01 0.137E+01   -.113E+04 -.279E+01 -.137E+01   -.311E+01 -.811E-02 -.873E-02   -.492E-02 0.452E-02 0.480E-02
   -.116E+04 0.492E+02 0.236E+02   0.115E+04 -.493E+02 -.236E+02   0.314E+01 0.526E-01 -.133E-02   -.620E-02 0.720E-03 0.927E-02
   0.331E+02 -.115E+04 0.133E+02   -.332E+02 0.115E+04 -.133E+02   0.613E-02 0.314E+01 -.137E-02   0.293E-02 -.559E-02 0.148E-02
   -.576E+03 0.586E+03 0.820E+03   0.573E+03 -.584E+03 -.816E+03   0.154E+01 -.156E+01 -.221E+01   0.135E-02 -.331E-02 0.802E-03
   -.574E+03 0.596E+03 -.819E+03   0.571E+03 -.594E+03 0.816E+03   0.152E+01 -.161E+01 0.218E+01   0.366E-02 0.820E-02 -.348E-02
   0.586E+03 -.577E+03 0.819E+03   -.583E+03 0.574E+03 -.815E+03   -.156E+01 0.155E+01 -.221E+01   0.341E-03 0.790E-02 -.153E-02
   0.593E+03 -.576E+03 -.817E+03   -.591E+03 0.574E+03 0.814E+03   -.159E+01 0.153E+01 0.219E+01   0.604E-02 -.735E-03 -.126E-02
   0.582E+03 0.581E+03 0.815E+03   -.579E+03 -.579E+03 -.812E+03   -.157E+01 -.156E+01 -.219E+01   0.119E-02 -.548E-02 -.557E-02
   0.584E+03 0.583E+03 -.814E+03   -.582E+03 -.581E+03 0.811E+03   -.156E+01 -.156E+01 0.220E+01   0.336E-02 0.124E-02 0.242E-02
   -.571E+03 -.575E+03 0.840E+03   0.569E+03 0.573E+03 -.836E+03   0.156E+01 0.156E+01 -.226E+01   -.250E-03 0.472E-02 0.485E-02
   -.521E+03 -.553E+03 -.926E+03   0.518E+03 0.550E+03 0.923E+03   0.167E+01 0.157E+01 0.193E+01   -.258E-02 -.664E-02 -.573E-02
   0.399E+03 0.977E+03 -.416E+03   -.397E+03 -.974E+03 0.416E+03   -.149E+01 -.182E+01 0.232E+00   0.391E-02 0.475E-03 0.168E-02
   -.101E+04 -.178E+03 -.474E+03   0.101E+04 0.177E+03 0.473E+03   0.212E+01 0.220E+00 0.657E+00   -.857E-02 -.477E-02 0.160E-02
   -.312E+03 0.336E+03 0.465E+03   0.312E+03 -.337E+03 -.466E+03   -.371E+00 0.348E+00 0.498E+00   0.439E-02 0.183E-02 0.114E-01
   0.976E+03 0.397E+03 0.419E+03   -.973E+03 -.395E+03 -.418E+03   -.182E+01 -.153E+01 -.215E+00   -.368E-02 -.118E-02 0.354E-03
   -.368E+03 -.980E+03 0.452E+03   0.366E+03 0.977E+03 -.451E+03   0.149E+01 0.199E+01 -.289E+00   -.417E-03 0.110E-02 0.723E-02
   -.389E+03 0.982E+03 -.417E+03   0.387E+03 -.979E+03 0.416E+03   0.151E+01 -.179E+01 0.236E+00   0.382E-02 0.330E-02 -.617E-03
   0.980E+03 -.391E+03 -.416E+03   -.978E+03 0.388E+03 0.416E+03   -.180E+01 0.151E+01 0.241E+00   0.404E-02 0.504E-02 0.482E-02
   -.972E+03 0.414E+03 0.432E+03   0.969E+03 -.412E+03 -.432E+03   0.184E+01 -.148E+01 -.222E+00   0.164E-02 0.191E-02 0.120E-01
   0.411E+03 -.973E+03 0.428E+03   -.409E+03 0.971E+03 -.427E+03   -.149E+01 0.183E+01 -.228E+00   0.405E-02 0.346E-02 0.328E-02
   0.329E+03 0.328E+03 0.459E+03   -.330E+03 -.329E+03 -.459E+03   0.352E+00 0.352E+00 0.533E+00   0.847E-02 -.148E-02 0.432E-02
   0.840E+01 0.650E+03 0.340E+01   -.843E+01 -.651E+03 -.341E+01   0.158E-01 0.734E+00 0.645E-02   0.762E-02 0.192E-02 0.754E-02
   -.582E+03 0.109E+02 0.981E+03   0.581E+03 -.109E+02 -.978E+03   0.292E+00 -.480E-02 -.237E+01   0.205E-02 0.165E-02 0.241E-02
   -.573E+03 0.421E+02 -.995E+03   0.572E+03 -.423E+02 0.991E+03   0.341E+00 0.120E+00 0.236E+01   0.168E-03 0.559E-02 -.687E-02
   0.592E+03 0.335E+01 0.969E+03   -.591E+03 -.337E+01 -.965E+03   -.322E+00 0.115E-01 -.236E+01   0.175E-03 0.473E-02 -.647E-02
   0.597E+03 0.572E+01 -.968E+03   -.596E+03 -.575E+01 0.964E+03   -.304E+00 0.222E-01 0.234E+01   0.690E-02 0.422E-02 0.108E-02
   0.766E+03 0.765E+03 0.172E+01   -.764E+03 -.763E+03 -.168E+01   -.116E+01 -.114E+01 -.318E-01   0.464E-02 -.421E-02 0.648E-02
   -.620E+03 -.719E+03 0.237E+03   0.621E+03 0.718E+03 -.231E+03   -.187E+01 0.401E+00 -.601E+01   -.338E-02 -.445E-02 0.898E-02
   -.756E+03 0.780E+03 0.537E+01   0.754E+03 -.778E+03 -.539E+01   0.113E+01 -.119E+01 0.143E-01   0.279E-02 0.563E-02 0.811E-02
   0.776E+03 -.758E+03 0.414E+01   -.774E+03 0.756E+03 -.415E+01   -.116E+01 0.113E+01 0.770E-02   0.590E-02 0.524E-02 0.598E-02
   0.777E+01 0.652E+01 0.108E+04   -.781E+01 -.654E+01 -.108E+04   0.181E-01 0.133E-01 -.159E+01   0.303E-02 0.180E-02 -.114E-02
   0.196E+02 0.164E+02 -.108E+04   -.196E+02 -.164E+02 0.108E+04   -.431E-01 -.538E-01 0.165E+01   0.736E-02 0.694E-02 -.460E-02
   0.977E+03 0.398E+03 -.416E+03   -.974E+03 -.396E+03 0.416E+03   -.182E+01 -.150E+01 0.227E+00   0.285E-02 0.246E-02 0.598E-02
   -.285E+03 -.101E+04 -.437E+03   0.282E+03 0.101E+04 0.437E+03   0.164E+01 0.163E+01 0.142E+00   0.158E-02 -.906E-02 0.151E-02
   -.305E+03 0.349E+03 -.455E+03   0.306E+03 -.350E+03 0.456E+03   -.400E+00 0.302E+00 -.516E+00   0.804E-02 0.106E-01 0.473E-03
   0.336E+03 -.315E+03 0.463E+03   -.337E+03 0.315E+03 -.464E+03   0.360E+00 -.357E+00 0.504E+00   0.684E-02 0.946E-02 0.554E-02
   0.333E+03 0.332E+03 -.454E+03   -.334E+03 -.332E+03 0.454E+03   0.385E+00 0.385E+00 -.504E+00   0.922E-02 0.579E-02 0.447E-02
   -.973E+03 0.437E+03 -.420E+03   0.970E+03 -.434E+03 0.420E+03   0.188E+01 -.161E+01 0.184E+00   -.361E-02 0.790E-02 -.119E-03
   0.425E+03 -.976E+03 -.419E+03   -.422E+03 0.973E+03 0.418E+03   -.154E+01 0.184E+01 0.193E+00   0.697E-02 -.433E-02 0.117E-02
   -.298E+03 -.304E+03 0.485E+03   0.299E+03 0.305E+03 -.485E+03   -.469E+00 -.503E+00 0.449E+00   0.342E-02 0.450E-02 0.139E-01
   0.650E+03 0.637E+01 0.307E+01   -.651E+03 -.637E+01 -.309E+01   0.734E+00 0.488E-03 0.478E-02   0.712E-02 0.593E-02 0.109E-01
   -.619E+03 0.587E+02 0.281E+02   0.620E+03 -.590E+02 -.283E+02   -.694E+00 0.224E+00 0.117E+00   0.166E-02 0.370E-02 0.138E-01
   0.113E+02 -.584E+03 0.979E+03   -.113E+02 0.584E+03 -.975E+03   -.749E-02 0.304E+00 -.236E+01   0.230E-03 0.678E-02 0.351E-02
   0.374E+02 -.582E+03 -.986E+03   -.375E+02 0.581E+03 0.983E+03   0.675E-01 0.334E+00 0.235E+01   0.707E-02 -.413E-02 -.536E-02
   0.243E+02 0.203E+02 0.974E+01   -.243E+02 -.202E+02 -.974E+01   -.172E-01 -.157E-01 -.687E-02   0.121E-01 0.650E-02 0.132E-01
   0.347E+03 -.311E+03 -.455E+03   -.348E+03 0.312E+03 0.456E+03   0.295E+00 -.383E+00 -.513E+00   0.118E-01 0.276E-02 0.441E-02
   -.241E+03 -.262E+03 -.469E+03   0.241E+03 0.262E+03 0.470E+03   0.164E+00 -.924E-02 -.741E+00   0.485E-02 0.341E-03 0.280E-02
   0.490E+02 -.633E+03 0.196E+02   -.492E+02 0.634E+03 -.197E+02   0.449E-01 -.727E+00 0.620E-01   0.783E-02 0.271E-03 0.887E-02
   -.185E+03 -.191E+03 -.872E+02   0.170E+03 0.178E+03 0.805E+02   0.110E+02 0.823E+01 0.471E+01   -.226E-02 -.328E-02 0.203E-02
   -.673E+03 -.608E+03 -.220E+03   0.721E+03 0.649E+03 0.239E+03   -.431E+02 -.362E+02 -.165E+02   -.335E-02 -.413E-02 0.171E-02
 -----------------------------------------------------------------------------------------------
   0.338E+02 0.295E+02 0.178E+02   0.682E-12 -.341E-12 -.148E-11   -.340E+02 -.296E+02 -.180E+02   0.156E+00 0.932E-01 0.181E+00
 
 
 POSITION                                       TOTAL-FORCE (eV/Angst)
 -----------------------------------------------------------------------------------
     13.37281      9.84801     12.50759         0.708190      1.100983      0.292893
     20.15199     16.62719     12.50759        -1.102328     -0.738960      0.224599
     16.62719      9.84801     12.50759        -0.704359      1.104665      0.296118
      9.84801     16.62719     12.50759         1.102274     -0.702905      0.295824
     15.00000     11.47521     10.20639        -0.005367      0.416945      1.276472
     15.00000     11.47521     19.79360        -0.004682      0.419160     -1.281858
     15.00000      8.28283     15.00000         0.003026      1.513753      0.002203
      8.28283     15.00000     15.00000         1.512952      0.004876      0.004048
     21.71717     15.00000     15.00000        -1.475304     -0.038287     -0.019738
     15.00000     21.71717     15.00000        -0.007118     -1.505180      0.001125
     18.35858     11.64142     10.25025        -0.744664      0.753765      1.072974
     18.35858     11.64142     19.74975        -0.739158      0.780184     -1.055802
     11.64142     18.35858     10.25025         0.753126     -0.749369      1.072135
     11.64142     18.35858     19.74975         0.767731     -0.742111     -1.056232
     11.64142     11.64142     10.25025         0.760855      0.757401      1.062969
     11.64142     11.64142     19.74975         0.755832      0.755433     -1.070414
     18.35858     18.35858     10.25025        -0.749504     -0.751087      1.079446
     18.35858     18.35858     19.74975        -0.787064     -0.741145     -0.949947
     13.37281      9.84801     17.49241         0.699563      1.107961     -0.294414
     20.15199     16.62719     17.49241        -1.536993     -0.245826     -0.559734
     16.73751     13.26249     12.54279         0.103828     -0.110713     -0.156207
      9.84801     13.37281     12.50759         1.099940      0.710706      0.289768
     16.62719     20.15199     12.50759        -0.728278     -1.098360      0.243084
     16.62719      9.84801     17.49241        -0.709489      1.103797     -0.301074
      9.84801     16.62719     17.49241         1.100484     -0.708798     -0.300507
     20.15199     13.37281     12.50759        -1.109844      0.697632      0.294798
     13.37281     20.15199     12.50759         0.697466     -1.108796      0.297796
     13.26249     13.26249     12.54279        -0.104721     -0.106683     -0.160919
     15.00000     11.52498     15.00000        -0.001758     -0.228498     -0.002297
     18.52479     15.00000     10.20639        -0.415799      0.007892      1.283486
     18.52479     15.00000     19.79360        -0.442730     -0.086215     -1.243702
     11.47521     15.00000     10.20640         0.416234     -0.004310      1.274819
     11.47521     15.00000     19.79360         0.418232     -0.004593     -1.282620
     11.49535     11.49535     15.00000         0.834126      0.827865      0.014814
     18.50465     18.50465     15.00000        -1.307807     -0.934342     -0.277018
     18.50465     11.49535     15.00000        -0.827141      0.838620     -0.005374
     11.49535     18.50465     15.00000         0.830194     -0.828158     -0.003015
     15.00000     15.00000     10.04368        -0.013117     -0.009875      1.165108
     15.00000     15.00000     19.95633         0.005892      0.012061     -1.193740
      9.84801     13.37281     17.49241         1.106446      0.699930     -0.291935
     16.62719     20.15199     17.49241        -0.730191     -1.104382     -0.312679
     16.73751     13.26249     17.45721         0.113446     -0.108285      0.158564
     13.26249     16.73751     12.54279        -0.105341      0.104851     -0.152927
     13.26249     13.26249     17.45721        -0.112079     -0.110466      0.157457
     20.15199     13.37281     17.49241        -1.110919      0.651295     -0.281523
     13.37281     20.15199     17.49241         0.697198     -1.105170     -0.288906
     16.73751     16.73751     12.54279         0.093208      0.100907     -0.188524
     11.52498     15.00000     15.00000        -0.225971      0.002667      0.000415
     18.47502     15.00000     15.00000         0.228922     -0.099625     -0.040909
     15.00000     18.52480     10.20639         0.009814     -0.421085      1.283861
     15.00000     18.52480     19.79360        -0.035257     -0.422569     -1.274601
     15.00000     15.00000     15.00000        -0.004562     -0.003881      0.007237
     13.26249     16.73751     17.45721        -0.105379      0.109931      0.158086
     16.73751     16.73751     17.45721         0.018817      0.063681      0.209256
     15.00000     18.47502     15.00000        -0.070847      0.241488     -0.027986
     19.30816     18.58582     16.71719        -4.001366     -4.964671     -1.990627
     20.13711     19.27579     17.04760         5.181338      4.895897      2.545870
 -----------------------------------------------------------------------------------
    total drift:                               -0.000431     -0.002141     -0.004929


--------------------------------------------------------------------------------------------------------



  FREE ENERGIE OF THE ION-ELECTRON SYSTEM (eV)
  ---------------------------------------------------
  free  energy   TOTEN  =      -175.09517410 eV

  energy  without entropy=     -175.06440598  energy(sigma->0) =     -175.08748207
 


--------------------------------------------------------------------------------------------------------


    POTLOK:  cpu time   14.1332: real time   14.1333


--------------------------------------------------------------------------------------------------------


     LOOP+:  cpu time19067.1208: real time19068.5217
    4ORBIT:  cpu time    0.0000: real time    0.0000

 total amount of memory used by VASP MPI-rank0  5486941. kBytes
=======================================================================

   base      :      30000. kBytes
   nonlr-proj:      17126. kBytes
   fftplans  :     924480. kBytes
   grid      :    1872000. kBytes
   one-center:        886. kBytes
   wavefun   :    2642449. kBytes
 
  
  
 General timing and accounting informations for this job:
 ========================================================
  
                  Total CPU time used (sec):    19142.383
                            User time (sec):    18095.487
                          System time (sec):     1046.895
                         Elapsed time (sec):    19144.517
  
                   Maximum memory used (kb):     7179056.
                   Average memory used (kb):           0.
  
                          Minor page faults:    850326349
                          Major page faults:            0
                 Voluntary context switches:          529
