  57  57   0   0
  0.4736842E+03  0.3000000E-08  0.3000000E-08  0.3000000E-08  0.5000000E-15
  1.000000000000000E-004
  CAR 
 6_Pd100_top_free_z(O)                   
      1.25214276    -30.80821948  301     -4.14358667      1.00000000
    -30.808  0.0000E+00  0.0000E+00
    -30.701  0.0000E+00  0.0000E+00
    -30.594  0.0000E+00  0.0000E+00
    -30.488  0.3548E-27  0.3792E-28
    -30.381  0.1715E-23  0.1833E-24
    -30.274  0.4611E-20  0.4929E-21
    -30.167  0.6874E-17  0.7352E-18
    -30.060  0.5664E-14  0.6060E-15
    -29.953  0.2571E-11  0.2754E-12
    -29.846  0.6368E-09  0.6833E-10
    -29.740  0.8531E-07  0.9185E-08
    -29.633  0.6087E-05  0.6596E-06
    -29.526  0.2252E-03  0.2473E-04
    -29.419  0.4104E-02  0.4633E-03
    -29.312  0.3228E-01  0.3913E-02
    -29.205  0.5500E-01  0.9790E-02
    -29.098 -0.3670E+00 -0.2943E-01
    -28.991 -0.6787E+00 -0.1020E+00
    -28.885  0.3545E+01  0.2768E+00
    -28.778  0.9731E+01  0.1317E+01
    -28.671  0.6717E+01  0.2035E+01
    -28.564  0.3456E+00  0.2072E+01
    -28.457 -0.7031E+00  0.1996E+01
    -28.350 -0.3382E-01  0.1993E+01
    -28.243  0.5484E-01  0.1999E+01
    -28.137  0.1119E-01  0.2000E+01
    -28.030  0.8584E-03  0.2000E+01
    -27.923  0.3116E-04  0.2000E+01
    -27.816  0.5766E-06  0.2000E+01
    -27.709  0.5628E-08  0.2000E+01
    -27.602  0.2954E-10  0.2000E+01
    -27.495  0.8519E-13  0.2000E+01
    -27.388  0.0000E+00  0.2000E+01
    -27.282  0.0000E+00  0.2000E+01
    -27.175  0.0000E+00  0.2000E+01
    -27.068  0.0000E+00  0.2000E+01
    -26.961  0.0000E+00  0.2000E+01
    -26.854  0.0000E+00  0.2000E+01
    -26.747  0.0000E+00  0.2000E+01
    -26.640  0.0000E+00  0.2000E+01
    -26.534  0.0000E+00  0.2000E+01
    -26.427  0.0000E+00  0.2000E+01
    -26.320  0.0000E+00  0.2000E+01
    -26.213  0.0000E+00  0.2000E+01
    -26.106  0.0000E+00  0.2000E+01
    -25.999  0.0000E+00  0.2000E+01
    -25.892  0.0000E+00  0.2000E+01
    -25.785  0.0000E+00  0.2000E+01
    -25.679  0.0000E+00  0.2000E+01
    -25.572  0.0000E+00  0.2000E+01
    -25.465  0.0000E+00  0.2000E+01
    -25.358  0.0000E+00  0.2000E+01
    -25.251  0.0000E+00  0.2000E+01
    -25.144  0.0000E+00  0.2000E+01
    -25.037  0.0000E+00  0.2000E+01
    -24.930  0.0000E+00  0.2000E+01
    -24.824  0.0000E+00  0.2000E+01
    -24.717  0.0000E+00  0.2000E+01
    -24.610  0.0000E+00  0.2000E+01
    -24.503  0.0000E+00  0.2000E+01
    -24.396  0.0000E+00  0.2000E+01
    -24.289  0.0000E+00  0.2000E+01
    -24.182  0.0000E+00  0.2000E+01
    -24.076  0.0000E+00  0.2000E+01
    -23.969  0.0000E+00  0.2000E+01
    -23.862  0.0000E+00  0.2000E+01
    -23.755  0.0000E+00  0.2000E+01
    -23.648  0.0000E+00  0.2000E+01
    -23.541  0.0000E+00  0.2000E+01
    -23.434  0.0000E+00  0.2000E+01
    -23.327  0.0000E+00  0.2000E+01
    -23.221  0.0000E+00  0.2000E+01
    -23.114  0.0000E+00  0.2000E+01
    -23.007  0.0000E+00  0.2000E+01
    -22.900  0.0000E+00  0.2000E+01
    -22.793  0.0000E+00  0.2000E+01
    -22.686  0.0000E+00  0.2000E+01
    -22.579  0.0000E+00  0.2000E+01
    -22.473  0.0000E+00  0.2000E+01
    -22.366  0.0000E+00  0.2000E+01
    -22.259  0.0000E+00  0.2000E+01
    -22.152  0.0000E+00  0.2000E+01
    -22.045  0.0000E+00  0.2000E+01
    -21.938  0.0000E+00  0.2000E+01
    -21.831  0.0000E+00  0.2000E+01
    -21.724  0.0000E+00  0.2000E+01
    -21.618  0.0000E+00  0.2000E+01
    -21.511  0.0000E+00  0.2000E+01
    -21.404  0.0000E+00  0.2000E+01
    -21.297  0.0000E+00  0.2000E+01
    -21.190  0.0000E+00  0.2000E+01
    -21.083  0.0000E+00  0.2000E+01
    -20.976  0.0000E+00  0.2000E+01
    -20.870  0.0000E+00  0.2000E+01
    -20.763  0.0000E+00  0.2000E+01
    -20.656  0.0000E+00  0.2000E+01
    -20.549  0.0000E+00  0.2000E+01
    -20.442  0.0000E+00  0.2000E+01
    -20.335  0.0000E+00  0.2000E+01
    -20.228  0.0000E+00  0.2000E+01
    -20.121  0.0000E+00  0.2000E+01
    -20.015  0.0000E+00  0.2000E+01
    -19.908  0.0000E+00  0.2000E+01
    -19.801  0.0000E+00  0.2000E+01
    -19.694  0.0000E+00  0.2000E+01
    -19.587  0.0000E+00  0.2000E+01
    -19.480  0.0000E+00  0.2000E+01
    -19.373  0.0000E+00  0.2000E+01
    -19.266  0.0000E+00  0.2000E+01
    -19.160  0.0000E+00  0.2000E+01
    -19.053  0.0000E+00  0.2000E+01
    -18.946  0.0000E+00  0.2000E+01
    -18.839  0.0000E+00  0.2000E+01
    -18.732  0.0000E+00  0.2000E+01
    -18.625  0.0000E+00  0.2000E+01
    -18.518  0.0000E+00  0.2000E+01
    -18.412  0.0000E+00  0.2000E+01
    -18.305  0.0000E+00  0.2000E+01
    -18.198  0.0000E+00  0.2000E+01
    -18.091  0.0000E+00  0.2000E+01
    -17.984  0.0000E+00  0.2000E+01
    -17.877  0.0000E+00  0.2000E+01
    -17.770  0.0000E+00  0.2000E+01
    -17.663  0.0000E+00  0.2000E+01
    -17.557  0.0000E+00  0.2000E+01
    -17.450  0.0000E+00  0.2000E+01
    -17.343  0.0000E+00  0.2000E+01
    -17.236  0.0000E+00  0.2000E+01
    -17.129  0.0000E+00  0.2000E+01
    -17.022  0.0000E+00  0.2000E+01
    -16.915  0.0000E+00  0.2000E+01
    -16.809  0.0000E+00  0.2000E+01
    -16.702  0.0000E+00  0.2000E+01
    -16.595  0.0000E+00  0.2000E+01
    -16.488  0.0000E+00  0.2000E+01
    -16.381  0.0000E+00  0.2000E+01
    -16.274  0.0000E+00  0.2000E+01
    -16.167  0.0000E+00  0.2000E+01
    -16.060  0.0000E+00  0.2000E+01
    -15.954  0.0000E+00  0.2000E+01
    -15.847  0.0000E+00  0.2000E+01
    -15.740  0.0000E+00  0.2000E+01
    -15.633  0.0000E+00  0.2000E+01
    -15.526  0.0000E+00  0.2000E+01
    -15.419  0.0000E+00  0.2000E+01
    -15.312  0.0000E+00  0.2000E+01
    -15.206  0.0000E+00  0.2000E+01
    -15.099  0.3044E-26  0.2000E+01
    -14.992  0.1273E-22  0.2000E+01
    -14.885  0.2960E-19  0.2000E+01
    -14.778  0.3813E-16  0.2000E+01
    -14.671  0.2712E-13  0.2000E+01
    -14.564  0.1061E-10  0.2000E+01
    -14.457  0.2261E-08  0.2000E+01
    -14.351  0.2597E-06  0.2000E+01
    -14.244  0.1580E-04  0.2000E+01
    -14.137  0.4941E-03  0.2000E+01
    -14.030  0.7449E-02  0.2001E+01
    -13.923  0.4533E-01  0.2006E+01
    -13.816  0.1838E-01  0.2008E+01
    -13.709 -0.5669E+00  0.1947E+01
    -13.602 -0.2315E+00  0.1922E+01
    -13.496  0.5368E+01  0.2496E+01
    -13.389  0.1001E+02  0.3565E+01
    -13.282  0.4884E+01  0.4087E+01
    -13.175 -0.3832E+00  0.4046E+01
    -13.068 -0.5145E+00  0.3991E+01
    -12.961  0.3130E-01  0.3995E+01
    -12.854  0.4183E-01  0.3999E+01
    -12.748  0.6408E-02  0.4000E+01
    -12.641  0.4042E-03  0.4000E+01
    -12.534  0.1237E-04  0.4000E+01
    -12.427  0.1949E-06  0.4000E+01
    -12.320  0.1653E-08  0.4000E+01
    -12.213  0.4627E-08  0.4000E+01
    -12.106  0.5020E-06  0.4000E+01
    -11.999  0.2910E-04  0.4000E+01
    -11.893  0.8745E-03  0.4000E+01
    -11.786  0.1284E-01  0.4001E+01
    -11.679  0.7804E-01  0.4010E+01
    -11.572  0.4685E-01  0.4015E+01
    -11.465 -0.9311E+00  0.3915E+01
    -11.358 -0.6349E+00  0.3847E+01
    -11.251  0.8940E+01  0.4803E+01
    -11.145  0.1913E+02  0.6847E+01
    -11.038  0.1159E+02  0.8085E+01
    -10.931  0.3139E+00  0.8119E+01
    -10.824 -0.1189E+01  0.7992E+01
    -10.717 -0.3984E-01  0.7988E+01
    -10.610  0.9638E-01  0.7998E+01
    -10.503  0.2968E-01  0.8001E+01
    -10.396  0.5412E-01  0.8007E+01
    -10.290 -0.1838E-01  0.8005E+01
    -10.183 -0.6716E+00  0.7933E+01
    -10.076  0.1800E+00  0.7952E+01
     -9.969  0.6386E+01  0.8635E+01
     -9.862  0.9838E+01  0.9686E+01
     -9.755  0.3872E+01  0.1010E+02
     -9.648 -0.6221E+00  0.1003E+02
     -9.542 -0.4032E+00  0.9990E+01
     -9.435  0.5067E-01  0.9996E+01
     -9.328  0.3458E-01  0.9999E+01
     -9.221  0.4600E-02  0.1000E+02
     -9.114  0.2613E-03  0.1000E+02
     -9.007  0.7284E-05  0.1000E+02
     -8.900  0.1051E-06  0.1000E+02
     -8.793  0.8073E-09  0.1000E+02
     -8.687  0.3351E-11  0.1000E+02
     -8.580  0.8311E-14  0.1000E+02
     -8.473  0.0000E+00  0.1000E+02
     -8.366  0.0000E+00  0.1000E+02
     -8.259  0.5455E-25  0.1000E+02
     -8.152  0.1871E-21  0.1000E+02
     -8.045  0.3564E-18  0.1000E+02
     -7.938  0.3757E-15  0.1000E+02
     -7.832  0.2183E-12  0.1000E+02
     -7.725  0.6967E-10  0.1000E+02
     -7.618  0.1206E-07  0.1000E+02
     -7.511  0.1120E-05  0.1000E+02
     -7.404  0.5467E-04  0.1000E+02
     -7.297  0.1349E-02  0.1000E+02
     -7.190  0.1544E-01  0.1000E+02
     -7.084  0.6129E-01  0.1001E+02
     -6.977 -0.9893E-01  0.9998E+01
     -6.870 -0.7869E+00  0.9914E+01
     -6.763  0.1024E+01  0.1002E+02
     -6.656  0.7843E+01  0.1086E+02
     -6.549  0.9384E+01  0.1186E+02
     -6.442  0.1972E+01  0.1207E+02
     -6.335 -0.3141E+01  0.1174E+02
     -6.229  0.5413E+01  0.1232E+02
     -6.122  0.2560E+02  0.1505E+02
     -6.015  0.2284E+02  0.1749E+02
     -5.908  0.9013E+01  0.1846E+02
     -5.801  0.3063E+02  0.2173E+02
     -5.694  0.7946E+02  0.3022E+02
     -5.587  0.1618E+03  0.4751E+02
     -5.481  0.2700E+03  0.7637E+02
     -5.374  0.2929E+03  0.1077E+03
     -5.267  0.2253E+03  0.1318E+03
     -5.160  0.2181E+03  0.1551E+03
     -5.053  0.3049E+03  0.1876E+03
     -4.946  0.3646E+03  0.2266E+03
     -4.839  0.3190E+03  0.2607E+03
     -4.732  0.2966E+03  0.2924E+03
     -4.626  0.3816E+03  0.3332E+03
     -4.519  0.4287E+03  0.3790E+03
     -4.412  0.4277E+03  0.4247E+03
     -4.305  0.5150E+03  0.4797E+03
     -4.198  0.5458E+03  0.5381E+03
     -4.091  0.3279E+03  0.5731E+03
     -3.984  0.7535E+02  0.5811E+03
     -3.878  0.9965E+01  0.5822E+03
     -3.771  0.3104E+02  0.5855E+03
     -3.664  0.2068E+02  0.5877E+03
     -3.557  0.1031E+02  0.5888E+03
     -3.450  0.2493E+02  0.5915E+03
     -3.343  0.2111E+02  0.5938E+03
     -3.236 -0.6981E+00  0.5937E+03
     -3.129  0.7664E+01  0.5945E+03
     -3.023  0.5245E+02  0.6001E+03
     -2.916  0.6708E+02  0.6073E+03
     -2.809  0.2843E+02  0.6103E+03
     -2.702 -0.2433E+01  0.6100E+03
     -2.595  0.2490E+01  0.6103E+03
     -2.488  0.2281E+02  0.6128E+03
     -2.381  0.2899E+02  0.6159E+03
     -2.274  0.1702E+02  0.6177E+03
     -2.168  0.1680E+02  0.6195E+03
     -2.061  0.3369E+02  0.6231E+03
     -1.954  0.4246E+02  0.6276E+03
     -1.847  0.3848E+02  0.6317E+03
     -1.740  0.3238E+02  0.6352E+03
     -1.633  0.3910E+02  0.6394E+03
     -1.526  0.4263E+02  0.6439E+03
     -1.420  0.2798E+02  0.6469E+03
     -1.313  0.1715E+02  0.6487E+03
     -1.206  0.2234E+02  0.6511E+03
     -1.099  0.3063E+02  0.6544E+03
     -0.992  0.4740E+02  0.6595E+03
     -0.885  0.6363E+02  0.6663E+03
     -0.778  0.4277E+02  0.6708E+03
     -0.671  0.1171E+02  0.6721E+03
     -0.565  0.3762E-01  0.6721E+03
     -0.458 -0.9041E+00  0.6720E+03
     -0.351 -0.6339E-01  0.6720E+03
     -0.244  0.1273E+00  0.6720E+03
     -0.137  0.3884E-01  0.6720E+03
     -0.030  0.4392E-02  0.6720E+03
      0.077  0.2318E-03  0.6720E+03
      0.183  0.6165E-05  0.6720E+03
      0.290  0.8582E-07  0.6720E+03
      0.397  0.6387E-09  0.6720E+03
      0.504  0.2572E-11  0.6720E+03
      0.611  0.6233E-14  0.6720E+03
      0.718  0.0000E+00  0.6720E+03
      0.825  0.0000E+00  0.6720E+03
      0.932  0.0000E+00  0.6720E+03
      1.038  0.0000E+00  0.6720E+03
      1.145  0.0000E+00  0.6720E+03
      1.252  0.0000E+00  0.6720E+03
