 vasp.5.4.4.18Apr17-6-g9f103f2a35 (build Sep 03 2018 23:53:05) complex          
  
 executed on             LinuxIFC date 2021.11.27  16:31:19
 running on    1 total cores
 distrk:  each k-point on    1 cores,    1 groups
 distr:  one band on NCORES_PER_BAND=   1 cores,    1 groups


--------------------------------------------------------------------------------------------------------


 INCAR:
 POTCAR:    PAW_PBE Pd 04Jan2005                  
 POTCAR:    PAW_PBE C 08Apr2002                   
 POTCAR:    PAW_PBE O 08Apr2002                   
 POTCAR:    PAW_PBE Pd 04Jan2005                  
   VRHFIN =Pd : s1 d9                                                           
   LEXCH  = PE                                                                  
   EATOM  =   809.7530 eV,   59.5152 Ry                                         
                                                                                
   TITEL  = PAW_PBE Pd 04Jan2005                                                
   LULTRA =        F    use ultrasoft PP ?                                      
   IUNSCR =        1    unscreen: 0-lin 1-nonlin 2-no                           
   RPACOR =    2.000    partial core radius                                     
   POMASS =  106.420; ZVAL   =   10.000    mass and valenz                      
   RCORE  =    2.600    outmost cutoff radius                                   
   RWIGS  =    2.710; RWIGS  =    1.434    wigner-seitz radius (au A)           
   ENMAX  =  250.925; ENMIN  =  188.194 eV                                      
   ICORE  =        3    local potential                                         
   LCOR   =        T    correct aug charges                                     
   LPAW   =        T    paw PP                                                  
   EAUG   =  416.230                                                            
   DEXC   =    0.000                                                            
   RMAX   =    2.653    core radius for proj-oper                               
   RAUG   =    1.300    factor for augmentation sphere                          
   RDEP   =    2.734    radius for radial grids                                 
   RDEPT  =    2.103    core radius for aug-charge                              
                                                                                
   Atomic configuration                                                         
   12 entries                                                                   
     n  l   j            E        occ.                                          
     1  0  0.50    -24164.6631   2.0000                                         
     2  0  0.50     -3530.9218   2.0000                                         
     2  1  1.50     -3165.6822   6.0000                                         
     3  0  0.50      -639.4577   2.0000                                         
     3  1  1.50      -519.4532   6.0000                                         
     3  2  2.50      -328.9757  10.0000                                         
     4  0  0.50       -88.7014   2.0000                                         
     4  1  1.50       -54.4540   6.0000                                         
     4  2  2.50        -6.6878   9.0000                                         
     5  0  0.50        -4.3543   1.0000                                         
     5  1  0.50        -1.3606   0.0000                                         
     4  3  2.50        -1.3606   0.0000                                         
   Description                                                                  
     l       E           TYP  RCUT    TYP  RCUT                                 
     2     -6.6878251     23  2.400                                             
     2     -8.0484077     23  2.400                                             
     0     -4.3542939     23  2.400                                             
     0      4.3406793     23  2.400                                             
     1     -4.0817478     23  2.600                                             
     1     15.8380318     23  2.600                                             
     3     -4.0817478     23  2.400                                             
  local pseudopotential read in
  partial core-charges read in
  partial kinetic energy density read in
  atomic valenz-charges read in
  non local Contribution for L=           2  read in
    real space projection operators read in
  non local Contribution for L=           2  read in
    real space projection operators read in
  non local Contribution for L=           0  read in
    real space projection operators read in
  non local Contribution for L=           0  read in
    real space projection operators read in
  non local Contribution for L=           1  read in
    real space projection operators read in
  non local Contribution for L=           1  read in
    real space projection operators read in
    PAW grid and wavefunctions read in
 
   number of l-projection  operators is LMAX  =           6
   number of lm-projection operators is LMMAX =          18
 
 POTCAR:    PAW_PBE C 08Apr2002                   
   VRHFIN =C: s2p2                                                              
   LEXCH  = PE                                                                  
   EATOM  =   147.1560 eV,   10.8157 Ry                                         
                                                                                
   TITEL  = PAW_PBE C 08Apr2002                                                 
   LULTRA =        F    use ultrasoft PP ?                                      
   IUNSCR =        1    unscreen: 0-lin 1-nonlin 2-no                           
   RPACOR =    1.200    partial core radius                                     
   POMASS =   12.011; ZVAL   =    4.000    mass and valenz                      
   RCORE  =    1.500    outmost cutoff radius                                   
   RWIGS  =    1.630; RWIGS  =    0.863    wigner-seitz radius (au A)           
   ENMAX  =  400.000; ENMIN  =  300.000 eV                                      
   ICORE  =        2    local potential                                         
   LCOR   =        T    correct aug charges                                     
   LPAW   =        T    paw PP                                                  
   EAUG   =  644.873                                                            
   DEXC   =    0.000                                                            
   RMAX   =    1.529    core radius for proj-oper                               
   RAUG   =    1.300    factor for augmentation sphere                          
   RDEP   =    1.501    radius for radial grids                                 
   RDEPT  =    1.300    core radius for aug-charge                              
                                                                                
   Atomic configuration                                                         
    4 entries                                                                   
     n  l   j            E        occ.                                          
     1  0  0.50      -273.3789   2.0000                                         
     2  0  0.50       -13.7508   2.0000                                         
     2  1  0.50        -5.2854   2.0000                                         
     3  2  1.50        -5.4423   0.0000                                         
   Description                                                                  
     l       E           TYP  RCUT    TYP  RCUT                                 
     0    -13.7508458     23  1.200                                             
     0     -8.2022199     23  1.200                                             
     1     -5.2854383     23  1.500                                             
     1     34.0145650     23  1.500                                             
     2     -5.4423304      7  1.500                                             
  local pseudopotential read in
  partial core-charges read in
  partial kinetic energy density read in
  atomic valenz-charges read in
  non local Contribution for L=           0  read in
    real space projection operators read in
  non local Contribution for L=           0  read in
    real space projection operators read in
  non local Contribution for L=           1  read in
    real space projection operators read in
  non local Contribution for L=           1  read in
    real space projection operators read in
    PAW grid and wavefunctions read in
 
   number of l-projection  operators is LMAX  =           4
   number of lm-projection operators is LMMAX =           8
 
 POTCAR:    PAW_PBE O 08Apr2002                   
   VRHFIN =O: s2p4                                                              
   LEXCH  = PE                                                                  
   EATOM  =   432.3788 eV,   31.7789 Ry                                         
                                                                                
   TITEL  = PAW_PBE O 08Apr2002                                                 
   LULTRA =        F    use ultrasoft PP ?                                      
   IUNSCR =        1    unscreen: 0-lin 1-nonlin 2-no                           
   RPACOR =    1.200    partial core radius                                     
   POMASS =   16.000; ZVAL   =    6.000    mass and valenz                      
   RCORE  =    1.520    outmost cutoff radius                                   
   RWIGS  =    1.550; RWIGS  =    0.820    wigner-seitz radius (au A)           
   ENMAX  =  400.000; ENMIN  =  300.000 eV                                      
   ICORE  =        2    local potential                                         
   LCOR   =        T    correct aug charges                                     
   LPAW   =        T    paw PP                                                  
   EAUG   =  605.392                                                            
   DEXC   =    0.000                                                            
   RMAX   =    1.553    core radius for proj-oper                               
   RAUG   =    1.300    factor for augmentation sphere                          
   RDEP   =    1.550    radius for radial grids                                 
   RDEPT  =    1.329    core radius for aug-charge                              
                                                                                
   Atomic configuration                                                         
    4 entries                                                                   
     n  l   j            E        occ.                                          
     1  0  0.50      -514.6923   2.0000                                         
     2  0  0.50       -23.9615   2.0000                                         
     2  1  0.50        -9.0305   4.0000                                         
     3  2  1.50        -9.5241   0.0000                                         
   Description                                                                  
     l       E           TYP  RCUT    TYP  RCUT                                 
     0    -23.9615318     23  1.200                                             
     0     -9.5240782     23  1.200                                             
     1     -9.0304911     23  1.520                                             
     1      8.1634956     23  1.520                                             
     2     -9.5240782      7  1.500                                             
  local pseudopotential read in
  partial core-charges read in
  partial kinetic energy density read in
  kinetic energy density of atom read in
  atomic valenz-charges read in
  non local Contribution for L=           0  read in
    real space projection operators read in
  non local Contribution for L=           0  read in
    real space projection operators read in
  non local Contribution for L=           1  read in
    real space projection operators read in
  non local Contribution for L=           1  read in
    real space projection operators read in
    PAW grid and wavefunctions read in
 
   number of l-projection  operators is LMAX  =           4
   number of lm-projection operators is LMMAX =           8
 
 Optimization of the real space projectors (new method)

 maximal supplied QI-value         = 14.36
 optimisation between [QCUT,QGAM] = [ 10.20, 20.39] = [ 29.12,116.47] Ry 
 Optimized for a Real-space Cutoff    1.51 Angstroem

   l    n(q)    QCUT    max X(q) W(low)/X(q) W(high)/X(q)  e(spline) 
   2      8    10.197    59.108    0.26E-03    0.14E-03    0.96E-07
   2      8    10.197    58.101    0.27E-03    0.14E-03    0.98E-07
   0      9    10.197   102.235    0.54E-04    0.60E-05    0.72E-07
   0      9    10.197    58.388    0.52E-04    0.60E-05    0.68E-07
   1      9    10.197    22.191    0.18E-03    0.25E-03    0.79E-07
   1      9    10.197    15.590    0.15E-03    0.21E-03    0.69E-07
 Optimization of the real space projectors (new method)

 maximal supplied QI-value         = 25.13
 optimisation between [QCUT,QGAM] = [ 10.05, 20.36] = [ 28.30,116.06] Ry 
 Optimized for a Real-space Cutoff    1.30 Angstroem

   l    n(q)    QCUT    max X(q) W(low)/X(q) W(high)/X(q)  e(spline) 
   0      8    10.053   115.676    0.49E-03    0.72E-03    0.18E-06
   0      8    10.053    87.132    0.49E-03    0.71E-03    0.18E-06
   1      7    10.053     4.429    0.32E-03    0.31E-03    0.18E-06
   1      7    10.053     2.733    0.23E-03    0.19E-03    0.20E-06
 Optimization of the real space projectors (new method)

 maximal supplied QI-value         = 24.76
 optimisation between [QCUT,QGAM] = [ 10.15, 20.30] = [ 28.85,115.39] Ry 
 Optimized for a Real-space Cutoff    1.38 Angstroem

   l    n(q)    QCUT    max X(q) W(low)/X(q) W(high)/X(q)  e(spline) 
   0      8    10.150    20.381    0.22E-03    0.32E-03    0.29E-06
   0      8    10.150    15.268    0.23E-03    0.35E-03    0.30E-06
   1      8    10.150     5.964    0.46E-03    0.53E-03    0.21E-06
   1      8    10.150     5.382    0.38E-03    0.45E-03    0.19E-06

 ----------------------------------------------------------------------------- 
|                                                                             |
|  ADVICE TO THIS USER RUNNING 'VASP/VAMP'   (HEAR YOUR MASTER'S VOICE ...):  |
|                                                                             |
|      You enforced a specific xc-type in the INCAR file,                     |
|      a different type was found on the POTCAR file                          |
|          I HOPE YOU KNOW, WHAT YOU ARE  DOING                               |
|                                                                             |
 ----------------------------------------------------------------------------- 

  PAW_PBE Pd 04Jan2005                  :
 energy of atom  1       EATOM= -809.7530
 kinetic energy error for atom=    0.0091 (will be added to EATOM!!)
  PAW_PBE C 08Apr2002                   :
 energy of atom  2       EATOM= -147.1560
 kinetic energy error for atom=    0.0288 (will be added to EATOM!!)
  PAW_PBE O 08Apr2002                   :
 energy of atom  3       EATOM= -432.3788
 kinetic energy error for atom=    0.1156 (will be added to EATOM!!)
 
 
 POSCAR: Pd55PES                                 
  positions in cartesian coordinates
  No initial velocities read in
 exchange correlation table for  LEXCH =        9
   RHO(1)=    0.500       N(1)  =     2000
   RHO(2)=  100.500       N(2)  =     4000
 


--------------------------------------------------------------------------------------------------------


 ion  position               nearest neighbor table
   1  0.446  0.328  0.417-   3 3.25   5 3.25   7 3.36  15 3.36  29 3.42  28 3.42
   2  0.672  0.554  0.417-  26 3.25  30 3.25  17 3.36   9 3.36  47 3.42  49 3.42
   3  0.554  0.328  0.417-   1 3.25   5 3.25   7 3.36  11 3.36  29 3.42  21 3.42
   4  0.328  0.554  0.417-  32 3.25  22 3.25  13 3.36   8 3.36  43 3.42  48 3.42
   5  0.500  0.383  0.340-   1 3.25   3 3.25  11 3.36  15 3.36  21 3.42  28 3.42
   6  0.500  0.383  0.660-  24 3.25  19 3.25  16 3.36  12 3.36  42 3.42  44 3.42
   7  0.500  0.276  0.500-  29 3.24   3 3.36   1 3.36  19 3.36  24 3.36
   8  0.276  0.500  0.500-  48 3.24  22 3.36  40 3.36   4 3.36  25 3.36
   9  0.724  0.500  0.500-  49 3.24  26 3.36  45 3.36   2 3.36  20 3.36
  10  0.500  0.724  0.500-  55 3.24  27 3.36  23 3.36  46 3.36  41 3.36
  11  0.612  0.388  0.342-  21 3.24   5 3.36   3 3.36  30 3.36  26 3.36
  12  0.612  0.388  0.658-  42 3.24  24 3.36  45 3.36   6 3.36  31 3.36
  13  0.388  0.612  0.342-  43 3.24  32 3.36  50 3.36   4 3.36  27 3.36
  14  0.388  0.612  0.658-  53 3.24  25 3.36  33 3.36  51 3.36  46 3.36
  15  0.388  0.388  0.342-  28 3.24   5 3.36   1 3.36  32 3.36  22 3.36
  16  0.388  0.388  0.658-  44 3.24  19 3.36  40 3.36   6 3.36  33 3.36
  17  0.612  0.612  0.342-  47 3.24  30 3.36  50 3.36   2 3.36  23 3.36
  18  0.612  0.612  0.658-  56 1.98  54 3.24  31 3.36  20 3.36  51 3.36  41 3.36
  19  0.446  0.328  0.583-   6 3.25  24 3.25  16 3.36   7 3.36  44 3.42  29 3.42
  20  0.672  0.554  0.583-  31 3.25  45 3.25  18 3.36   9 3.36  54 3.42  49 3.42
  21  0.558  0.442  0.418-  11 3.24   5 3.42   3 3.42  30 3.42  26 3.42
  22  0.328  0.446  0.417-   4 3.25  32 3.25   8 3.36  15 3.36  48 3.42  28 3.42
  23  0.554  0.672  0.417-  27 3.25  50 3.25  10 3.36  17 3.36  55 3.42  47 3.42
  24  0.554  0.328  0.583-   6 3.25  19 3.25  12 3.36   7 3.36  42 3.42  29 3.42
  25  0.328  0.554  0.583-  33 3.25  40 3.25  14 3.36   8 3.36  53 3.42  48 3.42
  26  0.672  0.446  0.417-   2 3.25  30 3.25   9 3.36  11 3.36  49 3.42  21 3.42
  27  0.446  0.672  0.417-  23 3.25  50 3.25  10 3.36  13 3.36  55 3.42  43 3.42
  28  0.442  0.442  0.418-  15 3.24   5 3.42   1 3.42  32 3.42  22 3.42
  29  0.500  0.384  0.500-   7 3.24   3 3.42   1 3.42  24 3.42  19 3.42
  30  0.617  0.500  0.340-   2 3.25  26 3.25  17 3.36  11 3.36  47 3.42  21 3.42
  31  0.617  0.500  0.660-  20 3.25  45 3.25  18 3.36  12 3.36  54 3.42  42 3.42
  32  0.383  0.500  0.340-   4 3.25  22 3.25  13 3.36  15 3.36  43 3.42  28 3.42
  33  0.383  0.500  0.660-  25 3.25  40 3.25  14 3.36  16 3.36  53 3.42  44 3.42
  34  0.383  0.383  0.500-
  35  0.617  0.617  0.500-
  36  0.617  0.383  0.500-
  37  0.383  0.617  0.500-
  38  0.500  0.500  0.335-
  39  0.500  0.500  0.665-
  40  0.328  0.446  0.583-  33 3.25  25 3.25  16 3.36   8 3.36  44 3.42  48 3.42
  41  0.554  0.672  0.583-  46 3.25  51 3.25  10 3.36  18 3.36  54 3.42  55 3.42
  42  0.558  0.442  0.582-  12 3.24   6 3.42  24 3.42  31 3.42  45 3.42
  43  0.442  0.558  0.418-  13 3.24   4 3.42  32 3.42  27 3.42  50 3.42
  44  0.442  0.442  0.582-  16 3.24   6 3.42  19 3.42  33 3.42  40 3.42
  45  0.672  0.446  0.583-  20 3.25  31 3.25   9 3.36  12 3.36  49 3.42  42 3.42
  46  0.446  0.672  0.583-  41 3.25  51 3.25  10 3.36  14 3.36  53 3.42  55 3.42
  47  0.558  0.558  0.418-  17 3.24   2 3.42  30 3.42  23 3.42  50 3.42
  48  0.384  0.500  0.500-   8 3.24   4 3.42  22 3.42  25 3.42  40 3.42
  49  0.616  0.500  0.500-   9 3.24   2 3.42  26 3.42  20 3.42  45 3.42
  50  0.500  0.617  0.340-  27 3.25  23 3.25  13 3.36  17 3.36  43 3.42  47 3.42
  51  0.500  0.617  0.660-  41 3.25  46 3.25  14 3.36  18 3.36  53 3.42  54 3.42
  52  0.500  0.500  0.500-
  53  0.442  0.558  0.582-  14 3.24  25 3.42  33 3.42  51 3.42  46 3.42
  54  0.558  0.558  0.582-  18 3.24  31 3.42  20 3.42  51 3.42  41 3.42
  55  0.500  0.616  0.500-  10 3.24  23 3.42  27 3.42  41 3.42  46 3.42
  56  0.648  0.667  0.664-  57 1.13  18 1.98
  57  0.669  0.689  0.686-  56 1.13
 
  LATTYP: Found a simple cubic cell.
 ALAT       =    30.0000000000
  
  Lattice vectors:
  
 A1 = (  30.0000000000,   0.0000000000,   0.0000000000)
 A2 = (   0.0000000000,  30.0000000000,   0.0000000000)
 A3 = (   0.0000000000,   0.0000000000,  30.0000000000)


Analysis of symmetry for initial positions (statically):
=====================================================================
 Subroutine PRICEL returns:
 Original cell was already a primitive cell.
 

 Routine SETGRP: Setting up the symmetry group for a 
 simple cubic supercell.


 Subroutine GETGRP returns: Found  1 space group operations
 (whereof  1 operations were pure point group operations)
 out of a pool of 48 trial point group operations.


The static configuration has the point symmetry C_1 .


Analysis of symmetry for dynamics (positions and initial velocities):
=====================================================================
 Subroutine PRICEL returns:
 Original cell was already a primitive cell.
 

 Routine SETGRP: Setting up the symmetry group for a 
 simple cubic supercell.


 Subroutine GETGRP returns: Found  1 space group operations
 (whereof  1 operations were pure point group operations)
 out of a pool of 48 trial point group operations.


The dynamic configuration has the point symmetry C_1 .


Analysis of constrained symmetry for selective dynamics:
=====================================================================
 Subroutine PRICEL returns:
 Original cell was already a primitive cell.
 

 Routine SETGRP: Setting up the symmetry group for a 
 simple cubic supercell.


 Subroutine GETGRP returns: Found  1 space group operations
 (whereof  1 operations were pure point group operations)
 out of a pool of 48 trial point group operations.


The constrained configuration has the point symmetry C_1 .


 Subroutine INISYM returns: Found  1 space group operations
 (whereof  1 operations are pure point group operations),
 and found     1 'primitive' translations

 
 
 KPOINTS: K-points                                

Automatic generation of k-mesh.
Space group operators:
 irot       det(A)        alpha          n_x          n_y          n_z        tau_x        tau_y        tau_z
    1     1.000000     0.000000     1.000000     0.000000     0.000000     0.000000     0.000000     0.000000
 
 Subroutine IBZKPT returns following result:
 ===========================================
 
 Found      1 irreducible k-points:
 
 Following reciprocal coordinates:
            Coordinates               Weight
  0.000000  0.000000  0.000000      1.000000
 
 Following cartesian coordinates:
            Coordinates               Weight
  0.000000  0.000000  0.000000      1.000000
 


--------------------------------------------------------------------------------------------------------




 Dimension of arrays:
   k-points           NKPTS =      1   k-points in BZ     NKDIM =      1   number of bands    NBANDS=    336
   number of dos      NEDOS =    301   number of ions     NIONS =     57
   non local maximal  LDIM  =      6   non local SUM 2l+1 LMDIM =     18
   total plane-waves  NPLWV = ******
   max r-space proj   IRMAX =   1847   max aug-charges    IRDMAX=   6262
   dimension x,y,z NGX =   150 NGY =  150 NGZ =  150
   dimension x,y,z NGXF=   300 NGYF=  300 NGZF=  300
   support grid    NGXF=   300 NGYF=  300 NGZF=  300
   ions per type =              55   1   1
   NGX,Y,Z   is equivalent  to a cutoff of   8.31,  8.31,  8.31 a.u.
   NGXF,Y,Z  is equivalent  to a cutoff of  16.62, 16.62, 16.62 a.u.

 SYSTEM =  6_Pd100_top_free_z(O)                   
 POSCAR =  Pd55PES                                 

 Startparameter for this run:
   NWRITE =      2    write-flag & timer
   PREC   = normal    normal or accurate (medium, high low for compatibility)
   ISTART =      0    job   : 0-new  1-cont  2-samecut
   ICHARG =      2    charge: 1-file 2-atom 10-const
   ISPIN  =      1    spin polarized calculation?
   LNONCOLLINEAR =      F non collinear calculations
   LSORBIT =      F    spin-orbit coupling
   INIWAV =      1    electr: 0-lowe 1-rand  2-diag
   LASPH  =      F    aspherical Exc in radial PAW
   METAGGA=      F    non-selfconsistent MetaGGA calc.

 Electronic Relaxation 1
   ENCUT  =  400.0 eV  29.40 Ry    5.42 a.u.  48.92 48.92 48.92*2*pi/ulx,y,z
   ENINI  =  400.0     initial cutoff
   ENAUG  =  644.9 eV  augmentation charge cutoff
   NELM   =    100;   NELMIN=  6; NELMDL= -5     # of ELM steps 
   EDIFF  = 0.1E-03   stopping-criterion for ELM
   LREAL  =      T    real-space projection
   NLSPLINE    = F    spline interpolate recip. space projectors
   LCOMPAT=      F    compatible to vasp.4.4
   GGA_COMPAT  = T    GGA compatible to vasp.4.4-vasp.4.6
   LMAXPAW     = -100 max onsite density
   LMAXMIX     =    2 max onsite mixed and CHGCAR
   VOSKOWN=      0    Vosko Wilk Nusair interpolation
   ROPT   =   -0.00050  -0.00050  -0.00050
 Ionic relaxation
   EDIFFG = -.5E-01   stopping-criterion for IOM
   NSW    =      0    number of steps for IOM
   NBLOCK =      1;   KBLOCK =      1    inner block; outer block 
   IBRION =     -1    ionic relax: 0-MD 1-quasi-New 2-CG
   NFREE  =      1    steps in history (QN), initial steepest desc. (CG)
   ISIF   =      2    stress and relaxation
   IWAVPR =     10    prediction:  0-non 1-charg 2-wave 3-comb
   ISYM   =      2    0-nonsym 1-usesym 2-fastsym
   LCORR  =      T    Harris-Foulkes like correction to forces

   POTIM  = 0.5000    time-step for ionic-motion
   TEIN   =    0.0    initial temperature
   TEBEG  =    0.0;   TEEND  =   0.0 temperature during run
   SMASS  =  -3.00    Nose mass-parameter (am)
   estimated Nose-frequenzy (Omega)   =  0.10E-29 period in steps =****** mass=  -0.206E-25a.u.
   SCALEE = 1.0000    scale energy and forces
   NPACO  =    256;   APACO  = 16.0  distance and # of slots for P.C.
   PSTRESS=    0.0 pullay stress

  Mass of Ions in am
   POMASS = 106.42 12.01 16.00
  Ionic Valenz
   ZVAL   =  10.00  4.00  6.00
  Atomic Wigner-Seitz radii
   RWIGS  =  -1.00 -1.00 -1.00
  virtual crystal weights 
   VCA    =   1.00  1.00  1.00
   NELECT =     560.0000    total number of electrons
   NUPDOWN=      -1.0000    fix difference up-down

 DOS related values:
   EMIN   =  10.00;   EMAX   =-10.00  energy-range for DOS
   EFERMI =   0.00
   ISMEAR =     2;   SIGMA  =   0.20  broadening in eV -4-tet -1-fermi 0-gaus

 Electronic relaxation 2 (details)
   IALGO  =     68    algorithm
   LDIAG  =      T    sub-space diagonalisation (order eigenvalues)
   LSUBROT=      F    optimize rotation matrix (better conditioning)
   TURBO    =      0    0=normal 1=particle mesh
   IRESTART =      0    0=no restart 2=restart with 2 vectors
   NREBOOT  =      0    no. of reboots
   NMIN     =      0    reboot dimension
   EREF     =   0.00    reference energy to select bands
   IMIX   =      4    mixing-type and parameters
     AMIX     =   0.40;   BMIX     =  1.00
     AMIX_MAG =   1.60;   BMIX_MAG =  1.00
     AMIN     =   0.10
     WC   =   100.;   INIMIX=   1;  MIXPRE=   1;  MAXMIX= -45

 Intra band minimization:
   WEIMIN = 0.0000     energy-eigenvalue tresh-hold
   EBREAK =  0.74E-07  absolut break condition
   DEPER  =   0.30     relativ break condition  

   TIME   =   0.40     timestep for ELM

  volume/ion in A,a.u.               =     473.68      3196.58
  Fermi-wavevector in a.u.,A,eV,Ry     =   0.449797  0.849992  2.752691  0.202317
  Thomas-Fermi vector in A             =   1.430086
 
 Write flags
   LWAVE        =      F    write WAVECAR
   LDOWNSAMPLE  =      F    k-point downsampling of WAVECAR
   LCHARG       =      F    write CHGCAR
   LVTOT        =      F    write LOCPOT, total local potential
   LVHAR        =      F    write LOCPOT, Hartree potential only
   LELF         =      F    write electronic localiz. function (ELF)
   LORBIT       =      0    0 simple, 1 ext, 2 COOP (PROOUT), +10 PAW based schemes


 Dipole corrections
   LMONO  =      F    monopole corrections only (constant potential shift)
   LDIPOL =      F    correct potential (dipole corrections)
   IDIPOL =      0    1-x, 2-y, 3-z, 4-all directions 
   EPSILON=  1.0000000 bulk dielectric constant

 Exchange correlation treatment:
   GGA     =    RP    GGA type
   LEXCH   =     9    internal setting for exchange type
   VOSKOWN=      0    Vosko Wilk Nusair interpolation
   LHFCALC =     F    Hartree Fock is set to
   LHFONE  =     F    Hartree Fock one center treatment
   AEXX    =    0.0000 exact exchange contribution

 Linear response parameters
   LEPSILON=     F    determine dielectric tensor
   LRPA    =     F    only Hartree local field effects (RPA)
   LNABLA  =     F    use nabla operator in PAW spheres
   LVEL    =     F    velocity operator in full k-point grid
   LINTERFAST=   F  fast interpolation
   KINTER  =     0    interpolate to denser k-point grid
   CSHIFT  =0.1000    complex shift for real part using Kramers Kronig
   OMEGAMAX=  -1.0    maximum frequency
   DEG_THRESHOLD= 0.2000000E-02 threshold for treating states as degnerate
   RTIME   =   -0.100 relaxation time in fs
  (WPLASMAI=    0.000 imaginary part of plasma frequency in eV, 0.658/RTIME)
   DFIELD  = 0.0000000 0.0000000 0.0000000 field for delta impulse in time
 
 Orbital magnetization related:
   ORBITALMAG=     F  switch on orbital magnetization
   LCHIMAG   =     F  perturbation theory with respect to B field
   DQ        =  0.001000  dq finite difference perturbation B field
   LLRAUG    =     F  two centre corrections for induced B field



--------------------------------------------------------------------------------------------------------


 Static calculation
 charge density and potential will be updated during run
 non-spin polarized calculation
 RMM-DIIS sequential band-by-band and
  variant of blocked Davidson during initial phase
 perform sub-space diagonalisation
    before iterative eigenvector-optimisation
 modified Broyden-mixing scheme, WC =      100.0
 initial mixing is a Kerker type mixing with AMIX =  0.4000 and BMIX =      1.0000
 Hartree-type preconditioning will be used
 using additional bands           56
 real space projection scheme for non local part
 use partial core corrections
 calculate Harris-corrections to forces 
   (improved forces if not selfconsistent)
 use gradient corrections 
 use of overlap-Matrix (Vanderbilt PP)
 Methfessel and Paxton  Order N= 2 SIGMA  =   0.20


--------------------------------------------------------------------------------------------------------


  energy-cutoff  :      400.00
  volume of cell :    27000.00
      direct lattice vectors                 reciprocal lattice vectors
    30.000000000  0.000000000  0.000000000     0.033333333  0.000000000  0.000000000
     0.000000000 30.000000000  0.000000000     0.000000000  0.033333333  0.000000000
     0.000000000  0.000000000 30.000000000     0.000000000  0.000000000  0.033333333

  length of vectors
    30.000000000 30.000000000 30.000000000     0.033333333  0.033333333  0.033333333


 
 k-points in units of 2pi/SCALE and weight: K-points                                
   0.00000000  0.00000000  0.00000000       1.000
 
 k-points in reciprocal lattice and weights: K-points                                
   0.00000000  0.00000000  0.00000000       1.000
 
 position of ions in fractional coordinates (direct lattice) 
   0.44576020  0.32826710  0.41691983
   0.67173288  0.55423978  0.41691983
   0.55423980  0.32826710  0.41691983
   0.32826712  0.55423978  0.41691983
   0.50000000  0.38250690  0.34021317
   0.50000000  0.38250690  0.65978680
   0.50000000  0.27609440  0.50000000
   0.27609443  0.49999998  0.50000000
   0.72390557  0.49999998  0.50000000
   0.50000000  0.72390555  0.50000000
   0.61195280  0.38804720  0.34167483
   0.61195280  0.38804720  0.65832513
   0.38804722  0.61195278  0.34167483
   0.38804722  0.61195278  0.65832513
   0.38804720  0.38804720  0.34167483
   0.38804720  0.38804720  0.65832513
   0.61195278  0.61195278  0.34167483
   0.61195278  0.61195278  0.65832513
   0.44576020  0.32826710  0.58308023
   0.67173288  0.55423978  0.58308023
   0.55791699  0.44208301  0.41809300
   0.32826705  0.44576024  0.41691983
   0.55423973  0.67173293  0.41691983
   0.55423980  0.32826710  0.58308023
   0.32826712  0.55423978  0.58308023
   0.67173295  0.44576024  0.41691983
   0.44576027  0.67173293  0.41691983
   0.44208301  0.44208301  0.41809300
   0.50000000  0.38416601  0.50000000
   0.61749315  0.50000005  0.34021317
   0.61749315  0.50000005  0.65978680
   0.38250685  0.50000005  0.34021317
   0.38250685  0.50000005  0.65978680
   0.38317830  0.38317830  0.50000000
   0.61682172  0.61682172  0.50000000
   0.61682170  0.38317830  0.50000000
   0.38317828  0.61682172  0.50000000
   0.50000000  0.50000000  0.33478917
   0.50000000  0.50000000  0.66521087
   0.32826705  0.44576024  0.58308023
   0.55423973  0.67173293  0.58308023
   0.55791699  0.44208301  0.58190703
   0.44208298  0.55791702  0.41809300
   0.44208301  0.44208301  0.58190703
   0.67173295  0.44576024  0.58308023
   0.44576027  0.67173293  0.58308023
   0.55791702  0.55791702  0.41809300
   0.38416599  0.50000002  0.50000000
   0.61583401  0.50000002  0.50000000
   0.50000000  0.61749319  0.34021317
   0.50000000  0.61749319  0.65978680
   0.50000000  0.50000000  0.50000000
   0.44208298  0.55791702  0.58190703
   0.55791702  0.55791702  0.58190703
   0.50000000  0.61583404  0.50000000
   0.64848220  0.66666747  0.66351810
   0.66865900  0.68931540  0.68573807
 
 position of ions in cartesian coordinates  (Angst):
  13.37280588  9.84801292 12.50759500
  20.15198637 16.62719342 12.50759500
  16.62719412  9.84801292 12.50759500
   9.84801363 16.62719342 12.50759500
  15.00000000 11.47520705 10.20639500
  15.00000000 11.47520705 19.79360400
  15.00000000  8.28283206 15.00000000
   8.28283277 14.99999929 15.00000000
  21.71716723 14.99999929 15.00000000
  15.00000000 21.71716652 14.99999999
  18.35858397 11.64141603 10.25024500
  18.35858397 11.64141603 19.74975399
  11.64141674 18.35858326 10.25024500
  11.64141674 18.35858326 19.74975400
  11.64141603 11.64141603 10.25024500
  11.64141603 11.64141603 19.74975400
  18.35858326 18.35858326 10.25024500
  18.35858326 18.35858326 19.74975400
  13.37280588  9.84801291 17.49240700
  20.15198638 16.62719341 17.49240700
  16.73750985 13.26249015 12.54279000
   9.84801151 13.37280729 12.50759500
  16.62719200 20.15198779 12.50759500
  16.62719412  9.84801292 17.49240700
   9.84801363 16.62719342 17.49240700
  20.15198849 13.37280729 12.50759500
  13.37280800 20.15198779 12.50759500
  13.26249015 13.26249015 12.54279000
  15.00000000 11.52498029 15.00000000
  18.52479437 15.00000140 10.20639500
  18.52479437 15.00000141 19.79360400
  11.47520562 15.00000141 10.20639501
  11.47520563 15.00000141 19.79360400
  11.49534898 11.49534898 15.00000000
  18.50465172 18.50465172 15.00000000
  18.50465102 11.49534898 15.00000000
  11.49534828 18.50465172 15.00000000
  15.00000000 15.00000000 10.04367500
  15.00000000 15.00000000 19.95632599
   9.84801151 13.37280729 17.49240700
  16.62719200 20.15198779 17.49240700
  16.73750985 13.26249015 17.45721100
  13.26248944 16.73751056 12.54279001
  13.26249015 13.26249015 17.45721100
  20.15198849 13.37280729 17.49240699
  13.37280800 20.15198779 17.49240700
  16.73751056 16.73751056 12.54279000
  11.52497959 15.00000071 15.00000000
  18.47502041 15.00000071 15.00000000
  14.99999999 18.52479579 10.20639500
  15.00000000 18.52479578 19.79360400
  15.00000000 15.00000000 15.00000000
  13.26248944 16.73751057 17.45721101
  16.73751056 16.73751057 17.45721100
  15.00000000 18.47502112 15.00000000
  19.45446600 20.00002400 19.90554300
  20.05977000 20.67946200 20.57214200
 


--------------------------------------------------------------------------------------------------------


 k-point  1 :   0.0000 0.0000 0.0000  plane waves:  490521

 maximum and minimum number of plane-waves per node :    490521   490521

 maximum number of plane-waves:    490521
 maximum index in each direction: 
   IXMAX=   48   IYMAX=   48   IZMAX=   48
   IXMIN=  -48   IYMIN=  -48   IZMIN=  -48


 serial   3D FFT for wavefunctions
 parallel 3D FFT for charge:
    minimum data exchange during FFTs selected (reduces bandwidth)


 total amount of memory used by VASP MPI-rank0  5486941. kBytes
=======================================================================

   base      :      30000. kBytes
   nonlr-proj:      17126. kBytes
   fftplans  :     924480. kBytes
   grid      :    1872000. kBytes
   one-center:        886. kBytes
   wavefun   :    2642449. kBytes
 
     INWAV:  cpu time    0.0002: real time    0.0005
 Broyden mixing: mesh for mixing (old mesh)
   NGX = 97   NGY = 97   NGZ = 97
  (NGX  =300   NGY  =300   NGZ  =300)
  gives a total of 912673 points

 initial charge density was supplied:
 charge density of overlapping atoms calculated
 number of electron     560.0000000 magnetization 
 keeping initial charge density in first step


--------------------------------------------------------------------------------------------------------


 Maximum index for non-local projection operator         1763
 Maximum index for augmentation-charges         5898 (set IRDMAX)


--------------------------------------------------------------------------------------------------------


 First call to EWALD:  gamma=   0.059
 Maximum number of real-space cells 3x 3x 3
 Maximum number of reciprocal cells 3x 3x 3

    FEWALD:  cpu time    0.0149: real time    0.0149


--------------------------------------- Iteration      1(   1)  ---------------------------------------


    POTLOK:  cpu time   14.0103: real time   14.0159
    SETDIJ:  cpu time    0.1148: real time    0.1148
     EDDAV:  cpu time  430.8728: real time  430.9226
       DOS:  cpu time    0.0015: real time    0.0015
    --------------------------------------------
      LOOP:  cpu time  444.9994: real time  445.0548

 eigenvalue-minimisations  :   688
 total energy-change (2. order) : 0.4385857E+04  (-0.1005232E+05)
 number of electron     560.0000000 magnetization 
 augmentation part      560.0000000 magnetization 

 Free energy of the ion-electron system (eV)
  ---------------------------------------------------
  alpha Z        PSCENC =        75.25431677
  Ewald energy   TEWEN  =    137468.16755253
  -Hartree energ DENC   =   -180829.87627896
  -exchange      EXHF   =         0.00000000
  -V(xc)+E(xc)   XCENC  =     -1703.23029205
  PAW double counting   =     44873.02882129   -41398.84523641
  entropy T*S    EENTRO =        -0.00644209
  eigenvalues    EBANDS =       814.85891298
  atomic energy  EATOM  =     45086.50549395
  Solvation  Ediel_sol  =         0.00000000
  ---------------------------------------------------
  free energy    TOTEN  =      4385.85684802 eV

  energy without entropy =     4385.86329010  energy(sigma->0) =     4385.85845854


--------------------------------------------------------------------------------------------------------




--------------------------------------- Iteration      1(   2)  ---------------------------------------


     EDDAV:  cpu time  680.2067: real time  680.2346
       DOS:  cpu time    0.0013: real time    0.0013
    --------------------------------------------
      LOOP:  cpu time  680.2080: real time  680.2359

 eigenvalue-minimisations  :  1224
 total energy-change (2. order) :-0.2374699E+04  (-0.2137005E+04)
 number of electron     560.0000000 magnetization 
 augmentation part      560.0000000 magnetization 

 Free energy of the ion-electron system (eV)
  ---------------------------------------------------
  alpha Z        PSCENC =        75.25431677
  Ewald energy   TEWEN  =    137468.16755253
  -Hartree energ DENC   =   -180829.87627896
  -exchange      EXHF   =         0.00000000
  -V(xc)+E(xc)   XCENC  =     -1703.23029205
  PAW double counting   =     44873.02882129   -41398.84523641
  entropy T*S    EENTRO =        -0.00625888
  eigenvalues    EBANDS =     -1559.83978314
  atomic energy  EATOM  =     45086.50549395
  Solvation  Ediel_sol  =         0.00000000
  ---------------------------------------------------
  free energy    TOTEN  =      2011.15833510 eV

  energy without entropy =     2011.16459398  energy(sigma->0) =     2011.15989982


--------------------------------------------------------------------------------------------------------




--------------------------------------- Iteration      1(   3)  ---------------------------------------


     EDDAV:  cpu time  748.0952: real time  748.1341
       DOS:  cpu time    0.0012: real time    0.0012
    --------------------------------------------
      LOOP:  cpu time  748.0964: real time  748.1353

 eigenvalue-minimisations  :  1000
 total energy-change (2. order) :-0.1781043E+04  (-0.1676385E+04)
 number of electron     560.0000000 magnetization 
 augmentation part      560.0000000 magnetization 

 Free energy of the ion-electron system (eV)
  ---------------------------------------------------
  alpha Z        PSCENC =        75.25431677
  Ewald energy   TEWEN  =    137468.16755253
  -Hartree energ DENC   =   -180829.87627896
  -exchange      EXHF   =         0.00000000
  -V(xc)+E(xc)   XCENC  =     -1703.23029205
  PAW double counting   =     44873.02882129   -41398.84523641
  entropy T*S    EENTRO =        -0.02400210
  eigenvalues    EBANDS =     -3340.86504727
  atomic energy  EATOM  =     45086.50549395
  Solvation  Ediel_sol  =         0.00000000
  ---------------------------------------------------
  free energy    TOTEN  =       230.11532775 eV

  energy without entropy =      230.13932985  energy(sigma->0) =      230.12132828


--------------------------------------------------------------------------------------------------------




--------------------------------------- Iteration      1(   4)  ---------------------------------------


     EDDAV:  cpu time  562.9111: real time  562.9339
       DOS:  cpu time    0.0012: real time    0.0012
    --------------------------------------------
      LOOP:  cpu time  562.9124: real time  562.9351

 eigenvalue-minimisations  :   832
 total energy-change (2. order) :-0.3663196E+03  (-0.3115116E+03)
 number of electron     560.0000000 magnetization 
 augmentation part      560.0000000 magnetization 

 Free energy of the ion-electron system (eV)
  ---------------------------------------------------
  alpha Z        PSCENC =        75.25431677
  Ewald energy   TEWEN  =    137468.16755253
  -Hartree energ DENC   =   -180829.87627896
  -exchange      EXHF   =         0.00000000
  -V(xc)+E(xc)   XCENC  =     -1703.23029205
  PAW double counting   =     44873.02882129   -41398.84523641
  entropy T*S    EENTRO =         0.03734429
  eigenvalues    EBANDS =     -3707.24600058
  atomic energy  EATOM  =     45086.50549395
  Solvation  Ediel_sol  =         0.00000000
  ---------------------------------------------------
  free energy    TOTEN  =      -136.20427917 eV

  energy without entropy =     -136.24162346  energy(sigma->0) =     -136.21361524


--------------------------------------------------------------------------------------------------------




--------------------------------------- Iteration      1(   5)  ---------------------------------------


     EDDAV:  cpu time  652.0188: real time  652.0694
       DOS:  cpu time    0.0015: real time    0.0015
    CHARGE:  cpu time   28.3973: real time   28.3989
    MIXING:  cpu time    0.4497: real time    0.4497
    --------------------------------------------
      LOOP:  cpu time  680.8673: real time  680.9196

 eigenvalue-minimisations  :  1048
 total energy-change (2. order) :-0.4363695E+02  (-0.3645471E+02)
 number of electron     559.9999849 magnetization 
 augmentation part      245.1269028 magnetization 

 Broyden mixing:
  rms(total) = 0.14944E+01    rms(broyden)= 0.14936E+01
  rms(prec ) = 0.15987E+01
  weight for this iteration     100.00

 Free energy of the ion-electron system (eV)
  ---------------------------------------------------
  alpha Z        PSCENC =        75.25431677
  Ewald energy   TEWEN  =    137468.16755253
  -Hartree energ DENC   =   -180829.87627896
  -exchange      EXHF   =         0.00000000
  -V(xc)+E(xc)   XCENC  =     -1703.23029205
  PAW double counting   =     44873.02882129   -41398.84523641
  entropy T*S    EENTRO =         0.50905538
  eigenvalues    EBANDS =     -3751.35466278
  atomic energy  EATOM  =     45086.50549395
  Solvation  Ediel_sol  =         0.00000000
  ---------------------------------------------------
  free energy    TOTEN  =      -179.84123028 eV

  energy without entropy =     -180.35028566  energy(sigma->0) =     -179.96849413


--------------------------------------------------------------------------------------------------------




--------------------------------------- Iteration      1(   6)  ---------------------------------------


    POTLOK:  cpu time   14.9053: real time   14.9097
    SETDIJ:  cpu time    0.1185: real time    0.1185
    EDDIAG:  cpu time   84.6242: real time   84.6306
  RMM-DIIS:  cpu time  230.3008: real time  230.3220
    ORTHCH:  cpu time   23.3712: real time   23.3726
       DOS:  cpu time    0.0014: real time    0.0014
    CHARGE:  cpu time   30.2771: real time   30.2787
    MIXING:  cpu time    0.5477: real time    0.5477
    --------------------------------------------
      LOOP:  cpu time  384.1463: real time  384.1812

 eigenvalue-minimisations  :   720
 total energy-change (2. order) : 0.8379857E-01  (-0.5501348E+01)
 number of electron     559.9999871 magnetization 
 augmentation part      240.5462333 magnetization 

 Broyden mixing:
  rms(total) = 0.23210E+01    rms(broyden)= 0.23208E+01
  rms(prec ) = 0.26905E+01
  weight for this iteration     100.00

 eigenvalues of (default mixing * dielectric matrix)
  average eigenvalue GAMMA=   0.3260
  0.3260

 Free energy of the ion-electron system (eV)
  ---------------------------------------------------
  alpha Z        PSCENC =        75.25431677
  Ewald energy   TEWEN  =    137468.16755253
  -Hartree energ DENC   =   -181239.73113160
  -exchange      EXHF   =         0.00000000
  -V(xc)+E(xc)   XCENC  =     -1696.91064273
  PAW double counting   =     45647.29489796   -42146.41060699
  entropy T*S    EENTRO =        -0.21231290
  eigenvalues    EBANDS =     -3373.71499871
  atomic energy  EATOM  =     45086.50549395
  Solvation  Ediel_sol  =         0.00000000
  ---------------------------------------------------
  free energy    TOTEN  =      -179.75743171 eV

  energy without entropy =     -179.54511881  energy(sigma->0) =     -179.70435349


--------------------------------------------------------------------------------------------------------




--------------------------------------- Iteration      1(   7)  ---------------------------------------


    POTLOK:  cpu time   15.5499: real time   15.5531
    SETDIJ:  cpu time    0.1202: real time    0.1202
    EDDIAG:  cpu time   88.8364: real time   88.8421
  RMM-DIIS:  cpu time  246.6465: real time  246.6660
    ORTHCH:  cpu time   22.2386: real time   22.2398
       DOS:  cpu time    0.0015: real time    0.0015
    CHARGE:  cpu time   27.9591: real time   27.9607
    MIXING:  cpu time    0.5079: real time    0.5080
    --------------------------------------------
      LOOP:  cpu time  401.8601: real time  401.8914

 eigenvalue-minimisations  :   852
 total energy-change (2. order) :-0.2766302E+01  (-0.1935605E+01)
 number of electron     559.9999831 magnetization 
 augmentation part      240.2621195 magnetization 

 Broyden mixing:
  rms(total) = 0.23111E+01    rms(broyden)= 0.23108E+01
  rms(prec ) = 0.28354E+01
  weight for this iteration     100.00

 eigenvalues of (default mixing * dielectric matrix)
  average eigenvalue GAMMA=   0.3135
  0.4808  0.1462

 Free energy of the ion-electron system (eV)
  ---------------------------------------------------
  alpha Z        PSCENC =        75.25431677
  Ewald energy   TEWEN  =    137468.16755253
  -Hartree energ DENC   =   -181319.96262004
  -exchange      EXHF   =         0.00000000
  -V(xc)+E(xc)   XCENC  =     -1697.09557810
  PAW double counting   =     45713.26933073   -42209.96955320
  entropy T*S    EENTRO =        -0.08783989
  eigenvalues    EBANDS =     -3298.60483597
  atomic energy  EATOM  =     45086.50549395
  Solvation  Ediel_sol  =         0.00000000
  ---------------------------------------------------
  free energy    TOTEN  =      -182.52373322 eV

  energy without entropy =     -182.43589333  energy(sigma->0) =     -182.50177325


--------------------------------------------------------------------------------------------------------




--------------------------------------- Iteration      1(   8)  ---------------------------------------


    POTLOK:  cpu time   13.8457: real time   13.8499
    SETDIJ:  cpu time    0.1181: real time    0.1181
    EDDIAG:  cpu time   85.0501: real time   85.0575
  RMM-DIIS:  cpu time  256.6533: real time  256.6791
    ORTHCH:  cpu time   23.2729: real time   23.2746
       DOS:  cpu time    0.0015: real time    0.0015
    CHARGE:  cpu time   30.1000: real time   30.1020
    MIXING:  cpu time    0.6314: real time    0.6317
    --------------------------------------------
      LOOP:  cpu time  409.6731: real time  409.7144

 eigenvalue-minimisations  :   788
 total energy-change (2. order) :-0.1986973E+01  (-0.6929855E+00)
 number of electron     559.9999822 magnetization 
 augmentation part      239.9861153 magnetization 

 Broyden mixing:
  rms(total) = 0.26603E+01    rms(broyden)= 0.26601E+01
  rms(prec ) = 0.31242E+01
  weight for this iteration     100.00

 eigenvalues of (default mixing * dielectric matrix)
  average eigenvalue GAMMA=   0.3114
  0.6640  0.1350  0.1350

 Free energy of the ion-electron system (eV)
  ---------------------------------------------------
  alpha Z        PSCENC =        75.25431677
  Ewald energy   TEWEN  =    137468.16755253
  -Hartree energ DENC   =   -181358.82229074
  -exchange      EXHF   =         0.00000000
  -V(xc)+E(xc)   XCENC  =     -1697.14382544
  PAW double counting   =     45772.92127064   -42267.37667754
  entropy T*S    EENTRO =        -0.10878350
  eigenvalues    EBANDS =     -3263.90776330
  atomic energy  EATOM  =     45086.50549395
  Solvation  Ediel_sol  =         0.00000000
  ---------------------------------------------------
  free energy    TOTEN  =      -184.51070662 eV

  energy without entropy =     -184.40192312  energy(sigma->0) =     -184.48351075


--------------------------------------------------------------------------------------------------------




--------------------------------------- Iteration      1(   9)  ---------------------------------------


    POTLOK:  cpu time   15.0002: real time   15.0026
    SETDIJ:  cpu time    0.1191: real time    0.1191
    EDDIAG:  cpu time   90.4099: real time   90.4169
  RMM-DIIS:  cpu time  205.4240: real time  205.4413
    ORTHCH:  cpu time   22.2131: real time   22.2143
       DOS:  cpu time    0.0015: real time    0.0015
    CHARGE:  cpu time   27.0954: real time   27.0970
    MIXING:  cpu time    0.5722: real time    0.5722
    --------------------------------------------
      LOOP:  cpu time  360.8354: real time  360.8649

 eigenvalue-minimisations  :   732
 total energy-change (2. order) : 0.1337494E+01  (-0.5724171E+00)
 number of electron     559.9999827 magnetization 
 augmentation part      240.7399985 magnetization 

 Broyden mixing:
  rms(total) = 0.26439E+01    rms(broyden)= 0.26436E+01
  rms(prec ) = 0.30603E+01
  weight for this iteration     100.00

 eigenvalues of (default mixing * dielectric matrix)
  average eigenvalue GAMMA=   0.2941
  0.7714  0.1515  0.1515  0.1019

 Free energy of the ion-electron system (eV)
  ---------------------------------------------------
  alpha Z        PSCENC =        75.25431677
  Ewald energy   TEWEN  =    137468.16755253
  -Hartree energ DENC   =   -181375.10969144
  -exchange      EXHF   =         0.00000000
  -V(xc)+E(xc)   XCENC  =     -1697.15875437
  PAW double counting   =     45837.20074124   -42329.29094626
  entropy T*S    EENTRO =        -0.14186316
  eigenvalues    EBANDS =     -3248.60006232
  atomic energy  EATOM  =     45086.50549395
  Solvation  Ediel_sol  =         0.00000000
  ---------------------------------------------------
  free energy    TOTEN  =      -183.17321306 eV

  energy without entropy =     -183.03134990  energy(sigma->0) =     -183.13774727


--------------------------------------------------------------------------------------------------------




--------------------------------------- Iteration      1(  10)  ---------------------------------------


    POTLOK:  cpu time   13.6771: real time   13.6809
    SETDIJ:  cpu time    0.1182: real time    0.1182
    EDDIAG:  cpu time   83.5009: real time   83.5081
  RMM-DIIS:  cpu time  209.8458: real time  209.8653
    ORTHCH:  cpu time   22.2461: real time   22.2474
       DOS:  cpu time    0.0016: real time    0.0016
    CHARGE:  cpu time   27.3733: real time   27.3750
    MIXING:  cpu time    0.6108: real time    0.6108
    --------------------------------------------
      LOOP:  cpu time  357.3738: real time  357.4073

 eigenvalue-minimisations  :   734
 total energy-change (2. order) : 0.2234222E+01  (-0.3372631E+00)
 number of electron     559.9999851 magnetization 
 augmentation part      241.2235250 magnetization 

 Broyden mixing:
  rms(total) = 0.25520E+01    rms(broyden)= 0.25517E+01
  rms(prec ) = 0.29964E+01
  weight for this iteration     100.00

 eigenvalues of (default mixing * dielectric matrix)
  average eigenvalue GAMMA=   0.2737
  0.8456  0.1711  0.1711  0.0903  0.0903

 Free energy of the ion-electron system (eV)
  ---------------------------------------------------
  alpha Z        PSCENC =        75.25431677
  Ewald energy   TEWEN  =    137468.16755253
  -Hartree energ DENC   =   -181402.07885485
  -exchange      EXHF   =         0.00000000
  -V(xc)+E(xc)   XCENC  =     -1697.06078135
  PAW double counting   =     45883.66321287   -42374.11427926
  entropy T*S    EENTRO =        -0.09610046
  eigenvalues    EBANDS =     -3221.17955108
  atomic energy  EATOM  =     45086.50549395
  Solvation  Ediel_sol  =         0.00000000
  ---------------------------------------------------
  free energy    TOTEN  =      -180.93899088 eV

  energy without entropy =     -180.84289042  energy(sigma->0) =     -180.91496576


--------------------------------------------------------------------------------------------------------




--------------------------------------- Iteration      1(  11)  ---------------------------------------


    POTLOK:  cpu time   13.7232: real time   13.7278
    SETDIJ:  cpu time    0.1182: real time    0.1182
    EDDIAG:  cpu time   83.8727: real time   83.8808
  RMM-DIIS:  cpu time  241.7218: real time  241.7444
    ORTHCH:  cpu time   23.3505: real time   23.3521
       DOS:  cpu time    0.0016: real time    0.0016
    CHARGE:  cpu time   30.2658: real time   30.2679
    MIXING:  cpu time    0.7263: real time    0.7264
    --------------------------------------------
      LOOP:  cpu time  393.7802: real time  393.8192

 eigenvalue-minimisations  :   728
 total energy-change (2. order) : 0.2067652E+01  (-0.2068085E+00)
 number of electron     559.9999875 magnetization 
 augmentation part      241.5160415 magnetization 

 Broyden mixing:
  rms(total) = 0.20443E+01    rms(broyden)= 0.20440E+01
  rms(prec ) = 0.23824E+01
  weight for this iteration     100.00

 eigenvalues of (default mixing * dielectric matrix)
  average eigenvalue GAMMA=   0.2669
  0.9371  0.1933  0.1933  0.1073  0.1073  0.0633

 Free energy of the ion-electron system (eV)
  ---------------------------------------------------
  alpha Z        PSCENC =        75.25431677
  Ewald energy   TEWEN  =    137468.16755253
  -Hartree energ DENC   =   -181420.02972663
  -exchange      EXHF   =         0.00000000
  -V(xc)+E(xc)   XCENC  =     -1696.94314878
  PAW double counting   =     45917.62698161   -42406.76072956
  entropy T*S    EENTRO =        -0.07288573
  eigenvalues    EBANDS =     -3202.61919340
  atomic energy  EATOM  =     45086.50549395
  Solvation  Ediel_sol  =         0.00000000
  ---------------------------------------------------
  free energy    TOTEN  =      -178.87133924 eV

  energy without entropy =     -178.79845351  energy(sigma->0) =     -178.85311781


--------------------------------------------------------------------------------------------------------




--------------------------------------- Iteration      1(  12)  ---------------------------------------


    POTLOK:  cpu time   15.6545: real time   15.6587
    SETDIJ:  cpu time    0.1197: real time    0.1197
    EDDIAG:  cpu time   89.5842: real time   89.5922
  RMM-DIIS:  cpu time  208.2450: real time  208.2629
    ORTHCH:  cpu time   22.2370: real time   22.2384
       DOS:  cpu time    0.0015: real time    0.0015
    CHARGE:  cpu time   28.1141: real time   28.1158
    MIXING:  cpu time    0.6777: real time    0.6778
    --------------------------------------------
      LOOP:  cpu time  364.6336: real time  364.6670

 eigenvalue-minimisations  :   717
 total energy-change (2. order) : 0.1139256E+01  (-0.1792203E+00)
 number of electron     559.9999845 magnetization 
 augmentation part      241.6936063 magnetization 

 Broyden mixing:
  rms(total) = 0.17063E+01    rms(broyden)= 0.17060E+01
  rms(prec ) = 0.20168E+01
  weight for this iteration     100.00

 eigenvalues of (default mixing * dielectric matrix)
  average eigenvalue GAMMA=   0.2604
  0.9981  0.2253  0.2253  0.1109  0.1014  0.1014  0.0602

 Free energy of the ion-electron system (eV)
  ---------------------------------------------------
  alpha Z        PSCENC =        75.25431677
  Ewald energy   TEWEN  =    137468.16755253
  -Hartree energ DENC   =   -181436.48960359
  -exchange      EXHF   =         0.00000000
  -V(xc)+E(xc)   XCENC  =     -1696.70770010
  PAW double counting   =     45955.46938554   -42443.02752416
  entropy T*S    EENTRO =        -0.08790804
  eigenvalues    EBANDS =     -3186.81609649
  atomic energy  EATOM  =     45086.50549395
  Solvation  Ediel_sol  =         0.00000000
  ---------------------------------------------------
  free energy    TOTEN  =      -177.73208358 eV

  energy without entropy =     -177.64417555  energy(sigma->0) =     -177.71010657


--------------------------------------------------------------------------------------------------------




--------------------------------------- Iteration      1(  13)  ---------------------------------------


    POTLOK:  cpu time   13.6641: real time   13.6666
    SETDIJ:  cpu time    0.1181: real time    0.1181
    EDDIAG:  cpu time   83.7158: real time   83.7225
  RMM-DIIS:  cpu time  206.2353: real time  206.2537
    ORTHCH:  cpu time   22.2253: real time   22.2265
       DOS:  cpu time    0.0016: real time    0.0016
    CHARGE:  cpu time   27.5860: real time   27.5877
    MIXING:  cpu time    0.7058: real time    0.7058
    --------------------------------------------
      LOOP:  cpu time  354.2519: real time  354.2825

 eigenvalue-minimisations  :   720
 total energy-change (2. order) : 0.7441814E+00  (-0.1178120E+00)
 number of electron     559.9999835 magnetization 
 augmentation part      241.6900447 magnetization 

 Broyden mixing:
  rms(total) = 0.15155E+01    rms(broyden)= 0.15152E+01
  rms(prec ) = 0.17758E+01
  weight for this iteration     100.00

 eigenvalues of (default mixing * dielectric matrix)
  average eigenvalue GAMMA=   0.2757
  1.1217  0.2978  0.2978  0.1389  0.0978  0.0978  0.1011  0.0523

 Free energy of the ion-electron system (eV)
  ---------------------------------------------------
  alpha Z        PSCENC =        75.25431677
  Ewald energy   TEWEN  =    137468.16755253
  -Hartree energ DENC   =   -181458.30889398
  -exchange      EXHF   =         0.00000000
  -V(xc)+E(xc)   XCENC  =     -1696.46760673
  PAW double counting   =     45987.64446332   -42473.75496748
  entropy T*S    EENTRO =        -0.08909802
  eigenvalues    EBANDS =     -3165.93916253
  atomic energy  EATOM  =     45086.50549395
  Solvation  Ediel_sol  =         0.00000000
  ---------------------------------------------------
  free energy    TOTEN  =      -176.98790216 eV

  energy without entropy =     -176.89880414  energy(sigma->0) =     -176.96562765


--------------------------------------------------------------------------------------------------------




--------------------------------------- Iteration      1(  14)  ---------------------------------------


    POTLOK:  cpu time   13.6663: real time   13.6689
    SETDIJ:  cpu time    0.1178: real time    0.1178
    EDDIAG:  cpu time   82.7225: real time   82.7295
  RMM-DIIS:  cpu time  199.7313: real time  199.7511
    ORTHCH:  cpu time   22.1181: real time   22.1198
       DOS:  cpu time    0.0016: real time    0.0016
    CHARGE:  cpu time   29.7390: real time   29.7399
    MIXING:  cpu time    0.8095: real time    0.8095
    --------------------------------------------
      LOOP:  cpu time  348.9062: real time  348.9382

 eigenvalue-minimisations  :   706
 total energy-change (2. order) :-0.8904383E+00  (-0.1275555E+00)
 number of electron     559.9999835 magnetization 
 augmentation part      241.5884483 magnetization 

 Broyden mixing:
  rms(total) = 0.33096E+01    rms(broyden)= 0.33094E+01
  rms(prec ) = 0.37949E+01
  weight for this iteration     100.00

 eigenvalues of (default mixing * dielectric matrix)
  average eigenvalue GAMMA=   0.2778
  1.2620  0.3412  0.3412  0.1319  0.1319  0.0954  0.0954  0.0540  0.0475

 Free energy of the ion-electron system (eV)
  ---------------------------------------------------
  alpha Z        PSCENC =        75.25431677
  Ewald energy   TEWEN  =    137468.16755253
  -Hartree energ DENC   =   -181494.07066564
  -exchange      EXHF   =         0.00000000
  -V(xc)+E(xc)   XCENC  =     -1695.94028806
  PAW double counting   =     46046.12763855   -42529.48034590
  entropy T*S    EENTRO =         0.28045907
  eigenvalues    EBANDS =     -3134.72250170
  atomic energy  EATOM  =     45086.50549395
  Solvation  Ediel_sol  =         0.00000000
  ---------------------------------------------------
  free energy    TOTEN  =      -177.87834043 eV

  energy without entropy =     -178.15879950  energy(sigma->0) =     -177.94845520


--------------------------------------------------------------------------------------------------------




--------------------------------------- Iteration      1(  15)  ---------------------------------------


    POTLOK:  cpu time   14.5997: real time   14.6036
    SETDIJ:  cpu time    0.1183: real time    0.1184
    EDDIAG:  cpu time   88.1829: real time   88.1870
  RMM-DIIS:  cpu time  213.7483: real time  213.7596
    ORTHCH:  cpu time   23.6360: real time   23.6365
       DOS:  cpu time    0.0016: real time    0.0016
    CHARGE:  cpu time   29.7376: real time   29.7382
    MIXING:  cpu time    0.9255: real time    0.9255
    --------------------------------------------
      LOOP:  cpu time  370.9498: real time  370.9704

 eigenvalue-minimisations  :   701
 total energy-change (2. order) : 0.1270142E+01  (-0.1301902E+00)
 number of electron     559.9999831 magnetization 
 augmentation part      241.2998714 magnetization 

 Broyden mixing:
  rms(total) = 0.14312E+01    rms(broyden)= 0.14309E+01
  rms(prec ) = 0.16295E+01
  weight for this iteration     100.00

 eigenvalues of (default mixing * dielectric matrix)
  average eigenvalue GAMMA=   0.2828
  1.3744  0.5122  0.2338  0.1611  0.1611  0.0952  0.0952  0.0956  0.0547  0.0450

 Free energy of the ion-electron system (eV)
  ---------------------------------------------------
  alpha Z        PSCENC =        75.25431677
  Ewald energy   TEWEN  =    137468.16755253
  -Hartree energ DENC   =   -181527.18006254
  -exchange      EXHF   =         0.00000000
  -V(xc)+E(xc)   XCENC  =     -1695.44808214
  PAW double counting   =     46097.06262629   -42578.01888873
  entropy T*S    EENTRO =        -0.12238352
  eigenvalues    EBANDS =     -3102.82877083
  atomic energy  EATOM  =     45086.50549395
  Solvation  Ediel_sol  =         0.00000000
  ---------------------------------------------------
  free energy    TOTEN  =      -176.60819822 eV

  energy without entropy =     -176.48581469  energy(sigma->0) =     -176.57760234


--------------------------------------------------------------------------------------------------------




--------------------------------------- Iteration      1(  16)  ---------------------------------------


    POTLOK:  cpu time   14.7855: real time   14.7893
    SETDIJ:  cpu time    0.1192: real time    0.1192
    EDDIAG:  cpu time   90.1129: real time   90.1167
  RMM-DIIS:  cpu time  209.9308: real time  209.9410
    ORTHCH:  cpu time   22.6199: real time   22.6204
       DOS:  cpu time    0.0016: real time    0.0016
    CHARGE:  cpu time   30.4726: real time   30.4733
    MIXING:  cpu time    0.9559: real time    0.9560
    --------------------------------------------
      LOOP:  cpu time  368.9984: real time  369.0175

 eigenvalue-minimisations  :   708
 total energy-change (2. order) : 0.2335208E+00  (-0.9034112E-01)
 number of electron     559.9999837 magnetization 
 augmentation part      241.0668640 magnetization 

 Broyden mixing:
  rms(total) = 0.14509E+01    rms(broyden)= 0.14507E+01
  rms(prec ) = 0.17537E+01
  weight for this iteration     100.00

 eigenvalues of (default mixing * dielectric matrix)
  average eigenvalue GAMMA=   0.2821
  1.4414  0.5984  0.2019  0.2019  0.2067  0.0926  0.0926  0.0845  0.0845  0.0539
  0.0449

 Free energy of the ion-electron system (eV)
  ---------------------------------------------------
  alpha Z        PSCENC =        75.25431677
  Ewald energy   TEWEN  =    137468.16755253
  -Hartree energ DENC   =   -181557.82841898
  -exchange      EXHF   =         0.00000000
  -V(xc)+E(xc)   XCENC  =     -1695.04544673
  PAW double counting   =     46137.95426820   -42616.92702831
  entropy T*S    EENTRO =         0.00095961
  eigenvalues    EBANDS =     -3074.45637449
  atomic energy  EATOM  =     45086.50549395
  Solvation  Ediel_sol  =         0.00000000
  ---------------------------------------------------
  free energy    TOTEN  =      -176.37467744 eV

  energy without entropy =     -176.37563705  energy(sigma->0) =     -176.37491734


--------------------------------------------------------------------------------------------------------




--------------------------------------- Iteration      1(  17)  ---------------------------------------


    POTLOK:  cpu time   13.9178: real time   13.9201
    SETDIJ:  cpu time    0.1176: real time    0.1176
    EDDIAG:  cpu time   83.1034: real time   83.1069
  RMM-DIIS:  cpu time  205.4784: real time  205.4894
    ORTHCH:  cpu time   22.1582: real time   22.1587
       DOS:  cpu time    0.0016: real time    0.0016
    CHARGE:  cpu time   27.7394: real time   27.7399
    MIXING:  cpu time    0.8925: real time    0.8925
    --------------------------------------------
      LOOP:  cpu time  353.4089: real time  353.4267

 eigenvalue-minimisations  :   717
 total energy-change (2. order) : 0.1700696E+00  (-0.5339199E-01)
 number of electron     559.9999842 magnetization 
 augmentation part      241.0445825 magnetization 

 Broyden mixing:
  rms(total) = 0.14033E+01    rms(broyden)= 0.14030E+01
  rms(prec ) = 0.17009E+01
  weight for this iteration     100.00

 eigenvalues of (default mixing * dielectric matrix)
  average eigenvalue GAMMA=   0.2950
  1.5332  0.7281  0.2681  0.2681  0.2003  0.0966  0.0966  0.0973  0.0973  0.0607
  0.0495  0.0438

 Free energy of the ion-electron system (eV)
  ---------------------------------------------------
  alpha Z        PSCENC =        75.25431677
  Ewald energy   TEWEN  =    137468.16755253
  -Hartree energ DENC   =   -181572.44723458
  -exchange      EXHF   =         0.00000000
  -V(xc)+E(xc)   XCENC  =     -1694.81262624
  PAW double counting   =     46158.92677732   -42636.80174083
  entropy T*S    EENTRO =        -0.01390066
  eigenvalues    EBANDS =     -3060.98324608
  atomic energy  EATOM  =     45086.50549395
  Solvation  Ediel_sol  =         0.00000000
  ---------------------------------------------------
  free energy    TOTEN  =      -176.20460781 eV

  energy without entropy =     -176.19070715  energy(sigma->0) =     -176.20113264


--------------------------------------------------------------------------------------------------------




--------------------------------------- Iteration      1(  18)  ---------------------------------------


    POTLOK:  cpu time   13.5945: real time   13.5959
    SETDIJ:  cpu time    0.1176: real time    0.1176
    EDDIAG:  cpu time   83.4782: real time   83.4816
  RMM-DIIS:  cpu time  199.7645: real time  199.7741
    ORTHCH:  cpu time   22.1475: real time   22.1480
       DOS:  cpu time    0.0016: real time    0.0016
    CHARGE:  cpu time   27.7531: real time   27.7537
    MIXING:  cpu time    0.9348: real time    0.9349
    --------------------------------------------
      LOOP:  cpu time  347.7919: real time  347.8074

 eigenvalue-minimisations  :   702
 total energy-change (2. order) : 0.2168452E+00  (-0.6151851E-01)
 number of electron     559.9999868 magnetization 
 augmentation part      241.0611955 magnetization 

 Broyden mixing:
  rms(total) = 0.10489E+01    rms(broyden)= 0.10487E+01
  rms(prec ) = 0.11799E+01
  weight for this iteration     100.00

 eigenvalues of (default mixing * dielectric matrix)
  average eigenvalue GAMMA=   0.3081
  1.6193  0.9159  0.3205  0.3205  0.1489  0.1489  0.0966  0.0966  0.0929  0.0929
  0.0591  0.0494  0.0441

 Free energy of the ion-electron system (eV)
  ---------------------------------------------------
  alpha Z        PSCENC =        75.25431677
  Ewald energy   TEWEN  =    137468.16755253
  -Hartree energ DENC   =   -181588.32609314
  -exchange      EXHF   =         0.00000000
  -V(xc)+E(xc)   XCENC  =     -1694.56209620
  PAW double counting   =     46180.35315639   -42656.94283581
  entropy T*S    EENTRO =        -0.02815481
  eigenvalues    EBANDS =     -3046.40910226
  atomic energy  EATOM  =     45086.50549395
  Solvation  Ediel_sol  =         0.00000000
  ---------------------------------------------------
  free energy    TOTEN  =      -175.98776258 eV

  energy without entropy =     -175.95960777  energy(sigma->0) =     -175.98072388


--------------------------------------------------------------------------------------------------------




--------------------------------------- Iteration      1(  19)  ---------------------------------------


    POTLOK:  cpu time   13.6500: real time   13.6520
    SETDIJ:  cpu time    0.1178: real time    0.1178
    EDDIAG:  cpu time   83.7459: real time   83.7489
  RMM-DIIS:  cpu time  200.6504: real time  200.6597
    ORTHCH:  cpu time   22.1763: real time   22.1768
       DOS:  cpu time    0.0015: real time    0.0015
    CHARGE:  cpu time   27.5217: real time   27.5222
    MIXING:  cpu time    1.0098: real time    1.0098
    --------------------------------------------
      LOOP:  cpu time  348.8735: real time  348.8888

 eigenvalue-minimisations  :   707
 total energy-change (2. order) : 0.1884297E+00  (-0.4120423E-01)
 number of electron     559.9999860 magnetization 
 augmentation part      241.0796275 magnetization 

 Broyden mixing:
  rms(total) = 0.11591E+01    rms(broyden)= 0.11590E+01
  rms(prec ) = 0.13440E+01
  weight for this iteration     100.00

 eigenvalues of (default mixing * dielectric matrix)
  average eigenvalue GAMMA=   0.3152
  1.7121  1.0024  0.3658  0.3658  0.1726  0.1726  0.0973  0.0973  0.0951  0.0951
  0.0839  0.0600  0.0493  0.0440

 Free energy of the ion-electron system (eV)
  ---------------------------------------------------
  alpha Z        PSCENC =        75.25431677
  Ewald energy   TEWEN  =    137468.16755253
  -Hartree energ DENC   =   -181611.36914364
  -exchange      EXHF   =         0.00000000
  -V(xc)+E(xc)   XCENC  =     -1694.29294627
  PAW double counting   =     46200.00267640   -42675.23948721
  entropy T*S    EENTRO =         0.03870399
  eigenvalues    EBANDS =     -3024.86649937
  atomic energy  EATOM  =     45086.50549395
  Solvation  Ediel_sol  =         0.00000000
  ---------------------------------------------------
  free energy    TOTEN  =      -175.79933285 eV

  energy without entropy =     -175.83803685  energy(sigma->0) =     -175.80900885


--------------------------------------------------------------------------------------------------------




--------------------------------------- Iteration      1(  20)  ---------------------------------------


    POTLOK:  cpu time   13.6006: real time   13.6023
    SETDIJ:  cpu time    0.1182: real time    0.1182
    EDDIAG:  cpu time   84.3552: real time   84.3588
  RMM-DIIS:  cpu time  215.5814: real time  215.5930
    ORTHCH:  cpu time   23.8404: real time   23.8409
       DOS:  cpu time    0.0016: real time    0.0016
    CHARGE:  cpu time   29.1739: real time   29.1746
    MIXING:  cpu time    1.1600: real time    1.1600
    --------------------------------------------
      LOOP:  cpu time  367.8314: real time  367.8494

 eigenvalue-minimisations  :   701
 total energy-change (2. order) : 0.1774054E+00  (-0.3027104E-01)
 number of electron     559.9999866 magnetization 
 augmentation part      241.1427838 magnetization 

 Broyden mixing:
  rms(total) = 0.10667E+01    rms(broyden)= 0.10665E+01
  rms(prec ) = 0.12281E+01
  weight for this iteration     100.00

 eigenvalues of (default mixing * dielectric matrix)
  average eigenvalue GAMMA=   0.3153
  1.7362  1.0985  0.3942  0.3942  0.1951  0.1951  0.0974  0.0974  0.1032  0.1004
  0.1004  0.0630  0.0603  0.0493  0.0440

 Free energy of the ion-electron system (eV)
  ---------------------------------------------------
  alpha Z        PSCENC =        75.25431677
  Ewald energy   TEWEN  =    137468.16755253
  -Hartree energ DENC   =   -181623.35119316
  -exchange      EXHF   =         0.00000000
  -V(xc)+E(xc)   XCENC  =     -1694.16671825
  PAW double counting   =     46207.61056426   -42682.09558785
  entropy T*S    EENTRO =         0.01753909
  eigenvalues    EBANDS =     -3013.56389485
  atomic energy  EATOM  =     45086.50549395
  Solvation  Ediel_sol  =         0.00000000
  ---------------------------------------------------
  free energy    TOTEN  =      -175.62192750 eV

  energy without entropy =     -175.63946659  energy(sigma->0) =     -175.62631227


--------------------------------------------------------------------------------------------------------




--------------------------------------- Iteration      1(  21)  ---------------------------------------


    POTLOK:  cpu time   14.8513: real time   14.8531
    SETDIJ:  cpu time    0.1202: real time    0.1202
    EDDIAG:  cpu time   86.7555: real time   86.7593
  RMM-DIIS:  cpu time  210.5493: real time  210.5608
    ORTHCH:  cpu time   23.6636: real time   23.6641
       DOS:  cpu time    0.0016: real time    0.0016
    CHARGE:  cpu time   29.7638: real time   29.7644
    MIXING:  cpu time    1.3579: real time    1.3580
    --------------------------------------------
      LOOP:  cpu time  367.0634: real time  367.0816

 eigenvalue-minimisations  :   697
 total energy-change (2. order) : 0.2555154E+00  (-0.2304787E-01)
 number of electron     559.9999859 magnetization 
 augmentation part      241.1698419 magnetization 

 Broyden mixing:
  rms(total) = 0.68032E+00    rms(broyden)= 0.68015E+00
  rms(prec ) = 0.77108E+00
  weight for this iteration     100.00

 eigenvalues of (default mixing * dielectric matrix)
  average eigenvalue GAMMA=   0.3186
  1.7993  1.1622  0.4116  0.4116  0.2158  0.2158  0.1872  0.0972  0.0972  0.0980
  0.0980  0.0893  0.0608  0.0608  0.0493  0.0439

 Free energy of the ion-electron system (eV)
  ---------------------------------------------------
  alpha Z        PSCENC =        75.25431677
  Ewald energy   TEWEN  =    137468.16755253
  -Hartree energ DENC   =   -181636.09645779
  -exchange      EXHF   =         0.00000000
  -V(xc)+E(xc)   XCENC  =     -1694.06408248
  PAW double counting   =     46211.03734432   -42684.96828587
  entropy T*S    EENTRO =        -0.06603881
  eigenvalues    EBANDS =     -3001.13625470
  atomic energy  EATOM  =     45086.50549395
  Solvation  Ediel_sol  =         0.00000000
  ---------------------------------------------------
  free energy    TOTEN  =      -175.36641207 eV

  energy without entropy =     -175.30037326  energy(sigma->0) =     -175.34990237


--------------------------------------------------------------------------------------------------------




--------------------------------------- Iteration      1(  22)  ---------------------------------------


    POTLOK:  cpu time   15.2263: real time   15.2279
    SETDIJ:  cpu time    0.1204: real time    0.1204
    EDDIAG:  cpu time   94.7926: real time   94.7995
  RMM-DIIS:  cpu time  206.9727: real time  206.9841
    ORTHCH:  cpu time   23.2236: real time   23.2241
       DOS:  cpu time    0.0016: real time    0.0016
    CHARGE:  cpu time   27.2900: real time   27.2905
    MIXING:  cpu time    1.2518: real time    1.2518
    --------------------------------------------
      LOOP:  cpu time  368.8789: real time  368.8999

 eigenvalue-minimisations  :   700
 total energy-change (2. order) :-0.1275012E-01  (-0.2040413E-01)
 number of electron     559.9999854 magnetization 
 augmentation part      241.1588310 magnetization 

 Broyden mixing:
  rms(total) = 0.83443E+00    rms(broyden)= 0.83428E+00
  rms(prec ) = 0.98875E+00
  weight for this iteration     100.00

 eigenvalues of (default mixing * dielectric matrix)
  average eigenvalue GAMMA=   0.3321
  1.9291  1.2289  0.6164  0.3532  0.3532  0.1875  0.1875  0.0973  0.0973  0.1113
  0.0987  0.0987  0.0439  0.0493  0.0697  0.0661  0.0582

 Free energy of the ion-electron system (eV)
  ---------------------------------------------------
  alpha Z        PSCENC =        75.25431677
  Ewald energy   TEWEN  =    137468.16755253
  -Hartree energ DENC   =   -181651.91751347
  -exchange      EXHF   =         0.00000000
  -V(xc)+E(xc)   XCENC  =     -1693.90858630
  PAW double counting   =     46214.27310238   -42687.47250762
  entropy T*S    EENTRO =        -0.06539552
  eigenvalues    EBANDS =     -2986.21562490
  atomic energy  EATOM  =     45086.50549395
  Solvation  Ediel_sol  =         0.00000000
  ---------------------------------------------------
  free energy    TOTEN  =      -175.37916218 eV

  energy without entropy =     -175.31376666  energy(sigma->0) =     -175.36281330


--------------------------------------------------------------------------------------------------------




--------------------------------------- Iteration      1(  23)  ---------------------------------------


    POTLOK:  cpu time   13.5961: real time   13.5979
    SETDIJ:  cpu time    0.1177: real time    0.1177
    EDDIAG:  cpu time   82.7117: real time   82.7158
  RMM-DIIS:  cpu time  193.2448: real time  193.2548
    ORTHCH:  cpu time   22.1463: real time   22.1468
       DOS:  cpu time    0.0015: real time    0.0015
    CHARGE:  cpu time   27.2624: real time   27.2631
    MIXING:  cpu time    1.2020: real time    1.2020
    --------------------------------------------
      LOOP:  cpu time  340.2825: real time  340.2996

 eigenvalue-minimisations  :   701
 total energy-change (2. order) : 0.1080429E+00  (-0.2022580E-01)
 number of electron     559.9999856 magnetization 
 augmentation part      241.0847457 magnetization 

 Broyden mixing:
  rms(total) = 0.68060E+00    rms(broyden)= 0.68038E+00
  rms(prec ) = 0.80302E+00
  weight for this iteration     100.00

 eigenvalues of (default mixing * dielectric matrix)
  average eigenvalue GAMMA=   0.3388
  2.0800  1.2275  0.7497  0.3677  0.3677  0.1899  0.1899  0.1609  0.0973  0.0973
[...]
 -0.006  -0.012   0.004   0.004   0.005  -0.006  -0.011   0.003
 -0.011  -0.020   0.006   0.008   0.009  -0.010  -0.019   0.006
 -0.015  -0.005   0.013   0.000   0.022  -0.014  -0.005   0.012
  0.000  -0.023  -0.006  -0.015  -0.000   0.000  -0.022  -0.006
 -0.022   0.000   0.009  -0.005  -0.016  -0.021   0.000   0.009
 -0.018  -0.006   0.015   0.000   0.027  -0.017  -0.006   0.015
  0.000  -0.027  -0.007  -0.018  -0.000   0.000  -0.027  -0.007
 -0.027   0.000   0.011  -0.006  -0.019  -0.026   0.000   0.010
 total augmentation occupancy for first ion, spin component:           1
  1.533  -0.031   0.006   0.015   0.021   0.076  -0.008  -0.002   0.036  -0.009   0.086  -0.029   0.012   0.002   0.003  -0.019
 -0.031   1.401   0.030   0.070  -0.001  -0.007   0.071   0.011  -0.014  -0.008   0.215  -0.065   0.019   0.001   0.003  -0.006
  0.006   0.030   1.542   0.002   0.002  -0.002   0.012   0.074  -0.013   0.017  -0.049   0.016  -0.003  -0.007  -0.005   0.016
  0.015   0.070   0.002   1.337   0.044   0.034  -0.013  -0.012   0.092  -0.023  -0.086   0.023  -0.001  -0.008  -0.003   0.001
  0.021  -0.001   0.002   0.044   1.441  -0.010  -0.008   0.016  -0.022   0.067  -0.098   0.032  -0.002  -0.010  -0.009   0.026
  0.076  -0.007  -0.002   0.034  -0.010   0.217   0.018  -0.002  -0.045   0.003  -0.048   0.002   0.017  -0.010   0.034  -0.004
 -0.008   0.071   0.012  -0.013  -0.008   0.018   0.263  -0.023  -0.003   0.006  -0.109   0.007  -0.001   0.052  -0.010  -0.000
 -0.002   0.011   0.074  -0.012   0.016  -0.002  -0.023   0.215   0.014  -0.020   0.028  -0.001  -0.012   0.009  -0.018   0.003
  0.036  -0.014  -0.013   0.092  -0.022  -0.045  -0.003   0.014   0.261   0.007   0.043  -0.004  -0.009   0.036   0.004   0.000
 -0.009  -0.008   0.017  -0.023   0.067   0.003   0.006  -0.020   0.007   0.259   0.047  -0.003  -0.038   0.002   0.049   0.007
  0.086   0.215  -0.049  -0.086  -0.098  -0.048  -0.109   0.028   0.043   0.047   0.947  -0.140   0.084   0.014   0.064  -0.013
 -0.029  -0.065   0.016   0.023   0.032   0.002   0.007  -0.001  -0.004  -0.003  -0.140   0.023  -0.014  -0.003  -0.010   0.003
  0.012   0.019  -0.003  -0.001  -0.002   0.017  -0.001  -0.012  -0.009  -0.038   0.084  -0.014   0.029  -0.008  -0.004  -0.003
  0.002   0.001  -0.007  -0.008  -0.010  -0.010   0.052   0.009   0.036   0.002   0.014  -0.003  -0.008   0.036   0.004   0.000
  0.003   0.003  -0.005  -0.003  -0.009   0.034  -0.010  -0.018   0.004   0.049   0.064  -0.010  -0.004   0.004   0.034  -0.000
 -0.019  -0.006   0.016   0.001   0.026  -0.004  -0.000   0.003   0.000   0.007  -0.013   0.003  -0.003   0.000  -0.000   0.001
  0.001  -0.028  -0.007  -0.018   0.001   0.001  -0.008  -0.002  -0.006  -0.000  -0.003   0.001   0.000  -0.003  -0.000   0.000
 -0.028   0.001   0.012  -0.005  -0.020  -0.006   0.001   0.003  -0.001  -0.007  -0.008   0.001  -0.000  -0.000  -0.003   0.000


------------------------ aborting loop because EDIFF is reached ----------------------------------------


    CHARGE:  cpu time   29.4769: real time   29.4777
    FORLOC:  cpu time    6.9590: real time    6.9595
    FORNL :  cpu time   77.4827: real time   77.4853
    STRESS:  cpu time  225.4047: real time  225.4096
    FORCOR:  cpu time   22.3160: real time   22.3167
    FORHAR:  cpu time    9.7821: real time    9.7824
    MIXING:  cpu time    3.6718: real time    3.6720
    OFIELD:  cpu time    0.0001: real time    0.0001

  FORCE on cell =-STRESS in cart. coord.  units (eV):
  Direction    XX          YY          ZZ          XY          YZ          ZX
  --------------------------------------------------------------------------------------
  Alpha Z    75.25432    75.25432    75.25432
  Ewald   45581.61241 46177.82610 45708.62341  1550.40586  1620.60681  1479.03658
  Hartree 60376.46644 60899.85794 60544.56315  1384.17379  1494.95344  1364.37622
  E(xc)   -2904.79985 -2904.10299 -2905.24556     1.25719     0.50836     0.46057
  Local  ************************************ -2915.86695 -3105.09999 -2833.80258
  n-local  -882.30713  -882.66365  -882.86717    -2.32951    -1.54390    -2.19417
  augment  4103.70482  4101.72682  4105.36558    -2.93393    -0.19846     0.03292
  Kinetic  7805.72829  7798.39290  7809.10357   -14.10674    -7.07869    -6.14531
  Fock        0.00000     0.00000     0.00000     0.00000     0.00000     0.00000
  -------------------------------------------------------------------------------------
  Total    -112.56302  -113.03542  -111.91152     0.59971     2.14757     1.76422
  in kB      -6.67948    -6.70751    -6.64082     0.03559     0.12744     0.10469
  external pressure =       -6.68 kB  Pullay stress =        0.00 kB


 VOLUME and BASIS-vectors are now :
 -----------------------------------------------------------------------------
  energy-cutoff  :      400.00
  volume of cell :    27000.00
      direct lattice vectors                 reciprocal lattice vectors
    30.000000000  0.000000000  0.000000000     0.033333333  0.000000000  0.000000000
     0.000000000 30.000000000  0.000000000     0.000000000  0.033333333  0.000000000
     0.000000000  0.000000000 30.000000000     0.000000000  0.000000000  0.033333333

  length of vectors
    30.000000000 30.000000000 30.000000000     0.033333333  0.033333333  0.033333333


 FORCES acting on ions
    electron-ion (+dipol)            ewald-force                    non-local-force                 convergence-correction
 -----------------------------------------------------------------------------------------------
   0.396E+03 0.973E+03 0.418E+03   -.394E+03 -.970E+03 -.418E+03   -.151E+01 -.182E+01 -.226E+00   -.188E-02 0.297E-02 -.602E-02
   -.971E+03 -.386E+03 0.431E+03   0.968E+03 0.384E+03 -.430E+03   0.183E+01 0.149E+01 -.231E+00   -.117E-01 -.772E-04 -.243E-02
   -.392E+03 0.974E+03 0.419E+03   0.390E+03 -.971E+03 -.419E+03   0.150E+01 -.183E+01 -.230E+00   0.453E-02 0.669E-02 -.611E-02
   0.974E+03 -.392E+03 0.419E+03   -.971E+03 0.389E+03 -.419E+03   -.183E+01 0.151E+01 -.229E+00   0.594E-02 0.124E-02 -.105E-02
   0.199E+01 0.589E+03 0.967E+03   -.198E+01 -.588E+03 -.963E+03   -.889E-03 -.319E+00 -.235E+01   0.353E-02 0.109E-01 -.161E-02
   0.591E+01 0.596E+03 -.963E+03   -.592E+01 -.595E+03 0.959E+03   0.603E-02 -.311E+00 0.235E+01   0.403E-03 0.264E-02 0.518E-02
   0.223E+01 0.113E+04 0.243E+01   -.222E+01 -.113E+04 -.242E+01   -.106E-03 -.311E+01 -.191E-02   0.950E-03 -.410E-02 -.366E-02
   0.114E+04 0.255E+01 0.251E+01   -.113E+04 -.255E+01 -.251E+01   -.311E+01 -.144E-02 -.866E-03   -.697E-03 0.350E-02 -.278E-02
   -.114E+04 0.152E+02 0.150E+02   0.113E+04 -.152E+02 -.150E+02   0.312E+01 0.853E-03 -.302E-01   -.406E-02 0.332E-02 -.351E-02
   0.170E+02 -.114E+04 0.187E+02   -.170E+02 0.113E+04 -.186E+02   -.122E-01 0.313E+01 -.373E-01   0.142E-02 -.553E-02 -.471E-02
   -.577E+03 0.581E+03 0.815E+03   0.574E+03 -.579E+03 -.812E+03   0.156E+01 -.156E+01 -.220E+01   0.106E-02 0.104E-01 -.889E-03
   -.575E+03 0.593E+03 -.810E+03   0.572E+03 -.591E+03 0.807E+03   0.156E+01 -.153E+01 0.219E+01   0.404E-02 0.271E-02 0.122E-02
   0.581E+03 -.576E+03 0.816E+03   -.579E+03 0.574E+03 -.813E+03   -.156E+01 0.156E+01 -.220E+01   0.909E-02 -.165E-02 0.174E-02
   0.595E+03 -.573E+03 -.810E+03   -.593E+03 0.571E+03 0.807E+03   -.158E+01 0.155E+01 0.218E+01   0.160E-02 0.361E-02 -.156E-02
   0.580E+03 0.580E+03 0.814E+03   -.577E+03 -.577E+03 -.810E+03   -.156E+01 -.156E+01 -.220E+01   0.964E-03 0.588E-02 -.228E-02
   0.583E+03 0.583E+03 -.811E+03   -.580E+03 -.581E+03 0.808E+03   -.155E+01 -.156E+01 0.220E+01   -.300E-02 0.110E-04 0.456E-02
   -.576E+03 -.575E+03 0.822E+03   0.573E+03 0.573E+03 -.818E+03   0.156E+01 0.156E+01 -.220E+01   -.764E-02 -.552E-02 0.492E-02
   -.436E+03 -.374E+03 -.772E+03   0.439E+03 0.379E+03 0.770E+03   -.282E+01 -.481E+01 0.788E+00   -.326E-05 0.125E-02 -.253E-02
   0.397E+03 0.975E+03 -.414E+03   -.395E+03 -.972E+03 0.413E+03   -.150E+01 -.182E+01 0.222E+00   -.243E-02 -.184E-02 0.107E-02
   -.976E+03 -.342E+03 -.378E+03   0.973E+03 0.340E+03 0.377E+03   0.175E+01 0.172E+01 0.421E+00   -.692E-03 0.136E-02 -.714E-02
   -.317E+03 0.327E+03 0.459E+03   0.318E+03 -.327E+03 -.460E+03   -.362E+00 0.373E+00 0.530E+00   0.344E-02 0.179E-01 -.619E-02
   0.973E+03 0.396E+03 0.418E+03   -.970E+03 -.394E+03 -.418E+03   -.182E+01 -.151E+01 -.231E+00   0.215E-02 0.497E-02 -.353E-02
   -.386E+03 -.970E+03 0.432E+03   0.384E+03 0.967E+03 -.432E+03   0.149E+01 0.183E+01 -.232E+00   0.306E-03 -.122E-01 -.638E-02
   -.391E+03 0.977E+03 -.413E+03   0.389E+03 -.974E+03 0.413E+03   0.151E+01 -.181E+01 0.220E+00   0.505E-02 -.978E-03 -.739E-03
   0.978E+03 -.390E+03 -.413E+03   -.975E+03 0.388E+03 0.412E+03   -.180E+01 0.151E+01 0.223E+00   -.973E-04 0.507E-02 -.443E-02
   -.970E+03 0.401E+03 0.424E+03   0.968E+03 -.399E+03 -.423E+03   0.181E+01 -.149E+01 -.206E+00   -.611E-02 0.887E-02 -.246E-02
   0.401E+03 -.970E+03 0.425E+03   -.399E+03 0.967E+03 -.424E+03   -.149E+01 0.181E+01 -.213E+00   0.634E-02 -.695E-02 -.389E-02
   0.324E+03 0.325E+03 0.457E+03   -.325E+03 -.325E+03 -.458E+03   0.358E+00 0.359E+00 0.521E+00   0.608E-02 0.125E-01 -.645E-02
   0.405E+01 0.644E+03 0.444E+01   -.406E+01 -.645E+03 -.443E+01   -.259E-02 0.734E+00 -.131E-02   0.380E-02 0.111E-01 -.895E-02
   -.584E+03 0.442E+01 0.970E+03   0.584E+03 -.442E+01 -.967E+03   0.314E+00 0.728E-04 -.235E+01   -.701E-02 0.743E-02 0.507E-02
   -.576E+03 0.441E+02 -.960E+03   0.575E+03 -.440E+02 0.956E+03   0.523E+00 -.130E+00 0.243E+01   0.202E-02 0.660E-02 -.191E-02
   0.589E+03 0.226E+01 0.967E+03   -.588E+03 -.225E+01 -.963E+03   -.322E+00 -.583E-02 -.235E+01   0.725E-02 0.373E-02 -.125E-03
   0.596E+03 0.701E+01 -.963E+03   -.595E+03 -.702E+01 0.959E+03   -.315E+00 0.863E-02 0.235E+01   0.160E-03 0.528E-02 0.958E-03
   0.763E+03 0.763E+03 0.270E+01   -.761E+03 -.761E+03 -.269E+01   -.115E+01 -.115E+01 -.400E-02   -.264E-02 0.429E-02 -.647E-02
   -.750E+03 -.746E+03 0.390E+02   0.748E+03 0.744E+03 -.390E+02   0.116E+01 0.118E+01 0.695E-01   -.351E-02 -.494E-02 -.910E-02
   -.758E+03 0.768E+03 0.591E+01   0.756E+03 -.767E+03 -.591E+01   0.115E+01 -.114E+01 0.603E-02   0.442E-02 0.991E-02 -.686E-02
   0.769E+03 -.757E+03 0.671E+01   -.767E+03 0.755E+03 -.670E+01   -.115E+01 0.113E+01 -.522E-02   0.445E-02 0.509E-03 -.450E-02
   0.301E+01 0.334E+01 0.107E+04   -.302E+01 -.334E+01 -.107E+04   0.285E-03 -.354E-02 -.162E+01   0.686E-02 0.954E-02 0.612E-02
   0.174E+02 0.195E+02 -.107E+04   -.174E+02 -.195E+02 0.106E+04   -.535E-01 -.456E-01 0.162E+01   0.226E-02 0.660E-02 0.132E-03
   0.975E+03 0.398E+03 -.414E+03   -.972E+03 -.396E+03 0.413E+03   -.182E+01 -.150E+01 0.227E+00   -.381E-02 0.401E-02 -.299E-02
   -.333E+03 -.967E+03 -.363E+03   0.331E+03 0.964E+03 0.362E+03   0.173E+01 0.166E+01 0.521E+00   0.108E-02 -.270E-02 -.317E-02
   -.313E+03 0.337E+03 -.446E+03   0.314E+03 -.337E+03 0.446E+03   -.392E+00 0.298E+00 -.539E+00   0.407E-02 0.106E-01 -.722E-02
   0.327E+03 -.317E+03 0.460E+03   -.327E+03 0.317E+03 -.460E+03   0.374E+00 -.356E+00 0.535E+00   0.119E-01 0.228E-02 -.488E-02
   0.328E+03 0.329E+03 -.449E+03   -.329E+03 -.329E+03 0.449E+03   0.377E+00 0.372E+00 -.520E+00   0.187E-02 0.889E-02 -.377E-02
   -.971E+03 0.415E+03 -.407E+03   0.968E+03 -.413E+03 0.406E+03   0.182E+01 -.155E+01 0.247E+00   0.323E-02 0.729E-02 -.733E-02
   0.419E+03 -.969E+03 -.405E+03   -.417E+03 0.966E+03 0.404E+03   -.152E+01 0.182E+01 0.265E+00   0.107E-02 -.159E-02 -.283E-02
   -.315E+03 -.314E+03 0.465E+03   0.315E+03 0.314E+03 -.466E+03   -.370E+00 -.370E+00 0.520E+00   0.547E-03 0.790E-03 -.696E-02
   0.644E+03 0.471E+01 0.465E+01   -.645E+03 -.473E+01 -.465E+01   0.734E+00 0.759E-02 0.552E-02   0.358E-02 0.789E-02 -.733E-02
   -.634E+03 0.162E+02 0.159E+02   0.635E+03 -.162E+02 -.159E+02   -.738E+00 -.239E-01 -.412E-01   -.153E-02 0.767E-02 -.114E-01
   0.419E+01 -.584E+03 0.971E+03   -.419E+01 0.583E+03 -.967E+03   -.367E-03 0.318E+00 -.234E+01   0.776E-02 -.555E-02 0.561E-02
   0.489E+02 -.567E+03 -.959E+03   -.492E+02 0.566E+03 0.955E+03   0.149E+00 0.513E+00 0.239E+01   0.163E-02 0.199E-02 -.178E-02
   0.879E+01 0.981E+01 0.965E+01   -.883E+01 -.986E+01 -.968E+01   0.210E-01 0.237E-01 0.192E-01   0.727E-02 0.105E-01 -.138E-01
   0.337E+03 -.311E+03 -.445E+03   -.338E+03 0.311E+03 0.446E+03   0.303E+00 -.398E+00 -.544E+00   0.306E-02 0.602E-02 -.635E-02
   -.295E+03 -.290E+03 -.429E+03   0.295E+03 0.290E+03 0.429E+03   -.305E+00 -.221E+00 -.602E+00   0.236E-02 0.368E-02 -.809E-02
   0.162E+02 -.631E+03 0.179E+02   -.162E+02 0.632E+03 -.178E+02   -.114E-01 -.752E+00 -.352E-01   0.401E-02 -.413E-02 -.110E-01
   -.143E+03 -.177E+03 -.763E+02   0.130E+03 0.162E+03 0.627E+02   0.985E+01 0.107E+02 0.117E+02   -.393E-03 -.629E-03 -.107E-02
   -.393E+03 -.444E+03 -.396E+03   0.428E+03 0.483E+03 0.435E+03   -.322E+02 -.360E+02 -.366E+02   -.278E-03 -.565E-03 -.123E-02
 -----------------------------------------------------------------------------------------------
   0.263E+02 0.313E+02 0.260E+02   -.227E-12 -.682E-12 -.216E-11   -.263E+02 -.315E+02 -.258E+02   0.841E-01 0.183E+00 -.183E+00
 
 
 POSITION                                       TOTAL-FORCE (eV/Angst)
 -----------------------------------------------------------------------------------
     13.37281      9.84801     12.50759         0.705941      1.105223      0.295255
     20.15199     16.62719     12.50759        -1.109130     -0.703337      0.291012
     16.62719      9.84801     12.50759        -0.701344      1.102926      0.290491
      9.84801     16.62719     12.50759         1.101634     -0.702262      0.289423
     15.00000     11.47521     10.20639         0.004399      0.417252      1.279895
     15.00000     11.47521     19.79360        -0.001080      0.408904     -1.284380
     15.00000      8.28283     15.00000         0.001163      1.516967      0.001540
      8.28283     15.00000     15.00000         1.516576      0.000994      0.000574
     21.71717     15.00000     15.00000        -1.515184      0.000131      0.003814
     15.00000     21.71717     15.00000         0.004092     -1.518724      0.008482
     18.35858     11.64142     10.25025        -0.756001      0.756959      1.071524
     18.35858     11.64142     19.74975        -0.766503      0.727004     -1.064048
     11.64142     18.35858     10.25025         0.756154     -0.757206      1.071396
     11.64142     18.35858     19.74975         0.758610     -0.760697     -1.057752
     11.64142     11.64142     10.25025         0.758028      0.757902      1.070060
     11.64142     11.64142     19.74975         0.755712      0.755966     -1.074127
     18.35858     18.35858     10.25025        -0.755676     -0.756146      1.071809
     18.35858     18.35858     19.74975         0.157694      0.480693     -1.170600
     13.37281      9.84801     17.49241         0.704361      1.107566     -0.289656
     20.15199     16.62719     17.49241        -1.070739     -0.790957     -0.329353
     16.73751     13.26249     12.54279         0.108959     -0.112937     -0.165577
      9.84801     13.37281     12.50759         1.104314      0.706320      0.298385
     16.62719     20.15199     12.50759        -0.703635     -1.108992      0.291939
     16.62719      9.84801     17.49241        -0.711638      1.103971     -0.291735
      9.84801     16.62719     17.49241         1.102386     -0.710614     -0.295282
     20.15199     13.37281     12.50759        -1.111255      0.704191      0.289101
     13.37281     20.15199     12.50759         0.702904     -1.109846      0.293575
     13.26249     13.26249     12.54279        -0.110734     -0.113504     -0.153521
     15.00000     11.52498     15.00000        -0.001150     -0.230549      0.000118
     18.52479     15.00000     10.20639        -0.415996      0.000906      1.279635
     18.52479     15.00000     19.79360        -0.405701     -0.057691     -1.293108
     11.47521     15.00000     10.20640         0.418784      0.006799      1.279858
     11.47521     15.00000     19.79360         0.409487     -0.001497     -1.283796
     11.49535     11.49535     15.00000         0.828724      0.829653      0.002702
     18.50465     18.50465     15.00000        -0.830024     -0.836188     -0.029278
     18.50465     11.49535     15.00000        -0.831291      0.834205     -0.003948
     11.49535     18.50465     15.00000         0.838272     -0.827129      0.001809
     15.00000     15.00000     10.04368         0.001184      0.000840      1.177409
     15.00000     15.00000     19.95633         0.013103      0.009020     -1.183580
      9.84801     13.37281     17.49241         1.107479      0.702899     -0.291368
     16.62719     20.15199     17.49241        -0.757119     -1.048376     -0.319896
     16.73751     13.26249     17.45721         0.109305     -0.091382      0.162803
     13.26249     16.73751     12.54279        -0.115641      0.108812     -0.166205
     13.26249     13.26249     17.45721        -0.108564     -0.109695      0.157873
     20.15199     13.37281     17.49241        -1.103890      0.731202     -0.292285
     13.37281     20.15199     17.49241         0.718543     -1.109937     -0.299364
     16.73751     16.73751     12.54279         0.113585      0.113553     -0.152188
     11.52498     15.00000     15.00000        -0.233005     -0.003042     -0.002651
     18.47502     15.00000     15.00000         0.225661     -0.004382      0.000020
     15.00000     18.52480     10.20639         0.000954     -0.417120      1.279157
     15.00000     18.52480     19.79360        -0.134654     -0.382212     -1.294328
     15.00000     15.00000     15.00000        -0.015690     -0.014091     -0.025419
     13.26249     16.73751     17.45721        -0.097484      0.107448      0.158769
     16.73751     16.73751     17.45721         0.050539      0.018344      0.119337
     15.00000     18.47502     15.00000        -0.003842      0.225146     -0.000643
     19.45447     20.00002     19.90554        -3.187656     -3.989851     -1.890647
     20.05977     20.67946     20.57214         2.476078      2.926568      2.166970
 -----------------------------------------------------------------------------------
    total drift:                               -0.002629     -0.005339      0.000560


--------------------------------------------------------------------------------------------------------



  FREE ENERGIE OF THE ION-ELECTRON SYSTEM (eV)
  ---------------------------------------------------
  free  energy   TOTEN  =      -174.94687529 eV

  energy  without entropy=     -174.85800552  energy(sigma->0) =     -174.92465785
 


--------------------------------------------------------------------------------------------------------


    POTLOK:  cpu time   14.5041: real time   14.5046


--------------------------------------------------------------------------------------------------------


     LOOP+:  cpu time21629.5328: real time21630.8310
    4ORBIT:  cpu time    0.0000: real time    0.0000

 total amount of memory used by VASP MPI-rank0  5486941. kBytes
=======================================================================

   base      :      30000. kBytes
   nonlr-proj:      17126. kBytes
   fftplans  :     924480. kBytes
   grid      :    1872000. kBytes
   one-center:        886. kBytes
   wavefun   :    2642449. kBytes
 
  
  
 General timing and accounting informations for this job:
 ========================================================
  
                  Total CPU time used (sec):    21712.189
                            User time (sec):    20429.243
                          System time (sec):     1282.946
                         Elapsed time (sec):    21713.588
  
                   Maximum memory used (kb):     7180724.
                   Average memory used (kb):           0.
  
                          Minor page faults:    815082968
                          Major page faults:            0
                 Voluntary context switches:          643
