 running on    1 total cores
 distrk:  each k-point on    1 cores,    1 groups
 distr:  one band on    1 cores,    1 groups
 using from now: INCAR     
 vasp.5.4.4.18Apr17-6-g9f103f2a35 (build Sep 03 2018 23:53:05) complex          
  
 POSCAR found type information on POSCAR  Pd C  O 
 POSCAR found :  3 types and      57 ions
 scaLAPACK will be used

 ----------------------------------------------------------------------------- 
|                                                                             |
|  ADVICE TO THIS USER RUNNING 'VASP/VAMP'   (HEAR YOUR MASTER'S VOICE ...):  |
|                                                                             |
|      You enforced a specific xc-type in the INCAR file,                     |
|      a different type was found on the POTCAR file                          |
|          I HOPE YOU KNOW, WHAT YOU ARE  DOING                               |
|                                                                             |
 ----------------------------------------------------------------------------- 

 LDA part: xc-table for Pade appr. of Perdew
 POSCAR, INCAR and KPOINTS ok, starting setup
 FFT: planning ...
 WAVECAR not read
 entering main loop
       N       E                     dE             d eps       ncg     rms          rms(c)
DAV:   1     0.438837698117E+04    0.43884E+04   -0.10050E+05   688   0.815E+02
DAV:   2     0.201393396230E+04   -0.23744E+04   -0.21353E+04  1224   0.105E+02
DAV:   3     0.232539014852E+03   -0.17814E+04   -0.16759E+04  1000   0.919E+01
DAV:   4    -0.134990160522E+03   -0.36753E+03   -0.31344E+03   832   0.435E+01
DAV:   5    -0.179793778419E+03   -0.44804E+02   -0.37334E+02  1056   0.145E+01    0.148E+01
RMM:   6    -0.179882829259E+03   -0.89051E-01   -0.55592E+01   728   0.891E+00    0.253E+01
RMM:   7    -0.182028335471E+03   -0.21455E+01   -0.19627E+01   870   0.428E+00    0.234E+01
RMM:   8    -0.183997956500E+03   -0.19696E+01   -0.71381E+00   773   0.342E+00    0.260E+01
RMM:   9    -0.182909450027E+03    0.10885E+01   -0.55173E+00   737   0.319E+00    0.259E+01
RMM:  10    -0.181442257239E+03    0.14672E+01   -0.32597E+00   738   0.261E+00    0.270E+01
RMM:  11    -0.179059697640E+03    0.23826E+01   -0.19422E+00   736   0.201E+00    0.163E+01
RMM:  12    -0.177665875609E+03    0.13938E+01   -0.22910E+00   716   0.228E+00    0.164E+01
RMM:  13    -0.177211018413E+03    0.45486E+00   -0.10848E+00   724   0.156E+00    0.168E+01
RMM:  14    -0.176791556352E+03    0.41946E+00   -0.13099E+00   718   0.166E+00    0.156E+01
RMM:  15    -0.177120617677E+03   -0.32906E+00   -0.11017E+00   717   0.154E+00    0.170E+01
RMM:  16    -0.176641982246E+03    0.47864E+00   -0.86368E-01   718   0.139E+00    0.136E+01
RMM:  17    -0.175881441621E+03    0.76054E+00   -0.75386E-01   708   0.131E+00    0.120E+01
RMM:  18    -0.175654386243E+03    0.22706E+00   -0.46799E-01   705   0.102E+00    0.132E+01
RMM:  19    -0.175606079093E+03    0.48307E-01   -0.42548E-01   715   0.983E-01    0.106E+01
RMM:  20    -0.175524790390E+03    0.81289E-01   -0.39145E-01   704   0.932E-01    0.970E+00
RMM:  21    -0.175329813269E+03    0.19498E+00   -0.23972E-01   704   0.748E-01    0.880E+00
RMM:  22    -0.175173603884E+03    0.15621E+00   -0.19391E-01   703   0.656E-01    0.584E+00
RMM:  23    -0.175148410698E+03    0.25193E-01   -0.18242E-01   700   0.643E-01    0.612E+00
RMM:  24    -0.175091347544E+03    0.57063E-01   -0.16768E-01   699   0.634E-01    0.562E+00
RMM:  25    -0.175073214860E+03    0.18133E-01   -0.12040E-01   703   0.537E-01    0.585E+00
RMM:  26    -0.175000974151E+03    0.72241E-01   -0.95959E-02   698   0.488E-01    0.475E+00
RMM:  27    -0.174898183548E+03    0.10279E+00   -0.53210E-02   696   0.382E-01    0.243E+00
RMM:  28    -0.174887668549E+03    0.10515E-01   -0.31588E-02   696   0.282E-01    0.227E+00
RMM:  29    -0.174871088873E+03    0.16580E-01   -0.21069E-02   697   0.231E-01    0.170E+00
RMM:  30    -0.174858349998E+03    0.12739E-01   -0.13288E-02   697   0.192E-01    0.115E+00
RMM:  31    -0.174856531905E+03    0.18181E-02   -0.78014E-03   700   0.144E-01    0.116E+00
RMM:  32    -0.174853139279E+03    0.33926E-02   -0.59982E-03   697   0.125E-01    0.105E+00
RMM:  33    -0.174849495135E+03    0.36441E-02   -0.41032E-03   695   0.104E-01    0.803E-01
RMM:  34    -0.174849019731E+03    0.47540E-03   -0.40173E-03   695   0.983E-02    0.734E-01
RMM:  35    -0.174848955183E+03    0.64547E-04   -0.28086E-03   692   0.866E-02    0.696E-01
RMM:  36    -0.174848400492E+03    0.55469E-03   -0.15526E-03   692   0.675E-02    0.448E-01
RMM:  37    -0.174850530481E+03   -0.21300E-02   -0.14080E-03   694   0.611E-02    0.435E-01
RMM:  38    -0.174852118506E+03   -0.15880E-02   -0.10151E-03   691   0.512E-02    0.279E-01
RMM:  39    -0.174853850172E+03   -0.17317E-02   -0.66608E-04   643   0.406E-02    0.262E-01
RMM:  40    -0.174857206146E+03   -0.33560E-02   -0.68028E-04   641   0.385E-02    0.285E-01
RMM:  41    -0.174859020885E+03   -0.18147E-02   -0.39752E-04   495   0.319E-02    0.181E-01
RMM:  42    -0.174860670124E+03   -0.16492E-02   -0.28857E-04   422   0.266E-02    0.190E-01
RMM:  43    -0.174863896888E+03   -0.32268E-02   -0.45117E-04   521   0.295E-02    0.140E-01
RMM:  44    -0.174865209823E+03   -0.13129E-02   -0.21339E-04   424   0.207E-02    0.116E-01
RMM:  45    -0.174867588454E+03   -0.23786E-02   -0.28329E-04   438   0.206E-02    0.103E-01
RMM:  46    -0.174868807749E+03   -0.12193E-02   -0.16678E-04   418   0.168E-02    0.743E-02
RMM:  47    -0.174870546632E+03   -0.17389E-02   -0.19041E-04   421   0.162E-02    0.958E-02
RMM:  48    -0.174871301131E+03   -0.75450E-03   -0.10512E-04   413   0.127E-02    0.491E-02
RMM:  49    -0.174872174605E+03   -0.87347E-03   -0.82282E-05   411   0.110E-02    0.729E-02
RMM:  50    -0.174873113726E+03   -0.93912E-03   -0.78072E-05   410   0.103E-02    0.453E-02
RMM:  51    -0.174873353877E+03   -0.24015E-03   -0.37301E-05   400   0.735E-03    0.365E-02
RMM:  52    -0.174873918840E+03   -0.56496E-03   -0.26788E-05   372   0.611E-03    0.271E-02
RMM:  53    -0.174874143814E+03   -0.22497E-03   -0.94393E-06   219   0.446E-03    0.202E-02
RMM:  54    -0.174874805736E+03   -0.66192E-03   -0.18593E-05   348   0.527E-03    0.244E-02
RMM:  55    -0.174875118515E+03   -0.31278E-03   -0.51862E-06   172   0.408E-03    0.114E-02
RMM:  56    -0.174875338170E+03   -0.21966E-03   -0.79765E-06   212   0.420E-03    0.158E-02
RMM:  57    -0.174875670867E+03   -0.33270E-03   -0.94901E-06   205   0.424E-03    0.994E-03
RMM:  58    -0.174875805662E+03   -0.13480E-03   -0.50865E-06   158   0.378E-03    0.731E-03
RMM:  59    -0.174876030577E+03   -0.22491E-03   -0.14158E-05   230   0.427E-03    0.987E-03
RMM:  60    -0.174876135692E+03   -0.10512E-03   -0.36453E-06   130   0.348E-03    0.457E-03
RMM:  61    -0.174876212272E+03   -0.76580E-04   -0.66587E-06   150   0.359E-03
   1 F= -.17487621E+03 E0= -.17485818E+03  d E =-.721389E-01
================================= SLURM INFO ===================================
Command: run-cluster -n 1 -m 10000 -j 0072_vasp --same-node /opt/VASP/vasp
Exit code: 0
Job name: 0072_vasp
Job time: 0 days 6h:2m:21s
MPI task count: 1
Working dir: /home/pashkov/pyFitIt/pyfitit/data/random_pd_co_new/sample/0072
Job was running on nodes: h23
Task per node: 1
       JobID     MaxRSS  MaxDiskRead MaxDiskWrite    Elapsed    JobName 
------------ ---------- ------------ ------------ ---------- ---------- 
105152                                              06:02:21  0072_vasp 
105152.batch                                        06:02:21      batch 
