  57  57   0   0
  0.4736842E+03  0.3000000E-08  0.3000000E-08  0.3000000E-08  0.5000000E-15
  1.000000000000000E-004
  CAR 
 6_Pd100_top_free_z(O)                   
      1.36984913    -31.21828928  301     -4.13069463      1.00000000
    -31.218  0.0000E+00  0.0000E+00
    -31.110  0.0000E+00  0.0000E+00
    -31.001  0.0000E+00  0.0000E+00
    -30.892  0.5381E-27  0.5845E-28
    -30.784  0.2890E-23  0.3140E-24
    -30.675  0.8464E-20  0.9198E-21
    -30.567  0.1348E-16  0.1465E-17
    -30.458  0.1163E-13  0.1264E-14
    -30.349  0.5413E-11  0.5893E-12
    -30.241  0.1346E-08  0.1468E-09
    -30.132  0.1771E-06  0.1939E-07
    -30.023  0.1212E-04  0.1335E-05
    -29.915  0.4177E-03  0.4671E-04
    -29.806  0.6812E-02  0.7867E-03
    -29.698  0.4400E-01  0.5566E-02
    -29.589  0.1926E-01  0.7658E-02
    -29.480 -0.5732E+00 -0.5460E-01
    -29.372 -0.1570E+00 -0.7166E-01
    -29.263  0.5676E+01  0.5449E+00
    -29.154  0.9946E+01  0.1625E+01
    -29.046  0.4335E+01  0.2096E+01
    -28.937 -0.5453E+00  0.2037E+01
    -28.828 -0.4277E+00  0.1990E+01
    -28.720  0.4854E-01  0.1996E+01
    -28.611  0.3448E-01  0.1999E+01
    -28.503  0.4413E-02  0.2000E+01
    -28.394  0.2353E-03  0.2000E+01
    -28.285  0.6027E-05  0.2000E+01
    -28.177  0.7836E-07  0.2000E+01
    -28.068  0.5316E-09  0.2000E+01
    -27.959  0.1913E-11  0.2000E+01
    -27.851  0.4088E-14  0.2000E+01
    -27.742  0.0000E+00  0.2000E+01
    -27.634  0.0000E+00  0.2000E+01
    -27.525  0.0000E+00  0.2000E+01
    -27.416  0.0000E+00  0.2000E+01
    -27.308  0.0000E+00  0.2000E+01
    -27.199  0.0000E+00  0.2000E+01
    -27.090  0.0000E+00  0.2000E+01
    -26.982  0.0000E+00  0.2000E+01
    -26.873  0.0000E+00  0.2000E+01
    -26.765  0.0000E+00  0.2000E+01
    -26.656  0.0000E+00  0.2000E+01
    -26.547  0.0000E+00  0.2000E+01
    -26.439  0.0000E+00  0.2000E+01
    -26.330  0.0000E+00  0.2000E+01
    -26.221  0.0000E+00  0.2000E+01
    -26.113  0.0000E+00  0.2000E+01
    -26.004  0.0000E+00  0.2000E+01
    -25.896  0.0000E+00  0.2000E+01
    -25.787  0.0000E+00  0.2000E+01
    -25.678  0.0000E+00  0.2000E+01
    -25.570  0.0000E+00  0.2000E+01
    -25.461  0.0000E+00  0.2000E+01
    -25.352  0.0000E+00  0.2000E+01
    -25.244  0.0000E+00  0.2000E+01
    -25.135  0.0000E+00  0.2000E+01
    -25.027  0.0000E+00  0.2000E+01
    -24.918  0.0000E+00  0.2000E+01
    -24.809  0.0000E+00  0.2000E+01
    -24.701  0.0000E+00  0.2000E+01
    -24.592  0.0000E+00  0.2000E+01
    -24.483  0.0000E+00  0.2000E+01
    -24.375  0.0000E+00  0.2000E+01
    -24.266  0.0000E+00  0.2000E+01
    -24.158  0.0000E+00  0.2000E+01
    -24.049  0.0000E+00  0.2000E+01
    -23.940  0.0000E+00  0.2000E+01
    -23.832  0.0000E+00  0.2000E+01
    -23.723  0.0000E+00  0.2000E+01
    -23.614  0.0000E+00  0.2000E+01
    -23.506  0.0000E+00  0.2000E+01
    -23.397  0.0000E+00  0.2000E+01
    -23.289  0.0000E+00  0.2000E+01
    -23.180  0.0000E+00  0.2000E+01
    -23.071  0.0000E+00  0.2000E+01
    -22.963  0.0000E+00  0.2000E+01
    -22.854  0.0000E+00  0.2000E+01
    -22.745  0.0000E+00  0.2000E+01
    -22.637  0.0000E+00  0.2000E+01
    -22.528  0.0000E+00  0.2000E+01
    -22.419  0.0000E+00  0.2000E+01
    -22.311  0.0000E+00  0.2000E+01
    -22.202  0.0000E+00  0.2000E+01
    -22.094  0.0000E+00  0.2000E+01
    -21.985  0.0000E+00  0.2000E+01
    -21.876  0.0000E+00  0.2000E+01
    -21.768  0.0000E+00  0.2000E+01
    -21.659  0.0000E+00  0.2000E+01
    -21.550  0.0000E+00  0.2000E+01
    -21.442  0.0000E+00  0.2000E+01
    -21.333  0.0000E+00  0.2000E+01
    -21.225  0.0000E+00  0.2000E+01
    -21.116  0.0000E+00  0.2000E+01
    -21.007  0.0000E+00  0.2000E+01
    -20.899  0.0000E+00  0.2000E+01
    -20.790  0.0000E+00  0.2000E+01
    -20.681  0.0000E+00  0.2000E+01
    -20.573  0.0000E+00  0.2000E+01
    -20.464  0.0000E+00  0.2000E+01
    -20.356  0.0000E+00  0.2000E+01
    -20.247  0.0000E+00  0.2000E+01
    -20.138  0.0000E+00  0.2000E+01
    -20.030  0.0000E+00  0.2000E+01
    -19.921  0.0000E+00  0.2000E+01
    -19.812  0.0000E+00  0.2000E+01
    -19.704  0.0000E+00  0.2000E+01
    -19.595  0.0000E+00  0.2000E+01
    -19.487  0.0000E+00  0.2000E+01
    -19.378  0.0000E+00  0.2000E+01
    -19.269  0.0000E+00  0.2000E+01
    -19.161  0.0000E+00  0.2000E+01
    -19.052  0.0000E+00  0.2000E+01
    -18.943  0.0000E+00  0.2000E+01
    -18.835  0.0000E+00  0.2000E+01
    -18.726  0.0000E+00  0.2000E+01
    -18.618  0.0000E+00  0.2000E+01
    -18.509  0.0000E+00  0.2000E+01
    -18.400  0.0000E+00  0.2000E+01
    -18.292  0.0000E+00  0.2000E+01
    -18.183  0.0000E+00  0.2000E+01
    -18.074  0.0000E+00  0.2000E+01
    -17.966  0.0000E+00  0.2000E+01
    -17.857  0.0000E+00  0.2000E+01
    -17.749  0.0000E+00  0.2000E+01
    -17.640  0.0000E+00  0.2000E+01
    -17.531  0.0000E+00  0.2000E+01
    -17.423  0.0000E+00  0.2000E+01
    -17.314  0.0000E+00  0.2000E+01
    -17.205  0.0000E+00  0.2000E+01
    -17.097  0.0000E+00  0.2000E+01
    -16.988  0.0000E+00  0.2000E+01
    -16.880  0.0000E+00  0.2000E+01
    -16.771  0.0000E+00  0.2000E+01
    -16.662  0.0000E+00  0.2000E+01
    -16.554  0.0000E+00  0.2000E+01
    -16.445  0.0000E+00  0.2000E+01
    -16.336  0.0000E+00  0.2000E+01
    -16.228  0.0000E+00  0.2000E+01
    -16.119  0.0000E+00  0.2000E+01
    -16.010  0.0000E+00  0.2000E+01
    -15.902  0.0000E+00  0.2000E+01
    -15.793  0.0000E+00  0.2000E+01
    -15.685  0.0000E+00  0.2000E+01
    -15.576  0.0000E+00  0.2000E+01
    -15.467  0.0000E+00  0.2000E+01
    -15.359  0.5318E-25  0.2000E+01
    -15.250  0.2077E-21  0.2000E+01
    -15.141  0.4416E-18  0.2000E+01
    -15.033  0.5097E-15  0.2000E+01
    -14.924  0.3188E-12  0.2000E+01
    -14.816  0.1066E-09  0.2000E+01
    -14.707  0.1900E-07  0.2000E+01
    -14.598  0.1777E-05  0.2000E+01
    -14.490  0.8520E-04  0.2000E+01
    -14.381  0.2005E-02  0.2000E+01
    -14.272  0.2087E-01  0.2002E+01
    -14.164  0.6400E-01  0.2009E+01
    -14.055 -0.2058E+00  0.1987E+01
    -13.947 -0.8070E+00  0.1899E+01
    -13.838  0.2256E+01  0.2144E+01
    -13.729  0.9083E+01  0.3131E+01
    -13.621  0.7805E+01  0.3979E+01
    -13.512  0.9730E+00  0.4085E+01
    -13.403 -0.7727E+00  0.4001E+01
    -13.295 -0.7956E-01  0.3992E+01
    -13.186  0.5894E-01  0.3998E+01
    -13.078  0.1326E-01  0.4000E+01
    -12.969  0.1040E-02  0.4000E+01
    -12.860  0.3734E-04  0.4000E+01
    -12.752  0.6665E-06  0.4000E+01
    -12.643  0.6159E-08  0.4000E+01
    -12.534  0.4564E-08  0.4000E+01
    -12.426  0.5589E-06  0.4000E+01
    -12.317  0.3573E-04  0.4000E+01
    -12.209  0.1146E-02  0.4000E+01
    -12.100  0.1723E-01  0.4002E+01
    -11.991  0.9894E-01  0.4013E+01
    -11.883 -0.1307E-01  0.4011E+01
    -11.774 -0.1303E+01  0.3870E+01
    -11.665  0.3123E+00  0.3904E+01
    -11.557  0.1286E+02  0.5301E+01
    -11.448  0.1954E+02  0.7423E+01
    -11.340  0.7189E+01  0.8204E+01
    -11.231 -0.1365E+01  0.8056E+01
    -11.122 -0.6944E+00  0.7980E+01
    -11.014  0.1153E+00  0.7993E+01
    -10.905  0.5890E-01  0.7999E+01
    -10.796  0.6818E-02  0.8000E+01
    -10.688  0.3365E-03  0.8000E+01
    -10.579  0.8039E-05  0.8000E+01
    -10.471  0.9798E-07  0.8000E+01
    -10.362  0.2224E-07  0.8000E+01
    -10.253  0.1987E-05  0.8000E+01
    -10.145  0.9355E-04  0.8000E+01
    -10.036  0.2157E-02  0.8000E+01
     -9.927  0.2192E-01  0.8003E+01
     -9.819  0.6386E-01  0.8010E+01
     -9.710 -0.2233E+00  0.7985E+01
     -9.601 -0.8000E+00  0.7898E+01
     -9.493  0.2425E+01  0.8162E+01
     -9.384  0.9200E+01  0.9161E+01
     -9.276  0.7631E+01  0.9990E+01
     -9.167  0.8466E+00  0.1008E+02
     -9.058 -0.7600E+00  0.1000E+02
     -8.950 -0.6781E-01  0.9992E+01
     -8.841  0.5784E-01  0.9999E+01
     -8.732  0.1254E-01  0.1000E+02
     -8.624  0.9612E-03  0.1000E+02
     -8.515  0.3385E-04  0.1000E+02
     -8.407  0.5934E-06  0.1000E+02
     -8.298  0.5372E-08  0.1000E+02
     -8.189  0.2563E-10  0.1000E+02
     -8.081  0.6541E-13  0.1000E+02
     -7.972  0.1569E-16  0.1000E+02
     -7.863  0.1335E-13  0.1000E+02
     -7.755  0.6136E-11  0.1000E+02
     -7.646  0.1505E-08  0.1000E+02
     -7.538  0.1953E-06  0.1000E+02
     -7.429  0.1317E-04  0.1000E+02
     -7.320  0.4472E-03  0.1000E+02
     -7.212  0.7168E-02  0.1000E+02
     -7.103  0.4518E-01  0.1001E+02
     -6.994  0.1435E-01  0.1001E+02
     -6.886 -0.5903E+00  0.9943E+01
     -6.777 -0.9342E-01  0.9933E+01
     -6.669  0.5873E+01  0.1057E+02
     -6.560  0.1009E+02  0.1167E+02
     -6.451  0.4032E+01  0.1210E+02
     -6.343 -0.2723E+01  0.1181E+02
     -6.234  0.1770E+01  0.1200E+02
     -6.125  0.2207E+02  0.1440E+02
     -6.017  0.2614E+02  0.1724E+02
     -5.908  0.8875E+01  0.1820E+02
     -5.800  0.1986E+02  0.2036E+02
     -5.691  0.6057E+02  0.2694E+02
     -5.582  0.1434E+03  0.4252E+02
     -5.474  0.2688E+03  0.7172E+02
     -5.365  0.3048E+03  0.1048E+03
     -5.256  0.2294E+03  0.1297E+03
     -5.148  0.2130E+03  0.1529E+03
     -5.039  0.3039E+03  0.1859E+03
     -4.931  0.3685E+03  0.2259E+03
     -4.822  0.3175E+03  0.2604E+03
     -4.713  0.2954E+03  0.2925E+03
     -4.605  0.3892E+03  0.3348E+03
     -4.496  0.4337E+03  0.3819E+03
     -4.387  0.4320E+03  0.4288E+03
     -4.279  0.5275E+03  0.4861E+03
     -4.170  0.5383E+03  0.5446E+03
     -4.062  0.2886E+03  0.5760E+03
     -3.953  0.4800E+02  0.5812E+03
     -3.844  0.1204E+02  0.5825E+03
     -3.736  0.3510E+02  0.5863E+03
     -3.627  0.1596E+02  0.5880E+03
     -3.518  0.1179E+02  0.5893E+03
     -3.410  0.2796E+02  0.5923E+03
     -3.301  0.1511E+02  0.5940E+03
     -3.192 -0.3370E+01  0.5936E+03
     -3.084  0.1954E+02  0.5957E+03
     -2.975  0.6259E+02  0.6025E+03
     -2.867  0.5724E+02  0.6088E+03
     -2.758  0.1416E+02  0.6103E+03
     -2.649 -0.2865E+01  0.6100E+03
     -2.541  0.1675E+02  0.6118E+03
     -2.432  0.3066E+02  0.6151E+03
     -2.323  0.1707E+02  0.6170E+03
     -2.215  0.7512E+01  0.6178E+03
     -2.106  0.2427E+02  0.6204E+03
     -1.998  0.4565E+02  0.6254E+03
     -1.889  0.4384E+02  0.6302E+03
     -1.780  0.3762E+02  0.6342E+03
     -1.672  0.4233E+02  0.6388E+03
     -1.563  0.4571E+02  0.6438E+03
     -1.454  0.3627E+02  0.6477E+03
     -1.346  0.1884E+02  0.6498E+03
     -1.237  0.1540E+02  0.6515E+03
     -1.129  0.2359E+02  0.6540E+03
     -1.020  0.3172E+02  0.6575E+03
     -0.911  0.5426E+02  0.6634E+03
     -0.803  0.5014E+02  0.6688E+03
     -0.694  0.1843E+02  0.6708E+03
     -0.585  0.6799E+01  0.6716E+03
     -0.477  0.4317E+01  0.6720E+03
     -0.368  0.1115E+00  0.6720E+03
     -0.260 -0.4305E+00  0.6720E+03
     -0.151  0.3799E-01  0.6720E+03
     -0.042  0.4508E-01  0.6720E+03
      0.066  0.6843E-02  0.6720E+03
      0.175  0.4181E-03  0.6720E+03
      0.284  0.1212E-04  0.6720E+03
      0.392  0.1772E-06  0.6720E+03
      0.501  0.1346E-08  0.6720E+03
      0.609  0.5413E-11  0.6720E+03
      0.718  0.1226E-13  0.6720E+03
      0.827  0.0000E+00  0.6720E+03
      0.935  0.0000E+00  0.6720E+03
      1.044  0.0000E+00  0.6720E+03
      1.153  0.0000E+00  0.6720E+03
      1.261  0.0000E+00  0.6720E+03
      1.370  0.0000E+00  0.6720E+03
