<?xml version="1.0" encoding="ISO-8859-1"?>
<modeling>
 <generator>
  <i name="program" type="string">vasp </i>
  <i name="version" type="string">5.4.4.18Apr17-6-g9f103f2a35  </i>
  <i name="subversion" type="string">(build Sep 03 2018 23:53:05) complex            parallel </i>
  <i name="platform" type="string">LinuxIFC </i>
  <i name="date" type="string">2021 12 02 </i>
  <i name="time" type="string">19:44:11 </i>
 </generator>
 <incar>
  <i type="string" name="SYSTEM"> 6_Pd100_top_free_z(O)</i>
  <i type="int" name="ISTART">     0</i>
  <i type="string" name="PREC">normal   			! encut=max(enmax), ngx,y,z</i>
  <i type="string" name="ALGO"> Fast     			! Mix RMM-DIIS and Dav</i>
  <i type="logical" name="ADDGRID"> F  </i>
  <i type="int" name="ISPIN">     1</i>
  <i type="int" name="ICHARG">     2</i>
  <i type="int" name="NELM">   100</i>
  <i type="int" name="NELMIN">     6</i>
  <i type="int" name="IBRION">     2</i>
  <i name="EDIFF">      0.00010000</i>
  <i name="EDIFFG">     -0.05000000</i>
  <i type="int" name="NSW">     0</i>
  <i type="int" name="ISIF">     2</i>
  <i type="int" name="ISYM">     2</i>
  <i name="ENCUT">    400.00000000</i>
  <i type="string" name="LREAL"> Auto     			! Auto or A projection done</i>
  <i type="int" name="ISMEAR">     2</i>
  <i name="SIGMA">      0.20000000</i>
  <i type="logical" name="LWAVE"> F  </i>
  <i type="logical" name="LCHARG"> F  </i>
  <v type="int" name="KPOINT_BSE">    -1     0     0     0</v>
  <i type="int" name="MAXMEM"> 10000</i>
  <i type="int" name="NELM">   100</i>
  <i type="string" name="GGA"> RP         			! Revised PBE</i>
 </incar>
 <structure name="primitive_cell" >
  <crystal>
   <varray name="basis" >
    <v>      30.00000000       0.00000000       0.00000000 </v>
    <v>       0.00000000      30.00000000       0.00000000 </v>
    <v>       0.00000000       0.00000000      30.00000000 </v>
   </varray>
   <i name="volume">  27000.00000000 </i>
   <varray name="rec_basis" >
    <v>       0.03333333       0.00000000       0.00000000 </v>
    <v>       0.00000000       0.03333333       0.00000000 </v>
    <v>       0.00000000       0.00000000       0.03333333 </v>
   </varray>
  </crystal>
  <varray name="positions" >
   <v>       0.44576020       0.32826710       0.41691983 </v>
   <v>      -0.44576020       0.32826710       0.41691983 </v>
   <v>      -0.50000000       0.38250690       0.34021317 </v>
   <v>      -0.50000000       0.27609440      -0.50000000 </v>
   <v>       0.38804720       0.38804720       0.34167483 </v>
   <v>      -0.50000000       0.38416601      -0.50000000 </v>
   <v>       0.44208300       0.44208300       0.41809300 </v>
   <v>       0.38317830       0.38317830      -0.50000000 </v>
   <v>      -0.44208300       0.44208300       0.41809300 </v>
   <v>       0.44576020       0.32826710      -0.41691977 </v>
   <v>       0.32826705       0.44576024       0.41691983 </v>
   <v>      -0.38804720       0.38804720       0.34167483 </v>
   <v>       0.48631493       0.47078863       0.28775297 </v>
   <v>      -0.38317830       0.38317830      -0.50000000 </v>
   <v>      -0.50000000      -0.50000000       0.33478917 </v>
   <v>      -0.50000000      -0.50000000      -0.50000000 </v>
   <v>      -0.44576020       0.32826710      -0.41691977 </v>
   <v>       0.38250685      -0.49999995       0.34021317 </v>
   <v>       0.44208300       0.44208300      -0.41809297 </v>
   <v>       0.38416599      -0.49999998      -0.50000000 </v>
   <v>       0.48391813       0.46567250       0.25057983 </v>
   <v>      -0.44208300       0.44208300      -0.41809297 </v>
   <v>       0.44208298      -0.44208298       0.41809300 </v>
   <v>       0.32826705       0.44576024      -0.41691977 </v>
   <v>      -0.50000000       0.38250690      -0.34021320 </v>
   <v>       0.32826712      -0.44576022       0.41691983 </v>
   <v>      -0.38250685      -0.49999995       0.34021317 </v>
   <v>      -0.32826705       0.44576024       0.41691983 </v>
   <v>       0.27609443       0.49999998      -0.50000000 </v>
   <v>       0.38804720       0.38804720      -0.34167487 </v>
   <v>      -0.38416599      -0.49999998      -0.50000000 </v>
   <v>      -0.44208298      -0.44208298       0.41809300 </v>
   <v>       0.44208298      -0.44208298      -0.41809297 </v>
   <v>      -0.38804720       0.38804720      -0.34167487 </v>
   <v>       0.38804722      -0.38804722       0.34167483 </v>
   <v>       0.38250685      -0.49999995      -0.34021320 </v>
   <v>       0.32826712      -0.44576022      -0.41691977 </v>
   <v>      -0.32826705       0.44576024      -0.41691977 </v>
   <v>       0.50000000      -0.38250681       0.34021317 </v>
   <v>      -0.50000000      -0.38416596      -0.50000000 </v>
   <v>      -0.44208298      -0.44208298      -0.41809297 </v>
   <v>      -0.50000000      -0.50000000      -0.33478913 </v>
   <v>       0.38317828      -0.38317828      -0.50000000 </v>
   <v>      -0.32826712      -0.44576022       0.41691983 </v>
   <v>      -0.27609443       0.49999998      -0.50000000 </v>
   <v>      -0.38804722      -0.38804722       0.34167483 </v>
   <v>      -0.38250685      -0.49999995      -0.34021320 </v>
   <v>       0.44576027      -0.32826707       0.41691983 </v>
   <v>      -0.38317828      -0.38317828      -0.50000000 </v>
   <v>      -0.32826712      -0.44576022      -0.41691977 </v>
   <v>      -0.44576027      -0.32826707       0.41691983 </v>
   <v>       0.38804722      -0.38804722      -0.34167487 </v>
   <v>      -0.50000000      -0.38250681      -0.34021320 </v>
   <v>       0.44576027      -0.32826707      -0.41691977 </v>
   <v>      -0.44576027      -0.32826707      -0.41691977 </v>
   <v>      -0.50000000      -0.27609445       0.50000000 </v>
   <v>      -0.38804722      -0.38804722      -0.34167487 </v>
  </varray>
 </structure>
 <varray name="primitive_index" >
  <v type="int" >        1 </v>
  <v type="int" >        3 </v>
  <v type="int" >        5 </v>
  <v type="int" >        7 </v>
  <v type="int" >       15 </v>
  <v type="int" >       29 </v>
  <v type="int" >       28 </v>
  <v type="int" >       34 </v>
  <v type="int" >       21 </v>
  <v type="int" >       19 </v>
  <v type="int" >       22 </v>
  <v type="int" >       11 </v>
  <v type="int" >       56 </v>
  <v type="int" >       36 </v>
  <v type="int" >       38 </v>
  <v type="int" >       52 </v>
  <v type="int" >       24 </v>
  <v type="int" >       32 </v>
  <v type="int" >       44 </v>
  <v type="int" >       48 </v>
  <v type="int" >       57 </v>
  <v type="int" >       42 </v>
  <v type="int" >       43 </v>
  <v type="int" >       40 </v>
  <v type="int" >        6 </v>
  <v type="int" >        4 </v>
  <v type="int" >       30 </v>
  <v type="int" >       26 </v>
  <v type="int" >        8 </v>
  <v type="int" >       16 </v>
  <v type="int" >       49 </v>
  <v type="int" >       47 </v>
  <v type="int" >       53 </v>
  <v type="int" >       12 </v>
  <v type="int" >       13 </v>
  <v type="int" >       33 </v>
  <v type="int" >       25 </v>
  <v type="int" >       45 </v>
  <v type="int" >       50 </v>
  <v type="int" >       55 </v>
  <v type="int" >       54 </v>
  <v type="int" >       39 </v>
  <v type="int" >       37 </v>
  <v type="int" >        2 </v>
  <v type="int" >        9 </v>
  <v type="int" >       17 </v>
  <v type="int" >       31 </v>
  <v type="int" >       27 </v>
  <v type="int" >       35 </v>
  <v type="int" >       20 </v>
  <v type="int" >       23 </v>
  <v type="int" >       14 </v>
  <v type="int" >       51 </v>
  <v type="int" >       46 </v>
  <v type="int" >       41 </v>
  <v type="int" >       10 </v>
  <v type="int" >       18 </v>
 </varray>
 <kpoints>
  <generation param="Monkhorst-Pack">
   <v type="int" name="divisions">       1        1        1 </v>
   <v name="usershift">      0.00000000       0.00000000       0.00000000 </v>
   <v name="genvec1">      1.00000000       0.00000000       0.00000000 </v>
   <v name="genvec2">      0.00000000       1.00000000       0.00000000 </v>
   <v name="genvec3">      0.00000000       0.00000000       1.00000000 </v>
   <v name="shift">      0.00000000       0.00000000       0.00000000 </v>
  </generation>
  <varray name="kpointlist" >
   <v>       0.00000000       0.00000000       0.00000000 </v>
  </varray>
  <varray name="weights" >
   <v>       1.00000000 </v>
  </varray>
 </kpoints>
 <parameters>
  <separator name="general" >
   <i type="string" name="SYSTEM">6_Pd100_top_free_z(O)</i>
   <i type="logical" name="LCOMPAT"> F  </i>
  </separator>
  <separator name="electronic" >
   <i type="string" name="PREC">normal</i>
   <i name="ENMAX">    400.00000000</i>
   <i name="ENAUG">    644.87300000</i>
   <i name="EDIFF">      0.00010000</i>
   <i type="int" name="IALGO">    68</i>
   <i type="int" name="IWAVPR">    10</i>
   <i type="int" name="NBANDS">   336</i>
   <i name="NELECT">    560.00000000</i>
   <i type="int" name="TURBO">     0</i>
   <i type="int" name="IRESTART">     0</i>
   <i type="int" name="NREBOOT">     0</i>
   <i type="int" name="NMIN">     0</i>
   <i name="EREF">      0.00000000</i>
   <separator name="electronic smearing" >
    <i type="int" name="ISMEAR">     2</i>
    <i name="SIGMA">      0.20000000</i>
    <i name="KSPACING">      0.50000000</i>
    <i type="logical" name="KGAMMA"> T  </i>
   </separator>
   <separator name="electronic projectors" >
    <i type="logical" name="LREAL"> T  </i>
    <v name="ROPT">     -0.00050000     -0.00050000     -0.00050000</v>
    <i type="int" name="LMAXPAW">  -100</i>
    <i type="int" name="LMAXMIX">     2</i>
    <i type="logical" name="NLSPLINE"> F  </i>
   </separator>
   <separator name="electronic startup" >
    <i type="int" name="ISTART">     0</i>
    <i type="int" name="ICHARG">     2</i>
    <i type="int" name="INIWAV">     1</i>
   </separator>
   <separator name="electronic spin" >
    <i type="int" name="ISPIN">     1</i>
    <i type="logical" name="LNONCOLLINEAR"> F  </i>
    <v name="MAGMOM">      1.00000000      1.00000000      1.00000000      1.00000000      1.00000000      1.00000000      1.00000000      1.00000000      1.00000000      1.00000000      1.00000000      1.00000000      1.00000000      1.00000000      1.00000000      1.00000000      1.00000000      1.00000000      1.00000000      1.00000000
      1.00000000      1.00000000      1.00000000      1.00000000      1.00000000      1.00000000      1.00000000      1.00000000      1.00000000      1.00000000      1.00000000      1.00000000      1.00000000      1.00000000      1.00000000      1.00000000      1.00000000      1.00000000      1.00000000      1.00000000
      1.00000000      1.00000000      1.00000000      1.00000000      1.00000000      1.00000000      1.00000000      1.00000000      1.00000000      1.00000000      1.00000000      1.00000000      1.00000000      1.00000000      1.00000000      1.00000000      1.00000000</v>
    <i name="NUPDOWN">     -1.00000000</i>
    <i type="logical" name="LSORBIT"> F  </i>
    <v name="SAXIS">      0.00000000      0.00000000      1.00000000</v>
    <i type="logical" name="LSPIRAL"> F  </i>
    <v name="QSPIRAL">      0.00000000      0.00000000      0.00000000</v>
    <i type="logical" name="LZEROZ"> F  </i>
   </separator>
   <separator name="electronic exchange-correlation" >
    <i type="logical" name="LASPH"> F  </i>
    <i type="logical" name="LMETAGGA"> F  </i>
   </separator>
   <separator name="electronic convergence" >
    <i type="int" name="NELM">   100</i>
    <i type="int" name="NELMDL">    -5</i>
    <i type="int" name="NELMIN">     6</i>
    <i name="ENINI">    400.00000000</i>
    <separator name="electronic convergence detail" >
     <i type="logical" name="LDIAG"> T  </i>
     <i type="logical" name="LSUBROT"> F  </i>
     <i name="WEIMIN">      0.00000000</i>
     <i name="EBREAK">      0.00000007</i>
     <i name="DEPER">      0.30000000</i>
     <i type="int" name="NRMM">     4</i>
     <i name="TIME">      0.40000000</i>
    </separator>
   </separator>
   <separator name="electronic mixer" >
    <i name="AMIX">      0.40000000</i>
    <i name="BMIX">      1.00000000</i>
    <i name="AMIN">      0.10000000</i>
    <i name="AMIX_MAG">      1.60000000</i>
    <i name="BMIX_MAG">      1.00000000</i>
    <separator name="electronic mixer details" >
     <i type="int" name="IMIX">     4</i>
     <i type="logical" name="MIXFIRST"> F  </i>
     <i type="int" name="MAXMIX">   -45</i>
     <i name="WC">    100.00000000</i>
     <i type="int" name="INIMIX">     1</i>
     <i type="int" name="MIXPRE">     1</i>
     <i type="int" name="MREMOVE">     5</i>
    </separator>
   </separator>
   <separator name="electronic dipolcorrection" >
    <i type="logical" name="LDIPOL"> F  </i>
    <i type="logical" name="LMONO"> F  </i>
    <i type="int" name="IDIPOL">     0</i>
    <i name="EPSILON">      1.00000000</i>
    <v name="DIPOL">   -100.00000000   -100.00000000   -100.00000000</v>
    <i name="EFIELD">      0.00000000</i>
   </separator>
  </separator>
  <separator name="grids" >
   <i type="int" name="NGX">   150</i>
   <i type="int" name="NGY">   150</i>
   <i type="int" name="NGZ">   150</i>
   <i type="int" name="NGXF">   300</i>
   <i type="int" name="NGYF">   300</i>
   <i type="int" name="NGZF">   300</i>
   <i type="logical" name="ADDGRID"> F  </i>
  </separator>
  <separator name="ionic" >
   <i type="int" name="NSW">     0</i>
   <i type="int" name="IBRION">    -1</i>
   <i type="int" name="MDALGO">     0</i>
   <i type="int" name="ISIF">     2</i>
   <i name="PSTRESS">      0.00000000</i>
   <i name="EDIFFG">     -0.05000000</i>
   <i type="int" name="NFREE">     1</i>
   <i name="POTIM">      0.50000000</i>
   <i name="SMASS">     -3.00000000</i>
   <i name="SCALEE">      1.00000000</i>
  </separator>
  <separator name="ionic md" >
   <i name="TEBEG">      0.00010000</i>
   <i name="TEEND">      0.00010000</i>
   <i type="int" name="NBLOCK">     1</i>
   <i type="int" name="KBLOCK">     1</i>
   <i type="int" name="NPACO">   256</i>
   <i name="APACO">     16.00000000</i>
  </separator>
  <separator name="symmetry" >
   <i type="int" name="ISYM">     2</i>
   <i name="SYMPREC">      0.00001000</i>
  </separator>
  <separator name="dos" >
   <i type="int" name="LORBIT">     0</i>
   <v name="RWIGS">     -1.00000000     -1.00000000     -1.00000000</v>
   <i type="int" name="NEDOS">   301</i>
   <i name="EMIN">     10.00000000</i>
   <i name="EMAX">    -10.00000000</i>
   <i name="EFERMI">      0.00000000</i>
  </separator>
  <separator name="writing" >
   <i type="int" name="NWRITE">     2</i>
   <i type="logical" name="LWAVE"> F  </i>
   <i type="logical" name="LDOWNSAMPLE"> F  </i>
   <i type="logical" name="LCHARG"> F  </i>
   <i type="logical" name="LPARD"> F  </i>
   <i type="logical" name="LVTOT"> F  </i>
   <i type="logical" name="LVHAR"> F  </i>
   <i type="logical" name="LELF"> F  </i>
   <i type="logical" name="LOPTICS"> F  </i>
   <v name="STM">      0.00000000      0.00000000      0.00000000      0.00000000      0.00000000      0.00000000      0.00000000</v>
  </separator>
  <separator name="performance" >
   <i type="int" name="NPAR">     1</i>
   <i type="int" name="NSIM">     4</i>
   <i type="int" name="NBLK">    -1</i>
   <i type="logical" name="LPLANE"> T  </i>
   <i type="logical" name="LSCALAPACK"> T  </i>
   <i type="logical" name="LSCAAWARE"> F  </i>
   <i type="logical" name="LSCALU"> F  </i>
   <i type="logical" name="LASYNC"> F  </i>
   <i type="logical" name="LORBITALREAL"> F  </i>
  </separator>
  <separator name="miscellaneous" >
   <i type="int" name="IDIOT">     3</i>
   <i type="int" name="ISPECIAL">     0</i>
   <i type="logical" name="LMUSIC"> F  </i>
   <v name="POMASS">    106.42000000     12.01100000     16.00000000</v>
   <v name="DARWINR">      0.00000000      0.00000000      0.00000000</v>
   <v name="DARWINV">      1.00000000      1.00000000      1.00000000</v>
   <i type="logical" name="LCORR"> T  </i>
  </separator>
  <i type="logical" name="GGA_COMPAT"> T  </i>
  <i type="logical" name="LBERRY"> F  </i>
  <i type="int" name="ICORELEVEL">     0</i>
  <i type="logical" name="LDAU"> F  </i>
  <i type="int" name="I_CONSTRAINED_M">     0</i>
  <separator name="electronic exchange-correlation" >
   <i type="string" name="GGA">RP</i>
   <i type="int" name="VOSKOWN">     0</i>
   <i type="logical" name="LHFCALC"> F  </i>
   <i type="string" name="PRECFOCK"></i>
   <i type="logical" name="LSYMGRAD"> F  </i>
   <i type="logical" name="LHFONE"> F  </i>
   <i type="logical" name="LRHFCALC"> F  </i>
   <i type="logical" name="LTHOMAS"> F  </i>
   <i type="logical" name="LMODELHF"> F  </i>
   <i name="ENCUT4O">     -1.00000000</i>
   <i type="int" name="EXXOEP">     0</i>
   <i type="int" name="FOURORBIT">     0</i>
   <i name="AEXX">      0.00000000</i>
   <i name="HFALPHA">      0.00000000</i>
   <i name="MCALPHA">      0.00000000</i>
   <i name="ALDAX">      1.00000000</i>
   <i name="AGGAX">      1.00000000</i>
   <i name="ALDAC">      1.00000000</i>
   <i name="AGGAC">      1.00000000</i>
   <i type="int" name="NKREDX">     1</i>
   <i type="int" name="NKREDY">     1</i>
   <i type="int" name="NKREDZ">     1</i>
   <i type="logical" name="SHIFTRED"> F  </i>
   <i type="logical" name="ODDONLY"> F  </i>
   <i type="logical" name="EVENONLY"> F  </i>
   <i type="int" name="LMAXFOCK">     0</i>
   <i type="int" name="NMAXFOCKAE">     0</i>
   <i type="logical" name="LFOCKAEDFT"> F  </i>
   <i name="HFSCREEN">      0.00000000</i>
   <i name="HFSCREENC">      0.00000000</i>
   <i type="int" name="NBANDSGWLOW">     0</i>
  </separator>
  <separator name="vdW DFT" >
   <i type="logical" name="LUSE_VDW"> F  </i>
   <i name="Zab_VDW">     -0.84910000</i>
   <i name="PARAM1">      0.12340000</i>
   <i name="PARAM2">      1.00000000</i>
   <i name="PARAM3">      0.00000000</i>
  </separator>
  <separator name="model GW" >
   <i type="int" name="MODEL_GW">     0</i>
   <i name="MODEL_EPS0">    284.21052632</i>
   <i name="MODEL_ALPHA">      1.00000000</i>
  </separator>
  <separator name="linear response parameters" >
   <i type="logical" name="LEPSILON"> F  </i>
   <i type="logical" name="LRPA"> F  </i>
   <i type="logical" name="LNABLA"> F  </i>
   <i type="logical" name="LVEL"> F  </i>
   <i type="int" name="KINTER">     0</i>
   <i name="CSHIFT">      0.10000000</i>
   <i name="OMEGAMAX">     -1.00000000</i>
   <i name="DEG_THRESHOLD">      0.00200000</i>
   <i name="RTIME">     -0.10000000</i>
   <i name="WPLASMAI">      0.00000000</i>
   <v name="DFIELD">      0.00000000      0.00000000      0.00000000</v>
   <v name="WPLASMA">      0.00000000      0.00000000      0.00000000      0.00000000      0.00000000      0.00000000      0.00000000      0.00000000      0.00000000</v>
  </separator>
  <separator name="orbital magnetization" >
   <i type="logical" name="NUCIND"> F  </i>
   <v name="MAGPOS">      0.00000000      0.00000000      0.00000000</v>
   <i type="logical" name="LNICSALL"> T  </i>
   <i type="logical" name="ORBITALMAG"> F  </i>
   <i type="logical" name="LMAGBLOCH"> F  </i>
   <i type="logical" name="LCHIMAG"> F  </i>
   <i type="logical" name="LGAUGE"> T  </i>
   <i type="int" name="MAGATOM">     0</i>
   <v name="MAGDIPOL">      0.00000000      0.00000000      0.00000000</v>
   <v name="AVECCONST">      0.00000000      0.00000000      0.00000000</v>
  </separator>
  <separator name="response functions" >
   <i type="logical" name="LADDER"> F  </i>
   <i type="logical" name="LRPAFORCE"> F  </i>
   <i type="logical" name="LFXC"> F  </i>
   <i type="logical" name="LHARTREE"> T  </i>
   <i type="int" name="IBSE">     0</i>
   <v type="int" name="KPOINT">    -1     0     0     0</v>
   <i type="logical" name="LTCTE"> F  </i>
   <i type="logical" name="LTETE"> F  </i>
   <i type="logical" name="LTRIPLET"> F  </i>
   <i type="logical" name="LFXCEPS"> F  </i>
   <i type="logical" name="LFXHEG"> F  </i>
   <i type="int" name="NATURALO">     2</i>
   <i type="logical" name="L2ORDER"> F  </i>
   <i type="logical" name="LMP2LT"> F  </i>
   <i type="logical" name="LUSEW"> F  </i>
   <i name="ENCUTGW">     -2.00000000</i>
   <i name="ENCUTGWSOFT">     -2.00000000</i>
   <i name="ENCUTLF">     -1.00000000</i>
   <i type="int" name="LMAXMP2">    -1</i>
   <i name="SCISSOR">      0.00000000</i>
   <i type="int" name="NOMEGA">     0</i>
   <i type="int" name="NOMEGAR">     0</i>
   <i type="int" name="NBANDSGW">    -1</i>
   <i type="int" name="NBANDSO">    -1</i>
   <i type="int" name="NBANDSV">    -1</i>
   <i type="int" name="NELM">   100</i>
   <i type="int" name="NELMHF">     1</i>
   <i type="int" name="DIM">     3</i>
   <i type="int" name="ANTIRES">     0</i>
   <i name="OMEGAMAX">    -30.00000000</i>
   <i name="OMEGAMIN">    -30.00000000</i>
   <i name="OMEGATL">   -200.00000000</i>
   <i type="int" name="OMEGAGRID">   140</i>
   <i name="CSHIFT">     -0.10000000</i>
   <i type="logical" name="SELFENERGY"> F  </i>
   <i type="logical" name="LSPECTRAL"> F  </i>
   <i type="logical" name="LSPECTRALGW"> F  </i>
   <i type="logical" name="LSINGLES"> F  </i>
   <i type="logical" name="LFERMIGW"> F  </i>
   <i type="logical" name="ODDONLYGW"> F  </i>
   <i type="logical" name="EVENONLYGW"> F  </i>
   <i type="int" name="NKREDLFX">     1</i>
   <i type="int" name="NKREDLFY">     1</i>
   <i type="int" name="NKREDLFZ">     1</i>
   <i type="int" name="MAXMEM"> 10000</i>
   <i type="int" name="TELESCOPE">     0</i>
   <i type="int" name="TAUPAR">     1</i>
   <i type="int" name="OMEGAPAR">    -1</i>
   <i name="LAMBDA">      1.00000000</i>
  </separator>
  <separator name="External order field" >
   <i name="OFIELD_KAPPA">      0.00000000</i>
   <v name="OFIELD_K">      0.00000000      0.00000000      0.00000000</v>
   <i name="OFIELD_Q6_NEAR">      0.00000000</i>
   <i name="OFIELD_Q6_FAR">      0.00000000</i>
   <i name="OFIELD_A">      0.00000000</i>
  </separator>
 </parameters>
 <atominfo>
  <atoms>      57 </atoms>
  <types>       3 </types>
  <array name="atoms" >
   <dimension dim="1">ion</dimension>
   <field type="string">element</field>
   <field type="int">atomtype</field>
   <set>
    <rc><c>Pd</c><c>   1</c></rc>
    <rc><c>Pd</c><c>   1</c></rc>
    <rc><c>Pd</c><c>   1</c></rc>
    <rc><c>Pd</c><c>   1</c></rc>
    <rc><c>Pd</c><c>   1</c></rc>
    <rc><c>Pd</c><c>   1</c></rc>
    <rc><c>Pd</c><c>   1</c></rc>
    <rc><c>Pd</c><c>   1</c></rc>
    <rc><c>Pd</c><c>   1</c></rc>
    <rc><c>Pd</c><c>   1</c></rc>
    <rc><c>Pd</c><c>   1</c></rc>
    <rc><c>Pd</c><c>   1</c></rc>
    <rc><c>Pd</c><c>   1</c></rc>
    <rc><c>Pd</c><c>   1</c></rc>
    <rc><c>Pd</c><c>   1</c></rc>
    <rc><c>Pd</c><c>   1</c></rc>
    <rc><c>Pd</c><c>   1</c></rc>
    <rc><c>Pd</c><c>   1</c></rc>
    <rc><c>Pd</c><c>   1</c></rc>
    <rc><c>Pd</c><c>   1</c></rc>
    <rc><c>Pd</c><c>   1</c></rc>
    <rc><c>Pd</c><c>   1</c></rc>
    <rc><c>Pd</c><c>   1</c></rc>
    <rc><c>Pd</c><c>   1</c></rc>
    <rc><c>Pd</c><c>   1</c></rc>
    <rc><c>Pd</c><c>   1</c></rc>
    <rc><c>Pd</c><c>   1</c></rc>
    <rc><c>Pd</c><c>   1</c></rc>
    <rc><c>Pd</c><c>   1</c></rc>
    <rc><c>Pd</c><c>   1</c></rc>
    <rc><c>Pd</c><c>   1</c></rc>
    <rc><c>Pd</c><c>   1</c></rc>
    <rc><c>Pd</c><c>   1</c></rc>
    <rc><c>Pd</c><c>   1</c></rc>
    <rc><c>Pd</c><c>   1</c></rc>
    <rc><c>Pd</c><c>   1</c></rc>
    <rc><c>Pd</c><c>   1</c></rc>
    <rc><c>Pd</c><c>   1</c></rc>
    <rc><c>Pd</c><c>   1</c></rc>
    <rc><c>Pd</c><c>   1</c></rc>
    <rc><c>Pd</c><c>   1</c></rc>
    <rc><c>Pd</c><c>   1</c></rc>
    <rc><c>Pd</c><c>   1</c></rc>
    <rc><c>Pd</c><c>   1</c></rc>
    <rc><c>Pd</c><c>   1</c></rc>
    <rc><c>Pd</c><c>   1</c></rc>
    <rc><c>Pd</c><c>   1</c></rc>
    <rc><c>Pd</c><c>   1</c></rc>
    <rc><c>Pd</c><c>   1</c></rc>
    <rc><c>Pd</c><c>   1</c></rc>
    <rc><c>Pd</c><c>   1</c></rc>
    <rc><c>Pd</c><c>   1</c></rc>
    <rc><c>Pd</c><c>   1</c></rc>
    <rc><c>Pd</c><c>   1</c></rc>
    <rc><c>Pd</c><c>   1</c></rc>
    <rc><c>C </c><c>   2</c></rc>
    <rc><c>O </c><c>   3</c></rc>
   </set>
  </array>
  <array name="atomtypes" >
   <dimension dim="1">type</dimension>
   <field type="int">atomspertype</field>
   <field type="string">element</field>
   <field>mass</field>
   <field>valence</field>
   <field type="string">pseudopotential</field>
   <set>
    <rc><c>  55</c><c>Pd</c><c>    106.42000000</c><c>     10.00000000</c><c>  PAW_PBE Pd 04Jan2005                  </c></rc>
    <rc><c>   1</c><c>C </c><c>     12.01100000</c><c>      4.00000000</c><c>  PAW_PBE C 08Apr2002                   </c></rc>
    <rc><c>   1</c><c>O </c><c>     16.00000000</c><c>      6.00000000</c><c>  PAW_PBE O 08Apr2002                   </c></rc>
   </set>
  </array>
 </atominfo>
 <structure name="initialpos" >
  <crystal>
   <varray name="basis" >
    <v>      30.00000000       0.00000000       0.00000000 </v>
    <v>       0.00000000      30.00000000       0.00000000 </v>
    <v>       0.00000000       0.00000000      30.00000000 </v>
   </varray>
   <i name="volume">  27000.00000000 </i>
   <varray name="rec_basis" >
    <v>       0.03333333       0.00000000       0.00000000 </v>
    <v>       0.00000000       0.03333333       0.00000000 </v>
    <v>       0.00000000       0.00000000       0.03333333 </v>
   </varray>
  </crystal>
  <varray name="positions" >
   <v>       0.44576020       0.32826710       0.41691983 </v>
   <v>       0.67173288       0.55423978       0.41691983 </v>
   <v>       0.55423980       0.32826710       0.41691983 </v>
   <v>       0.32826712       0.55423978       0.41691983 </v>
   <v>       0.50000000       0.38250690       0.34021317 </v>
   <v>       0.50000000       0.38250690       0.65978680 </v>
   <v>       0.50000000       0.27609440       0.50000000 </v>
   <v>       0.27609443       0.49999998       0.50000000 </v>
   <v>       0.72390557       0.49999998       0.50000000 </v>
   <v>       0.50000000       0.72390555       0.50000000 </v>
   <v>       0.61195280       0.38804720       0.34167483 </v>
   <v>       0.61195280       0.38804720       0.65832513 </v>
   <v>       0.38804722       0.61195278       0.34167483 </v>
   <v>       0.38804722       0.61195278       0.65832513 </v>
   <v>       0.38804720       0.38804720       0.34167483 </v>
   <v>       0.38804720       0.38804720       0.65832513 </v>
   <v>       0.61195278       0.61195278       0.34167483 </v>
   <v>       0.61195278       0.61195278       0.65832513 </v>
   <v>       0.44576020       0.32826710       0.58308023 </v>
   <v>       0.67173288       0.55423978       0.58308023 </v>
   <v>       0.55791699       0.44208301       0.41809300 </v>
   <v>       0.32826705       0.44576024       0.41691983 </v>
   <v>       0.55423973       0.67173293       0.41691983 </v>
   <v>       0.55423980       0.32826710       0.58308023 </v>
   <v>       0.32826712       0.55423978       0.58308023 </v>
   <v>       0.67173295       0.44576024       0.41691983 </v>
   <v>       0.44576027       0.67173293       0.41691983 </v>
   <v>       0.44208301       0.44208301       0.41809300 </v>
   <v>       0.50000000       0.38416601       0.50000000 </v>
   <v>       0.61749315       0.50000005       0.34021317 </v>
   <v>       0.61749315       0.50000005       0.65978680 </v>
   <v>       0.38250685       0.50000005       0.34021317 </v>
   <v>       0.38250685       0.50000005       0.65978680 </v>
   <v>       0.38317830       0.38317830       0.50000000 </v>
   <v>       0.61682172       0.61682172       0.50000000 </v>
   <v>       0.61682170       0.38317830       0.50000000 </v>
   <v>       0.38317828       0.61682172       0.50000000 </v>
   <v>       0.50000000       0.50000000       0.33478917 </v>
   <v>       0.50000000       0.50000000       0.66521087 </v>
   <v>       0.32826705       0.44576024       0.58308023 </v>
   <v>       0.55423973       0.67173293       0.58308023 </v>
   <v>       0.55791699       0.44208301       0.58190703 </v>
   <v>       0.44208298       0.55791702       0.41809300 </v>
   <v>       0.44208301       0.44208301       0.58190703 </v>
   <v>       0.67173295       0.44576024       0.58308023 </v>
   <v>       0.44576027       0.67173293       0.58308023 </v>
   <v>       0.55791702       0.55791702       0.41809300 </v>
   <v>       0.38416599       0.50000002       0.50000000 </v>
   <v>       0.61583401       0.50000002       0.50000000 </v>
   <v>       0.50000000       0.61749319       0.34021317 </v>
   <v>       0.50000000       0.61749319       0.65978680 </v>
   <v>       0.50000000       0.50000000       0.50000000 </v>
   <v>       0.44208298       0.55791702       0.58190703 </v>
   <v>       0.55791702       0.55791702       0.58190703 </v>
   <v>       0.50000000       0.61583404       0.50000000 </v>
   <v>       0.48631493       0.47078863       0.28775297 </v>
   <v>       0.48391813       0.46567250       0.25057983 </v>
  </varray>
  <varray name="selective"  type="logical" >
   <v type="logical" >  F  F  F </v>
   <v type="logical" >  F  F  F </v>
   <v type="logical" >  F  F  F </v>
   <v type="logical" >  F  F  F </v>
   <v type="logical" >  F  F  F </v>
   <v type="logical" >  F  F  F </v>
   <v type="logical" >  F  F  F </v>
   <v type="logical" >  F  F  F </v>
   <v type="logical" >  F  F  F </v>
   <v type="logical" >  F  F  F </v>
   <v type="logical" >  F  F  F </v>
   <v type="logical" >  F  F  F </v>
   <v type="logical" >  F  F  F </v>
   <v type="logical" >  F  F  F </v>
   <v type="logical" >  F  F  F </v>
   <v type="logical" >  F  F  F </v>
   <v type="logical" >  F  F  F </v>
   <v type="logical" >  F  F  F </v>
   <v type="logical" >  F  F  F </v>
   <v type="logical" >  F  F  F </v>
   <v type="logical" >  F  F  F </v>
   <v type="logical" >  F  F  F </v>
   <v type="logical" >  F  F  F </v>
   <v type="logical" >  F  F  F </v>
   <v type="logical" >  F  F  F </v>
   <v type="logical" >  F  F  F </v>
   <v type="logical" >  F  F  F </v>
   <v type="logical" >  F  F  F </v>
   <v type="logical" >  F  F  F </v>
   <v type="logical" >  F  F  F </v>
   <v type="logical" >  F  F  F </v>
   <v type="logical" >  F  F  F </v>
   <v type="logical" >  F  F  F </v>
   <v type="logical" >  F  F  F </v>
   <v type="logical" >  F  F  F </v>
   <v type="logical" >  F  F  F </v>
   <v type="logical" >  F  F  F </v>
   <v type="logical" >  F  F  F </v>
   <v type="logical" >  F  F  F </v>
   <v type="logical" >  F  F  F </v>
   <v type="logical" >  F  F  F </v>
   <v type="logical" >  F  F  F </v>
   <v type="logical" >  F  F  F </v>
   <v type="logical" >  F  F  F </v>
   <v type="logical" >  F  F  F </v>
   <v type="logical" >  F  F  F </v>
   <v type="logical" >  F  F  F </v>
   <v type="logical" >  F  F  F </v>
   <v type="logical" >  F  F  F </v>
   <v type="logical" >  F  F  F </v>
   <v type="logical" >  F  F  F </v>
   <v type="logical" >  F  F  F </v>
   <v type="logical" >  F  F  F </v>
   <v type="logical" >  F  F  F </v>
   <v type="logical" >  F  F  F </v>
   <v type="logical" >  F  F  F </v>
   <v type="logical" >  F  F  F </v>
  </varray>
  <nose>
   <v>      -3.00000000       0.00000000       0.00010000       0.00010000 </v>
  </nose>
 </structure>
 <calculation>
  <scstep>
   <time name="dav">  368.43  368.52</time>
   <time name="total">  382.56  382.65</time>
   <energy>
    <i name="alphaZ">     75.25431677 </i>
    <i name="ewald"> 139113.36997573 </i>
    <i name="hartreedc">-182466.44570993 </i>
    <i name="XCdc">  -1702.50192589 </i>
    <i name="pawpsdc">  44873.02882129 </i>
    <i name="pawaedc"> -41398.84523641 </i>
    <i name="eentropy">      0.02171032 </i>
    <i name="bandstr">    817.89735083 </i>
    <i name="atom">  45086.50549395 </i>
    <i name="e_fr_energy">   4398.28479666 </i>
    <i name="e_wo_entrp">   4398.26308634 </i>
    <i name="e_0_energy">   4398.27936908 </i>
   </energy>
  </scstep>
  <scstep>
   <time name="dav">  583.39  583.43</time>
   <time name="total">  583.39  583.44</time>
   <energy>
    <i name="e_fr_energy">   2028.55500239 </i>
    <i name="e_wo_entrp">   2028.62289386 </i>
    <i name="e_0_energy">   2028.57197526 </i>
   </energy>
  </scstep>
  <scstep>
   <time name="dav">  496.57  496.59</time>
   <time name="total">  496.57  496.59</time>
   <energy>
    <i name="e_fr_energy">    241.04175197 </i>
    <i name="e_wo_entrp">    241.01469256 </i>
    <i name="e_0_energy">    241.03498712 </i>
   </energy>
  </scstep>
  <scstep>
   <time name="dav">  422.20  422.21</time>
   <time name="total">  422.20  422.21</time>
   <energy>
    <i name="e_fr_energy">   -135.01407341 </i>
    <i name="e_wo_entrp">   -135.04056474 </i>
    <i name="e_0_energy">   -135.02069624 </i>
   </energy>
  </scstep>
  <scstep>
   <time name="dav">  505.94  505.95</time>
   <time name="total">  531.00  531.00</time>
   <energy>
    <i name="e_fr_energy">   -180.69747206 </i>
    <i name="e_wo_entrp">   -181.25306825 </i>
    <i name="e_0_energy">   -180.83637110 </i>
   </energy>
  </scstep>
  <scstep>
   <time name="diag">   66.91   66.91</time>
   <time name="diis">  189.66  189.67</time>
   <time name="orth">   12.45   12.45</time>
   <time name="total">  306.92  306.92</time>
   <energy>
    <i name="e_fr_energy">   -180.97016833 </i>
    <i name="e_wo_entrp">   -180.65088455 </i>
    <i name="e_0_energy">   -180.89034738 </i>
   </energy>
  </scstep>
  <scstep>
   <time name="diag">   66.32   66.32</time>
   <time name="diis">  222.78  222.79</time>
   <time name="orth">   12.14   12.14</time>
   <time name="total">  339.90  339.91</time>
   <energy>
    <i name="e_fr_energy">   -185.17290289 </i>
    <i name="e_wo_entrp">   -185.08342163 </i>
    <i name="e_0_energy">   -185.15053257 </i>
   </energy>
  </scstep>
  <scstep>
   <time name="diag">   66.10   66.10</time>
   <time name="diis">  205.82  205.83</time>
   <time name="orth">   12.56   12.56</time>
   <time name="total">  323.53  323.54</time>
   <energy>
    <i name="e_fr_energy">   -186.68831810 </i>
    <i name="e_wo_entrp">   -186.55150052 </i>
    <i name="e_0_energy">   -186.65411370 </i>
   </energy>
  </scstep>
  <scstep>
   <time name="diag">   66.69   66.69</time>
   <time name="diis">  188.18  188.19</time>
   <time name="orth">   12.52   12.53</time>
   <time name="total">  306.78  306.80</time>
   <energy>
    <i name="e_fr_energy">   -184.54089280 </i>
    <i name="e_wo_entrp">   -184.50005266 </i>
    <i name="e_0_energy">   -184.53068277 </i>
   </energy>
  </scstep>
  <scstep>
   <time name="diag">   67.08   67.09</time>
   <time name="diis">  190.65  190.66</time>
   <time name="orth">   12.86   12.86</time>
   <time name="total">  310.29  310.30</time>
   <energy>
    <i name="e_fr_energy">   -181.85678358 </i>
    <i name="e_wo_entrp">   -181.67922037 </i>
    <i name="e_0_energy">   -181.81239278 </i>
   </energy>
  </scstep>
  <scstep>
   <time name="diag">   66.96   66.96</time>
   <time name="diis">  187.45  187.45</time>
   <time name="orth">   12.77   12.77</time>
   <time name="total">  307.14  307.15</time>
   <energy>
    <i name="e_fr_energy">   -180.14937386 </i>
    <i name="e_wo_entrp">   -180.10528394 </i>
    <i name="e_0_energy">   -180.13835138 </i>
   </energy>
  </scstep>
  <scstep>
   <time name="diag">   67.27   67.27</time>
   <time name="diis">  187.49  187.50</time>
   <time name="orth">   12.97   12.97</time>
   <time name="total">  307.46  307.47</time>
   <energy>
    <i name="e_fr_energy">   -178.82701095 </i>
    <i name="e_wo_entrp">   -178.89216155 </i>
    <i name="e_0_energy">   -178.84329860 </i>
   </energy>
  </scstep>
  <scstep>
   <time name="diag">   68.83   68.83</time>
   <time name="diis">  190.74  190.75</time>
   <time name="orth">   13.10   13.10</time>
   <time name="total">  313.55  313.57</time>
   <energy>
    <i name="e_fr_energy">   -178.01518512 </i>
    <i name="e_wo_entrp">   -178.00832737 </i>
    <i name="e_0_energy">   -178.01347069 </i>
   </energy>
  </scstep>
  <scstep>
   <time name="diag">   69.63   69.64</time>
   <time name="diis">  191.78  191.79</time>
   <time name="orth">   13.15   13.15</time>
   <time name="total">  315.60  315.61</time>
   <energy>
    <i name="e_fr_energy">   -178.37903254 </i>
    <i name="e_wo_entrp">   -178.28137922 </i>
    <i name="e_0_energy">   -178.35461921 </i>
   </energy>
  </scstep>
  <scstep>
   <time name="diag">   69.09   69.09</time>
   <time name="diis">  193.91  193.92</time>
   <time name="orth">   12.83   12.83</time>
   <time name="total">  315.97  315.98</time>
   <energy>
    <i name="e_fr_energy">   -178.55478450 </i>
    <i name="e_wo_entrp">   -178.59594909 </i>
    <i name="e_0_energy">   -178.56507565 </i>
   </energy>
  </scstep>
  <scstep>
   <time name="diag">   69.37   69.37</time>
   <time name="diis">  189.58  189.58</time>
   <time name="orth">   12.93   12.93</time>
   <time name="total">  312.50  312.51</time>
   <energy>
    <i name="e_fr_energy">   -176.45304156 </i>
    <i name="e_wo_entrp">   -176.43922777 </i>
    <i name="e_0_energy">   -176.44958811 </i>
   </energy>
  </scstep>
  <scstep>
   <time name="diag">   69.79   69.79</time>
   <time name="diis">  184.95  184.95</time>
   <time name="orth">   13.02   13.02</time>
   <time name="total">  308.63  308.63</time>
   <energy>
    <i name="e_fr_energy">   -175.86396923 </i>
    <i name="e_wo_entrp">   -175.82142471 </i>
    <i name="e_0_energy">   -175.85333310 </i>
   </energy>
  </scstep>
  <scstep>
   <time name="diag">   68.78   68.78</time>
   <time name="diis">  187.47  187.47</time>
   <time name="orth">   12.84   12.84</time>
   <time name="total">  308.92  308.93</time>
   <energy>
    <i name="e_fr_energy">   -175.51673136 </i>
    <i name="e_wo_entrp">   -175.50799462 </i>
    <i name="e_0_energy">   -175.51454718 </i>
   </energy>
  </scstep>
  <scstep>
   <time name="diag">   68.24   68.24</time>
   <time name="diis">  185.04  185.04</time>
   <time name="orth">   12.78   12.78</time>
   <time name="total">  306.46  306.46</time>
   <energy>
    <i name="e_fr_energy">   -175.43717531 </i>
    <i name="e_wo_entrp">   -175.43788847 </i>
    <i name="e_0_energy">   -175.43735360 </i>
   </energy>
  </scstep>
  <scstep>
   <time name="diag">   68.82   68.82</time>
   <time name="diis">  187.31  187.32</time>
   <time name="orth">   12.56   12.57</time>
   <time name="total">  309.14  309.16</time>
   <energy>
    <i name="e_fr_energy">   -175.49462043 </i>
    <i name="e_wo_entrp">   -175.50134450 </i>
    <i name="e_0_energy">   -175.49630145 </i>
   </energy>
  </scstep>
  <scstep>
   <time name="diag">   67.46   67.46</time>
   <time name="diis">  185.50  185.50</time>
   <time name="orth">   12.54   12.54</time>
   <time name="total">  305.77  305.78</time>
   <energy>
    <i name="e_fr_energy">   -175.34166637 </i>
    <i name="e_wo_entrp">   -175.34817146 </i>
    <i name="e_0_energy">   -175.34329264 </i>
   </energy>
  </scstep>
  <scstep>
   <time name="diag">   67.56   67.56</time>
   <time name="diis">  187.20  187.21</time>
   <time name="orth">   12.24   12.24</time>
   <time name="total">  306.93  306.93</time>
   <energy>
    <i name="e_fr_energy">   -175.25452878 </i>
    <i name="e_wo_entrp">   -175.21762417 </i>
    <i name="e_0_energy">   -175.24530262 </i>
   </energy>
  </scstep>
  <scstep>
   <time name="diag">   66.09   66.09</time>
   <time name="diis">  185.64  185.64</time>
   <time name="orth">   12.57   12.57</time>
   <time name="total">  303.07  303.08</time>
   <energy>
    <i name="e_fr_energy">   -175.07593603 </i>
    <i name="e_wo_entrp">   -175.04461659 </i>
    <i name="e_0_energy">   -175.06810617 </i>
   </energy>
  </scstep>
  <scstep>
   <time name="diag">   67.12   67.12</time>
   <time name="diis">  181.82  181.82</time>
   <time name="orth">   12.02   12.02</time>
   <time name="total">  299.25  299.25</time>
   <energy>
    <i name="e_fr_energy">   -175.11673100 </i>
    <i name="e_wo_entrp">   -175.09606506 </i>
    <i name="e_0_energy">   -175.11156452 </i>
   </energy>
  </scstep>
  <scstep>
   <time name="diag">   64.89   64.89</time>
   <time name="diis">  183.64  183.65</time>
   <time name="orth">   12.60   12.60</time>
   <time name="total">  299.62  299.64</time>
   <energy>
    <i name="e_fr_energy">   -175.06685540 </i>
    <i name="e_wo_entrp">   -175.05645501 </i>
    <i name="e_0_energy">   -175.06425530 </i>
   </energy>
  </scstep>
  <scstep>
   <time name="diag">   66.07   66.08</time>
   <time name="diis">  186.55  186.57</time>
   <time name="orth">   12.47   12.47</time>
   <time name="total">  303.98  304.01</time>
   <energy>
    <i name="e_fr_energy">   -174.93253067 </i>
    <i name="e_wo_entrp">   -174.90393067 </i>
    <i name="e_0_energy">   -174.92538067 </i>
   </energy>
  </scstep>
  <scstep>
   <time name="diag">   65.27   65.27</time>
   <time name="diis">  184.95  184.95</time>
   <time name="orth">   12.29   12.29</time>
   <time name="total">  301.45  301.47</time>
   <energy>
    <i name="e_fr_energy">   -174.91328736 </i>
    <i name="e_wo_entrp">   -174.88480690 </i>
    <i name="e_0_energy">   -174.90616724 </i>
   </energy>
  </scstep>
  <scstep>
   <time name="diag">   66.41   66.41</time>
   <time name="diis">  184.08  184.09</time>
   <time name="orth">   12.49   12.50</time>
   <time name="total">  302.50  302.51</time>
   <energy>
    <i name="e_fr_energy">   -174.92250513 </i>
    <i name="e_wo_entrp">   -174.88245641 </i>
    <i name="e_0_energy">   -174.91249295 </i>
   </energy>
  </scstep>
  <scstep>
   <time name="diag">   66.95   66.96</time>
   <time name="diis">  183.32  183.33</time>
   <time name="orth">   12.67   12.67</time>
   <time name="total">  302.40  302.42</time>
   <energy>
    <i name="e_fr_energy">   -174.87801426 </i>
    <i name="e_wo_entrp">   -174.84949490 </i>
    <i name="e_0_energy">   -174.87088442 </i>
   </energy>
  </scstep>
  <scstep>
   <time name="diag">   65.60   65.60</time>
   <time name="diis">  184.40  184.42</time>
   <time name="orth">   12.42   12.42</time>
   <time name="total">  301.33  301.36</time>
   <energy>
    <i name="e_fr_energy">   -174.86738213 </i>
    <i name="e_wo_entrp">   -174.83202682 </i>
    <i name="e_0_energy">   -174.85854330 </i>
   </energy>
  </scstep>
  <scstep>
   <time name="diag">   65.28   65.28</time>
   <time name="diis">  185.34  185.34</time>
   <time name="orth">   12.23   12.23</time>
   <time name="total">  301.94  301.95</time>
   <energy>
    <i name="e_fr_energy">   -174.86452235 </i>
    <i name="e_wo_entrp">   -174.82547569 </i>
    <i name="e_0_energy">   -174.85476069 </i>
   </energy>
  </scstep>
  <scstep>
   <time name="diag">   66.96   66.97</time>
   <time name="diis">  182.55  182.55</time>
   <time name="orth">   12.72   12.72</time>
   <time name="total">  301.93  301.94</time>
   <energy>
    <i name="e_fr_energy">   -174.85811788 </i>
    <i name="e_wo_entrp">   -174.81874244 </i>
    <i name="e_0_energy">   -174.84827402 </i>
   </energy>
  </scstep>
  <scstep>
   <time name="diag">   65.40   65.40</time>
   <time name="diis">  183.36  183.37</time>
   <time name="orth">   12.73   12.73</time>
   <time name="total">  301.11  301.13</time>
   <energy>
    <i name="e_fr_energy">   -174.85883917 </i>
    <i name="e_wo_entrp">   -174.82175735 </i>
    <i name="e_0_energy">   -174.84956871 </i>
   </energy>
  </scstep>
  <scstep>
   <time name="diag">   66.40   66.40</time>
   <time name="diis">  183.32  183.33</time>
   <time name="orth">   12.60   12.60</time>
   <time name="total">  302.63  302.65</time>
   <energy>
    <i name="e_fr_energy">   -174.85424932 </i>
    <i name="e_wo_entrp">   -174.81851703 </i>
    <i name="e_0_energy">   -174.84531625 </i>
   </energy>
  </scstep>
  <scstep>
   <time name="diag">   67.07   67.07</time>
   <time name="diis">  183.72  183.73</time>
   <time name="orth">   12.18   12.18</time>
   <time name="total">  303.24  303.26</time>
   <energy>
    <i name="e_fr_energy">   -174.85375880 </i>
    <i name="e_wo_entrp">   -174.81676863 </i>
    <i name="e_0_energy">   -174.84451126 </i>
   </energy>
  </scstep>
  <scstep>
   <time name="diag">   65.56   65.56</time>
   <time name="diis">  184.16  184.17</time>
   <time name="orth">   12.18   12.18</time>
   <time name="total">  301.28  301.29</time>
   <energy>
    <i name="e_fr_energy">   -174.85425002 </i>
    <i name="e_wo_entrp">   -174.81577084 </i>
    <i name="e_0_energy">   -174.84463022 </i>
   </energy>
  </scstep>
  <scstep>
   <time name="diag">   66.62   66.63</time>
   <time name="diis">  178.38  178.38</time>
   <time name="orth">   11.85   11.85</time>
   <time name="total">  295.97  295.98</time>
   <energy>
    <i name="e_fr_energy">   -174.85437446 </i>
    <i name="e_wo_entrp">   -174.81544200 </i>
    <i name="e_0_energy">   -174.84464134 </i>
   </energy>
  </scstep>
  <scstep>
   <time name="diag">   65.65   65.65</time>
   <time name="diis">  184.53  184.54</time>
   <time name="orth">   12.07   12.08</time>
   <time name="total">  301.88  301.90</time>
   <energy>
    <i name="e_fr_energy">   -174.85756258 </i>
    <i name="e_wo_entrp">   -174.82041247 </i>
    <i name="e_0_energy">   -174.84827505 </i>
   </energy>
  </scstep>
  <scstep>
   <time name="diag">   65.38   65.38</time>
   <time name="diis">  184.68  184.68</time>
   <time name="orth">   12.26   12.26</time>
   <time name="total">  302.00  302.01</time>
   <energy>
    <i name="e_fr_energy">   -174.85990445 </i>
    <i name="e_wo_entrp">   -174.82354815 </i>
    <i name="e_0_energy">   -174.85081537 </i>
   </energy>
  </scstep>
  <scstep>
   <time name="diag">   64.82   64.82</time>
   <time name="diis">  151.46  151.47</time>
   <time name="orth">   12.06   12.06</time>
   <time name="total">  267.84  267.85</time>
   <energy>
    <i name="e_fr_energy">   -174.86174879 </i>
    <i name="e_wo_entrp">   -174.82379246 </i>
    <i name="e_0_energy">   -174.85225971 </i>
   </energy>
  </scstep>
  <scstep>
   <time name="diag">   63.67   63.67</time>
   <time name="diis">  140.48  140.49</time>
   <time name="orth">   13.03   13.03</time>
   <time name="total">  258.84  258.86</time>
   <energy>
    <i name="e_fr_energy">   -174.86426501 </i>
    <i name="e_wo_entrp">   -174.82605675 </i>
    <i name="e_0_energy">   -174.85471294 </i>
   </energy>
  </scstep>
  <scstep>
   <time name="diag">   64.87   64.88</time>
   <time name="diis">  139.56  139.57</time>
   <time name="orth">   12.95   12.95</time>
   <time name="total">  259.71  259.73</time>
   <energy>
    <i name="e_fr_energy">   -174.86668896 </i>
    <i name="e_wo_entrp">   -174.82944526 </i>
    <i name="e_0_energy">   -174.85737804 </i>
   </energy>
  </scstep>
  <scstep>
   <time name="diag">   66.36   66.36</time>
   <time name="diis">  146.17  146.17</time>
   <time name="orth">   12.95   12.95</time>
   <time name="total">  268.48  268.49</time>
   <energy>
    <i name="e_fr_energy">   -174.86974075 </i>
    <i name="e_wo_entrp">   -174.83331775 </i>
    <i name="e_0_energy">   -174.86063500 </i>
   </energy>
  </scstep>
  <scstep>
   <time name="diag">   67.62   67.62</time>
   <time name="diis">  116.50  116.50</time>
   <time name="orth">   12.74   12.74</time>
   <time name="total">  239.51  239.51</time>
   <energy>
    <i name="e_fr_energy">   -174.87133206 </i>
    <i name="e_wo_entrp">   -174.83448674 </i>
    <i name="e_0_energy">   -174.86212073 </i>
   </energy>
  </scstep>
  <scstep>
   <time name="diag">   67.49   67.49</time>
   <time name="diis">  124.47  124.47</time>
   <time name="orth">   12.18   12.18</time>
   <time name="total">  245.19  245.19</time>
   <energy>
    <i name="e_fr_energy">   -174.87340796 </i>
    <i name="e_wo_entrp">   -174.83622716 </i>
    <i name="e_0_energy">   -174.86411276 </i>
   </energy>
  </scstep>
  <scstep>
   <time name="diag">   66.70   66.70</time>
   <time name="diis">  122.07  122.08</time>
   <time name="orth">   12.65   12.65</time>
   <time name="total">  242.63  242.64</time>
   <energy>
    <i name="e_fr_energy">   -174.87479193 </i>
    <i name="e_wo_entrp">   -174.83744649 </i>
    <i name="e_0_energy">   -174.86545557 </i>
   </energy>
  </scstep>
  <scstep>
   <time name="diag">   63.67   63.67</time>
   <time name="diis">  117.74  117.74</time>
   <time name="orth">   13.17   13.17</time>
   <time name="total">  238.28  238.29</time>
   <energy>
    <i name="e_fr_energy">   -174.87608937 </i>
    <i name="e_wo_entrp">   -174.83925303 </i>
    <i name="e_0_energy">   -174.86688029 </i>
   </energy>
  </scstep>
  <scstep>
   <time name="diag">   65.79   65.79</time>
   <time name="diis">  115.98  115.98</time>
   <time name="orth">   12.81   12.81</time>
   <time name="total">  238.36  238.38</time>
   <energy>
    <i name="e_fr_energy">   -174.87725542 </i>
    <i name="e_wo_entrp">   -174.84036733 </i>
    <i name="e_0_energy">   -174.86803340 </i>
   </energy>
  </scstep>
  <scstep>
   <time name="diag">   67.36   67.36</time>
   <time name="diis">  114.86  114.87</time>
   <time name="orth">   13.56   13.56</time>
   <time name="total">  240.21  240.22</time>
   <energy>
    <i name="e_fr_energy">   -174.87780987 </i>
    <i name="e_wo_entrp">   -174.84099018 </i>
    <i name="e_0_energy">   -174.86860495 </i>
   </energy>
  </scstep>
  <scstep>
   <time name="diag">   66.63   66.64</time>
   <time name="diis">  113.71  113.72</time>
   <time name="orth">   12.56   12.56</time>
   <time name="total">  236.13  236.14</time>
   <energy>
    <i name="e_fr_energy">   -174.87889096 </i>
    <i name="e_wo_entrp">   -174.84212638 </i>
    <i name="e_0_energy">   -174.86969981 </i>
   </energy>
  </scstep>
  <scstep>
   <time name="diag">   67.70   67.71</time>
   <time name="diis">  113.16  113.17</time>
   <time name="orth">   12.79   12.79</time>
   <time name="total">  236.93  236.95</time>
   <energy>
    <i name="e_fr_energy">   -174.87908978 </i>
    <i name="e_wo_entrp">   -174.84200197 </i>
    <i name="e_0_energy">   -174.86981782 </i>
   </energy>
  </scstep>
  <scstep>
   <time name="diag">   67.56   67.56</time>
   <time name="diis">  109.42  109.43</time>
   <time name="orth">   12.81   12.81</time>
   <time name="total">  233.43  233.45</time>
   <energy>
    <i name="e_fr_energy">   -174.87977775 </i>
    <i name="e_wo_entrp">   -174.84309387 </i>
    <i name="e_0_energy">   -174.87060678 </i>
   </energy>
  </scstep>
  <scstep>
   <time name="diag">   68.03   68.03</time>
   <time name="diis">   97.87   97.88</time>
   <time name="orth">   12.67   12.67</time>
   <time name="total">  222.07  222.08</time>
   <energy>
    <i name="e_fr_energy">   -174.88015986 </i>
    <i name="e_wo_entrp">   -174.84337811 </i>
    <i name="e_0_energy">   -174.87096442 </i>
   </energy>
  </scstep>
  <scstep>
   <time name="diag">   66.92   66.93</time>
   <time name="diis">  102.31  102.31</time>
   <time name="orth">   12.62   12.62</time>
   <time name="total">  224.98  224.99</time>
   <energy>
    <i name="e_fr_energy">   -174.88072969 </i>
    <i name="e_wo_entrp">   -174.84389115 </i>
    <i name="e_0_energy">   -174.87152005 </i>
   </energy>
  </scstep>
  <scstep>
   <time name="diag">   67.99   67.99</time>
   <time name="diis">   85.77   85.78</time>
   <time name="orth">   12.70   12.70</time>
   <time name="total">  209.66  209.68</time>
   <energy>
    <i name="e_fr_energy">   -174.88098465 </i>
    <i name="e_wo_entrp">   -174.84421118 </i>
    <i name="e_0_energy">   -174.87179129 </i>
   </energy>
  </scstep>
  <scstep>
   <time name="diag">   66.04   66.04</time>
   <time name="diis">  105.03  105.04</time>
   <time name="orth">   12.74   12.74</time>
   <time name="total">  226.81  226.81</time>
   <energy>
    <i name="e_fr_energy">   -174.88138101 </i>
    <i name="e_wo_entrp">   -174.84454546 </i>
    <i name="e_0_energy">   -174.87217212 </i>
   </energy>
  </scstep>
  <scstep>
   <time name="diag">   65.51   65.51</time>
   <time name="diis">   83.01   83.01</time>
   <time name="orth">   13.09   13.09</time>
   <time name="total">  204.78  204.79</time>
   <energy>
    <i name="e_fr_energy">   -174.88154796 </i>
    <i name="e_wo_entrp">   -174.84470834 </i>
    <i name="e_0_energy">   -174.87233806 </i>
   </energy>
  </scstep>
  <scstep>
   <time name="diag">   66.76   66.76</time>
   <time name="diis">   84.54   84.55</time>
   <time name="orth">   13.04   13.04</time>
   <time name="total">  208.24  208.26</time>
   <energy>
    <i name="e_fr_energy">   -174.88170643 </i>
    <i name="e_wo_entrp">   -174.84482078 </i>
    <i name="e_0_energy">   -174.87248501 </i>
   </energy>
  </scstep>
  <scstep>
   <time name="diag">   66.77   66.77</time>
   <time name="diis">   88.12   88.12</time>
   <time name="orth">   13.04   13.04</time>
   <time name="total">  211.75  211.76</time>
   <energy>
    <i name="e_fr_energy">   -174.88184850 </i>
    <i name="e_wo_entrp">   -174.84502093 </i>
    <i name="e_0_energy">   -174.87264161 </i>
   </energy>
  </scstep>
  <scstep>
   <time name="diag">   66.39   66.39</time>
   <time name="diis">   81.41   81.41</time>
   <time name="orth">   12.77   12.77</time>
   <time name="total">  205.30  205.31</time>
   <energy>
    <i name="e_fr_energy">   -174.88196258 </i>
    <i name="e_wo_entrp">   -174.84508804 </i>
    <i name="e_0_energy">   -174.87274395 </i>
   </energy>
  </scstep>
  <scstep>
   <time name="diag">   68.38   68.38</time>
   <time name="diis">   68.28   68.28</time>
   <time name="orth">   12.49   12.49</time>
   <time name="total">  163.57  163.58</time>
   <energy>
    <i name="alphaZ">     75.25431677 </i>
    <i name="ewald"> 139113.36997573 </i>
    <i name="hartreedc">-183464.19793191 </i>
    <i name="XCdc">  -1691.66580953 </i>
    <i name="pawpsdc">  46334.04030012 </i>
    <i name="pawaedc"> -42805.88394728 </i>
    <i name="eentropy">     -0.03685011 </i>
    <i name="bandstr">  -2822.26753095 </i>
    <i name="atom">  45086.50549395 </i>
    <i name="e_fr_energy">   -174.88198322 </i>
    <i name="e_wo_entrp">   -174.84513311 </i>
    <i name="e_0_energy">   -174.87277069 </i>
   </energy>
  </scstep>
  <structure>
   <crystal>
    <varray name="basis" >
     <v>      30.00000000       0.00000000       0.00000000 </v>
     <v>       0.00000000      30.00000000       0.00000000 </v>
     <v>       0.00000000       0.00000000      30.00000000 </v>
    </varray>
    <i name="volume">  27000.00000000 </i>
    <varray name="rec_basis" >
     <v>       0.03333333       0.00000000       0.00000000 </v>
     <v>       0.00000000       0.03333333       0.00000000 </v>
     <v>       0.00000000       0.00000000       0.03333333 </v>
    </varray>
   </crystal>
   <varray name="positions" >
    <v>       0.44576020       0.32826710       0.41691983 </v>
    <v>       0.67173288       0.55423978       0.41691983 </v>
    <v>       0.55423980       0.32826710       0.41691983 </v>
    <v>       0.32826712       0.55423978       0.41691983 </v>
    <v>       0.50000000       0.38250690       0.34021317 </v>
    <v>       0.50000000       0.38250690       0.65978680 </v>
    <v>       0.50000000       0.27609440       0.50000000 </v>
    <v>       0.27609443       0.49999998       0.50000000 </v>
    <v>       0.72390557       0.49999998       0.50000000 </v>
    <v>       0.50000000       0.72390555       0.50000000 </v>
    <v>       0.61195280       0.38804720       0.34167483 </v>
    <v>       0.61195280       0.38804720       0.65832513 </v>
    <v>       0.38804722       0.61195278       0.34167483 </v>
    <v>       0.38804722       0.61195278       0.65832513 </v>
    <v>       0.38804720       0.38804720       0.34167483 </v>
    <v>       0.38804720       0.38804720       0.65832513 </v>
    <v>       0.61195278       0.61195278       0.34167483 </v>
    <v>       0.61195278       0.61195278       0.65832513 </v>
    <v>       0.44576020       0.32826710       0.58308023 </v>
    <v>       0.67173288       0.55423978       0.58308023 </v>
    <v>       0.55791699       0.44208301       0.41809300 </v>
    <v>       0.32826705       0.44576024       0.41691983 </v>
    <v>       0.55423973       0.67173293       0.41691983 </v>
    <v>       0.55423980       0.32826710       0.58308023 </v>
    <v>       0.32826712       0.55423978       0.58308023 </v>
    <v>       0.67173295       0.44576024       0.41691983 </v>
    <v>       0.44576027       0.67173293       0.41691983 </v>
    <v>       0.44208301       0.44208301       0.41809300 </v>
    <v>       0.50000000       0.38416601       0.50000000 </v>
    <v>       0.61749315       0.50000005       0.34021317 </v>
    <v>       0.61749315       0.50000005       0.65978680 </v>
    <v>       0.38250685       0.50000005       0.34021317 </v>
    <v>       0.38250685       0.50000005       0.65978680 </v>
    <v>       0.38317830       0.38317830       0.50000000 </v>
    <v>       0.61682172       0.61682172       0.50000000 </v>
    <v>       0.61682170       0.38317830       0.50000000 </v>
    <v>       0.38317828       0.61682172       0.50000000 </v>
    <v>       0.50000000       0.50000000       0.33478917 </v>
    <v>       0.50000000       0.50000000       0.66521087 </v>
    <v>       0.32826705       0.44576024       0.58308023 </v>
    <v>       0.55423973       0.67173293       0.58308023 </v>
    <v>       0.55791699       0.44208301       0.58190703 </v>
    <v>       0.44208298       0.55791702       0.41809300 </v>
    <v>       0.44208301       0.44208301       0.58190703 </v>
    <v>       0.67173295       0.44576024       0.58308023 </v>
    <v>       0.44576027       0.67173293       0.58308023 </v>
    <v>       0.55791702       0.55791702       0.41809300 </v>
    <v>       0.38416599       0.50000002       0.50000000 </v>
    <v>       0.61583401       0.50000002       0.50000000 </v>
    <v>       0.50000000       0.61749319       0.34021317 </v>
    <v>       0.50000000       0.61749319       0.65978680 </v>
    <v>       0.50000000       0.50000000       0.50000000 </v>
    <v>       0.44208298       0.55791702       0.58190703 </v>
    <v>       0.55791702       0.55791702       0.58190703 </v>
    <v>       0.50000000       0.61583404       0.50000000 </v>
    <v>       0.48631493       0.47078863       0.28775297 </v>
    <v>       0.48391813       0.46567250       0.25057983 </v>
   </varray>
  </structure>
  <varray name="forces" >
   <v>       0.70246005       1.08565180       0.31437377 </v>
   <v>      -1.10785635      -0.70451445       0.28573783 </v>
   <v>      -0.70265665       1.09030240       0.30477850 </v>
   <v>       1.10252271      -0.70659167       0.29021261 </v>
   <v>      -0.01609793       0.56042670       1.23420035 </v>
   <v>      -0.00108425       0.40935603      -1.27869829 </v>
   <v>      -0.00437795       1.50360134      -0.02392112 </v>
   <v>       1.50445440      -0.00655458      -0.01793637 </v>
   <v>      -1.50793057      -0.00660469      -0.01135263 </v>
   <v>      -0.00304985      -1.50970273      -0.00725075 </v>
   <v>      -0.72728034       0.72896914       1.06992955 </v>
   <v>      -0.75443239       0.75019578      -1.07392621 </v>
   <v>       0.74281682      -0.74194391       1.07055936 </v>
   <v>       0.74912329      -0.75380316      -1.07495240 </v>
   <v>       0.71218245       0.71447915       1.06938592 </v>
   <v>       0.75408294       0.75249303      -1.07270080 </v>
   <v>      -0.75106793      -0.75161660       1.06794038 </v>
   <v>      -0.74962879      -0.75184028      -1.07564752 </v>
   <v>       0.69765607       1.11330392      -0.28540890 </v>
   <v>      -1.11052006      -0.69449996      -0.28653507 </v>
   <v>       0.18256999      -0.14516710      -0.09663313 </v>
   <v>       1.09347871       0.70300719       0.30911416 </v>
   <v>      -0.69930289      -1.10935343       0.28814880 </v>
   <v>      -0.69581634       1.11397270      -0.28318706 </v>
   <v>       1.11237283      -0.69423520      -0.28350649 </v>
   <v>      -1.10199683       0.70062422       0.30084319 </v>
   <v>       0.69717815      -1.10694729       0.29328841 </v>
   <v>      -0.17573911      -0.16096151      -0.07635637 </v>
   <v>      -0.00144302      -0.21989578      -0.00094161 </v>
   <v>      -0.37578873       0.02253849       1.32502273 </v>
   <v>      -0.40346922      -0.00300626      -1.28057855 </v>
   <v>       0.40198055       0.02226969       1.31654540 </v>
   <v>       0.40766543      -0.00230259      -1.27931207 </v>
   <v>       0.83274202       0.83469933      -0.01128295 </v>
   <v>      -0.81373092      -0.81127894       0.02869475 </v>
   <v>      -0.82510735       0.83038557      -0.00006023 </v>
   <v>       0.82190445      -0.81681573       0.01565955 </v>
   <v>       0.82562703       1.82767203       4.44573340 </v>
   <v>      -0.00525023      -0.01174682      -1.18495805 </v>
   <v>       1.11146855       0.69772676      -0.28702312 </v>
   <v>      -0.69547744      -1.10896362      -0.28781257 </v>
   <v>       0.11488081      -0.11222683       0.15247822 </v>
   <v>      -0.11745022       0.16224081      -0.12193306 </v>
   <v>      -0.11421635      -0.11261509       0.15308962 </v>
   <v>      -1.10941494       0.69749260      -0.28730035 </v>
   <v>       0.69667439      -1.10837268      -0.28697809 </v>
   <v>       0.07502151       0.09731417      -0.18685657 </v>
   <v>      -0.21764835      -0.00171226      -0.00061068 </v>
   <v>       0.21410350       0.00083716       0.00019193 </v>
   <v>       0.01012617      -0.38959005       1.32386902 </v>
   <v>      -0.00189731      -0.39987669      -1.28128928 </v>
   <v>      -0.00005069       0.00072548      -0.00707978 </v>
   <v>      -0.11407683       0.11444783       0.14956277 </v>
   <v>       0.11510766       0.11453797       0.14684212 </v>
   <v>       0.00085084       0.21064868      -0.00036559 </v>
   <v>      -0.14835848      -0.71117274       1.89496382 </v>
   <v>      -0.62683301      -1.20600732      -5.39877050 </v>
  </varray>
  <varray name="stress" >
   <v>      -6.67717053       0.04846579       0.10170609 </v>
   <v>       0.04846577      -6.62032407       0.23645425 </v>
   <v>       0.10170609       0.23645424      -6.08677207 </v>
  </varray>
  <energy>
   <i name="e_fr_energy">   -174.88198322 </i>
   <i name="e_wo_entrp">   -174.87277069 </i>
   <i name="e_0_energy">     -0.03685011 </i>
  </energy>
  <time name="totalsc">18275.9618276.80</time>
  <eigenvalues>
   <array>
    <dimension dim="1">band</dimension>
    <dimension dim="2">kpoint</dimension>
    <dimension dim="3">spin</dimension>
    <field>eigene</field>
    <field>occ</field>
    <set>
     <set comment="spin 1">
      <set comment="kpoint 1">
       <r>  -28.1745    1.0000 </r>
       <r>  -13.5805    1.0000 </r>
       <r>  -11.3139    1.0000 </r>
       <r>  -10.8640    1.0000 </r>
       <r>  -10.7456    1.0000 </r>
       <r>   -6.8611    1.0000 </r>
       <r>   -6.8118    1.0000 </r>
       <r>   -6.6698    1.0000 </r>
       <r>   -6.2051    1.0000 </r>
       <r>   -6.1390    1.0000 </r>
       <r>   -6.1337    1.0000 </r>
       <r>   -5.9390    1.0000 </r>
       <r>   -5.8964    1.0000 </r>
       <r>   -5.8458    1.0000 </r>
       <r>   -5.8121    1.0000 </r>
       <r>   -5.7966    1.0000 </r>
       <r>   -5.7638    1.0000 </r>
       <r>   -5.7228    1.0000 </r>
       <r>   -5.6929    1.0000 </r>
       <r>   -5.6862    1.0000 </r>
       <r>   -5.6856    1.0000 </r>
       <r>   -5.6842    1.0000 </r>
       <r>   -5.6157    1.0000 </r>
       <r>   -5.6014    1.0000 </r>
       <r>   -5.5981    1.0000 </r>
       <r>   -5.5967    1.0000 </r>
       <r>   -5.5960    1.0000 </r>
       <r>   -5.5897    1.0000 </r>
       <r>   -5.5485    1.0000 </r>
       <r>   -5.5373    1.0000 </r>
       <r>   -5.5354    1.0000 </r>
       <r>   -5.5309    1.0000 </r>
       <r>   -5.5222    1.0000 </r>
       <r>   -5.5195    1.0000 </r>
       <r>   -5.5190    1.0000 </r>
       <r>   -5.5133    1.0000 </r>
       <r>   -5.5091    1.0000 </r>
       <r>   -5.5065    1.0000 </r>
       <r>   -5.5034    1.0000 </r>
       <r>   -5.4864    1.0000 </r>
       <r>   -5.4793    1.0000 </r>
       <r>   -5.4759    1.0000 </r>
       <r>   -5.4721    1.0000 </r>
       <r>   -5.4692    1.0000 </r>
       <r>   -5.4682    1.0000 </r>
       <r>   -5.4665    1.0000 </r>
       <r>   -5.4591    1.0000 </r>
       <r>   -5.4447    1.0000 </r>
       <r>   -5.4307    1.0000 </r>
       <r>   -5.4297    1.0000 </r>
       <r>   -5.4272    1.0000 </r>
       <r>   -5.4189    1.0000 </r>
       <r>   -5.4096    1.0000 </r>
       <r>   -5.4091    1.0000 </r>
       <r>   -5.3981    1.0000 </r>
       <r>   -5.3974    1.0000 </r>
       <r>   -5.3930    1.0000 </r>
       <r>   -5.3849    1.0000 </r>
       <r>   -5.3567    1.0000 </r>
       <r>   -5.3323    1.0000 </r>
       <r>   -5.3239    1.0000 </r>
       <r>   -5.3185    1.0000 </r>
       <r>   -5.3172    1.0000 </r>
       <r>   -5.3159    1.0000 </r>
       <r>   -5.3137    1.0000 </r>
       <r>   -5.3110    1.0000 </r>
       <r>   -5.3102    1.0000 </r>
       <r>   -5.3018    1.0000 </r>
       <r>   -5.2921    1.0000 </r>
       <r>   -5.2876    1.0000 </r>
       <r>   -5.2585    1.0000 </r>
       <r>   -5.2078    1.0000 </r>
       <r>   -5.1893    1.0000 </r>
       <r>   -5.1873    1.0000 </r>
       <r>   -5.1844    1.0000 </r>
       <r>   -5.1816    1.0000 </r>
       <r>   -5.1806    1.0000 </r>
       <r>   -5.1787    1.0000 </r>
       <r>   -5.1781    1.0000 </r>
       <r>   -5.1600    1.0000 </r>
       <r>   -5.1531    1.0000 </r>
       <r>   -5.1492    1.0000 </r>
       <r>   -5.1484    1.0000 </r>
       <r>   -5.1429    1.0000 </r>
       <r>   -5.1241    1.0000 </r>
       <r>   -5.1237    1.0000 </r>
       <r>   -5.1130    1.0000 </r>
       <r>   -5.1047    1.0000 </r>
       <r>   -5.1009    1.0000 </r>
       <r>   -5.1005    1.0000 </r>
       <r>   -5.0819    1.0000 </r>
       <r>   -5.0597    1.0000 </r>
       <r>   -5.0581    1.0000 </r>
       <r>   -5.0536    1.0000 </r>
       <r>   -5.0527    1.0000 </r>
       <r>   -5.0494    1.0000 </r>
       <r>   -5.0480    1.0000 </r>
       <r>   -5.0401    1.0000 </r>
       <r>   -5.0296    1.0000 </r>
       <r>   -5.0245    1.0000 </r>
       <r>   -5.0225    1.0000 </r>
       <r>   -5.0181    1.0000 </r>
       <r>   -5.0126    1.0000 </r>
       <r>   -5.0104    1.0000 </r>
       <r>   -5.0062    1.0000 </r>
       <r>   -5.0061    1.0000 </r>
       <r>   -5.0053    1.0000 </r>
       <r>   -4.9911    1.0000 </r>
       <r>   -4.9870    1.0000 </r>
       <r>   -4.9821    1.0000 </r>
       <r>   -4.9804    1.0000 </r>
       <r>   -4.9786    1.0000 </r>
       <r>   -4.9734    1.0000 </r>
       <r>   -4.9677    1.0000 </r>
       <r>   -4.9636    1.0000 </r>
       <r>   -4.9598    1.0000 </r>
       <r>   -4.9506    1.0000 </r>
       <r>   -4.9502    1.0000 </r>
       <r>   -4.9317    1.0000 </r>
       <r>   -4.9265    1.0000 </r>
       <r>   -4.9184    1.0000 </r>
       <r>   -4.9177    1.0000 </r>
       <r>   -4.9147    1.0000 </r>
       <r>   -4.9114    1.0000 </r>
       <r>   -4.9086    1.0000 </r>
       <r>   -4.9019    1.0000 </r>
       <r>   -4.9003    1.0000 </r>
       <r>   -4.8810    1.0000 </r>
       <r>   -4.8785    1.0000 </r>
       <r>   -4.8708    1.0000 </r>
       <r>   -4.8442    1.0000 </r>
       <r>   -4.8392    1.0000 </r>
       <r>   -4.8380    1.0000 </r>
       <r>   -4.8330    1.0000 </r>
       <r>   -4.8313    1.0000 </r>
       <r>   -4.8308    1.0000 </r>
       <r>   -4.8219    1.0000 </r>
       <r>   -4.8031    0.9999 </r>
       <r>   -4.8016    0.9999 </r>
       <r>   -4.7925    0.9999 </r>
       <r>   -4.7890    0.9999 </r>
       <r>   -4.7758    0.9999 </r>
       <r>   -4.7639    0.9998 </r>
       <r>   -4.7566    0.9998 </r>
       <r>   -4.7386    0.9996 </r>
       <r>   -4.7376    0.9996 </r>
       <r>   -4.7352    0.9996 </r>
       <r>   -4.7344    0.9996 </r>
       <r>   -4.7183    0.9994 </r>
       <r>   -4.7098    0.9993 </r>
       <r>   -4.7066    0.9993 </r>
       <r>   -4.7041    0.9992 </r>
       <r>   -4.6835    0.9989 </r>
       <r>   -4.6830    0.9989 </r>
       <r>   -4.6800    0.9988 </r>
       <r>   -4.6777    0.9988 </r>
       <r>   -4.6734    0.9987 </r>
       <r>   -4.6727    0.9986 </r>
       <r>   -4.6672    0.9985 </r>
       <r>   -4.6623    0.9984 </r>
       <r>   -4.6595    0.9983 </r>
       <r>   -4.6541    0.9981 </r>
       <r>   -4.6523    0.9981 </r>
       <r>   -4.6511    0.9981 </r>
       <r>   -4.6491    0.9980 </r>
       <r>   -4.6448    0.9979 </r>
       <r>   -4.6439    0.9978 </r>
       <r>   -4.6356    0.9975 </r>
       <r>   -4.6337    0.9975 </r>
       <r>   -4.6310    0.9974 </r>
       <r>   -4.6293    0.9973 </r>
       <r>   -4.6240    0.9971 </r>
       <r>   -4.6177    0.9969 </r>
       <r>   -4.5970    0.9961 </r>
       <r>   -4.5962    0.9961 </r>
       <r>   -4.5917    0.9959 </r>
       <r>   -4.5916    0.9959 </r>
       <r>   -4.5877    0.9958 </r>
       <r>   -4.5864    0.9958 </r>
       <r>   -4.5794    0.9955 </r>
       <r>   -4.5746    0.9954 </r>
       <r>   -4.5676    0.9952 </r>
       <r>   -4.5547    0.9951 </r>
       <r>   -4.5536    0.9951 </r>
       <r>   -4.5516    0.9951 </r>
       <r>   -4.5514    0.9951 </r>
       <r>   -4.5509    0.9951 </r>
       <r>   -4.5496    0.9951 </r>
       <r>   -4.5476    0.9951 </r>
       <r>   -4.5455    0.9951 </r>
       <r>   -4.5160    0.9963 </r>
       <r>   -4.5143    0.9964 </r>
       <r>   -4.5102    0.9968 </r>
       <r>   -4.5070    0.9971 </r>
       <r>   -4.5023    0.9977 </r>
       <r>   -4.4902    0.9995 </r>
       <r>   -4.4825    1.0009 </r>
       <r>   -4.4811    1.0012 </r>
       <r>   -4.4761    1.0023 </r>
       <r>   -4.4733    1.0030 </r>
       <r>   -4.4671    1.0046 </r>
       <r>   -4.4658    1.0049 </r>
       <r>   -4.4652    1.0051 </r>
       <r>   -4.4611    1.0063 </r>
       <r>   -4.4586    1.0070 </r>
       <r>   -4.4576    1.0073 </r>
       <r>   -4.4521    1.0091 </r>
       <r>   -4.4457    1.0114 </r>
       <r>   -4.4439    1.0121 </r>
       <r>   -4.4390    1.0140 </r>
       <r>   -4.4298    1.0178 </r>
       <r>   -4.4208    1.0218 </r>
       <r>   -4.4109    1.0264 </r>
       <r>   -4.4082    1.0277 </r>
       <r>   -4.4057    1.0289 </r>
       <r>   -4.4037    1.0299 </r>
       <r>   -4.4025    1.0304 </r>
       <r>   -4.3993    1.0320 </r>
       <r>   -4.3977    1.0327 </r>
       <r>   -4.3967    1.0333 </r>
       <r>   -4.3930    1.0350 </r>
       <r>   -4.3901    1.0364 </r>
       <r>   -4.3638    1.0471 </r>
       <r>   -4.3537    1.0499 </r>
       <r>   -4.3509    1.0505 </r>
       <r>   -4.3418    1.0516 </r>
       <r>   -4.3370    1.0516 </r>
       <r>   -4.3363    1.0516 </r>
       <r>   -4.3349    1.0515 </r>
       <r>   -4.3333    1.0514 </r>
       <r>   -4.3284    1.0506 </r>
       <r>   -4.3283    1.0506 </r>
       <r>   -4.3257    1.0500 </r>
       <r>   -4.3248    1.0498 </r>
       <r>   -4.3235    1.0494 </r>
       <r>   -4.3202    1.0483 </r>
       <r>   -4.3195    1.0480 </r>
       <r>   -4.3144    1.0457 </r>
       <r>   -4.3136    1.0453 </r>
       <r>   -4.3084    1.0421 </r>
       <r>   -4.3080    1.0418 </r>
       <r>   -4.3003    1.0358 </r>
       <r>   -4.2985    1.0341 </r>
       <r>   -4.2973    1.0329 </r>
       <r>   -4.2916    1.0267 </r>
       <r>   -4.2888    1.0232 </r>
       <r>   -4.2827    1.0149 </r>
       <r>   -4.2826    1.0147 </r>
       <r>   -4.2810    1.0123 </r>
       <r>   -4.2808    1.0119 </r>
       <r>   -4.2675    0.9882 </r>
       <r>   -4.2587    0.9690 </r>
       <r>   -4.2582    0.9676 </r>
       <r>   -4.2544    0.9584 </r>
       <r>   -4.2500    0.9467 </r>
       <r>   -4.2495    0.9454 </r>
       <r>   -4.2488    0.9435 </r>
       <r>   -4.2482    0.9420 </r>
       <r>   -4.2423    0.9248 </r>
       <r>   -4.2418    0.9235 </r>
       <r>   -4.2366    0.9073 </r>
       <r>   -4.2362    0.9059 </r>
       <r>   -4.2344    0.9002 </r>
       <r>   -4.2338    0.8980 </r>
       <r>   -4.2318    0.8913 </r>
       <r>   -4.2196    0.8469 </r>
       <r>   -4.2191    0.8451 </r>
       <r>   -4.2166    0.8353 </r>
       <r>   -4.2163    0.8341 </r>
       <r>   -4.2135    0.8229 </r>
       <r>   -4.2131    0.8211 </r>
       <r>   -4.1985    0.7587 </r>
       <r>   -4.1944    0.7399 </r>
       <r>   -4.1937    0.7367 </r>
       <r>   -4.1870    0.7047 </r>
       <r>   -4.1824    0.6825 </r>
       <r>   -4.1793    0.6672 </r>
       <r>   -4.1768    0.6546 </r>
       <r>   -4.1678    0.6086 </r>
       <r>   -4.1670    0.6047 </r>
       <r>   -4.1666    0.6025 </r>
       <r>   -4.1531    0.5321 </r>
       <r>   -4.1491    0.5110 </r>
       <r>   -4.1306    0.4133 </r>
       <r>   -4.1298    0.4090 </r>
       <r>   -4.1243    0.3810 </r>
       <r>   -4.1183    0.3503 </r>
       <r>   -4.1082    0.3004 </r>
       <r>   -4.0114   -0.0148 </r>
       <r>   -3.9630   -0.0511 </r>
       <r>   -3.9056   -0.0371 </r>
       <r>   -3.8268   -0.0045 </r>
       <r>   -3.8209   -0.0030 </r>
       <r>   -3.8027    0.0007 </r>
       <r>   -3.4983    0.0001 </r>
       <r>   -3.4934    0.0001 </r>
       <r>   -3.3430    0.0000 </r>
       <r>   -3.0662    0.0000 </r>
       <r>   -3.0634    0.0000 </r>
       <r>   -3.0305    0.0000 </r>
       <r>   -3.0234    0.0000 </r>
       <r>   -3.0128    0.0000 </r>
       <r>   -3.0120    0.0000 </r>
       <r>   -2.9334    0.0000 </r>
       <r>   -2.7991    0.0000 </r>
       <r>   -2.5664    0.0000 </r>
       <r>   -2.5376    0.0000 </r>
       <r>   -2.5186    0.0000 </r>
       <r>   -2.2146    0.0000 </r>
       <r>   -2.1459    0.0000 </r>
       <r>   -2.1172    0.0000 </r>
       <r>   -2.1148    0.0000 </r>
       <r>   -1.9568    0.0000 </r>
       <r>   -1.9482    0.0000 </r>
       <r>   -1.8821    0.0000 </r>
       <r>   -1.8484    0.0000 </r>
       <r>   -1.8476    0.0000 </r>
       <r>   -1.7433    0.0000 </r>
       <r>   -1.7088    0.0000 </r>
       <r>   -1.6546    0.0000 </r>
       <r>   -1.6386    0.0000 </r>
       <r>   -1.5534    0.0000 </r>
       <r>   -1.4996    0.0000 </r>
       <r>   -1.3610    0.0000 </r>
       <r>   -1.2983    0.0000 </r>
       <r>   -1.0462    0.0000 </r>
       <r>   -1.0193    0.0000 </r>
       <r>   -1.0153    0.0000 </r>
       <r>   -0.9579    0.0000 </r>
       <r>   -0.9419    0.0000 </r>
       <r>   -0.9341    0.0000 </r>
       <r>   -0.9200    0.0000 </r>
       <r>   -0.8958    0.0000 </r>
       <r>   -0.8577    0.0000 </r>
       <r>   -0.8120    0.0000 </r>
       <r>   -0.7019    0.0000 </r>
      </set>
     </set>
    </set>
   </array>
  </eigenvalues>
  <separator name="orbital magnetization" >
   <v name="MAGDIPOLOUT">      0.00000000      0.00000000      0.00000000</v>
  </separator>
  <dos>
   <i name="efermi">     -4.14706829 </i>
   <total>
    <array>
     <dimension dim="1">gridpoints</dimension>
     <dimension dim="2">spin</dimension>
     <field>energy</field>
     <field>total</field>
     <field>integrated</field>
     <set>
      <set comment="spin 1">
       <r>   -30.1745     0.0000     0.0000 </r>
       <r>   -30.0696     0.0000     0.0000 </r>
       <r>   -29.9647     0.0000     0.0000 </r>
       <r>   -29.8597     0.0000     0.0000 </r>
       <r>   -29.7548     0.0000     0.0000 </r>
       <r>   -29.6499     0.0000     0.0000 </r>
       <r>   -29.5450     0.0000     0.0000 </r>
       <r>   -29.4401     0.0000     0.0000 </r>
       <r>   -29.3352     0.0000     0.0000 </r>
       <r>   -29.2303     0.0000     0.0000 </r>
       <r>   -29.1254     0.0000     0.0000 </r>
       <r>   -29.0205     0.0000     0.0000 </r>
       <r>   -28.9156     0.0001     0.0000 </r>
       <r>   -28.8107     0.0022     0.0002 </r>
       <r>   -28.7058     0.0212     0.0025 </r>
       <r>   -28.6008     0.0646     0.0092 </r>
       <r>   -28.4959    -0.1678    -0.0084 </r>
       <r>   -28.3910    -0.8204    -0.0944 </r>
       <r>   -28.2861     1.4928     0.0622 </r>
       <r>   -28.1812     8.2605     0.9288 </r>
       <r>   -28.0763     8.9439     1.8671 </r>
       <r>   -27.9714     2.2318     2.1012 </r>
       <r>   -27.8665    -0.8090     2.0163 </r>
       <r>   -27.7616    -0.2488     1.9902 </r>
       <r>   -27.6567     0.0633     1.9969 </r>
       <r>   -27.5518     0.0265     1.9997 </r>
       <r>   -27.4469     0.0031     2.0000 </r>
       <r>   -27.3419     0.0002     2.0000 </r>
       <r>   -27.2370     0.0000     2.0000 </r>
       <r>   -27.1321     0.0000     2.0000 </r>
       <r>   -27.0272     0.0000     2.0000 </r>
       <r>   -26.9223     0.0000     2.0000 </r>
       <r>   -26.8174     0.0000     2.0000 </r>
       <r>   -26.7125     0.0000     2.0000 </r>
       <r>   -26.6076     0.0000     2.0000 </r>
       <r>   -26.5027     0.0000     2.0000 </r>
       <r>   -26.3978     0.0000     2.0000 </r>
       <r>   -26.2929     0.0000     2.0000 </r>
       <r>   -26.1879     0.0000     2.0000 </r>
       <r>   -26.0830     0.0000     2.0000 </r>
       <r>   -25.9781     0.0000     2.0000 </r>
       <r>   -25.8732     0.0000     2.0000 </r>
       <r>   -25.7683     0.0000     2.0000 </r>
       <r>   -25.6634     0.0000     2.0000 </r>
       <r>   -25.5585     0.0000     2.0000 </r>
       <r>   -25.4536     0.0000     2.0000 </r>
       <r>   -25.3487     0.0000     2.0000 </r>
       <r>   -25.2438     0.0000     2.0000 </r>
       <r>   -25.1389     0.0000     2.0000 </r>
       <r>   -25.0340     0.0000     2.0000 </r>
       <r>   -24.9290     0.0000     2.0000 </r>
       <r>   -24.8241     0.0000     2.0000 </r>
       <r>   -24.7192     0.0000     2.0000 </r>
       <r>   -24.6143     0.0000     2.0000 </r>
       <r>   -24.5094     0.0000     2.0000 </r>
       <r>   -24.4045     0.0000     2.0000 </r>
       <r>   -24.2996     0.0000     2.0000 </r>
       <r>   -24.1947     0.0000     2.0000 </r>
       <r>   -24.0898     0.0000     2.0000 </r>
       <r>   -23.9849     0.0000     2.0000 </r>
       <r>   -23.8800     0.0000     2.0000 </r>
       <r>   -23.7751     0.0000     2.0000 </r>
       <r>   -23.6701     0.0000     2.0000 </r>
       <r>   -23.5652     0.0000     2.0000 </r>
       <r>   -23.4603     0.0000     2.0000 </r>
       <r>   -23.3554     0.0000     2.0000 </r>
       <r>   -23.2505     0.0000     2.0000 </r>
       <r>   -23.1456     0.0000     2.0000 </r>
       <r>   -23.0407     0.0000     2.0000 </r>
       <r>   -22.9358     0.0000     2.0000 </r>
       <r>   -22.8309     0.0000     2.0000 </r>
       <r>   -22.7260     0.0000     2.0000 </r>
       <r>   -22.6211     0.0000     2.0000 </r>
       <r>   -22.5162     0.0000     2.0000 </r>
       <r>   -22.4112     0.0000     2.0000 </r>
       <r>   -22.3063     0.0000     2.0000 </r>
       <r>   -22.2014     0.0000     2.0000 </r>
       <r>   -22.0965     0.0000     2.0000 </r>
       <r>   -21.9916     0.0000     2.0000 </r>
       <r>   -21.8867     0.0000     2.0000 </r>
       <r>   -21.7818     0.0000     2.0000 </r>
       <r>   -21.6769     0.0000     2.0000 </r>
       <r>   -21.5720     0.0000     2.0000 </r>
       <r>   -21.4671     0.0000     2.0000 </r>
       <r>   -21.3622     0.0000     2.0000 </r>
       <r>   -21.2572     0.0000     2.0000 </r>
       <r>   -21.1523     0.0000     2.0000 </r>
       <r>   -21.0474     0.0000     2.0000 </r>
       <r>   -20.9425     0.0000     2.0000 </r>
       <r>   -20.8376     0.0000     2.0000 </r>
       <r>   -20.7327     0.0000     2.0000 </r>
       <r>   -20.6278     0.0000     2.0000 </r>
       <r>   -20.5229     0.0000     2.0000 </r>
       <r>   -20.4180     0.0000     2.0000 </r>
       <r>   -20.3131     0.0000     2.0000 </r>
       <r>   -20.2082     0.0000     2.0000 </r>
       <r>   -20.1033     0.0000     2.0000 </r>
       <r>   -19.9983     0.0000     2.0000 </r>
       <r>   -19.8934     0.0000     2.0000 </r>
       <r>   -19.7885     0.0000     2.0000 </r>
       <r>   -19.6836     0.0000     2.0000 </r>
       <r>   -19.5787     0.0000     2.0000 </r>
       <r>   -19.4738     0.0000     2.0000 </r>
       <r>   -19.3689     0.0000     2.0000 </r>
       <r>   -19.2640     0.0000     2.0000 </r>
       <r>   -19.1591     0.0000     2.0000 </r>
       <r>   -19.0542     0.0000     2.0000 </r>
       <r>   -18.9493     0.0000     2.0000 </r>
       <r>   -18.8444     0.0000     2.0000 </r>
       <r>   -18.7394     0.0000     2.0000 </r>
       <r>   -18.6345     0.0000     2.0000 </r>
       <r>   -18.5296     0.0000     2.0000 </r>
       <r>   -18.4247     0.0000     2.0000 </r>
       <r>   -18.3198     0.0000     2.0000 </r>
       <r>   -18.2149     0.0000     2.0000 </r>
       <r>   -18.1100     0.0000     2.0000 </r>
       <r>   -18.0051     0.0000     2.0000 </r>
       <r>   -17.9002     0.0000     2.0000 </r>
       <r>   -17.7953     0.0000     2.0000 </r>
       <r>   -17.6904     0.0000     2.0000 </r>
       <r>   -17.5854     0.0000     2.0000 </r>
       <r>   -17.4805     0.0000     2.0000 </r>
       <r>   -17.3756     0.0000     2.0000 </r>
       <r>   -17.2707     0.0000     2.0000 </r>
       <r>   -17.1658     0.0000     2.0000 </r>
       <r>   -17.0609     0.0000     2.0000 </r>
       <r>   -16.9560     0.0000     2.0000 </r>
       <r>   -16.8511     0.0000     2.0000 </r>
       <r>   -16.7462     0.0000     2.0000 </r>
       <r>   -16.6413     0.0000     2.0000 </r>
       <r>   -16.5364     0.0000     2.0000 </r>
       <r>   -16.4315     0.0000     2.0000 </r>
       <r>   -16.3265     0.0000     2.0000 </r>
       <r>   -16.2216     0.0000     2.0000 </r>
       <r>   -16.1167     0.0000     2.0000 </r>
       <r>   -16.0118     0.0000     2.0000 </r>
       <r>   -15.9069     0.0000     2.0000 </r>
       <r>   -15.8020     0.0000     2.0000 </r>
       <r>   -15.6971     0.0000     2.0000 </r>
       <r>   -15.5922     0.0000     2.0000 </r>
       <r>   -15.4873     0.0000     2.0000 </r>
       <r>   -15.3824     0.0000     2.0000 </r>
       <r>   -15.2775     0.0000     2.0000 </r>
       <r>   -15.1726     0.0000     2.0000 </r>
       <r>   -15.0676     0.0000     2.0000 </r>
       <r>   -14.9627     0.0000     2.0000 </r>
       <r>   -14.8578     0.0000     2.0000 </r>
       <r>   -14.7529     0.0000     2.0000 </r>
       <r>   -14.6480     0.0000     2.0000 </r>
       <r>   -14.5431     0.0000     2.0000 </r>
       <r>   -14.4382     0.0000     2.0000 </r>
       <r>   -14.3333     0.0001     2.0000 </r>
       <r>   -14.2284     0.0017     2.0002 </r>
       <r>   -14.1235     0.0172     2.0020 </r>
       <r>   -14.0186     0.0627     2.0086 </r>
       <r>   -13.9137    -0.1080     1.9972 </r>
       <r>   -13.8087    -0.7916     1.9142 </r>
       <r>   -13.7038     0.9333     2.0121 </r>
       <r>   -13.5989     7.5705     2.8063 </r>
       <r>   -13.4940     9.4178     3.7943 </r>
       <r>   -13.3891     2.9447     4.1032 </r>
       <r>   -13.2842    -0.7497     4.0246 </r>
       <r>   -13.1793    -0.3284     3.9901 </r>
       <r>   -13.0744     0.0580     3.9962 </r>
       <r>   -12.9695     0.0316     3.9995 </r>
       <r>   -12.8646     0.0041     4.0000 </r>
       <r>   -12.7597     0.0002     4.0000 </r>
       <r>   -12.6547     0.0000     4.0000 </r>
       <r>   -12.5498     0.0000     4.0000 </r>
       <r>   -12.4449     0.0000     4.0000 </r>
       <r>   -12.3400     0.0000     4.0000 </r>
       <r>   -12.2351     0.0000     4.0000 </r>
       <r>   -12.1302     0.0000     4.0000 </r>
       <r>   -12.0253     0.0003     4.0000 </r>
       <r>   -11.9204     0.0046     4.0005 </r>
       <r>   -11.8155     0.0338     4.0041 </r>
       <r>   -11.7106     0.0546     4.0098 </r>
       <r>   -11.6057    -0.3614     3.9719 </r>
       <r>   -11.5008    -0.7096     3.8974 </r>
       <r>   -11.3958     3.2616     4.2396 </r>
       <r>   -11.2909     9.6504     5.2520 </r>
       <r>   -11.1860     7.1783     6.0051 </r>
       <r>   -11.0811    -0.1806     5.9861 </r>
       <r>   -10.9762    -0.0912     5.9766 </r>
       <r>   -10.8713     8.9703     6.9176 </r>
       <r>   -10.7664    16.4524     8.6436 </r>
       <r>   -10.6615    11.7804     9.8795 </r>
       <r>   -10.5566     2.2911    10.1198 </r>
       <r>   -10.4517    -0.9836    10.0166 </r>
       <r>   -10.3468    -0.2824     9.9870 </r>
       <r>   -10.2419     0.0830     9.9957 </r>
       <r>   -10.1369     0.0359     9.9995 </r>
       <r>   -10.0320     0.0045    10.0000 </r>
       <r>    -9.9271     0.0003    10.0000 </r>
       <r>    -9.8222     0.0000    10.0000 </r>
       <r>    -9.7173     0.0000    10.0000 </r>
       <r>    -9.6124     0.0000    10.0000 </r>
       <r>    -9.5075     0.0000    10.0000 </r>
       <r>    -9.4026     0.0000    10.0000 </r>
       <r>    -9.2977     0.0000    10.0000 </r>
       <r>    -9.1928     0.0000    10.0000 </r>
       <r>    -9.0879     0.0000    10.0000 </r>
       <r>    -8.9830     0.0000    10.0000 </r>
       <r>    -8.8780     0.0000    10.0000 </r>
       <r>    -8.7731     0.0000    10.0000 </r>
       <r>    -8.6682     0.0000    10.0000 </r>
       <r>    -8.5633     0.0000    10.0000 </r>
       <r>    -8.4584     0.0000    10.0000 </r>
       <r>    -8.3535     0.0000    10.0000 </r>
       <r>    -8.2486     0.0000    10.0000 </r>
       <r>    -8.1437     0.0000    10.0000 </r>
       <r>    -8.0388     0.0000    10.0000 </r>
       <r>    -7.9339     0.0000    10.0000 </r>
       <r>    -7.8290     0.0000    10.0000 </r>
       <r>    -7.7240     0.0000    10.0000 </r>
       <r>    -7.6191     0.0001    10.0000 </r>
       <r>    -7.5142     0.0018    10.0002 </r>
       <r>    -7.4093     0.0214    10.0024 </r>
       <r>    -7.3044     0.1016    10.0131 </r>
       <r>    -7.1995    -0.0170    10.0113 </r>
       <r>    -7.0946    -1.1327     9.8925 </r>
       <r>    -6.9897    -0.0817     9.8839 </r>
       <r>    -6.8848    10.2455    10.9588 </r>
       <r>    -6.7799    20.9834    13.1601 </r>
       <r>    -6.6750    18.4139    15.0919 </r>
       <r>    -6.5701     8.6905    16.0036 </r>
       <r>    -6.4651     0.2266    16.0274 </r>
       <r>    -6.3602    -2.4130    15.7742 </r>
       <r>    -6.2553     7.6249    16.5741 </r>
       <r>    -6.1504    24.3833    19.1321 </r>
       <r>    -6.0455    23.2306    21.5692 </r>
       <r>    -5.9406    19.6421    23.6299 </r>
       <r>    -5.8357    38.5484    27.6739 </r>
       <r>    -5.7308    64.1288    34.4016 </r>
       <r>    -5.6259   116.0635    46.5776 </r>
       <r>    -5.5210   225.4672    70.2310 </r>
       <r>    -5.4161   298.1348   101.5079 </r>
       <r>    -5.3112   251.8698   127.9312 </r>
       <r>    -5.2062   201.7828   149.1000 </r>
       <r>    -5.1013   259.3856   176.3117 </r>
       <r>    -4.9964   352.2559   213.2664 </r>
       <r>    -4.8915   347.6797   249.7409 </r>
       <r>    -4.7866   289.0654   280.0664 </r>
       <r>    -4.6817   327.4236   314.4159 </r>
       <r>    -4.5768   406.9265   357.1059 </r>
       <r>    -4.4719   419.5914   401.1247 </r>
       <r>    -4.3670   461.5832   449.5487 </r>
       <r>    -4.2621   551.2408   507.3785 </r>
       <r>    -4.1572   469.8385   556.6686 </r>
       <r>    -4.0522   201.9528   577.8552 </r>
       <r>    -3.9473    31.4753   581.1572 </r>
       <r>    -3.8424    24.6939   583.7478 </r>
       <r>    -3.7375    31.3970   587.0416 </r>
       <r>    -3.6326    10.9064   588.1858 </r>
       <r>    -3.5277    10.8865   589.3279 </r>
       <r>    -3.4228    22.2748   591.6647 </r>
       <r>    -3.3179    15.0157   593.2400 </r>
       <r>    -3.2130     2.6809   593.5212 </r>
       <r>    -3.1081    22.1934   595.8495 </r>
       <r>    -3.0032    59.9798   602.1419 </r>
       <r>    -2.8983    51.8908   607.5857 </r>
       <r>    -2.7933    16.8332   609.3516 </r>
       <r>    -2.6884     4.9308   609.8689 </r>
       <r>    -2.5835    18.3603   611.7951 </r>
       <r>    -2.4786    28.1807   614.7515 </r>
       <r>    -2.3737    11.6925   615.9781 </r>
       <r>    -2.2688     4.7501   616.4764 </r>
       <r>    -2.1639    24.9976   619.0989 </r>
       <r>    -2.0590    36.1150   622.8877 </r>
       <r>    -1.9541    35.3652   626.5978 </r>
       <r>    -1.8492    42.4881   631.0551 </r>
       <r>    -1.7443    44.6705   635.7415 </r>
       <r>    -1.6394    41.8583   640.1327 </r>
       <r>    -1.5344    34.4865   643.7507 </r>
       <r>    -1.4295    23.7627   646.2436 </r>
       <r>    -1.3246    19.1829   648.2560 </r>
       <r>    -1.2197    10.5356   649.3613 </r>
       <r>    -1.1148     8.1729   650.2187 </r>
       <r>    -1.0099    42.6881   654.6971 </r>
       <r>    -0.9050    76.9176   662.7664 </r>
       <r>    -0.8001    59.9901   669.0598 </r>
       <r>    -0.6952    23.4547   671.5204 </r>
       <r>    -0.5903     5.1664   672.0624 </r>
       <r>    -0.4854    -0.1546   672.0462 </r>
       <r>    -0.3805    -0.5957   671.9837 </r>
       <r>    -0.2755     0.0284   671.9867 </r>
       <r>    -0.1706     0.1002   671.9972 </r>
       <r>    -0.0657     0.0241   671.9997 </r>
       <r>     0.0392     0.0024   672.0000 </r>
       <r>     0.1441     0.0001   672.0000 </r>
       <r>     0.2490     0.0000   672.0000 </r>
       <r>     0.3539     0.0000   672.0000 </r>
       <r>     0.4588     0.0000   672.0000 </r>
       <r>     0.5637     0.0000   672.0000 </r>
       <r>     0.6686     0.0000   672.0000 </r>
       <r>     0.7735     0.0000   672.0000 </r>
       <r>     0.8785     0.0000   672.0000 </r>
       <r>     0.9834     0.0000   672.0000 </r>
       <r>     1.0883     0.0000   672.0000 </r>
       <r>     1.1932     0.0000   672.0000 </r>
       <r>     1.2981     0.0000   672.0000 </r>
      </set>
     </set>
    </array>
   </total>
  </dos>
 </calculation>
 <structure name="finalpos" >
  <crystal>
   <varray name="basis" >
    <v>      30.00000000       0.00000000       0.00000000 </v>
    <v>       0.00000000      30.00000000       0.00000000 </v>
    <v>       0.00000000       0.00000000      30.00000000 </v>
   </varray>
   <i name="volume">  27000.00000000 </i>
   <varray name="rec_basis" >
    <v>       0.03333333       0.00000000       0.00000000 </v>
    <v>       0.00000000       0.03333333       0.00000000 </v>
    <v>       0.00000000       0.00000000       0.03333333 </v>
   </varray>
  </crystal>
  <varray name="positions" >
   <v>       0.44576020       0.32826710       0.41691983 </v>
   <v>       0.67173288       0.55423978       0.41691983 </v>
   <v>       0.55423980       0.32826710       0.41691983 </v>
   <v>       0.32826712       0.55423978       0.41691983 </v>
   <v>       0.50000000       0.38250690       0.34021317 </v>
   <v>       0.50000000       0.38250690       0.65978680 </v>
   <v>       0.50000000       0.27609440       0.50000000 </v>
   <v>       0.27609443       0.49999998       0.50000000 </v>
   <v>       0.72390557       0.49999998       0.50000000 </v>
   <v>       0.50000000       0.72390555       0.50000000 </v>
   <v>       0.61195280       0.38804720       0.34167483 </v>
   <v>       0.61195280       0.38804720       0.65832513 </v>
   <v>       0.38804722       0.61195278       0.34167483 </v>
   <v>       0.38804722       0.61195278       0.65832513 </v>
   <v>       0.38804720       0.38804720       0.34167483 </v>
   <v>       0.38804720       0.38804720       0.65832513 </v>
   <v>       0.61195278       0.61195278       0.34167483 </v>
   <v>       0.61195278       0.61195278       0.65832513 </v>
   <v>       0.44576020       0.32826710       0.58308023 </v>
   <v>       0.67173288       0.55423978       0.58308023 </v>
   <v>       0.55791699       0.44208301       0.41809300 </v>
   <v>       0.32826705       0.44576024       0.41691983 </v>
   <v>       0.55423973       0.67173293       0.41691983 </v>
   <v>       0.55423980       0.32826710       0.58308023 </v>
   <v>       0.32826712       0.55423978       0.58308023 </v>
   <v>       0.67173295       0.44576024       0.41691983 </v>
   <v>       0.44576027       0.67173293       0.41691983 </v>
   <v>       0.44208301       0.44208301       0.41809300 </v>
   <v>       0.50000000       0.38416601       0.50000000 </v>
   <v>       0.61749315       0.50000005       0.34021317 </v>
   <v>       0.61749315       0.50000005       0.65978680 </v>
   <v>       0.38250685       0.50000005       0.34021317 </v>
   <v>       0.38250685       0.50000005       0.65978680 </v>
   <v>       0.38317830       0.38317830       0.50000000 </v>
   <v>       0.61682172       0.61682172       0.50000000 </v>
   <v>       0.61682170       0.38317830       0.50000000 </v>
   <v>       0.38317828       0.61682172       0.50000000 </v>
   <v>       0.50000000       0.50000000       0.33478917 </v>
   <v>       0.50000000       0.50000000       0.66521087 </v>
   <v>       0.32826705       0.44576024       0.58308023 </v>
   <v>       0.55423973       0.67173293       0.58308023 </v>
   <v>       0.55791699       0.44208301       0.58190703 </v>
   <v>       0.44208298       0.55791702       0.41809300 </v>
   <v>       0.44208301       0.44208301       0.58190703 </v>
   <v>       0.67173295       0.44576024       0.58308023 </v>
   <v>       0.44576027       0.67173293       0.58308023 </v>
   <v>       0.55791702       0.55791702       0.41809300 </v>
   <v>       0.38416599       0.50000002       0.50000000 </v>
   <v>       0.61583401       0.50000002       0.50000000 </v>
   <v>       0.50000000       0.61749319       0.34021317 </v>
   <v>       0.50000000       0.61749319       0.65978680 </v>
   <v>       0.50000000       0.50000000       0.50000000 </v>
   <v>       0.44208298       0.55791702       0.58190703 </v>
   <v>       0.55791702       0.55791702       0.58190703 </v>
   <v>       0.50000000       0.61583404       0.50000000 </v>
   <v>       0.48631493       0.47078863       0.28775297 </v>
   <v>       0.48391813       0.46567250       0.25057983 </v>
  </varray>
  <varray name="selective"  type="logical" >
   <v type="logical" >  F  F  F </v>
   <v type="logical" >  F  F  F </v>
   <v type="logical" >  F  F  F </v>
   <v type="logical" >  F  F  F </v>
   <v type="logical" >  F  F  F </v>
   <v type="logical" >  F  F  F </v>
   <v type="logical" >  F  F  F </v>
   <v type="logical" >  F  F  F </v>
   <v type="logical" >  F  F  F </v>
   <v type="logical" >  F  F  F </v>
   <v type="logical" >  F  F  F </v>
   <v type="logical" >  F  F  F </v>
   <v type="logical" >  F  F  F </v>
   <v type="logical" >  F  F  F </v>
   <v type="logical" >  F  F  F </v>
   <v type="logical" >  F  F  F </v>
   <v type="logical" >  F  F  F </v>
   <v type="logical" >  F  F  F </v>
   <v type="logical" >  F  F  F </v>
   <v type="logical" >  F  F  F </v>
   <v type="logical" >  F  F  F </v>
   <v type="logical" >  F  F  F </v>
   <v type="logical" >  F  F  F </v>
   <v type="logical" >  F  F  F </v>
   <v type="logical" >  F  F  F </v>
   <v type="logical" >  F  F  F </v>
   <v type="logical" >  F  F  F </v>
   <v type="logical" >  F  F  F </v>
   <v type="logical" >  F  F  F </v>
   <v type="logical" >  F  F  F </v>
   <v type="logical" >  F  F  F </v>
   <v type="logical" >  F  F  F </v>
   <v type="logical" >  F  F  F </v>
   <v type="logical" >  F  F  F </v>
   <v type="logical" >  F  F  F </v>
   <v type="logical" >  F  F  F </v>
   <v type="logical" >  F  F  F </v>
   <v type="logical" >  F  F  F </v>
   <v type="logical" >  F  F  F </v>
   <v type="logical" >  F  F  F </v>
   <v type="logical" >  F  F  F </v>
   <v type="logical" >  F  F  F </v>
   <v type="logical" >  F  F  F </v>
   <v type="logical" >  F  F  F </v>
   <v type="logical" >  F  F  F </v>
   <v type="logical" >  F  F  F </v>
   <v type="logical" >  F  F  F </v>
   <v type="logical" >  F  F  F </v>
   <v type="logical" >  F  F  F </v>
   <v type="logical" >  F  F  F </v>
   <v type="logical" >  F  F  F </v>
   <v type="logical" >  F  F  F </v>
   <v type="logical" >  F  F  F </v>
   <v type="logical" >  F  F  F </v>
   <v type="logical" >  F  F  F </v>
   <v type="logical" >  F  F  F </v>
   <v type="logical" >  F  F  F </v>
  </varray>
  <nose>
   <v>      -3.00000000       0.00000000       0.00010000       0.00010000 </v>
  </nose>
 </structure>
</modeling>
