 vasp.5.4.4.18Apr17-6-g9f103f2a35 (build Sep 03 2018 23:53:05) complex          
  
 executed on             LinuxIFC date 2021.11.27  09:07:58
 running on    1 total cores
 distrk:  each k-point on    1 cores,    1 groups
 distr:  one band on NCORES_PER_BAND=   1 cores,    1 groups


--------------------------------------------------------------------------------------------------------


 INCAR:
 POTCAR:    PAW_PBE Pd 04Jan2005                  
 POTCAR:    PAW_PBE C 08Apr2002                   
 POTCAR:    PAW_PBE O 08Apr2002                   
 POTCAR:    PAW_PBE Pd 04Jan2005                  
   VRHFIN =Pd : s1 d9                                                           
   LEXCH  = PE                                                                  
   EATOM  =   809.7530 eV,   59.5152 Ry                                         
                                                                                
   TITEL  = PAW_PBE Pd 04Jan2005                                                
   LULTRA =        F    use ultrasoft PP ?                                      
   IUNSCR =        1    unscreen: 0-lin 1-nonlin 2-no                           
   RPACOR =    2.000    partial core radius                                     
   POMASS =  106.420; ZVAL   =   10.000    mass and valenz                      
   RCORE  =    2.600    outmost cutoff radius                                   
   RWIGS  =    2.710; RWIGS  =    1.434    wigner-seitz radius (au A)           
   ENMAX  =  250.925; ENMIN  =  188.194 eV                                      
   ICORE  =        3    local potential                                         
   LCOR   =        T    correct aug charges                                     
   LPAW   =        T    paw PP                                                  
   EAUG   =  416.230                                                            
   DEXC   =    0.000                                                            
   RMAX   =    2.653    core radius for proj-oper                               
   RAUG   =    1.300    factor for augmentation sphere                          
   RDEP   =    2.734    radius for radial grids                                 
   RDEPT  =    2.103    core radius for aug-charge                              
                                                                                
   Atomic configuration                                                         
   12 entries                                                                   
     n  l   j            E        occ.                                          
     1  0  0.50    -24164.6631   2.0000                                         
     2  0  0.50     -3530.9218   2.0000                                         
     2  1  1.50     -3165.6822   6.0000                                         
     3  0  0.50      -639.4577   2.0000                                         
     3  1  1.50      -519.4532   6.0000                                         
     3  2  2.50      -328.9757  10.0000                                         
     4  0  0.50       -88.7014   2.0000                                         
     4  1  1.50       -54.4540   6.0000                                         
     4  2  2.50        -6.6878   9.0000                                         
     5  0  0.50        -4.3543   1.0000                                         
     5  1  0.50        -1.3606   0.0000                                         
     4  3  2.50        -1.3606   0.0000                                         
   Description                                                                  
     l       E           TYP  RCUT    TYP  RCUT                                 
     2     -6.6878251     23  2.400                                             
     2     -8.0484077     23  2.400                                             
     0     -4.3542939     23  2.400                                             
     0      4.3406793     23  2.400                                             
     1     -4.0817478     23  2.600                                             
     1     15.8380318     23  2.600                                             
     3     -4.0817478     23  2.400                                             
  local pseudopotential read in
  partial core-charges read in
  partial kinetic energy density read in
  atomic valenz-charges read in
  non local Contribution for L=           2  read in
    real space projection operators read in
  non local Contribution for L=           2  read in
    real space projection operators read in
  non local Contribution for L=           0  read in
    real space projection operators read in
  non local Contribution for L=           0  read in
    real space projection operators read in
  non local Contribution for L=           1  read in
    real space projection operators read in
  non local Contribution for L=           1  read in
    real space projection operators read in
    PAW grid and wavefunctions read in
 
   number of l-projection  operators is LMAX  =           6
   number of lm-projection operators is LMMAX =          18
 
 POTCAR:    PAW_PBE C 08Apr2002                   
   VRHFIN =C: s2p2                                                              
   LEXCH  = PE                                                                  
   EATOM  =   147.1560 eV,   10.8157 Ry                                         
                                                                                
   TITEL  = PAW_PBE C 08Apr2002                                                 
   LULTRA =        F    use ultrasoft PP ?                                      
   IUNSCR =        1    unscreen: 0-lin 1-nonlin 2-no                           
   RPACOR =    1.200    partial core radius                                     
   POMASS =   12.011; ZVAL   =    4.000    mass and valenz                      
   RCORE  =    1.500    outmost cutoff radius                                   
   RWIGS  =    1.630; RWIGS  =    0.863    wigner-seitz radius (au A)           
   ENMAX  =  400.000; ENMIN  =  300.000 eV                                      
   ICORE  =        2    local potential                                         
   LCOR   =        T    correct aug charges                                     
   LPAW   =        T    paw PP                                                  
   EAUG   =  644.873                                                            
   DEXC   =    0.000                                                            
   RMAX   =    1.529    core radius for proj-oper                               
   RAUG   =    1.300    factor for augmentation sphere                          
   RDEP   =    1.501    radius for radial grids                                 
   RDEPT  =    1.300    core radius for aug-charge                              
                                                                                
   Atomic configuration                                                         
    4 entries                                                                   
     n  l   j            E        occ.                                          
     1  0  0.50      -273.3789   2.0000                                         
     2  0  0.50       -13.7508   2.0000                                         
     2  1  0.50        -5.2854   2.0000                                         
     3  2  1.50        -5.4423   0.0000                                         
   Description                                                                  
     l       E           TYP  RCUT    TYP  RCUT                                 
     0    -13.7508458     23  1.200                                             
     0     -8.2022199     23  1.200                                             
     1     -5.2854383     23  1.500                                             
     1     34.0145650     23  1.500                                             
     2     -5.4423304      7  1.500                                             
  local pseudopotential read in
  partial core-charges read in
  partial kinetic energy density read in
  atomic valenz-charges read in
  non local Contribution for L=           0  read in
    real space projection operators read in
  non local Contribution for L=           0  read in
    real space projection operators read in
  non local Contribution for L=           1  read in
    real space projection operators read in
  non local Contribution for L=           1  read in
    real space projection operators read in
    PAW grid and wavefunctions read in
 
   number of l-projection  operators is LMAX  =           4
   number of lm-projection operators is LMMAX =           8
 
 POTCAR:    PAW_PBE O 08Apr2002                   
   VRHFIN =O: s2p4                                                              
   LEXCH  = PE                                                                  
   EATOM  =   432.3788 eV,   31.7789 Ry                                         
                                                                                
   TITEL  = PAW_PBE O 08Apr2002                                                 
   LULTRA =        F    use ultrasoft PP ?                                      
   IUNSCR =        1    unscreen: 0-lin 1-nonlin 2-no                           
   RPACOR =    1.200    partial core radius                                     
   POMASS =   16.000; ZVAL   =    6.000    mass and valenz                      
   RCORE  =    1.520    outmost cutoff radius                                   
   RWIGS  =    1.550; RWIGS  =    0.820    wigner-seitz radius (au A)           
   ENMAX  =  400.000; ENMIN  =  300.000 eV                                      
   ICORE  =        2    local potential                                         
   LCOR   =        T    correct aug charges                                     
   LPAW   =        T    paw PP                                                  
   EAUG   =  605.392                                                            
   DEXC   =    0.000                                                            
   RMAX   =    1.553    core radius for proj-oper                               
   RAUG   =    1.300    factor for augmentation sphere                          
   RDEP   =    1.550    radius for radial grids                                 
   RDEPT  =    1.329    core radius for aug-charge                              
                                                                                
   Atomic configuration                                                         
    4 entries                                                                   
     n  l   j            E        occ.                                          
     1  0  0.50      -514.6923   2.0000                                         
     2  0  0.50       -23.9615   2.0000                                         
     2  1  0.50        -9.0305   4.0000                                         
     3  2  1.50        -9.5241   0.0000                                         
   Description                                                                  
     l       E           TYP  RCUT    TYP  RCUT                                 
     0    -23.9615318     23  1.200                                             
     0     -9.5240782     23  1.200                                             
     1     -9.0304911     23  1.520                                             
     1      8.1634956     23  1.520                                             
     2     -9.5240782      7  1.500                                             
  local pseudopotential read in
  partial core-charges read in
  partial kinetic energy density read in
  kinetic energy density of atom read in
  atomic valenz-charges read in
  non local Contribution for L=           0  read in
    real space projection operators read in
  non local Contribution for L=           0  read in
    real space projection operators read in
  non local Contribution for L=           1  read in
    real space projection operators read in
  non local Contribution for L=           1  read in
    real space projection operators read in
    PAW grid and wavefunctions read in
 
   number of l-projection  operators is LMAX  =           4
   number of lm-projection operators is LMMAX =           8
 
 Optimization of the real space projectors (new method)

 maximal supplied QI-value         = 14.36
 optimisation between [QCUT,QGAM] = [ 10.20, 20.39] = [ 29.12,116.47] Ry 
 Optimized for a Real-space Cutoff    1.51 Angstroem

   l    n(q)    QCUT    max X(q) W(low)/X(q) W(high)/X(q)  e(spline) 
   2      8    10.197    59.108    0.26E-03    0.14E-03    0.96E-07
   2      8    10.197    58.101    0.27E-03    0.14E-03    0.98E-07
   0      9    10.197   102.235    0.54E-04    0.60E-05    0.72E-07
   0      9    10.197    58.388    0.52E-04    0.60E-05    0.68E-07
   1      9    10.197    22.191    0.18E-03    0.25E-03    0.79E-07
   1      9    10.197    15.590    0.15E-03    0.21E-03    0.69E-07
 Optimization of the real space projectors (new method)

 maximal supplied QI-value         = 25.13
 optimisation between [QCUT,QGAM] = [ 10.05, 20.36] = [ 28.30,116.06] Ry 
 Optimized for a Real-space Cutoff    1.30 Angstroem

   l    n(q)    QCUT    max X(q) W(low)/X(q) W(high)/X(q)  e(spline) 
   0      8    10.053   115.676    0.49E-03    0.72E-03    0.18E-06
   0      8    10.053    87.132    0.49E-03    0.71E-03    0.18E-06
   1      7    10.053     4.429    0.32E-03    0.31E-03    0.18E-06
   1      7    10.053     2.733    0.23E-03    0.19E-03    0.20E-06
 Optimization of the real space projectors (new method)

 maximal supplied QI-value         = 24.76
 optimisation between [QCUT,QGAM] = [ 10.15, 20.30] = [ 28.85,115.39] Ry 
 Optimized for a Real-space Cutoff    1.38 Angstroem

   l    n(q)    QCUT    max X(q) W(low)/X(q) W(high)/X(q)  e(spline) 
   0      8    10.150    20.381    0.22E-03    0.32E-03    0.29E-06
   0      8    10.150    15.268    0.23E-03    0.35E-03    0.30E-06
   1      8    10.150     5.964    0.46E-03    0.53E-03    0.21E-06
   1      8    10.150     5.382    0.38E-03    0.45E-03    0.19E-06

 ----------------------------------------------------------------------------- 
|                                                                             |
|  ADVICE TO THIS USER RUNNING 'VASP/VAMP'   (HEAR YOUR MASTER'S VOICE ...):  |
|                                                                             |
|      You enforced a specific xc-type in the INCAR file,                     |
|      a different type was found on the POTCAR file                          |
|          I HOPE YOU KNOW, WHAT YOU ARE  DOING                               |
|                                                                             |
 ----------------------------------------------------------------------------- 

  PAW_PBE Pd 04Jan2005                  :
 energy of atom  1       EATOM= -809.7530
 kinetic energy error for atom=    0.0091 (will be added to EATOM!!)
  PAW_PBE C 08Apr2002                   :
 energy of atom  2       EATOM= -147.1560
 kinetic energy error for atom=    0.0288 (will be added to EATOM!!)
  PAW_PBE O 08Apr2002                   :
 energy of atom  3       EATOM= -432.3788
 kinetic energy error for atom=    0.1156 (will be added to EATOM!!)
 
 
 POSCAR: Pd55PES                                 
  positions in cartesian coordinates
  No initial velocities read in
 exchange correlation table for  LEXCH =        9
   RHO(1)=    0.500       N(1)  =     2000
   RHO(2)=  100.500       N(2)  =     4000
 


--------------------------------------------------------------------------------------------------------


 ion  position               nearest neighbor table
   1  0.446  0.328  0.417-   3 3.25   5 3.25   7 3.36  15 3.36  29 3.42  28 3.42
   2  0.672  0.554  0.417-  26 3.25  30 3.25  17 3.36   9 3.36  47 3.42  49 3.42
   3  0.554  0.328  0.417-   1 3.25   5 3.25   7 3.36  11 3.36  29 3.42  21 3.42
   4  0.328  0.554  0.417-  32 3.25  22 3.25  13 3.36   8 3.36  43 3.42  48 3.42
   5  0.500  0.383  0.340-   1 3.25   3 3.25  11 3.36  15 3.36  21 3.42  28 3.42
   6  0.500  0.383  0.660-  24 3.25  19 3.25  16 3.36  12 3.36  42 3.42  44 3.42
   7  0.500  0.276  0.500-  29 3.24   3 3.36   1 3.36  19 3.36  24 3.36
   8  0.276  0.500  0.500-  48 3.24  22 3.36  40 3.36   4 3.36  25 3.36
   9  0.724  0.500  0.500-  49 3.24  26 3.36  45 3.36   2 3.36  20 3.36
  10  0.500  0.724  0.500-  55 3.24  27 3.36  23 3.36  46 3.36  41 3.36
  11  0.612  0.388  0.342-  21 3.24   5 3.36   3 3.36  30 3.36  26 3.36
  12  0.612  0.388  0.658-  42 3.24  24 3.36  45 3.36   6 3.36  31 3.36
  13  0.388  0.612  0.342-  43 3.24  32 3.36  50 3.36   4 3.36  27 3.36
  14  0.388  0.612  0.658-  53 3.24  25 3.36  33 3.36  51 3.36  46 3.36
  15  0.388  0.388  0.342-  28 3.24   5 3.36   1 3.36  32 3.36  22 3.36
  16  0.388  0.388  0.658-  44 3.24  19 3.36  40 3.36   6 3.36  33 3.36
  17  0.612  0.612  0.342-  47 3.24  30 3.36  50 3.36   2 3.36  23 3.36
  18  0.612  0.612  0.658-  54 3.24  31 3.36  20 3.36  51 3.36  41 3.36
  19  0.446  0.328  0.583-   6 3.25  24 3.25  16 3.36   7 3.36  44 3.42  29 3.42
  20  0.672  0.554  0.583-  31 3.25  45 3.25  18 3.36   9 3.36  54 3.42  49 3.42
  21  0.558  0.442  0.418-  11 3.24   5 3.42   3 3.42  30 3.42  26 3.42
  22  0.328  0.446  0.417-   4 3.25  32 3.25   8 3.36  15 3.36  48 3.42  28 3.42
  23  0.554  0.672  0.417-  27 3.25  50 3.25  10 3.36  17 3.36  55 3.42  47 3.42
  24  0.554  0.328  0.583-   6 3.25  19 3.25  12 3.36   7 3.36  42 3.42  29 3.42
  25  0.328  0.554  0.583-  33 3.25  40 3.25  14 3.36   8 3.36  53 3.42  48 3.42
  26  0.672  0.446  0.417-   2 3.25  30 3.25   9 3.36  11 3.36  49 3.42  21 3.42
  27  0.446  0.672  0.417-  23 3.25  50 3.25  10 3.36  13 3.36  55 3.42  43 3.42
  28  0.442  0.442  0.418-  15 3.24   5 3.42   1 3.42  32 3.42  22 3.42
  29  0.500  0.384  0.500-   7 3.24   3 3.42   1 3.42  24 3.42  19 3.42
  30  0.617  0.500  0.340-   2 3.25  26 3.25  17 3.36  11 3.36  47 3.42  21 3.42
  31  0.617  0.500  0.660-  20 3.25  45 3.25  18 3.36  12 3.36  54 3.42  42 3.42
  32  0.383  0.500  0.340-   4 3.25  22 3.25  13 3.36  15 3.36  43 3.42  28 3.42
  33  0.383  0.500  0.660-  25 3.25  40 3.25  14 3.36  16 3.36  53 3.42  44 3.42
  34  0.383  0.383  0.500-
  35  0.617  0.617  0.500-
  36  0.617  0.383  0.500-
  37  0.383  0.617  0.500-
  38  0.500  0.500  0.335-
  39  0.500  0.500  0.665-
  40  0.328  0.446  0.583-  56 2.10  33 3.25  25 3.25  16 3.36   8 3.36  44 3.42  48 3.42
  41  0.554  0.672  0.583-  46 3.25  51 3.25  10 3.36  18 3.36  54 3.42  55 3.42
  42  0.558  0.442  0.582-  12 3.24   6 3.42  24 3.42  31 3.42  45 3.42
  43  0.442  0.558  0.418-  13 3.24   4 3.42  32 3.42  27 3.42  50 3.42
  44  0.442  0.442  0.582-  16 3.24   6 3.42  19 3.42  33 3.42  40 3.42
  45  0.672  0.446  0.583-  20 3.25  31 3.25   9 3.36  12 3.36  49 3.42  42 3.42
  46  0.446  0.672  0.583-  41 3.25  51 3.25  10 3.36  14 3.36  53 3.42  55 3.42
  47  0.558  0.558  0.418-  17 3.24   2 3.42  30 3.42  23 3.42  50 3.42
  48  0.384  0.500  0.500-   8 3.24   4 3.42  22 3.42  25 3.42  40 3.42
  49  0.616  0.500  0.500-   9 3.24   2 3.42  26 3.42  20 3.42  45 3.42
  50  0.500  0.617  0.340-  27 3.25  23 3.25  13 3.36  17 3.36  43 3.42  47 3.42
  51  0.500  0.617  0.660-  41 3.25  46 3.25  14 3.36  18 3.36  53 3.42  54 3.42
  52  0.500  0.500  0.500-
  53  0.442  0.558  0.582-  14 3.24  25 3.42  33 3.42  51 3.42  46 3.42
  54  0.558  0.558  0.582-  18 3.24  31 3.42  20 3.42  51 3.42  41 3.42
  55  0.500  0.616  0.500-  10 3.24  23 3.42  27 3.42  41 3.42  46 3.42
  56  0.288  0.406  0.625-  57 1.13  40 2.10
  57  0.258  0.393  0.643-  56 1.13
 
  LATTYP: Found a simple cubic cell.
 ALAT       =    30.0000000000
  
  Lattice vectors:
  
 A1 = (  30.0000000000,   0.0000000000,   0.0000000000)
 A2 = (   0.0000000000,  30.0000000000,   0.0000000000)
 A3 = (   0.0000000000,   0.0000000000,  30.0000000000)


Analysis of symmetry for initial positions (statically):
=====================================================================
 Subroutine PRICEL returns:
 Original cell was already a primitive cell.
 

 Routine SETGRP: Setting up the symmetry group for a 
 simple cubic supercell.


 Subroutine GETGRP returns: Found  1 space group operations
 (whereof  1 operations were pure point group operations)
 out of a pool of 48 trial point group operations.


The static configuration has the point symmetry C_1 .


Analysis of symmetry for dynamics (positions and initial velocities):
=====================================================================
 Subroutine PRICEL returns:
 Original cell was already a primitive cell.
 

 Routine SETGRP: Setting up the symmetry group for a 
 simple cubic supercell.


 Subroutine GETGRP returns: Found  1 space group operations
 (whereof  1 operations were pure point group operations)
 out of a pool of 48 trial point group operations.


The dynamic configuration has the point symmetry C_1 .


Analysis of constrained symmetry for selective dynamics:
=====================================================================
 Subroutine PRICEL returns:
 Original cell was already a primitive cell.
 

 Routine SETGRP: Setting up the symmetry group for a 
 simple cubic supercell.


 Subroutine GETGRP returns: Found  1 space group operations
 (whereof  1 operations were pure point group operations)
 out of a pool of 48 trial point group operations.


The constrained configuration has the point symmetry C_1 .


 Subroutine INISYM returns: Found  1 space group operations
 (whereof  1 operations are pure point group operations),
 and found     1 'primitive' translations

 
 
 KPOINTS: K-points                                

Automatic generation of k-mesh.
Space group operators:
 irot       det(A)        alpha          n_x          n_y          n_z        tau_x        tau_y        tau_z
    1     1.000000     0.000000     1.000000     0.000000     0.000000     0.000000     0.000000     0.000000
 
 Subroutine IBZKPT returns following result:
 ===========================================
 
 Found      1 irreducible k-points:
 
 Following reciprocal coordinates:
            Coordinates               Weight
  0.000000  0.000000  0.000000      1.000000
 
 Following cartesian coordinates:
            Coordinates               Weight
  0.000000  0.000000  0.000000      1.000000
 


--------------------------------------------------------------------------------------------------------




 Dimension of arrays:
   k-points           NKPTS =      1   k-points in BZ     NKDIM =      1   number of bands    NBANDS=    336
   number of dos      NEDOS =    301   number of ions     NIONS =     57
   non local maximal  LDIM  =      6   non local SUM 2l+1 LMDIM =     18
   total plane-waves  NPLWV = ******
   max r-space proj   IRMAX =   1847   max aug-charges    IRDMAX=   6262
   dimension x,y,z NGX =   150 NGY =  150 NGZ =  150
   dimension x,y,z NGXF=   300 NGYF=  300 NGZF=  300
   support grid    NGXF=   300 NGYF=  300 NGZF=  300
   ions per type =              55   1   1
   NGX,Y,Z   is equivalent  to a cutoff of   8.31,  8.31,  8.31 a.u.
   NGXF,Y,Z  is equivalent  to a cutoff of  16.62, 16.62, 16.62 a.u.

 SYSTEM =  6_Pd100_top_free_z(O)                   
 POSCAR =  Pd55PES                                 

 Startparameter for this run:
   NWRITE =      2    write-flag & timer
   PREC   = normal    normal or accurate (medium, high low for compatibility)
   ISTART =      0    job   : 0-new  1-cont  2-samecut
   ICHARG =      2    charge: 1-file 2-atom 10-const
   ISPIN  =      1    spin polarized calculation?
   LNONCOLLINEAR =      F non collinear calculations
   LSORBIT =      F    spin-orbit coupling
   INIWAV =      1    electr: 0-lowe 1-rand  2-diag
   LASPH  =      F    aspherical Exc in radial PAW
   METAGGA=      F    non-selfconsistent MetaGGA calc.

 Electronic Relaxation 1
   ENCUT  =  400.0 eV  29.40 Ry    5.42 a.u.  48.92 48.92 48.92*2*pi/ulx,y,z
   ENINI  =  400.0     initial cutoff
   ENAUG  =  644.9 eV  augmentation charge cutoff
   NELM   =    100;   NELMIN=  6; NELMDL= -5     # of ELM steps 
   EDIFF  = 0.1E-03   stopping-criterion for ELM
   LREAL  =      T    real-space projection
   NLSPLINE    = F    spline interpolate recip. space projectors
   LCOMPAT=      F    compatible to vasp.4.4
   GGA_COMPAT  = T    GGA compatible to vasp.4.4-vasp.4.6
   LMAXPAW     = -100 max onsite density
   LMAXMIX     =    2 max onsite mixed and CHGCAR
   VOSKOWN=      0    Vosko Wilk Nusair interpolation
   ROPT   =   -0.00050  -0.00050  -0.00050
 Ionic relaxation
   EDIFFG = -.5E-01   stopping-criterion for IOM
   NSW    =      0    number of steps for IOM
   NBLOCK =      1;   KBLOCK =      1    inner block; outer block 
   IBRION =     -1    ionic relax: 0-MD 1-quasi-New 2-CG
   NFREE  =      1    steps in history (QN), initial steepest desc. (CG)
   ISIF   =      2    stress and relaxation
   IWAVPR =     10    prediction:  0-non 1-charg 2-wave 3-comb
   ISYM   =      2    0-nonsym 1-usesym 2-fastsym
   LCORR  =      T    Harris-Foulkes like correction to forces

   POTIM  = 0.5000    time-step for ionic-motion
   TEIN   =    0.0    initial temperature
   TEBEG  =    0.0;   TEEND  =   0.0 temperature during run
   SMASS  =  -3.00    Nose mass-parameter (am)
   estimated Nose-frequenzy (Omega)   =  0.10E-29 period in steps =****** mass=  -0.206E-25a.u.
   SCALEE = 1.0000    scale energy and forces
   NPACO  =    256;   APACO  = 16.0  distance and # of slots for P.C.
   PSTRESS=    0.0 pullay stress

  Mass of Ions in am
   POMASS = 106.42 12.01 16.00
  Ionic Valenz
   ZVAL   =  10.00  4.00  6.00
  Atomic Wigner-Seitz radii
   RWIGS  =  -1.00 -1.00 -1.00
  virtual crystal weights 
   VCA    =   1.00  1.00  1.00
   NELECT =     560.0000    total number of electrons
   NUPDOWN=      -1.0000    fix difference up-down

 DOS related values:
   EMIN   =  10.00;   EMAX   =-10.00  energy-range for DOS
   EFERMI =   0.00
   ISMEAR =     2;   SIGMA  =   0.20  broadening in eV -4-tet -1-fermi 0-gaus

 Electronic relaxation 2 (details)
   IALGO  =     68    algorithm
   LDIAG  =      T    sub-space diagonalisation (order eigenvalues)
   LSUBROT=      F    optimize rotation matrix (better conditioning)
   TURBO    =      0    0=normal 1=particle mesh
   IRESTART =      0    0=no restart 2=restart with 2 vectors
   NREBOOT  =      0    no. of reboots
   NMIN     =      0    reboot dimension
   EREF     =   0.00    reference energy to select bands
   IMIX   =      4    mixing-type and parameters
     AMIX     =   0.40;   BMIX     =  1.00
     AMIX_MAG =   1.60;   BMIX_MAG =  1.00
     AMIN     =   0.10
     WC   =   100.;   INIMIX=   1;  MIXPRE=   1;  MAXMIX= -45

 Intra band minimization:
   WEIMIN = 0.0000     energy-eigenvalue tresh-hold
   EBREAK =  0.74E-07  absolut break condition
   DEPER  =   0.30     relativ break condition  

   TIME   =   0.40     timestep for ELM

  volume/ion in A,a.u.               =     473.68      3196.58
  Fermi-wavevector in a.u.,A,eV,Ry     =   0.449797  0.849992  2.752691  0.202317
  Thomas-Fermi vector in A             =   1.430086
 
 Write flags
   LWAVE        =      F    write WAVECAR
   LDOWNSAMPLE  =      F    k-point downsampling of WAVECAR
   LCHARG       =      F    write CHGCAR
   LVTOT        =      F    write LOCPOT, total local potential
   LVHAR        =      F    write LOCPOT, Hartree potential only
   LELF         =      F    write electronic localiz. function (ELF)
   LORBIT       =      0    0 simple, 1 ext, 2 COOP (PROOUT), +10 PAW based schemes


 Dipole corrections
   LMONO  =      F    monopole corrections only (constant potential shift)
   LDIPOL =      F    correct potential (dipole corrections)
   IDIPOL =      0    1-x, 2-y, 3-z, 4-all directions 
   EPSILON=  1.0000000 bulk dielectric constant

 Exchange correlation treatment:
   GGA     =    RP    GGA type
   LEXCH   =     9    internal setting for exchange type
   VOSKOWN=      0    Vosko Wilk Nusair interpolation
   LHFCALC =     F    Hartree Fock is set to
   LHFONE  =     F    Hartree Fock one center treatment
   AEXX    =    0.0000 exact exchange contribution

 Linear response parameters
   LEPSILON=     F    determine dielectric tensor
   LRPA    =     F    only Hartree local field effects (RPA)
   LNABLA  =     F    use nabla operator in PAW spheres
   LVEL    =     F    velocity operator in full k-point grid
   LINTERFAST=   F  fast interpolation
   KINTER  =     0    interpolate to denser k-point grid
   CSHIFT  =0.1000    complex shift for real part using Kramers Kronig
   OMEGAMAX=  -1.0    maximum frequency
   DEG_THRESHOLD= 0.2000000E-02 threshold for treating states as degnerate
   RTIME   =   -0.100 relaxation time in fs
  (WPLASMAI=    0.000 imaginary part of plasma frequency in eV, 0.658/RTIME)
   DFIELD  = 0.0000000 0.0000000 0.0000000 field for delta impulse in time
 
 Orbital magnetization related:
   ORBITALMAG=     F  switch on orbital magnetization
   LCHIMAG   =     F  perturbation theory with respect to B field
   DQ        =  0.001000  dq finite difference perturbation B field
   LLRAUG    =     F  two centre corrections for induced B field



--------------------------------------------------------------------------------------------------------


 Static calculation
 charge density and potential will be updated during run
 non-spin polarized calculation
 RMM-DIIS sequential band-by-band and
  variant of blocked Davidson during initial phase
 perform sub-space diagonalisation
    before iterative eigenvector-optimisation
 modified Broyden-mixing scheme, WC =      100.0
 initial mixing is a Kerker type mixing with AMIX =  0.4000 and BMIX =      1.0000
 Hartree-type preconditioning will be used
 using additional bands           56
 real space projection scheme for non local part
 use partial core corrections
 calculate Harris-corrections to forces 
   (improved forces if not selfconsistent)
 use gradient corrections 
 use of overlap-Matrix (Vanderbilt PP)
 Methfessel and Paxton  Order N= 2 SIGMA  =   0.20


--------------------------------------------------------------------------------------------------------


  energy-cutoff  :      400.00
  volume of cell :    27000.00
      direct lattice vectors                 reciprocal lattice vectors
    30.000000000  0.000000000  0.000000000     0.033333333  0.000000000  0.000000000
     0.000000000 30.000000000  0.000000000     0.000000000  0.033333333  0.000000000
     0.000000000  0.000000000 30.000000000     0.000000000  0.000000000  0.033333333

  length of vectors
    30.000000000 30.000000000 30.000000000     0.033333333  0.033333333  0.033333333


 
 k-points in units of 2pi/SCALE and weight: K-points                                
   0.00000000  0.00000000  0.00000000       1.000
 
 k-points in reciprocal lattice and weights: K-points                                
   0.00000000  0.00000000  0.00000000       1.000
 
 position of ions in fractional coordinates (direct lattice) 
   0.44576020  0.32826710  0.41691983
   0.67173288  0.55423978  0.41691983
   0.55423980  0.32826710  0.41691983
   0.32826712  0.55423978  0.41691983
   0.50000000  0.38250690  0.34021317
   0.50000000  0.38250690  0.65978680
   0.50000000  0.27609440  0.50000000
   0.27609443  0.49999998  0.50000000
   0.72390557  0.49999998  0.50000000
   0.50000000  0.72390555  0.50000000
   0.61195280  0.38804720  0.34167483
   0.61195280  0.38804720  0.65832513
   0.38804722  0.61195278  0.34167483
   0.38804722  0.61195278  0.65832513
   0.38804720  0.38804720  0.34167483
   0.38804720  0.38804720  0.65832513
   0.61195278  0.61195278  0.34167483
   0.61195278  0.61195278  0.65832513
   0.44576020  0.32826710  0.58308023
   0.67173288  0.55423978  0.58308023
   0.55791699  0.44208301  0.41809300
   0.32826705  0.44576024  0.41691983
   0.55423973  0.67173293  0.41691983
   0.55423980  0.32826710  0.58308023
   0.32826712  0.55423978  0.58308023
   0.67173295  0.44576024  0.41691983
   0.44576027  0.67173293  0.41691983
   0.44208301  0.44208301  0.41809300
   0.50000000  0.38416601  0.50000000
   0.61749315  0.50000005  0.34021317
   0.61749315  0.50000005  0.65978680
   0.38250685  0.50000005  0.34021317
   0.38250685  0.50000005  0.65978680
   0.38317830  0.38317830  0.50000000
   0.61682172  0.61682172  0.50000000
   0.61682170  0.38317830  0.50000000
   0.38317828  0.61682172  0.50000000
   0.50000000  0.50000000  0.33478917
   0.50000000  0.50000000  0.66521087
   0.32826705  0.44576024  0.58308023
   0.55423973  0.67173293  0.58308023
   0.55791699  0.44208301  0.58190703
   0.44208298  0.55791702  0.41809300
   0.44208301  0.44208301  0.58190703
   0.67173295  0.44576024  0.58308023
   0.44576027  0.67173293  0.58308023
   0.55791702  0.55791702  0.41809300
   0.38416599  0.50000002  0.50000000
   0.61583401  0.50000002  0.50000000
   0.50000000  0.61749319  0.34021317
   0.50000000  0.61749319  0.65978680
   0.50000000  0.50000000  0.50000000
   0.44208298  0.55791702  0.58190703
   0.55791702  0.55791702  0.58190703
   0.50000000  0.61583404  0.50000000
   0.28844953  0.40606727  0.62504083
   0.25821447  0.39264230  0.64291183
 
 position of ions in cartesian coordinates  (Angst):
  13.37280588  9.84801292 12.50759500
  20.15198637 16.62719342 12.50759500
  16.62719412  9.84801292 12.50759500
   9.84801363 16.62719342 12.50759500
  15.00000000 11.47520705 10.20639500
  15.00000000 11.47520705 19.79360400
  15.00000000  8.28283206 15.00000000
   8.28283277 14.99999929 15.00000000
  21.71716723 14.99999929 15.00000000
  15.00000000 21.71716652 14.99999999
  18.35858397 11.64141603 10.25024500
  18.35858397 11.64141603 19.74975399
  11.64141674 18.35858326 10.25024500
  11.64141674 18.35858326 19.74975400
  11.64141603 11.64141603 10.25024500
  11.64141603 11.64141603 19.74975400
  18.35858326 18.35858326 10.25024500
  18.35858326 18.35858326 19.74975400
  13.37280588  9.84801291 17.49240700
  20.15198638 16.62719341 17.49240700
  16.73750985 13.26249015 12.54279000
   9.84801151 13.37280729 12.50759500
  16.62719200 20.15198779 12.50759500
  16.62719412  9.84801292 17.49240700
   9.84801363 16.62719342 17.49240700
  20.15198849 13.37280729 12.50759500
  13.37280800 20.15198779 12.50759500
  13.26249015 13.26249015 12.54279000
  15.00000000 11.52498029 15.00000000
  18.52479437 15.00000140 10.20639500
  18.52479437 15.00000141 19.79360400
  11.47520562 15.00000141 10.20639501
  11.47520563 15.00000141 19.79360400
  11.49534898 11.49534898 15.00000000
  18.50465172 18.50465172 15.00000000
  18.50465102 11.49534898 15.00000000
  11.49534828 18.50465172 15.00000000
  15.00000000 15.00000000 10.04367500
  15.00000000 15.00000000 19.95632599
   9.84801151 13.37280729 17.49240700
  16.62719200 20.15198779 17.49240700
  16.73750985 13.26249015 17.45721100
  13.26248944 16.73751056 12.54279001
  13.26249015 13.26249015 17.45721100
  20.15198849 13.37280729 17.49240699
  13.37280800 20.15198779 17.49240700
  16.73751056 16.73751056 12.54279000
  11.52497959 15.00000071 15.00000000
  18.47502041 15.00000071 15.00000000
  14.99999999 18.52479579 10.20639500
  15.00000000 18.52479578 19.79360400
  15.00000000 15.00000000 15.00000000
  13.26248944 16.73751057 17.45721101
  16.73751056 16.73751057 17.45721100
  15.00000000 18.47502112 15.00000000
   8.65348600 12.18201800 18.75122500
   7.74643400 11.77926900 19.28735500
 


--------------------------------------------------------------------------------------------------------


 k-point  1 :   0.0000 0.0000 0.0000  plane waves:  490521

 maximum and minimum number of plane-waves per node :    490521   490521

 maximum number of plane-waves:    490521
 maximum index in each direction: 
   IXMAX=   48   IYMAX=   48   IZMAX=   48
   IXMIN=  -48   IYMIN=  -48   IZMIN=  -48


 serial   3D FFT for wavefunctions
 parallel 3D FFT for charge:
    minimum data exchange during FFTs selected (reduces bandwidth)


 total amount of memory used by VASP MPI-rank0  5486941. kBytes
=======================================================================

   base      :      30000. kBytes
   nonlr-proj:      17126. kBytes
   fftplans  :     924480. kBytes
   grid      :    1872000. kBytes
   one-center:        886. kBytes
   wavefun   :    2642449. kBytes
 
     INWAV:  cpu time    0.0001: real time    0.0005
 Broyden mixing: mesh for mixing (old mesh)
   NGX = 97   NGY = 97   NGZ = 97
  (NGX  =300   NGY  =300   NGZ  =300)
  gives a total of 912673 points

 initial charge density was supplied:
 charge density of overlapping atoms calculated
 number of electron     560.0000000 magnetization 
 keeping initial charge density in first step


--------------------------------------------------------------------------------------------------------


 Maximum index for non-local projection operator         1763
 Maximum index for augmentation-charges         5898 (set IRDMAX)


--------------------------------------------------------------------------------------------------------


 First call to EWALD:  gamma=   0.059
 Maximum number of real-space cells 3x 3x 3
 Maximum number of reciprocal cells 3x 3x 3

    FEWALD:  cpu time    0.0148: real time    0.0148


--------------------------------------- Iteration      1(   1)  ---------------------------------------


    POTLOK:  cpu time   14.1783: real time   14.1818
    SETDIJ:  cpu time    0.1195: real time    0.1195
     EDDAV:  cpu time  365.4725: real time  365.5458
       DOS:  cpu time    0.0013: real time    0.0012
    --------------------------------------------
      LOOP:  cpu time  379.7716: real time  379.8484

 eigenvalue-minimisations  :   688
 total energy-change (2. order) : 0.4386160E+04  (-0.1005017E+05)
 number of electron     560.0000000 magnetization 
 augmentation part      560.0000000 magnetization 

 Free energy of the ion-electron system (eV)
  ---------------------------------------------------
  alpha Z        PSCENC =        75.25431677
  Ewald energy   TEWEN  =    137807.32852750
  -Hartree energ DENC   =   -181170.96352580
  -exchange      EXHF   =         0.00000000
  -V(xc)+E(xc)   XCENC  =     -1703.36983096
  PAW double counting   =     44873.02882129   -41398.84523641
  entropy T*S    EENTRO =         0.02297131
  eigenvalues    EBANDS =       817.19816077
  atomic energy  EATOM  =     45086.50549395
  Solvation  Ediel_sol  =         0.00000000
  ---------------------------------------------------
  free energy    TOTEN  =      4386.15969842 eV

  energy without entropy =     4386.13672711  energy(sigma->0) =     4386.15395559


--------------------------------------------------------------------------------------------------------




--------------------------------------- Iteration      1(   2)  ---------------------------------------


     EDDAV:  cpu time  575.3130: real time  575.3244
       DOS:  cpu time    0.0013: real time    0.0013
    --------------------------------------------
      LOOP:  cpu time  575.3142: real time  575.3257

 eigenvalue-minimisations  :  1208
 total energy-change (2. order) :-0.2360161E+04  (-0.2122984E+04)
 number of electron     560.0000000 magnetization 
 augmentation part      560.0000000 magnetization 

 Free energy of the ion-electron system (eV)
  ---------------------------------------------------
  alpha Z        PSCENC =        75.25431677
  Ewald energy   TEWEN  =    137807.32852750
  -Hartree energ DENC   =   -181170.96352580
  -exchange      EXHF   =         0.00000000
  -V(xc)+E(xc)   XCENC  =     -1703.36983096
  PAW double counting   =     44873.02882129   -41398.84523641
  entropy T*S    EENTRO =        -0.01740280
  eigenvalues    EBANDS =     -1542.92258281
  atomic energy  EATOM  =     45086.50549395
  Solvation  Ediel_sol  =         0.00000000
  ---------------------------------------------------
  free energy    TOTEN  =      2025.99858073 eV

  energy without entropy =     2026.01598353  energy(sigma->0) =     2026.00293143


--------------------------------------------------------------------------------------------------------




--------------------------------------- Iteration      1(   3)  ---------------------------------------


     EDDAV:  cpu time  494.6905: real time  494.6988
       DOS:  cpu time    0.0011: real time    0.0011
    --------------------------------------------
      LOOP:  cpu time  494.6915: real time  494.6999

 eigenvalue-minimisations  :  1008
 total energy-change (2. order) :-0.1787788E+04  (-0.1679705E+04)
 number of electron     560.0000000 magnetization 
 augmentation part      560.0000000 magnetization 

 Free energy of the ion-electron system (eV)
  ---------------------------------------------------
  alpha Z        PSCENC =        75.25431677
  Ewald energy   TEWEN  =    137807.32852750
  -Hartree energ DENC   =   -181170.96352580
  -exchange      EXHF   =         0.00000000
  -V(xc)+E(xc)   XCENC  =     -1703.36983096
  PAW double counting   =     44873.02882129   -41398.84523641
  entropy T*S    EENTRO =        -0.00611098
  eigenvalues    EBANDS =     -3330.72171773
  atomic energy  EATOM  =     45086.50549395
  Solvation  Ediel_sol  =         0.00000000
  ---------------------------------------------------
  free energy    TOTEN  =       238.21073763 eV

  energy without entropy =      238.21684861  energy(sigma->0) =      238.21226537


--------------------------------------------------------------------------------------------------------




--------------------------------------- Iteration      1(   4)  ---------------------------------------


     EDDAV:  cpu time  418.7993: real time  418.8096
       DOS:  cpu time    0.0012: real time    0.0012
    --------------------------------------------
      LOOP:  cpu time  418.8005: real time  418.8108

 eigenvalue-minimisations  :   824
 total energy-change (2. order) :-0.3707706E+03  (-0.3136066E+03)
 number of electron     560.0000000 magnetization 
 augmentation part      560.0000000 magnetization 

 Free energy of the ion-electron system (eV)
  ---------------------------------------------------
  alpha Z        PSCENC =        75.25431677
  Ewald energy   TEWEN  =    137807.32852750
  -Hartree energ DENC   =   -181170.96352580
  -exchange      EXHF   =         0.00000000
  -V(xc)+E(xc)   XCENC  =     -1703.36983096
  PAW double counting   =     44873.02882129   -41398.84523641
  entropy T*S    EENTRO =        -0.00751923
  eigenvalues    EBANDS =     -3701.49088834
  atomic energy  EATOM  =     45086.50549395
  Solvation  Ediel_sol  =         0.00000000
  ---------------------------------------------------
  free energy    TOTEN  =      -132.55984122 eV

  energy without entropy =     -132.55232199  energy(sigma->0) =     -132.55796142


--------------------------------------------------------------------------------------------------------




--------------------------------------- Iteration      1(   5)  ---------------------------------------


     EDDAV:  cpu time  510.0766: real time  510.1121
       DOS:  cpu time    0.0013: real time    0.0013
    CHARGE:  cpu time   25.2748: real time   25.2762
    MIXING:  cpu time    0.4395: real time    0.4395
    --------------------------------------------
      LOOP:  cpu time  535.7923: real time  535.8292

 eigenvalue-minimisations  :  1048
 total energy-change (2. order) :-0.4687536E+02  (-0.3902003E+02)
 number of electron     559.9999857 magnetization 
 augmentation part      245.0367318 magnetization 

 Broyden mixing:
  rms(total) = 0.14673E+01    rms(broyden)= 0.14664E+01
  rms(prec ) = 0.15696E+01
  weight for this iteration     100.00

 Free energy of the ion-electron system (eV)
  ---------------------------------------------------
  alpha Z        PSCENC =        75.25431677
  Ewald energy   TEWEN  =    137807.32852750
  -Hartree energ DENC   =   -181170.96352580
  -exchange      EXHF   =         0.00000000
  -V(xc)+E(xc)   XCENC  =     -1703.36983096
  PAW double counting   =     44873.02882129   -41398.84523641
  entropy T*S    EENTRO =         0.47887719
  eigenvalues    EBANDS =     -3748.85264329
  atomic energy  EATOM  =     45086.50549395
  Solvation  Ediel_sol  =         0.00000000
  ---------------------------------------------------
  free energy    TOTEN  =      -179.43519976 eV

  energy without entropy =     -179.91407695  energy(sigma->0) =     -179.55491906


--------------------------------------------------------------------------------------------------------




--------------------------------------- Iteration      1(   6)  ---------------------------------------


    POTLOK:  cpu time   13.2101: real time   13.2138
    SETDIJ:  cpu time    0.1240: real time    0.1240
    EDDIAG:  cpu time   68.1671: real time   68.1741
  RMM-DIIS:  cpu time  189.4337: real time  189.4345
    ORTHCH:  cpu time   13.4221: real time   13.4224
       DOS:  cpu time    0.0014: real time    0.0014
    CHARGE:  cpu time   25.1255: real time   25.1255
    MIXING:  cpu time    0.4631: real time    0.4631
    --------------------------------------------
      LOOP:  cpu time  309.9469: real time  309.9587

 eigenvalue-minimisations  :   731
 total energy-change (2. order) :-0.5499803E+00  (-0.5697982E+01)
 number of electron     559.9999876 magnetization 
 augmentation part      240.5973998 magnetization 

 Broyden mixing:
  rms(total) = 0.21303E+01    rms(broyden)= 0.21302E+01
  rms(prec ) = 0.24621E+01
  weight for this iteration     100.00

 eigenvalues of (default mixing * dielectric matrix)
  average eigenvalue GAMMA=   0.3578
  0.3578

 Free energy of the ion-electron system (eV)
  ---------------------------------------------------
  alpha Z        PSCENC =        75.25431677
  Ewald energy   TEWEN  =    137807.32852750
  -Hartree energ DENC   =   -181565.41163073
  -exchange      EXHF   =         0.00000000
  -V(xc)+E(xc)   XCENC  =     -1697.16402295
  PAW double counting   =     45625.11795865   -42124.42986197
  entropy T*S    EENTRO =        -0.33888823
  eigenvalues    EBANDS =     -3386.84707310
  atomic energy  EATOM  =     45086.50549395
  Solvation  Ediel_sol  =         0.00000000
  ---------------------------------------------------
  free energy    TOTEN  =      -179.98518010 eV

  energy without entropy =     -179.64629187  energy(sigma->0) =     -179.90045804


--------------------------------------------------------------------------------------------------------




--------------------------------------- Iteration      1(   7)  ---------------------------------------


    POTLOK:  cpu time   13.2116: real time   13.2124
    SETDIJ:  cpu time    0.1195: real time    0.1195
    EDDIAG:  cpu time   67.8285: real time   67.8303
  RMM-DIIS:  cpu time  219.2736: real time  219.2956
    ORTHCH:  cpu time   13.5430: real time   13.5445
       DOS:  cpu time    0.0013: real time    0.0013
    CHARGE:  cpu time   25.5255: real time   25.5295
    MIXING:  cpu time    0.4800: real time    0.4805
    --------------------------------------------
      LOOP:  cpu time  339.9832: real time  340.0136

 eigenvalue-minimisations  :   849
 total energy-change (2. order) :-0.2158449E+01  (-0.1947533E+01)
 number of electron     559.9999833 magnetization 
 augmentation part      240.4283135 magnetization 

 Broyden mixing:
  rms(total) = 0.24043E+01    rms(broyden)= 0.24040E+01
  rms(prec ) = 0.29330E+01
  weight for this iteration     100.00

 eigenvalues of (default mixing * dielectric matrix)
  average eigenvalue GAMMA=   0.3103
  0.4782  0.1424

 Free energy of the ion-electron system (eV)
  ---------------------------------------------------
  alpha Z        PSCENC =        75.25431677
  Ewald energy   TEWEN  =    137807.32852750
  -Hartree energ DENC   =   -181661.78893962
  -exchange      EXHF   =         0.00000000
  -V(xc)+E(xc)   XCENC  =     -1697.37996666
  PAW double counting   =     45696.82535652   -42193.34395707
  entropy T*S    EENTRO =        -0.04291415
  eigenvalues    EBANDS =     -3295.50154616
  atomic energy  EATOM  =     45086.50549395
  Solvation  Ediel_sol  =         0.00000000
  ---------------------------------------------------
  free energy    TOTEN  =      -182.14362892 eV

  energy without entropy =     -182.10071477  energy(sigma->0) =     -182.13290038


--------------------------------------------------------------------------------------------------------




--------------------------------------- Iteration      1(   8)  ---------------------------------------


    POTLOK:  cpu time   13.5115: real time   13.5151
    SETDIJ:  cpu time    0.1260: real time    0.1260
    EDDIAG:  cpu time   68.8782: real time   68.8832
  RMM-DIIS:  cpu time  209.6956: real time  209.7180
    ORTHCH:  cpu time   13.4569: real time   13.4582
       DOS:  cpu time    0.0014: real time    0.0014
    CHARGE:  cpu time   25.8837: real time   25.8925
    MIXING:  cpu time    0.5931: real time    0.5932
    --------------------------------------------
      LOOP:  cpu time  332.1464: real time  332.1876

 eigenvalue-minimisations  :   806
 total energy-change (2. order) :-0.1391316E+01  (-0.6293713E+00)
 number of electron     559.9999843 magnetization 
 augmentation part      240.2378631 magnetization 

 Broyden mixing:
  rms(total) = 0.26891E+01    rms(broyden)= 0.26888E+01
  rms(prec ) = 0.31844E+01
  weight for this iteration     100.00

 eigenvalues of (default mixing * dielectric matrix)
  average eigenvalue GAMMA=   0.2959
  0.6262  0.1440  0.1176

 Free energy of the ion-electron system (eV)
  ---------------------------------------------------
  alpha Z        PSCENC =        75.25431677
  Ewald energy   TEWEN  =    137807.32852750
  -Hartree energ DENC   =   -181693.95490623
  -exchange      EXHF   =         0.00000000
  -V(xc)+E(xc)   XCENC  =     -1697.36369010
  PAW double counting   =     45748.88913639   -42243.31751699
  entropy T*S    EENTRO =        -0.06327783
  eigenvalues    EBANDS =     -3266.81302795
  atomic energy  EATOM  =     45086.50549395
  Solvation  Ediel_sol  =         0.00000000
  ---------------------------------------------------
  free energy    TOTEN  =      -183.53494449 eV

  energy without entropy =     -183.47166666  energy(sigma->0) =     -183.51912503


--------------------------------------------------------------------------------------------------------




--------------------------------------- Iteration      1(   9)  ---------------------------------------


    POTLOK:  cpu time   13.5903: real time   13.5947
    SETDIJ:  cpu time    0.1269: real time    0.1269
    EDDIAG:  cpu time   68.6122: real time   68.6200
  RMM-DIIS:  cpu time  192.2954: real time  192.3157
    ORTHCH:  cpu time   13.7025: real time   13.7027
       DOS:  cpu time    0.0014: real time    0.0014
    CHARGE:  cpu time   26.0751: real time   26.0789
    MIXING:  cpu time    0.5572: real time    0.5572
    --------------------------------------------
      LOOP:  cpu time  314.9611: real time  314.9976

 eigenvalue-minimisations  :   739
 total energy-change (2. order) : 0.1076893E+01  (-0.5083964E+00)
 number of electron     559.9999860 magnetization 
 augmentation part      240.8115185 magnetization 

 Broyden mixing:
  rms(total) = 0.25011E+01    rms(broyden)= 0.25007E+01
  rms(prec ) = 0.28894E+01
  weight for this iteration     100.00

 eigenvalues of (default mixing * dielectric matrix)
  average eigenvalue GAMMA=   0.2842
  0.7407  0.1480  0.1480  0.1001

 Free energy of the ion-electron system (eV)
  ---------------------------------------------------
  alpha Z        PSCENC =        75.25431677
  Ewald energy   TEWEN  =    137807.32852750
  -Hartree energ DENC   =   -181709.15412222
  -exchange      EXHF   =         0.00000000
  -V(xc)+E(xc)   XCENC  =     -1697.31373457
  PAW double counting   =     45805.04059934   -42297.17932691
  entropy T*S    EENTRO =        -0.20141350
  eigenvalues    EBANDS =     -3252.73839208
  atomic energy  EATOM  =     45086.50549395
  Solvation  Ediel_sol  =         0.00000000
  ---------------------------------------------------
  free energy    TOTEN  =      -182.45805172 eV

  energy without entropy =     -182.25663822  energy(sigma->0) =     -182.40769834


--------------------------------------------------------------------------------------------------------




--------------------------------------- Iteration      1(  10)  ---------------------------------------


    POTLOK:  cpu time   13.5660: real time   13.5686
    SETDIJ:  cpu time    0.1191: real time    0.1191
    EDDIAG:  cpu time   68.4822: real time   68.4864
  RMM-DIIS:  cpu time  193.0897: real time  193.1038
    ORTHCH:  cpu time   13.7015: real time   13.7029
       DOS:  cpu time    0.0014: real time    0.0014
    CHARGE:  cpu time   26.0357: real time   26.0384
    MIXING:  cpu time    0.5732: real time    0.5732
    --------------------------------------------
      LOOP:  cpu time  315.5687: real time  315.5938

 eigenvalue-minimisations  :   741
 total energy-change (2. order) : 0.2235995E+01  (-0.3273417E+00)
 number of electron     559.9999848 magnetization 
 augmentation part      241.3203695 magnetization 

 Broyden mixing:
  rms(total) = 0.24636E+01    rms(broyden)= 0.24633E+01
  rms(prec ) = 0.29433E+01
  weight for this iteration     100.00

 eigenvalues of (default mixing * dielectric matrix)
  average eigenvalue GAMMA=   0.2602
  0.7989  0.1585  0.1585  0.0975  0.0875

 Free energy of the ion-electron system (eV)
  ---------------------------------------------------
  alpha Z        PSCENC =        75.25431677
  Ewald energy   TEWEN  =    137807.32852750
  -Hartree energ DENC   =   -181736.15016186
  -exchange      EXHF   =         0.00000000
  -V(xc)+E(xc)   XCENC  =     -1697.17073869
  PAW double counting   =     45853.35805668   -42343.63088188
  entropy T*S    EENTRO =        -0.07291087
  eigenvalues    EBANDS =     -3225.64375857
  atomic energy  EATOM  =     45086.50549395
  Solvation  Ediel_sol  =         0.00000000
  ---------------------------------------------------
  free energy    TOTEN  =      -180.22205697 eV

  energy without entropy =     -180.14914610  energy(sigma->0) =     -180.20382925


--------------------------------------------------------------------------------------------------------




--------------------------------------- Iteration      1(  11)  ---------------------------------------


    POTLOK:  cpu time   13.3239: real time   13.3283
    SETDIJ:  cpu time    0.1214: real time    0.1214
    EDDIAG:  cpu time   68.7120: real time   68.7166
  RMM-DIIS:  cpu time  194.9212: real time  194.9360
    ORTHCH:  cpu time   13.8698: real time   13.8713
       DOS:  cpu time    0.0015: real time    0.0015
    CHARGE:  cpu time   25.9338: real time   25.9367
    MIXING:  cpu time    0.5995: real time    0.5995
    --------------------------------------------
      LOOP:  cpu time  317.4832: real time  317.5113

 eigenvalue-minimisations  :   741
 total energy-change (2. order) : 0.2030040E+01  (-0.1639451E+00)
 number of electron     559.9999843 magnetization 
 augmentation part      241.4972744 magnetization 

 Broyden mixing:
  rms(total) = 0.16134E+01    rms(broyden)= 0.16131E+01
  rms(prec ) = 0.18666E+01
  weight for this iteration     100.00

 eigenvalues of (default mixing * dielectric matrix)
  average eigenvalue GAMMA=   0.2596
  0.8888  0.1910  0.1910  0.1082  0.1082  0.0704

 Free energy of the ion-electron system (eV)
  ---------------------------------------------------
  alpha Z        PSCENC =        75.25431677
  Ewald energy   TEWEN  =    137807.32852750
  -Hartree energ DENC   =   -181754.39279713
  -exchange      EXHF   =         0.00000000
  -V(xc)+E(xc)   XCENC  =     -1697.06921034
  PAW double counting   =     45880.92614506   -42369.99246949
  entropy T*S    EENTRO =        -0.12238469
  eigenvalues    EBANDS =     -3206.62963854
  atomic energy  EATOM  =     45086.50549395
  Solvation  Ediel_sol  =         0.00000000
  ---------------------------------------------------
  free energy    TOTEN  =      -178.19201690 eV

  energy without entropy =     -178.06963221  energy(sigma->0) =     -178.16142073


--------------------------------------------------------------------------------------------------------




--------------------------------------- Iteration      1(  12)  ---------------------------------------


    POTLOK:  cpu time   13.5180: real time   13.5201
    SETDIJ:  cpu time    0.1223: real time    0.1223
    EDDIAG:  cpu time   68.2809: real time   68.2909
  RMM-DIIS:  cpu time  190.6530: real time  190.6676
    ORTHCH:  cpu time   13.9716: real time   13.9715
       DOS:  cpu time    0.0015: real time    0.0015
    CHARGE:  cpu time   26.0094: real time   26.0089
    MIXING:  cpu time    0.6537: real time    0.6537
    --------------------------------------------
      LOOP:  cpu time  313.2104: real time  313.2365

 eigenvalue-minimisations  :   721
 total energy-change (2. order) : 0.9694424E+00  (-0.1688501E+00)
 number of electron     559.9999858 magnetization 
 augmentation part      241.6511776 magnetization 

 Broyden mixing:
  rms(total) = 0.15795E+01    rms(broyden)= 0.15792E+01
  rms(prec ) = 0.19239E+01
  weight for this iteration     100.00

 eigenvalues of (default mixing * dielectric matrix)
  average eigenvalue GAMMA=   0.2539
  0.9537  0.2180  0.2180  0.1134  0.1134  0.0879  0.0730

 Free energy of the ion-electron system (eV)
  ---------------------------------------------------
  alpha Z        PSCENC =        75.25431677
  Ewald energy   TEWEN  =    137807.32852750
  -Hartree energ DENC   =   -181776.51019935
  -exchange      EXHF   =         0.00000000
  -V(xc)+E(xc)   XCENC  =     -1696.81015239
  PAW double counting   =     45921.17561964   -42408.40556253
  entropy T*S    EENTRO =        -0.11059191
  eigenvalues    EBANDS =     -3185.65002617
  atomic energy  EATOM  =     45086.50549395
  Solvation  Ediel_sol  =         0.00000000
  ---------------------------------------------------
  free energy    TOTEN  =      -177.22257448 eV

  energy without entropy =     -177.11198257  energy(sigma->0) =     -177.19492650


--------------------------------------------------------------------------------------------------------




--------------------------------------- Iteration      1(  13)  ---------------------------------------


    POTLOK:  cpu time   13.6806: real time   13.6828
    SETDIJ:  cpu time    0.1262: real time    0.1262
    EDDIAG:  cpu time   68.1726: real time   68.1727
  RMM-DIIS:  cpu time  194.9588: real time  194.9637
    ORTHCH:  cpu time   13.8275: real time   13.8300
       DOS:  cpu time    0.0014: real time    0.0014
    CHARGE:  cpu time   26.5676: real time   26.5694
    MIXING:  cpu time    0.6922: real time    0.6922
    --------------------------------------------
      LOOP:  cpu time  318.0270: real time  318.0386

 eigenvalue-minimisations  :   736
 total energy-change (2. order) : 0.2378918E+00  (-0.1013460E+00)
 number of electron     559.9999876 magnetization 
 augmentation part      241.5392479 magnetization 

 Broyden mixing:
  rms(total) = 0.16227E+01    rms(broyden)= 0.16224E+01
  rms(prec ) = 0.19251E+01
  weight for this iteration     100.00

 eigenvalues of (default mixing * dielectric matrix)
  average eigenvalue GAMMA=   0.2587
  1.0426  0.2633  0.2633  0.1541  0.1097  0.0910  0.0910  0.0549

 Free energy of the ion-electron system (eV)
  ---------------------------------------------------
  alpha Z        PSCENC =        75.25431677
  Ewald energy   TEWEN  =    137807.32852750
  -Hartree energ DENC   =   -181797.70710218
  -exchange      EXHF   =         0.00000000
  -V(xc)+E(xc)   XCENC  =     -1696.57544186
  PAW double counting   =     45952.40197639   -42438.13242478
  entropy T*S    EENTRO =        -0.13411252
  eigenvalues    EBANDS =     -3165.92591598
  atomic energy  EATOM  =     45086.50549395
  Solvation  Ediel_sol  =         0.00000000
  ---------------------------------------------------
  free energy    TOTEN  =      -176.98468269 eV

  energy without entropy =     -176.85057018  energy(sigma->0) =     -176.95115456


--------------------------------------------------------------------------------------------------------




--------------------------------------- Iteration      1(  14)  ---------------------------------------


    POTLOK:  cpu time   13.7895: real time   13.7922
    SETDIJ:  cpu time    0.1192: real time    0.1192
    EDDIAG:  cpu time   69.2782: real time   69.2841
  RMM-DIIS:  cpu time  189.8543: real time  189.8730
    ORTHCH:  cpu time   13.6659: real time   13.6662
       DOS:  cpu time    0.0015: real time    0.0015
    CHARGE:  cpu time   26.7765: real time   26.7837
    MIXING:  cpu time    0.7715: real time    0.7715
    --------------------------------------------
      LOOP:  cpu time  314.2565: real time  314.2915

 eigenvalue-minimisations  :   718
 total energy-change (2. order) : 0.3067105E+00  (-0.1171822E+00)
 number of electron     559.9999836 magnetization 
 augmentation part      241.4655136 magnetization 

 Broyden mixing:
  rms(total) = 0.16395E+01    rms(broyden)= 0.16392E+01
  rms(prec ) = 0.19378E+01
  weight for this iteration     100.00

 eigenvalues of (default mixing * dielectric matrix)
  average eigenvalue GAMMA=   0.2752
  1.1992  0.4326  0.2331  0.1611  0.1179  0.1179  0.0847  0.0731  0.0570

 Free energy of the ion-electron system (eV)
  ---------------------------------------------------
  alpha Z        PSCENC =        75.25431677
  Ewald energy   TEWEN  =    137807.32852750
  -Hartree energ DENC   =   -181827.81581527
  -exchange      EXHF   =         0.00000000
  -V(xc)+E(xc)   XCENC  =     -1696.18648662
  PAW double counting   =     45995.64717345   -42479.22822444
  entropy T*S    EENTRO =        -0.14496454
  eigenvalues    EBANDS =     -3138.03799304
  atomic energy  EATOM  =     45086.50549395
  Solvation  Ediel_sol  =         0.00000000
  ---------------------------------------------------
  free energy    TOTEN  =      -176.67797224 eV

  energy without entropy =     -176.53300770  energy(sigma->0) =     -176.64173110


--------------------------------------------------------------------------------------------------------




--------------------------------------- Iteration      1(  15)  ---------------------------------------


    POTLOK:  cpu time   13.8480: real time   13.8491
    SETDIJ:  cpu time    0.1266: real time    0.1266
    EDDIAG:  cpu time   69.2185: real time   69.2297
  RMM-DIIS:  cpu time  190.0051: real time  190.0221
    ORTHCH:  cpu time   13.7896: real time   13.7898
       DOS:  cpu time    0.0015: real time    0.0015
    CHARGE:  cpu time   26.5295: real time   26.5298
    MIXING:  cpu time    0.8138: real time    0.8138
    --------------------------------------------
      LOOP:  cpu time  314.3326: real time  314.3623

 eigenvalue-minimisations  :   715
 total energy-change (2. order) :-0.9476603E-01  (-0.1136383E+00)
 number of electron     559.9999854 magnetization 
 augmentation part      241.2255895 magnetization 

 Broyden mixing:
  rms(total) = 0.19488E+01    rms(broyden)= 0.19486E+01
  rms(prec ) = 0.22321E+01
  weight for this iteration     100.00

 eigenvalues of (default mixing * dielectric matrix)
  average eigenvalue GAMMA=   0.2854
  1.3357  0.5912  0.2223  0.1502  0.1502  0.1120  0.0891  0.0891  0.0625  0.0521

 Free energy of the ion-electron system (eV)
  ---------------------------------------------------
  alpha Z        PSCENC =        75.25431677
  Ewald energy   TEWEN  =    137807.32852750
  -Hartree energ DENC   =   -181865.92306623
  -exchange      EXHF   =         0.00000000
  -V(xc)+E(xc)   XCENC  =     -1695.64599651
  PAW double counting   =     46052.56214843   -42533.23263275
  entropy T*S    EENTRO =        -0.04491497
  eigenvalues    EBANDS =     -3103.57661447
  atomic energy  EATOM  =     45086.50549395
  Solvation  Ediel_sol  =         0.00000000
  ---------------------------------------------------
  free energy    TOTEN  =      -176.77273827 eV

  energy without entropy =     -176.72782329  energy(sigma->0) =     -176.76150952


--------------------------------------------------------------------------------------------------------




--------------------------------------- Iteration      1(  16)  ---------------------------------------


    POTLOK:  cpu time   13.6387: real time   13.6404
    SETDIJ:  cpu time    0.1248: real time    0.1249
    EDDIAG:  cpu time   69.2669: real time   69.2675
  RMM-DIIS:  cpu time  186.9476: real time  186.9575
    ORTHCH:  cpu time   13.8406: real time   13.8406
       DOS:  cpu time    0.0015: real time    0.0015
    CHARGE:  cpu time   26.3234: real time   26.3262
    MIXING:  cpu time    0.8651: real time    0.8652
    --------------------------------------------
      LOOP:  cpu time  311.0085: real time  311.0237

 eigenvalue-minimisations  :   707
 total energy-change (2. order) : 0.5485405E+00  (-0.9371080E-01)
 number of electron     559.9999871 magnetization 
 augmentation part      241.0419593 magnetization 

 Broyden mixing:
  rms(total) = 0.13198E+01    rms(broyden)= 0.13196E+01
  rms(prec ) = 0.15154E+01
  weight for this iteration     100.00

 eigenvalues of (default mixing * dielectric matrix)
  average eigenvalue GAMMA=   0.2930
  1.5201  0.6514  0.2061  0.2061  0.1036  0.1036  0.1044  0.1065  0.1065  0.0616
  0.0532

 Free energy of the ion-electron system (eV)
  ---------------------------------------------------
  alpha Z        PSCENC =        75.25431677
  Ewald energy   TEWEN  =    137807.32852750
  -Hartree energ DENC   =   -181898.44315364
  -exchange      EXHF   =         0.00000000
  -V(xc)+E(xc)   XCENC  =     -1695.20023234
  PAW double counting   =     46095.77036550   -42574.22913804
  entropy T*S    EENTRO =        -0.08235043
  eigenvalues    EBANDS =     -3073.12802708
  atomic energy  EATOM  =     45086.50549395
  Solvation  Ediel_sol  =         0.00000000
  ---------------------------------------------------
  free energy    TOTEN  =      -176.22419781 eV

  energy without entropy =     -176.14184738  energy(sigma->0) =     -176.20361020


--------------------------------------------------------------------------------------------------------




--------------------------------------- Iteration      1(  17)  ---------------------------------------


    POTLOK:  cpu time   13.6078: real time   13.6102
    SETDIJ:  cpu time    0.1274: real time    0.1274
    EDDIAG:  cpu time   69.4810: real time   69.4896
  RMM-DIIS:  cpu time  186.9269: real time  186.9539
    ORTHCH:  cpu time   13.9415: real time   13.9441
       DOS:  cpu time    0.0015: real time    0.0015
    CHARGE:  cpu time   26.4295: real time   26.4327
    MIXING:  cpu time    0.8877: real time    0.8878
    --------------------------------------------
      LOOP:  cpu time  311.4033: real time  311.4472

 eigenvalue-minimisations  :   708
 total energy-change (2. order) : 0.3441595E+00  (-0.6655430E-01)
 number of electron     559.9999865 magnetization 
 augmentation part      241.1463375 magnetization 

 Broyden mixing:
  rms(total) = 0.13399E+01    rms(broyden)= 0.13397E+01
  rms(prec ) = 0.15673E+01
  weight for this iteration     100.00

 eigenvalues of (default mixing * dielectric matrix)
  average eigenvalue GAMMA=   0.2981
  1.6075  0.7343  0.2575  0.2575  0.1215  0.1215  0.1171  0.0867  0.0867  0.0754
  0.0599  0.0519

 Free energy of the ion-electron system (eV)
  ---------------------------------------------------
  alpha Z        PSCENC =        75.25431677
  Ewald energy   TEWEN  =    137807.32852750
  -Hartree energ DENC   =   -181919.02200050
  -exchange      EXHF   =         0.00000000
  -V(xc)+E(xc)   XCENC  =     -1694.89169485
  PAW double counting   =     46127.28369776   -42604.09164480
  entropy T*S    EENTRO =         0.01111620
  eigenvalues    EBANDS =     -3054.25785039
  atomic energy  EATOM  =     45086.50549395
  Solvation  Ediel_sol  =         0.00000000
  ---------------------------------------------------
  free energy    TOTEN  =      -175.88003836 eV

  energy without entropy =     -175.89115456  energy(sigma->0) =     -175.88281741


--------------------------------------------------------------------------------------------------------




--------------------------------------- Iteration      1(  18)  ---------------------------------------


    POTLOK:  cpu time   13.6327: real time   13.6361
    SETDIJ:  cpu time    0.1248: real time    0.1248
    EDDIAG:  cpu time   69.4442: real time   69.4471
  RMM-DIIS:  cpu time  186.4083: real time  186.4301
    ORTHCH:  cpu time   13.9419: real time   13.9433
       DOS:  cpu time    0.0015: real time    0.0015
    CHARGE:  cpu time   26.2553: real time   26.2593
    MIXING:  cpu time    0.9450: real time    0.9450
    --------------------------------------------
      LOOP:  cpu time  310.7537: real time  310.7872

 eigenvalue-minimisations  :   706
 total energy-change (2. order) : 0.2606674E+00  (-0.4778893E-01)
 number of electron     559.9999868 magnetization 
 augmentation part      241.1349561 magnetization 

 Broyden mixing:
  rms(total) = 0.97716E+00    rms(broyden)= 0.97700E+00
  rms(prec ) = 0.11151E+01
  weight for this iteration     100.00

 eigenvalues of (default mixing * dielectric matrix)
  average eigenvalue GAMMA=   0.3183
  1.6949  0.9586  0.3256  0.3256  0.1336  0.1336  0.0885  0.0885  0.0983  0.0983
  0.0830  0.0580  0.0509

 Free energy of the ion-electron system (eV)
  ---------------------------------------------------
  alpha Z        PSCENC =        75.25431677
  Ewald energy   TEWEN  =    137807.32852750
  -Hartree energ DENC   =   -181933.60687946
  -exchange      EXHF   =         0.00000000
  -V(xc)+E(xc)   XCENC  =     -1694.71609327
  PAW double counting   =     46142.48760586   -42618.33808425
  entropy T*S    EENTRO =        -0.01735358
  eigenvalues    EBANDS =     -3040.51690453
  atomic energy  EATOM  =     45086.50549395
  Solvation  Ediel_sol  =         0.00000000
  ---------------------------------------------------
  free energy    TOTEN  =      -175.61937100 eV

  energy without entropy =     -175.60201743  energy(sigma->0) =     -175.61503261


--------------------------------------------------------------------------------------------------------




--------------------------------------- Iteration      1(  19)  ---------------------------------------


    POTLOK:  cpu time   13.7339: real time   13.7363
    SETDIJ:  cpu time    0.1296: real time    0.1296
    EDDIAG:  cpu time   69.8909: real time   69.8958
  RMM-DIIS:  cpu time  183.9974: real time  184.0132
    ORTHCH:  cpu time   13.6483: real time   13.6499
       DOS:  cpu time    0.0015: real time    0.0015
    CHARGE:  cpu time   26.2288: real time   26.2292
    MIXING:  cpu time    1.0128: real time    1.0132
    --------------------------------------------
      LOOP:  cpu time  308.6432: real time  308.6687

 eigenvalue-minimisations  :   700
 total energy-change (2. order) :-0.5982506E-01  (-0.5146725E-01)
 number of electron     559.9999849 magnetization 
 augmentation part      241.0559259 magnetization 

 Broyden mixing:
  rms(total) = 0.10218E+01    rms(broyden)= 0.10216E+01
  rms(prec ) = 0.11542E+01
  weight for this iteration     100.00

 eigenvalues of (default mixing * dielectric matrix)
  average eigenvalue GAMMA=   0.3302
  1.8848  1.0927  0.3433  0.3433  0.1440  0.1440  0.1109  0.1109  0.0864  0.0864
  0.0834  0.0834  0.0581  0.0509

 Free energy of the ion-electron system (eV)
  ---------------------------------------------------
  alpha Z        PSCENC =        75.25431677
  Ewald energy   TEWEN  =    137807.32852750
  -Hartree energ DENC   =   -181959.86381126
  -exchange      EXHF   =         0.00000000
  -V(xc)+E(xc)   XCENC  =     -1694.46783940
  PAW double counting   =     46158.60400225   -42633.09129662
  entropy T*S    EENTRO =        -0.05304089
  eigenvalues    EBANDS =     -3015.89554837
  atomic energy  EATOM  =     45086.50549395
  Solvation  Ediel_sol  =         0.00000000
  ---------------------------------------------------
  free energy    TOTEN  =      -175.67919606 eV

  energy without entropy =     -175.62615517  energy(sigma->0) =     -175.66593584


--------------------------------------------------------------------------------------------------------




--------------------------------------- Iteration      1(  20)  ---------------------------------------


    POTLOK:  cpu time   13.6783: real time   13.6821
    SETDIJ:  cpu time    0.1330: real time    0.1330
    EDDIAG:  cpu time   70.3498: real time   70.3617
  RMM-DIIS:  cpu time  183.7271: real time  183.7479
    ORTHCH:  cpu time   13.5407: real time   13.5422
       DOS:  cpu time    0.0015: real time    0.0015
    CHARGE:  cpu time   26.2664: real time   26.2704
    MIXING:  cpu time    1.0991: real time    1.0991
    --------------------------------------------
      LOOP:  cpu time  308.7958: real time  308.8380

 eigenvalue-minimisations  :   700
 total energy-change (2. order) : 0.2285032E+00  (-0.3994630E-01)
 number of electron     559.9999869 magnetization 
 augmentation part      241.1013040 magnetization 

 Broyden mixing:
  rms(total) = 0.90797E+00    rms(broyden)= 0.90774E+00
  rms(prec ) = 0.10442E+01
  weight for this iteration     100.00

 eigenvalues of (default mixing * dielectric matrix)
  average eigenvalue GAMMA=   0.3255
  1.9381  1.1751  0.3368  0.3368  0.1592  0.1592  0.1192  0.1192  0.0870  0.0870
  0.0917  0.0917  0.0722  0.0580  0.0507

 Free energy of the ion-electron system (eV)
  ---------------------------------------------------
  alpha Z        PSCENC =        75.25431677
  Ewald energy   TEWEN  =    137807.32852750
  -Hartree energ DENC   =   -181983.14197451
  -exchange      EXHF   =         0.00000000
  -V(xc)+E(xc)   XCENC  =     -1694.17894690
  PAW double counting   =     46174.43145673   -42647.53645992
  entropy T*S    EENTRO =        -0.05893717
  eigenvalues    EBANDS =     -2994.05416937
  atomic energy  EATOM  =     45086.50549395
  Solvation  Ediel_sol  =         0.00000000
  ---------------------------------------------------
  free energy    TOTEN  =      -175.45069291 eV

  energy without entropy =     -175.39175574  energy(sigma->0) =     -175.43595862


--------------------------------------------------------------------------------------------------------




--------------------------------------- Iteration      1(  21)  ---------------------------------------


    POTLOK:  cpu time   13.7371: real time   13.7416
    SETDIJ:  cpu time    0.1266: real time    0.1266
    EDDIAG:  cpu time   70.3585: real time   70.3710
  RMM-DIIS:  cpu time  183.2172: real time  183.2433
    ORTHCH:  cpu time   13.7124: real time   13.7149
       DOS:  cpu time    0.0016: real time    0.0016
    CHARGE:  cpu time   26.4582: real time   26.4612
    MIXING:  cpu time    1.2152: real time    1.2152
    --------------------------------------------
      LOOP:  cpu time  308.8268: real time  308.8754

 eigenvalue-minimisations  :   702
 total energy-change (2. order) : 0.1458476E+00  (-0.2075711E-01)
 number of electron     559.9999859 magnetization 
 augmentation part      241.0689226 magnetization 

 Broyden mixing:
  rms(total) = 0.74333E+00    rms(broyden)= 0.74316E+00
  rms(prec ) = 0.85623E+00
  weight for this iteration     100.00

 eigenvalues of (default mixing * dielectric matrix)
  average eigenvalue GAMMA=   0.3320
  1.9775  1.2938  0.4411  0.2778  0.2778  0.1661  0.1284  0.1284  0.0855  0.0855
  0.1002  0.1002  0.0796  0.0508  0.0574  0.0613

 Free energy of the ion-electron system (eV)
  ---------------------------------------------------
  alpha Z        PSCENC =        75.25431677
  Ewald energy   TEWEN  =    137807.32852750
  -Hartree energ DENC   =   -181996.48366444
  -exchange      EXHF   =         0.00000000
  -V(xc)+E(xc)   XCENC  =     -1694.04860647
  PAW double counting   =     46179.01703371   -42651.49940709
  entropy T*S    EENTRO =        -0.07753496
  eigenvalues    EBANDS =     -2981.30100432
  atomic energy  EATOM  =     45086.50549395
  Solvation  Ediel_sol  =         0.00000000
  ---------------------------------------------------
  free energy    TOTEN  =      -175.30484534 eV

  energy without entropy =     -175.22731038  energy(sigma->0) =     -175.28546160


--------------------------------------------------------------------------------------------------------




--------------------------------------- Iteration      1(  22)  ---------------------------------------


    POTLOK:  cpu time   13.7283: real time   13.7339
    SETDIJ:  cpu time    0.1224: real time    0.1224
    EDDIAG:  cpu time   70.4802: real time   70.4871
  RMM-DIIS:  cpu time  182.3267: real time  182.3339
    ORTHCH:  cpu time   13.8398: real time   13.8411
       DOS:  cpu time    0.0015: real time    0.0015
    CHARGE:  cpu time   26.5252: real time   26.5258
    MIXING:  cpu time    1.2776: real time    1.2777
    --------------------------------------------
      LOOP:  cpu time  308.3017: real time  308.3233

 eigenvalue-minimisations  :   698
 total energy-change (2. order) : 0.4145046E-01  (-0.1992071E-01)
 number of electron     559.9999855 magnetization 
 augmentation part      241.0613286 magnetization 

 Broyden mixing:
  rms(total) = 0.76654E+00    rms(broyden)= 0.76641E+00
  rms(prec ) = 0.88685E+00
  weight for this iteration     100.00

 eigenvalues of (default mixing * dielectric matrix)
  average eigenvalue GAMMA=   0.3394
  2.0896  1.3112  0.6166  0.3034  0.3034  0.1617  0.1343  0.1343  0.1168  0.0888
  0.0888  0.0895  0.0895  0.0746  0.0508  0.0579  0.0579

 Free energy of the ion-electron system (eV)
  ---------------------------------------------------
  alpha Z        PSCENC =        75.25431677
  Ewald energy   TEWEN  =    137807.32852750
  -Hartree energ DENC   =   -182009.93039505
  -exchange      EXHF   =         0.00000000
  -V(xc)+E(xc)   XCENC  =     -1693.91005206
  PAW double counting   =     46177.50538456   -42649.44733455
  entropy T*S    EENTRO =        -0.08763206
  eigenvalues    EBANDS =     -2968.48170395
  atomic energy  EATOM  =     45086.50549395
  Solvation  Ediel_sol  =         0.00000000
  ---------------------------------------------------
  free energy    TOTEN  =      -175.26339488 eV

  energy without entropy =     -175.17576282  energy(sigma->0) =     -175.24148687


--------------------------------------------------------------------------------------------------------




--------------------------------------- Iteration      1(  23)  ---------------------------------------


    POTLOK:  cpu time   13.6902: real time   13.6946
    SETDIJ:  cpu time    0.1177: real time    0.1177
    EDDIAG:  cpu time   70.0448: real time   70.0488
  RMM-DIIS:  cpu time  182.1873: real time  182.1950
    ORTHCH:  cpu time   13.7176: real time   13.7177
       DOS:  cpu time    0.0015: real time    0.0015
    CHARGE:  cpu time   26.2181: real time   26.2183
    MIXING:  cpu time    1.2617: real time    1.2617
    --------------------------------------------
      LOOP:  cpu time  307.2390: real time  307.2552

 eigenvalue-minimisations  :   698
 total energy-change (2. order) : 0.2065289E+00  (-0.1498706E-01)
 number of electron     559.9999858 magnetization 
 augmentation part      241.1521643 magnetization 

 Broyden mixing:
  rms(total) = 0.50252E+00    rms(broyden)= 0.50237E+00
  rms(prec ) = 0.56464E+00
  weight for this iteration     100.00

 eigenvalues of (default mixing * dielectric matrix)
  average eigenvalue GAMMA=   0.3403
  2.1282  1.3809  0.6886  0.3117  0.3117  0.1999  0.1392  0.1392  0.1145  0.1145
[...]
 -0.007  -0.012   0.004   0.005   0.005  -0.006  -0.011   0.004
 -0.011  -0.020   0.006   0.008   0.009  -0.011  -0.019   0.006
 -0.015  -0.005   0.013   0.000   0.022  -0.014  -0.005   0.012
  0.000  -0.023  -0.006  -0.015  -0.000   0.000  -0.022  -0.006
 -0.022   0.000   0.009  -0.005  -0.016  -0.022   0.000   0.008
 -0.018  -0.006   0.015   0.000   0.027  -0.017  -0.006   0.015
  0.000  -0.028  -0.007  -0.018   0.000   0.000  -0.027  -0.007
 -0.027   0.000   0.010  -0.006  -0.019  -0.026   0.000   0.010
 total augmentation occupancy for first ion, spin component:           1
  1.544  -0.034   0.004   0.021   0.021   0.074  -0.006  -0.002   0.035  -0.010   0.093  -0.032   0.012   0.003   0.002  -0.019
 -0.034   1.398   0.031   0.069   0.005  -0.005   0.070   0.010  -0.014  -0.008   0.209  -0.063   0.020   0.001   0.003  -0.006
  0.004   0.031   1.546  -0.000   0.005  -0.002   0.012   0.073  -0.012   0.017  -0.053   0.018  -0.003  -0.007  -0.005   0.016
  0.021   0.069  -0.000   1.342   0.043   0.033  -0.013  -0.012   0.090  -0.023  -0.082   0.023  -0.001  -0.008  -0.004   0.001
  0.021   0.005   0.005   0.043   1.436  -0.011  -0.009   0.016  -0.022   0.068  -0.092   0.030  -0.003  -0.010  -0.009   0.026
  0.074  -0.005  -0.002   0.033  -0.011   0.217   0.018  -0.002  -0.045   0.004  -0.047   0.001   0.017  -0.010   0.035  -0.004
 -0.006   0.070   0.012  -0.013  -0.009   0.018   0.262  -0.023  -0.004   0.006  -0.109   0.008  -0.001   0.052  -0.010  -0.000
 -0.002   0.010   0.073  -0.012   0.016  -0.002  -0.023   0.214   0.013  -0.019   0.027  -0.001  -0.012   0.009  -0.018   0.003
  0.035  -0.014  -0.012   0.090  -0.022  -0.045  -0.004   0.013   0.260   0.007   0.043  -0.003  -0.009   0.036   0.005   0.000
 -0.010  -0.008   0.017  -0.023   0.068   0.004   0.006  -0.019   0.007   0.257   0.046  -0.003  -0.038   0.002   0.049   0.007
  0.093   0.209  -0.053  -0.082  -0.092  -0.047  -0.109   0.027   0.043   0.046   0.945  -0.140   0.084   0.014   0.064  -0.013
 -0.032  -0.063   0.018   0.023   0.030   0.001   0.008  -0.001  -0.003  -0.003  -0.140   0.023  -0.014  -0.003  -0.010   0.003
  0.012   0.020  -0.003  -0.001  -0.003   0.017  -0.001  -0.012  -0.009  -0.038   0.084  -0.014   0.029  -0.008  -0.004  -0.003
  0.003   0.001  -0.007  -0.008  -0.010  -0.010   0.052   0.009   0.036   0.002   0.014  -0.003  -0.008   0.036   0.004   0.000
  0.002   0.003  -0.005  -0.004  -0.009   0.035  -0.010  -0.018   0.005   0.049   0.064  -0.010  -0.004   0.004   0.035  -0.000
 -0.019  -0.006   0.016   0.001   0.026  -0.004  -0.000   0.003   0.000   0.007  -0.013   0.003  -0.003   0.000  -0.000   0.001
  0.001  -0.028  -0.007  -0.018   0.001   0.001  -0.008  -0.001  -0.006  -0.000  -0.003   0.001   0.000  -0.003  -0.000   0.000
 -0.028   0.001   0.012  -0.005  -0.020  -0.006   0.001   0.003  -0.001  -0.007  -0.008   0.001  -0.000  -0.000  -0.003   0.000


------------------------ aborting loop because EDIFF is reached ----------------------------------------


    CHARGE:  cpu time   25.6902: real time   25.6902
    FORLOC:  cpu time    6.7650: real time    6.7650
    FORNL :  cpu time   66.2424: real time   66.2444
    STRESS:  cpu time  202.0026: real time  202.0039
    FORCOR:  cpu time   22.1061: real time   22.1060
    FORHAR:  cpu time    9.8713: real time    9.8713
    MIXING:  cpu time    3.6357: real time    3.6357
    OFIELD:  cpu time    0.0000: real time    0.0000

  FORCE on cell =-STRESS in cart. coord.  units (eV):
  Direction    XX          YY          ZZ          XY          YZ          ZX
  --------------------------------------------------------------------------------------
  Alpha Z    75.25432    75.25432    75.25432
  Ewald   48020.76552 44617.46482 45168.99261  1329.18661  -938.53210 -1648.11679
  Hartree 62684.87159 59479.46473 60001.26358  1198.73323  -835.42327 -1498.01357
  E(xc)   -2903.68714 -2904.81106 -2904.61211     1.00497    -0.82128    -1.09916
  Local  ************************************ -2512.93597  1762.94364  3128.48045
  n-local  -885.45510  -881.59699  -883.11407    -2.31336     2.63461     2.38926
  augment  4102.47217  4104.45588  4104.22941    -2.32325     1.57686     2.52263
  Kinetic  7795.24788  7808.47080  7805.61018   -11.42191     8.44145    13.53020
  Fock        0.00000     0.00000     0.00000     0.00000     0.00000     0.00000
  -------------------------------------------------------------------------------------
  Total    -112.30464  -114.42164  -114.24670    -0.06967     0.81992    -0.30699
  in kB      -6.66415    -6.78977    -6.77939    -0.00413     0.04865    -0.01822
  external pressure =       -6.74 kB  Pullay stress =        0.00 kB


 VOLUME and BASIS-vectors are now :
 -----------------------------------------------------------------------------
  energy-cutoff  :      400.00
  volume of cell :    27000.00
      direct lattice vectors                 reciprocal lattice vectors
    30.000000000  0.000000000  0.000000000     0.033333333  0.000000000  0.000000000
     0.000000000 30.000000000  0.000000000     0.000000000  0.033333333  0.000000000
     0.000000000  0.000000000 30.000000000     0.000000000  0.000000000  0.033333333

  length of vectors
    30.000000000 30.000000000 30.000000000     0.033333333  0.033333333  0.033333333


 FORCES acting on ions
    electron-ion (+dipol)            ewald-force                    non-local-force                 convergence-correction
 -----------------------------------------------------------------------------------------------
   0.383E+03 0.974E+03 0.429E+03   -.381E+03 -.972E+03 -.428E+03   -.150E+01 -.182E+01 -.222E+00   -.499E-02 0.496E-02 0.621E-03
   -.973E+03 -.396E+03 0.418E+03   0.970E+03 0.393E+03 -.418E+03   0.183E+01 0.151E+01 -.219E+00   0.243E-02 0.993E-02 -.183E-02
   -.401E+03 0.972E+03 0.422E+03   0.399E+03 -.969E+03 -.421E+03   0.150E+01 -.181E+01 -.199E+00   -.742E-02 -.415E-02 -.600E-02
   0.966E+03 -.405E+03 0.431E+03   -.963E+03 0.403E+03 -.431E+03   -.182E+01 0.151E+01 -.253E+00   0.879E-02 -.182E-02 0.209E-02
   -.583E+01 0.586E+03 0.970E+03   0.585E+01 -.585E+03 -.967E+03   -.530E-02 -.297E+00 -.234E+01   -.667E-02 0.623E-02 -.806E-03
   -.280E+02 0.588E+03 -.967E+03   0.280E+02 -.587E+03 0.963E+03   0.401E-01 -.330E+00 0.238E+01   -.153E-01 0.170E-02 0.246E-02
   -.130E+02 0.114E+04 0.792E+01   0.130E+02 -.113E+04 -.791E+01   -.917E-02 -.310E+01 -.285E-02   -.651E-02 -.267E-02 -.322E-02
   0.113E+04 -.326E+02 0.434E+02   -.113E+04 0.327E+02 -.435E+02   -.317E+01 -.605E-01 0.564E-01   0.936E-02 -.259E-03 -.292E-02
   -.113E+04 -.152E+01 0.198E+01   0.113E+04 0.151E+01 -.198E+01   0.311E+01 -.262E-03 -.432E-03   0.882E-02 0.565E-02 0.289E-02
   -.396E+01 -.114E+04 0.251E+01   0.397E+01 0.113E+04 -.251E+01   0.607E-03 0.311E+01 0.512E-02   -.600E-02 -.312E-02 -.825E-02
   -.581E+03 0.578E+03 0.815E+03   0.579E+03 -.575E+03 -.812E+03   0.157E+01 -.155E+01 -.220E+01   -.600E-02 -.627E-02 -.674E-02
   -.588E+03 0.578E+03 -.812E+03   0.586E+03 -.575E+03 0.809E+03   0.153E+01 -.155E+01 0.219E+01   0.527E-03 -.242E-02 0.858E-02
   0.574E+03 -.583E+03 0.818E+03   -.572E+03 0.580E+03 -.815E+03   -.157E+01 0.155E+01 -.219E+01   0.316E-02 -.587E-02 0.875E-02
   0.565E+03 -.599E+03 -.814E+03   -.563E+03 0.597E+03 0.811E+03   -.157E+01 0.159E+01 0.219E+01   -.543E-02 -.267E-02 -.457E-02
   0.572E+03 0.578E+03 0.824E+03   -.570E+03 -.576E+03 -.821E+03   -.156E+01 -.156E+01 -.220E+01   -.119E-02 0.897E-02 0.406E-02
   0.470E+03 0.589E+03 -.835E+03   -.468E+03 -.587E+03 0.832E+03   -.142E+01 -.134E+01 0.189E+01   -.577E-02 0.567E-02 -.526E-02
   -.580E+03 -.580E+03 0.814E+03   0.578E+03 0.577E+03 -.811E+03   0.155E+01 0.156E+01 -.220E+01   -.983E-02 0.921E-02 -.122E-02
   -.583E+03 -.582E+03 -.812E+03   0.581E+03 0.579E+03 0.809E+03   0.155E+01 0.156E+01 0.220E+01   0.546E-02 0.226E-02 0.295E-02
   0.357E+03 0.985E+03 -.405E+03   -.355E+03 -.982E+03 0.404E+03   -.156E+01 -.183E+01 0.247E+00   -.128E-01 0.682E-02 0.403E-03
   -.974E+03 -.396E+03 -.415E+03   0.971E+03 0.394E+03 0.414E+03   0.182E+01 0.151E+01 0.205E+00   0.566E-02 0.685E-02 0.415E-02
   -.328E+03 0.319E+03 0.459E+03   0.329E+03 -.320E+03 -.459E+03   -.372E+00 0.368E+00 0.529E+00   -.203E-01 0.242E-02 -.853E-02
   0.963E+03 0.388E+03 0.442E+03   -.960E+03 -.385E+03 -.442E+03   -.183E+01 -.151E+01 -.238E+00   0.439E-02 0.101E-01 0.523E-02
   -.397E+03 -.974E+03 0.419E+03   0.395E+03 0.971E+03 -.418E+03   0.152E+01 0.182E+01 -.234E+00   -.105E-01 0.130E-02 -.503E-02
   -.409E+03 0.974E+03 -.413E+03   0.406E+03 -.971E+03 0.412E+03   0.153E+01 -.182E+01 0.222E+00   -.793E-02 -.621E-02 0.223E-02
   0.954E+03 -.440E+03 -.400E+03   -.951E+03 0.438E+03 0.400E+03   -.194E+01 0.144E+01 0.297E+00   0.234E-02 -.800E-02 -.885E-02
   -.973E+03 0.393E+03 0.419E+03   0.970E+03 -.391E+03 -.418E+03   0.182E+01 -.150E+01 -.229E+00   0.504E-02 -.120E-02 -.455E-02
   0.390E+03 -.976E+03 0.420E+03   -.387E+03 0.973E+03 -.420E+03   -.151E+01 0.182E+01 -.215E+00   -.245E-02 -.925E-02 -.273E-02
   0.309E+03 0.317E+03 0.467E+03   -.309E+03 -.318E+03 -.468E+03   0.380E+00 0.371E+00 0.495E+00   -.107E-01 0.133E-01 -.566E-03
   -.179E+02 0.639E+03 0.108E+02   0.178E+02 -.640E+03 -.108E+02   0.454E-01 0.722E+00 -.274E-01   -.197E-01 0.366E-02 -.397E-02
   -.589E+03 -.141E+01 0.967E+03   0.588E+03 0.141E+01 -.963E+03   0.315E+00 -.264E-02 -.235E+01   -.106E-01 0.421E-02 -.645E-02
   -.594E+03 -.314E+01 -.964E+03   0.593E+03 0.313E+01 0.961E+03   0.284E+00 -.186E-02 0.235E+01   0.199E-02 0.523E-02 0.559E-02
   0.581E+03 -.408E+01 0.974E+03   -.580E+03 0.406E+01 -.970E+03   -.312E+00 0.633E-02 -.235E+01   0.352E-02 0.793E-02 0.962E-02
   0.537E+03 -.451E+02 -.975E+03   -.536E+03 0.454E+02 0.972E+03   -.492E+00 -.220E+00 0.224E+01   -.420E-02 -.870E-02 -.785E-02
   0.728E+03 0.764E+03 0.390E+02   -.725E+03 -.762E+03 -.392E+02   -.127E+01 -.116E+01 0.123E+00   -.512E-02 0.118E-01 0.201E-02
   -.764E+03 -.763E+03 0.236E+01   0.762E+03 0.761E+03 -.235E+01   0.116E+01 0.114E+01 -.689E-02   -.335E-02 0.730E-02 -.409E-02
   -.767E+03 0.760E+03 0.379E+01   0.765E+03 -.758E+03 -.379E+01   0.113E+01 -.115E+01 0.581E-02   -.292E-02 -.589E-02 -.358E-02
   0.752E+03 -.774E+03 0.915E+01   -.750E+03 0.772E+03 -.911E+01   -.111E+01 0.117E+01 -.212E-01   -.396E-04 -.680E-02 -.103E-01
   -.501E+01 -.239E+01 0.107E+04   0.502E+01 0.239E+01 -.107E+04   0.337E-02 -.474E-02 -.161E+01   -.167E-01 0.662E-02 0.178E-02
   -.212E+02 -.962E+01 -.107E+04   0.211E+02 0.961E+01 0.107E+04   0.348E-01 0.179E-01 0.164E+01   -.124E-01 -.294E-02 -.209E-03
   0.836E+03 0.274E+03 -.287E+03   -.838E+03 -.276E+03 0.290E+03   0.170E+01 0.138E+01 -.236E+01   0.593E-02 0.953E-03 -.461E-02
   -.399E+03 -.976E+03 -.414E+03   0.397E+03 0.973E+03 0.414E+03   0.149E+01 0.182E+01 0.230E+00   -.389E-02 0.420E-02 -.405E-02
   -.336E+03 0.318E+03 -.449E+03   0.336E+03 -.318E+03 0.450E+03   -.367E+00 0.384E+00 -.527E+00   -.146E-01 0.306E-02 0.321E-02
   0.313E+03 -.327E+03 0.462E+03   -.313E+03 0.328E+03 -.462E+03   0.336E+00 -.383E+00 0.563E+00   -.106E-01 0.321E-03 -.404E-02
   0.277E+03 0.310E+03 -.439E+03   -.278E+03 -.310E+03 0.440E+03   0.250E+00 0.282E+00 -.429E+00   -.196E-01 0.266E-02 -.302E-02
   -.976E+03 0.392E+03 -.414E+03   0.973E+03 -.390E+03 0.414E+03   0.183E+01 -.150E+01 0.210E+00   0.775E-02 0.429E-02 0.597E-02
   0.387E+03 -.980E+03 -.413E+03   -.384E+03 0.978E+03 0.413E+03   -.150E+01 0.181E+01 0.226E+00   -.851E-02 0.406E-03 -.887E-02
   -.326E+03 -.324E+03 0.457E+03   0.327E+03 0.324E+03 -.458E+03   -.364E+00 -.350E+00 0.515E+00   -.215E-01 0.949E-02 -.713E-02
   0.617E+03 -.192E+02 0.256E+02   -.618E+03 0.190E+02 -.252E+02   0.889E+00 0.123E+00 -.257E+00   -.384E-02 0.634E-03 -.563E-02
   -.644E+03 -.260E+01 0.339E+01   0.645E+03 0.259E+01 -.341E+01   -.733E+00 0.139E-02 0.155E-01   -.327E-02 0.887E-02 -.280E-03
   -.357E+01 -.589E+03 0.968E+03   0.355E+01 0.588E+03 -.964E+03   0.243E-01 0.319E+00 -.235E+01   -.108E-01 -.213E-02 0.586E-02
   -.994E+01 -.595E+03 -.965E+03   0.995E+01 0.594E+03 0.961E+03   0.763E-03 0.317E+00 0.233E+01   -.538E-02 0.813E-03 -.912E-03
   -.144E+02 -.661E+01 0.877E+01   0.144E+02 0.660E+01 -.874E+01   0.111E-01 0.666E-02 -.897E-02   -.247E-01 0.459E-02 -.757E-02
   0.302E+03 -.338E+03 -.447E+03   -.302E+03 0.339E+03 0.447E+03   0.408E+00 -.331E+00 -.535E+00   -.128E-01 -.587E-02 -.105E-01
   -.331E+03 -.327E+03 -.450E+03   0.331E+03 0.327E+03 0.451E+03   -.381E+00 -.378E+00 -.516E+00   -.597E-02 0.344E-02 -.116E-02
   -.766E+01 -.645E+03 0.474E+01   0.770E+01 0.646E+03 -.475E+01   -.214E-01 -.742E+00 0.172E-01   -.155E-01 0.142E-02 -.127E-01
   0.189E+03 0.118E+03 -.107E+03   -.169E+03 -.109E+03 0.948E+02   -.153E+02 -.645E+01 0.902E+01   0.430E-02 0.213E-02 -.259E-02
   0.590E+03 0.282E+03 -.340E+03   -.642E+03 -.305E+03 0.371E+03   0.493E+02 0.216E+02 -.289E+02   0.445E-02 0.174E-02 -.252E-02
 -----------------------------------------------------------------------------------------------
   -.370E+02 -.182E+02 0.229E+02   0.136E-11 -.682E-12 -.159E-11   0.373E+02 0.181E+02 -.228E+02   -.292E+00 0.105E+00 -.105E+00
 
 
 POSITION                                       TOTAL-FORCE (eV/Angst)
 -----------------------------------------------------------------------------------
     13.37281      9.84801     12.50759         0.713392      1.111760      0.286014
     20.15199     16.62719     12.50759        -1.106517     -0.707514      0.291265
     16.62719      9.84801     12.50759        -0.707407      1.110088      0.284703
      9.84801     16.62719     12.50759         1.101998     -0.706285      0.298500
     15.00000     11.47521     10.20639         0.002744      0.410566      1.282653
     15.00000     11.47521     19.79360         0.007695      0.397927     -1.278269
     15.00000      8.28283     15.00000         0.001623      1.519633     -0.000526
      8.28283     15.00000     15.00000         1.532489      0.015479     -0.018290
     21.71717     15.00000     15.00000        -1.517987     -0.001922      0.003111
     15.00000     21.71717     15.00000        -0.000564     -1.517751     -0.002377
     18.35858     11.64142     10.25025        -0.760507      0.750905      1.072241
     18.35858     11.64142     19.74975        -0.738949      0.766195     -1.072117
     11.64142     18.35858     10.25025         0.768645     -0.752429      1.072675
     11.64142     18.35858     19.74975         0.758753     -0.786435     -1.064271
     11.64142     11.64142     10.25025         0.758795      0.756401      1.072674
     11.64142     11.64142     19.74975         0.593760      0.748315     -1.075180
     18.35858     18.35858     10.25025        -0.755526     -0.755765      1.068539
     18.35858     18.35858     19.74975        -0.754618     -0.760680     -1.073925
     13.37281      9.84801     17.49241         0.741701      1.088897     -0.299016
     20.15199     16.62719     17.49241        -1.109930     -0.704821     -0.285430
     16.73751     13.26249     12.54279         0.107267     -0.109836     -0.159034
      9.84801     13.37281     12.50759         1.113179      0.709307      0.286843
     16.62719     20.15199     12.50759        -0.711492     -1.105519      0.301255
     16.62719      9.84801     17.49241        -0.719605      1.105552     -0.286947
      9.84801     16.62719     17.49241         1.141749     -0.640615     -0.337995
     20.15199     13.37281     12.50759        -1.105386      0.703911      0.290189
     13.37281     20.15199     12.50759         0.706645     -1.103996      0.283292
     13.26249     13.26249     12.54279        -0.117852     -0.111804     -0.154851
     15.00000     11.52498     15.00000         0.001554     -0.229421      0.003540
     18.52479     15.00000     10.20639        -0.414561     -0.001772      1.282488
     18.52479     15.00000     19.79360        -0.407897     -0.002013     -1.286435
     11.47521     15.00000     10.20640         0.413316     -0.002004      1.283334
     11.47521     15.00000     19.79360         0.465173      0.097653     -1.231983
     11.49535     11.49535     15.00000         0.865695      0.805893     -0.053561
     18.50465     18.50465     15.00000        -0.830292     -0.827695      0.002441
     18.50465     11.49535     15.00000        -0.824650      0.829414     -0.002803
     11.49535     18.50465     15.00000         0.818963     -0.841308      0.015429
     15.00000     15.00000     10.04368        -0.000061     -0.001284      1.176236
     15.00000     15.00000     19.95633        -0.002630      0.009170     -1.177366
      9.84801     13.37281     17.49241        -0.218363     -0.515266      0.935973
     16.62719     20.15199     17.49241        -0.702295     -1.107518     -0.293374
     16.73751     13.26249     17.45721         0.130862     -0.103599      0.156330
     13.26249     16.73751     12.54279        -0.103035      0.136859     -0.182694
     13.26249     13.26249     17.45721        -0.024559     -0.094164      0.118762
     20.15199     13.37281     17.49241        -1.114036      0.702947     -0.284575
     13.37281     20.15199     17.49241         0.706224     -1.107862     -0.295019
     16.73751     16.73751     12.54279         0.114023      0.106668     -0.153420
     11.52498     15.00000     15.00000        -0.266008     -0.040966      0.082342
     18.47502     15.00000     15.00000         0.229763      0.001465     -0.001234
     15.00000     18.52480     10.20639        -0.012987     -0.416073      1.280570
     15.00000     18.52480     19.79360         0.001052     -0.413534     -1.280917
     15.00000     15.00000     15.00000        -0.014329     -0.001993      0.014699
     13.26249     16.73751     17.45721        -0.117090      0.103001      0.150631
     16.73751     16.73751     17.45721         0.112421      0.109819      0.158950
     15.00000     18.47502     15.00000         0.004942      0.230748     -0.005755
      8.65349     12.18202     18.75123         4.319493      2.631605     -3.109534
      7.74643     11.77927     19.28736        -3.074781     -1.488337      1.911218
 -----------------------------------------------------------------------------------
    total drift:                                0.001628      0.001745     -0.006280


--------------------------------------------------------------------------------------------------------



  FREE ENERGIE OF THE ION-ELECTRON SYSTEM (eV)
  ---------------------------------------------------
  free  energy   TOTEN  =      -174.87331062 eV

  energy  without entropy=     -174.76689828  energy(sigma->0) =     -174.84670754
 


--------------------------------------------------------------------------------------------------------


    POTLOK:  cpu time   14.2497: real time   14.2497


--------------------------------------------------------------------------------------------------------


     LOOP+:  cpu time18471.9148: real time18472.8200
    4ORBIT:  cpu time    0.0000: real time    0.0000

 total amount of memory used by VASP MPI-rank0  5486941. kBytes
=======================================================================

   base      :      30000. kBytes
   nonlr-proj:      17126. kBytes
   fftplans  :     924480. kBytes
   grid      :    1872000. kBytes
   one-center:        886. kBytes
   wavefun   :    2642449. kBytes
 
  
  
 General timing and accounting informations for this job:
 ========================================================
  
                  Total CPU time used (sec):    18546.344
                            User time (sec):    17513.592
                          System time (sec):     1032.752
                         Elapsed time (sec):    18547.382
  
                   Maximum memory used (kb):     7178488.
                   Average memory used (kb):           0.
  
                          Minor page faults:    826182090
                          Major page faults:            0
                 Voluntary context switches:          588
