<?xml version="1.0" encoding="ISO-8859-1"?>
<modeling>
 <generator>
  <i name="program" type="string">vasp </i>
  <i name="version" type="string">5.4.4.18Apr17-6-g9f103f2a35  </i>
  <i name="subversion" type="string">(build Sep 03 2018 23:53:05) complex            parallel </i>
  <i name="platform" type="string">LinuxIFC </i>
  <i name="date" type="string">2021 11 27 </i>
  <i name="time" type="string">09:07:58 </i>
 </generator>
 <incar>
  <i type="string" name="SYSTEM"> 6_Pd100_top_free_z(O)</i>
  <i type="int" name="ISTART">     0</i>
  <i type="string" name="PREC">normal   			! encut=max(enmax), ngx,y,z</i>
  <i type="string" name="ALGO"> Fast     			! Mix RMM-DIIS and Dav</i>
  <i type="logical" name="ADDGRID"> F  </i>
  <i type="int" name="ISPIN">     1</i>
  <i type="int" name="ICHARG">     2</i>
  <i type="int" name="NELM">   100</i>
  <i type="int" name="NELMIN">     6</i>
  <i type="int" name="IBRION">     2</i>
  <i name="EDIFF">      0.00010000</i>
  <i name="EDIFFG">     -0.05000000</i>
  <i type="int" name="NSW">     0</i>
  <i type="int" name="ISIF">     2</i>
  <i type="int" name="ISYM">     2</i>
  <i name="ENCUT">    400.00000000</i>
  <i type="string" name="LREAL"> Auto     			! Auto or A projection done</i>
  <i type="int" name="ISMEAR">     2</i>
  <i name="SIGMA">      0.20000000</i>
  <i type="logical" name="LWAVE"> F  </i>
  <i type="logical" name="LCHARG"> F  </i>
  <v type="int" name="KPOINT_BSE">    -1     0     0     0</v>
  <i type="int" name="MAXMEM"> 10000</i>
  <i type="int" name="NELM">   100</i>
  <i type="string" name="GGA"> RP         			! Revised PBE</i>
 </incar>
 <structure name="primitive_cell" >
  <crystal>
   <varray name="basis" >
    <v>      30.00000000       0.00000000       0.00000000 </v>
    <v>       0.00000000      30.00000000       0.00000000 </v>
    <v>       0.00000000       0.00000000      30.00000000 </v>
   </varray>
   <i name="volume">  27000.00000000 </i>
   <varray name="rec_basis" >
    <v>       0.03333333       0.00000000       0.00000000 </v>
    <v>       0.00000000       0.03333333       0.00000000 </v>
    <v>       0.00000000       0.00000000       0.03333333 </v>
   </varray>
  </crystal>
  <varray name="positions" >
   <v>       0.44576020       0.32826710       0.41691983 </v>
   <v>      -0.44576020       0.32826710       0.41691983 </v>
   <v>      -0.50000000       0.38250690       0.34021317 </v>
   <v>      -0.50000000       0.27609440      -0.50000000 </v>
   <v>       0.38804720       0.38804720       0.34167483 </v>
   <v>      -0.50000000       0.38416601      -0.50000000 </v>
   <v>       0.44208300       0.44208300       0.41809300 </v>
   <v>       0.38317830       0.38317830      -0.50000000 </v>
   <v>      -0.44208300       0.44208300       0.41809300 </v>
   <v>       0.44576020       0.32826710      -0.41691977 </v>
   <v>       0.32826705       0.44576024       0.41691983 </v>
   <v>      -0.38804720       0.38804720       0.34167483 </v>
   <v>      -0.38317830       0.38317830      -0.50000000 </v>
   <v>      -0.50000000      -0.50000000       0.33478917 </v>
   <v>      -0.50000000      -0.50000000      -0.50000000 </v>
   <v>      -0.44576020       0.32826710      -0.41691977 </v>
   <v>       0.38250685      -0.49999995       0.34021317 </v>
   <v>       0.44208300       0.44208300      -0.41809297 </v>
   <v>       0.38416599      -0.49999998      -0.50000000 </v>
   <v>      -0.44208300       0.44208300      -0.41809297 </v>
   <v>       0.44208298      -0.44208298       0.41809300 </v>
   <v>       0.32826705       0.44576024      -0.41691977 </v>
   <v>      -0.50000000       0.38250690      -0.34021320 </v>
   <v>       0.32826712      -0.44576022       0.41691983 </v>
   <v>      -0.38250685      -0.49999995       0.34021317 </v>
   <v>      -0.32826705       0.44576024       0.41691983 </v>
   <v>       0.27609443       0.49999998      -0.50000000 </v>
   <v>       0.38804720       0.38804720      -0.34167487 </v>
   <v>      -0.38416599      -0.49999998      -0.50000000 </v>
   <v>      -0.44208298      -0.44208298       0.41809300 </v>
   <v>       0.28844953       0.40606727      -0.37495917 </v>
   <v>       0.44208298      -0.44208298      -0.41809297 </v>
   <v>      -0.38804720       0.38804720      -0.34167487 </v>
   <v>       0.38804722      -0.38804722       0.34167483 </v>
   <v>       0.25821447       0.39264230      -0.35708817 </v>
   <v>       0.38250685      -0.49999995      -0.34021320 </v>
   <v>       0.32826712      -0.44576022      -0.41691977 </v>
   <v>      -0.32826705       0.44576024      -0.41691977 </v>
   <v>       0.50000000      -0.38250681       0.34021317 </v>
   <v>      -0.50000000      -0.38416596      -0.50000000 </v>
   <v>      -0.44208298      -0.44208298      -0.41809297 </v>
   <v>      -0.50000000      -0.50000000      -0.33478913 </v>
   <v>       0.38317828      -0.38317828      -0.50000000 </v>
   <v>      -0.32826712      -0.44576022       0.41691983 </v>
   <v>      -0.27609443       0.49999998      -0.50000000 </v>
   <v>      -0.38804722      -0.38804722       0.34167483 </v>
   <v>      -0.38250685      -0.49999995      -0.34021320 </v>
   <v>       0.44576027      -0.32826707       0.41691983 </v>
   <v>      -0.38317828      -0.38317828      -0.50000000 </v>
   <v>      -0.32826712      -0.44576022      -0.41691977 </v>
   <v>      -0.44576027      -0.32826707       0.41691983 </v>
   <v>       0.38804722      -0.38804722      -0.34167487 </v>
   <v>      -0.50000000      -0.38250681      -0.34021320 </v>
   <v>       0.44576027      -0.32826707      -0.41691977 </v>
   <v>      -0.44576027      -0.32826707      -0.41691977 </v>
   <v>      -0.50000000      -0.27609445       0.50000000 </v>
   <v>      -0.38804722      -0.38804722      -0.34167487 </v>
  </varray>
 </structure>
 <varray name="primitive_index" >
  <v type="int" >        1 </v>
  <v type="int" >        3 </v>
  <v type="int" >        5 </v>
  <v type="int" >        7 </v>
  <v type="int" >       15 </v>
  <v type="int" >       29 </v>
  <v type="int" >       28 </v>
  <v type="int" >       34 </v>
  <v type="int" >       21 </v>
  <v type="int" >       19 </v>
  <v type="int" >       22 </v>
  <v type="int" >       11 </v>
  <v type="int" >       36 </v>
  <v type="int" >       38 </v>
  <v type="int" >       52 </v>
  <v type="int" >       24 </v>
  <v type="int" >       32 </v>
  <v type="int" >       44 </v>
  <v type="int" >       48 </v>
  <v type="int" >       42 </v>
  <v type="int" >       43 </v>
  <v type="int" >       40 </v>
  <v type="int" >        6 </v>
  <v type="int" >        4 </v>
  <v type="int" >       30 </v>
  <v type="int" >       26 </v>
  <v type="int" >        8 </v>
  <v type="int" >       16 </v>
  <v type="int" >       49 </v>
  <v type="int" >       47 </v>
  <v type="int" >       56 </v>
  <v type="int" >       53 </v>
  <v type="int" >       12 </v>
  <v type="int" >       13 </v>
  <v type="int" >       57 </v>
  <v type="int" >       33 </v>
  <v type="int" >       25 </v>
  <v type="int" >       45 </v>
  <v type="int" >       50 </v>
  <v type="int" >       55 </v>
  <v type="int" >       54 </v>
  <v type="int" >       39 </v>
  <v type="int" >       37 </v>
  <v type="int" >        2 </v>
  <v type="int" >        9 </v>
  <v type="int" >       17 </v>
  <v type="int" >       31 </v>
  <v type="int" >       27 </v>
  <v type="int" >       35 </v>
  <v type="int" >       20 </v>
  <v type="int" >       23 </v>
  <v type="int" >       14 </v>
  <v type="int" >       51 </v>
  <v type="int" >       46 </v>
  <v type="int" >       41 </v>
  <v type="int" >       10 </v>
  <v type="int" >       18 </v>
 </varray>
 <kpoints>
  <generation param="Monkhorst-Pack">
   <v type="int" name="divisions">       1        1        1 </v>
   <v name="usershift">      0.00000000       0.00000000       0.00000000 </v>
   <v name="genvec1">      1.00000000       0.00000000       0.00000000 </v>
   <v name="genvec2">      0.00000000       1.00000000       0.00000000 </v>
   <v name="genvec3">      0.00000000       0.00000000       1.00000000 </v>
   <v name="shift">      0.00000000       0.00000000       0.00000000 </v>
  </generation>
  <varray name="kpointlist" >
   <v>       0.00000000       0.00000000       0.00000000 </v>
  </varray>
  <varray name="weights" >
   <v>       1.00000000 </v>
  </varray>
 </kpoints>
 <parameters>
  <separator name="general" >
   <i type="string" name="SYSTEM">6_Pd100_top_free_z(O)</i>
   <i type="logical" name="LCOMPAT"> F  </i>
  </separator>
  <separator name="electronic" >
   <i type="string" name="PREC">normal</i>
   <i name="ENMAX">    400.00000000</i>
   <i name="ENAUG">    644.87300000</i>
   <i name="EDIFF">      0.00010000</i>
   <i type="int" name="IALGO">    68</i>
   <i type="int" name="IWAVPR">    10</i>
   <i type="int" name="NBANDS">   336</i>
   <i name="NELECT">    560.00000000</i>
   <i type="int" name="TURBO">     0</i>
   <i type="int" name="IRESTART">     0</i>
   <i type="int" name="NREBOOT">     0</i>
   <i type="int" name="NMIN">     0</i>
   <i name="EREF">      0.00000000</i>
   <separator name="electronic smearing" >
    <i type="int" name="ISMEAR">     2</i>
    <i name="SIGMA">      0.20000000</i>
    <i name="KSPACING">      0.50000000</i>
    <i type="logical" name="KGAMMA"> T  </i>
   </separator>
   <separator name="electronic projectors" >
    <i type="logical" name="LREAL"> T  </i>
    <v name="ROPT">     -0.00050000     -0.00050000     -0.00050000</v>
    <i type="int" name="LMAXPAW">  -100</i>
    <i type="int" name="LMAXMIX">     2</i>
    <i type="logical" name="NLSPLINE"> F  </i>
   </separator>
   <separator name="electronic startup" >
    <i type="int" name="ISTART">     0</i>
    <i type="int" name="ICHARG">     2</i>
    <i type="int" name="INIWAV">     1</i>
   </separator>
   <separator name="electronic spin" >
    <i type="int" name="ISPIN">     1</i>
    <i type="logical" name="LNONCOLLINEAR"> F  </i>
    <v name="MAGMOM">      1.00000000      1.00000000      1.00000000      1.00000000      1.00000000      1.00000000      1.00000000      1.00000000      1.00000000      1.00000000      1.00000000      1.00000000      1.00000000      1.00000000      1.00000000      1.00000000      1.00000000      1.00000000      1.00000000      1.00000000
      1.00000000      1.00000000      1.00000000      1.00000000      1.00000000      1.00000000      1.00000000      1.00000000      1.00000000      1.00000000      1.00000000      1.00000000      1.00000000      1.00000000      1.00000000      1.00000000      1.00000000      1.00000000      1.00000000      1.00000000
      1.00000000      1.00000000      1.00000000      1.00000000      1.00000000      1.00000000      1.00000000      1.00000000      1.00000000      1.00000000      1.00000000      1.00000000      1.00000000      1.00000000      1.00000000      1.00000000      1.00000000</v>
    <i name="NUPDOWN">     -1.00000000</i>
    <i type="logical" name="LSORBIT"> F  </i>
    <v name="SAXIS">      0.00000000      0.00000000      1.00000000</v>
    <i type="logical" name="LSPIRAL"> F  </i>
    <v name="QSPIRAL">      0.00000000      0.00000000      0.00000000</v>
    <i type="logical" name="LZEROZ"> F  </i>
   </separator>
   <separator name="electronic exchange-correlation" >
    <i type="logical" name="LASPH"> F  </i>
    <i type="logical" name="LMETAGGA"> F  </i>
   </separator>
   <separator name="electronic convergence" >
    <i type="int" name="NELM">   100</i>
    <i type="int" name="NELMDL">    -5</i>
    <i type="int" name="NELMIN">     6</i>
    <i name="ENINI">    400.00000000</i>
    <separator name="electronic convergence detail" >
     <i type="logical" name="LDIAG"> T  </i>
     <i type="logical" name="LSUBROT"> F  </i>
     <i name="WEIMIN">      0.00000000</i>
     <i name="EBREAK">      0.00000007</i>
     <i name="DEPER">      0.30000000</i>
     <i type="int" name="NRMM">     4</i>
     <i name="TIME">      0.40000000</i>
    </separator>
   </separator>
   <separator name="electronic mixer" >
    <i name="AMIX">      0.40000000</i>
    <i name="BMIX">      1.00000000</i>
    <i name="AMIN">      0.10000000</i>
    <i name="AMIX_MAG">      1.60000000</i>
    <i name="BMIX_MAG">      1.00000000</i>
    <separator name="electronic mixer details" >
     <i type="int" name="IMIX">     4</i>
     <i type="logical" name="MIXFIRST"> F  </i>
     <i type="int" name="MAXMIX">   -45</i>
     <i name="WC">    100.00000000</i>
     <i type="int" name="INIMIX">     1</i>
     <i type="int" name="MIXPRE">     1</i>
     <i type="int" name="MREMOVE">     5</i>
    </separator>
   </separator>
   <separator name="electronic dipolcorrection" >
    <i type="logical" name="LDIPOL"> F  </i>
    <i type="logical" name="LMONO"> F  </i>
    <i type="int" name="IDIPOL">     0</i>
    <i name="EPSILON">      1.00000000</i>
    <v name="DIPOL">   -100.00000000   -100.00000000   -100.00000000</v>
    <i name="EFIELD">      0.00000000</i>
   </separator>
  </separator>
  <separator name="grids" >
   <i type="int" name="NGX">   150</i>
   <i type="int" name="NGY">   150</i>
   <i type="int" name="NGZ">   150</i>
   <i type="int" name="NGXF">   300</i>
   <i type="int" name="NGYF">   300</i>
   <i type="int" name="NGZF">   300</i>
   <i type="logical" name="ADDGRID"> F  </i>
  </separator>
  <separator name="ionic" >
   <i type="int" name="NSW">     0</i>
   <i type="int" name="IBRION">    -1</i>
   <i type="int" name="MDALGO">     0</i>
   <i type="int" name="ISIF">     2</i>
   <i name="PSTRESS">      0.00000000</i>
   <i name="EDIFFG">     -0.05000000</i>
   <i type="int" name="NFREE">     1</i>
   <i name="POTIM">      0.50000000</i>
   <i name="SMASS">     -3.00000000</i>
   <i name="SCALEE">      1.00000000</i>
  </separator>
  <separator name="ionic md" >
   <i name="TEBEG">      0.00010000</i>
   <i name="TEEND">      0.00010000</i>
   <i type="int" name="NBLOCK">     1</i>
   <i type="int" name="KBLOCK">     1</i>
   <i type="int" name="NPACO">   256</i>
   <i name="APACO">     16.00000000</i>
  </separator>
  <separator name="symmetry" >
   <i type="int" name="ISYM">     2</i>
   <i name="SYMPREC">      0.00001000</i>
  </separator>
  <separator name="dos" >
   <i type="int" name="LORBIT">     0</i>
   <v name="RWIGS">     -1.00000000     -1.00000000     -1.00000000</v>
   <i type="int" name="NEDOS">   301</i>
   <i name="EMIN">     10.00000000</i>
   <i name="EMAX">    -10.00000000</i>
   <i name="EFERMI">      0.00000000</i>
  </separator>
  <separator name="writing" >
   <i type="int" name="NWRITE">     2</i>
   <i type="logical" name="LWAVE"> F  </i>
   <i type="logical" name="LDOWNSAMPLE"> F  </i>
   <i type="logical" name="LCHARG"> F  </i>
   <i type="logical" name="LPARD"> F  </i>
   <i type="logical" name="LVTOT"> F  </i>
   <i type="logical" name="LVHAR"> F  </i>
   <i type="logical" name="LELF"> F  </i>
   <i type="logical" name="LOPTICS"> F  </i>
   <v name="STM">      0.00000000      0.00000000      0.00000000      0.00000000      0.00000000      0.00000000      0.00000000</v>
  </separator>
  <separator name="performance" >
   <i type="int" name="NPAR">     1</i>
   <i type="int" name="NSIM">     4</i>
   <i type="int" name="NBLK">    -1</i>
   <i type="logical" name="LPLANE"> T  </i>
   <i type="logical" name="LSCALAPACK"> T  </i>
   <i type="logical" name="LSCAAWARE"> F  </i>
   <i type="logical" name="LSCALU"> F  </i>
   <i type="logical" name="LASYNC"> F  </i>
   <i type="logical" name="LORBITALREAL"> F  </i>
  </separator>
  <separator name="miscellaneous" >
   <i type="int" name="IDIOT">     3</i>
   <i type="int" name="ISPECIAL">     0</i>
   <i type="logical" name="LMUSIC"> F  </i>
   <v name="POMASS">    106.42000000     12.01100000     16.00000000</v>
   <v name="DARWINR">      0.00000000      0.00000000      0.00000000</v>
   <v name="DARWINV">      1.00000000      1.00000000      1.00000000</v>
   <i type="logical" name="LCORR"> T  </i>
  </separator>
  <i type="logical" name="GGA_COMPAT"> T  </i>
  <i type="logical" name="LBERRY"> F  </i>
  <i type="int" name="ICORELEVEL">     0</i>
  <i type="logical" name="LDAU"> F  </i>
  <i type="int" name="I_CONSTRAINED_M">     0</i>
  <separator name="electronic exchange-correlation" >
   <i type="string" name="GGA">RP</i>
   <i type="int" name="VOSKOWN">     0</i>
   <i type="logical" name="LHFCALC"> F  </i>
   <i type="string" name="PRECFOCK"></i>
   <i type="logical" name="LSYMGRAD"> F  </i>
   <i type="logical" name="LHFONE"> F  </i>
   <i type="logical" name="LRHFCALC"> F  </i>
   <i type="logical" name="LTHOMAS"> F  </i>
   <i type="logical" name="LMODELHF"> F  </i>
   <i name="ENCUT4O">     -1.00000000</i>
   <i type="int" name="EXXOEP">     0</i>
   <i type="int" name="FOURORBIT">     0</i>
   <i name="AEXX">      0.00000000</i>
   <i name="HFALPHA">      0.00000000</i>
   <i name="MCALPHA">      0.00000000</i>
   <i name="ALDAX">      1.00000000</i>
   <i name="AGGAX">      1.00000000</i>
   <i name="ALDAC">      1.00000000</i>
   <i name="AGGAC">      1.00000000</i>
   <i type="int" name="NKREDX">     1</i>
   <i type="int" name="NKREDY">     1</i>
   <i type="int" name="NKREDZ">     1</i>
   <i type="logical" name="SHIFTRED"> F  </i>
   <i type="logical" name="ODDONLY"> F  </i>
   <i type="logical" name="EVENONLY"> F  </i>
   <i type="int" name="LMAXFOCK">     0</i>
   <i type="int" name="NMAXFOCKAE">     0</i>
   <i type="logical" name="LFOCKAEDFT"> F  </i>
   <i name="HFSCREEN">      0.00000000</i>
   <i name="HFSCREENC">      0.00000000</i>
   <i type="int" name="NBANDSGWLOW">     0</i>
  </separator>
  <separator name="vdW DFT" >
   <i type="logical" name="LUSE_VDW"> F  </i>
   <i name="Zab_VDW">     -0.84910000</i>
   <i name="PARAM1">      0.12340000</i>
   <i name="PARAM2">      1.00000000</i>
   <i name="PARAM3">      0.00000000</i>
  </separator>
  <separator name="model GW" >
   <i type="int" name="MODEL_GW">     0</i>
   <i name="MODEL_EPS0">    284.21052632</i>
   <i name="MODEL_ALPHA">      1.00000000</i>
  </separator>
  <separator name="linear response parameters" >
   <i type="logical" name="LEPSILON"> F  </i>
   <i type="logical" name="LRPA"> F  </i>
   <i type="logical" name="LNABLA"> F  </i>
   <i type="logical" name="LVEL"> F  </i>
   <i type="int" name="KINTER">     0</i>
   <i name="CSHIFT">      0.10000000</i>
   <i name="OMEGAMAX">     -1.00000000</i>
   <i name="DEG_THRESHOLD">      0.00200000</i>
   <i name="RTIME">     -0.10000000</i>
   <i name="WPLASMAI">      0.00000000</i>
   <v name="DFIELD">      0.00000000      0.00000000      0.00000000</v>
   <v name="WPLASMA">      0.00000000      0.00000000      0.00000000      0.00000000      0.00000000      0.00000000      0.00000000      0.00000000      0.00000000</v>
  </separator>
  <separator name="orbital magnetization" >
   <i type="logical" name="NUCIND"> F  </i>
   <v name="MAGPOS">      0.00000000      0.00000000      0.00000000</v>
   <i type="logical" name="LNICSALL"> T  </i>
   <i type="logical" name="ORBITALMAG"> F  </i>
   <i type="logical" name="LMAGBLOCH"> F  </i>
   <i type="logical" name="LCHIMAG"> F  </i>
   <i type="logical" name="LGAUGE"> T  </i>
   <i type="int" name="MAGATOM">     0</i>
   <v name="MAGDIPOL">      0.00000000      0.00000000      0.00000000</v>
   <v name="AVECCONST">      0.00000000      0.00000000      0.00000000</v>
  </separator>
  <separator name="response functions" >
   <i type="logical" name="LADDER"> F  </i>
   <i type="logical" name="LRPAFORCE"> F  </i>
   <i type="logical" name="LFXC"> F  </i>
   <i type="logical" name="LHARTREE"> T  </i>
   <i type="int" name="IBSE">     0</i>
   <v type="int" name="KPOINT">    -1     0     0     0</v>
   <i type="logical" name="LTCTE"> F  </i>
   <i type="logical" name="LTETE"> F  </i>
   <i type="logical" name="LTRIPLET"> F  </i>
   <i type="logical" name="LFXCEPS"> F  </i>
   <i type="logical" name="LFXHEG"> F  </i>
   <i type="int" name="NATURALO">     2</i>
   <i type="logical" name="L2ORDER"> F  </i>
   <i type="logical" name="LMP2LT"> F  </i>
   <i type="logical" name="LUSEW"> F  </i>
   <i name="ENCUTGW">     -2.00000000</i>
   <i name="ENCUTGWSOFT">     -2.00000000</i>
   <i name="ENCUTLF">     -1.00000000</i>
   <i type="int" name="LMAXMP2">    -1</i>
   <i name="SCISSOR">      0.00000000</i>
   <i type="int" name="NOMEGA">     0</i>
   <i type="int" name="NOMEGAR">     0</i>
   <i type="int" name="NBANDSGW">    -1</i>
   <i type="int" name="NBANDSO">    -1</i>
   <i type="int" name="NBANDSV">    -1</i>
   <i type="int" name="NELM">   100</i>
   <i type="int" name="NELMHF">     1</i>
   <i type="int" name="DIM">     3</i>
   <i type="int" name="ANTIRES">     0</i>
   <i name="OMEGAMAX">    -30.00000000</i>
   <i name="OMEGAMIN">    -30.00000000</i>
   <i name="OMEGATL">   -200.00000000</i>
   <i type="int" name="OMEGAGRID">   140</i>
   <i name="CSHIFT">     -0.10000000</i>
   <i type="logical" name="SELFENERGY"> F  </i>
   <i type="logical" name="LSPECTRAL"> F  </i>
   <i type="logical" name="LSPECTRALGW"> F  </i>
   <i type="logical" name="LSINGLES"> F  </i>
   <i type="logical" name="LFERMIGW"> F  </i>
   <i type="logical" name="ODDONLYGW"> F  </i>
   <i type="logical" name="EVENONLYGW"> F  </i>
   <i type="int" name="NKREDLFX">     1</i>
   <i type="int" name="NKREDLFY">     1</i>
   <i type="int" name="NKREDLFZ">     1</i>
   <i type="int" name="MAXMEM"> 10000</i>
   <i type="int" name="TELESCOPE">     0</i>
   <i type="int" name="TAUPAR">     1</i>
   <i type="int" name="OMEGAPAR">    -1</i>
   <i name="LAMBDA">      1.00000000</i>
  </separator>
  <separator name="External order field" >
   <i name="OFIELD_KAPPA">      0.00000000</i>
   <v name="OFIELD_K">      0.00000000      0.00000000      0.00000000</v>
   <i name="OFIELD_Q6_NEAR">      0.00000000</i>
   <i name="OFIELD_Q6_FAR">      0.00000000</i>
   <i name="OFIELD_A">      0.00000000</i>
  </separator>
 </parameters>
 <atominfo>
  <atoms>      57 </atoms>
  <types>       3 </types>
  <array name="atoms" >
   <dimension dim="1">ion</dimension>
   <field type="string">element</field>
   <field type="int">atomtype</field>
   <set>
    <rc><c>Pd</c><c>   1</c></rc>
    <rc><c>Pd</c><c>   1</c></rc>
    <rc><c>Pd</c><c>   1</c></rc>
    <rc><c>Pd</c><c>   1</c></rc>
    <rc><c>Pd</c><c>   1</c></rc>
    <rc><c>Pd</c><c>   1</c></rc>
    <rc><c>Pd</c><c>   1</c></rc>
    <rc><c>Pd</c><c>   1</c></rc>
    <rc><c>Pd</c><c>   1</c></rc>
    <rc><c>Pd</c><c>   1</c></rc>
    <rc><c>Pd</c><c>   1</c></rc>
    <rc><c>Pd</c><c>   1</c></rc>
    <rc><c>Pd</c><c>   1</c></rc>
    <rc><c>Pd</c><c>   1</c></rc>
    <rc><c>Pd</c><c>   1</c></rc>
    <rc><c>Pd</c><c>   1</c></rc>
    <rc><c>Pd</c><c>   1</c></rc>
    <rc><c>Pd</c><c>   1</c></rc>
    <rc><c>Pd</c><c>   1</c></rc>
    <rc><c>Pd</c><c>   1</c></rc>
    <rc><c>Pd</c><c>   1</c></rc>
    <rc><c>Pd</c><c>   1</c></rc>
    <rc><c>Pd</c><c>   1</c></rc>
    <rc><c>Pd</c><c>   1</c></rc>
    <rc><c>Pd</c><c>   1</c></rc>
    <rc><c>Pd</c><c>   1</c></rc>
    <rc><c>Pd</c><c>   1</c></rc>
    <rc><c>Pd</c><c>   1</c></rc>
    <rc><c>Pd</c><c>   1</c></rc>
    <rc><c>Pd</c><c>   1</c></rc>
    <rc><c>Pd</c><c>   1</c></rc>
    <rc><c>Pd</c><c>   1</c></rc>
    <rc><c>Pd</c><c>   1</c></rc>
    <rc><c>Pd</c><c>   1</c></rc>
    <rc><c>Pd</c><c>   1</c></rc>
    <rc><c>Pd</c><c>   1</c></rc>
    <rc><c>Pd</c><c>   1</c></rc>
    <rc><c>Pd</c><c>   1</c></rc>
    <rc><c>Pd</c><c>   1</c></rc>
    <rc><c>Pd</c><c>   1</c></rc>
    <rc><c>Pd</c><c>   1</c></rc>
    <rc><c>Pd</c><c>   1</c></rc>
    <rc><c>Pd</c><c>   1</c></rc>
    <rc><c>Pd</c><c>   1</c></rc>
    <rc><c>Pd</c><c>   1</c></rc>
    <rc><c>Pd</c><c>   1</c></rc>
    <rc><c>Pd</c><c>   1</c></rc>
    <rc><c>Pd</c><c>   1</c></rc>
    <rc><c>Pd</c><c>   1</c></rc>
    <rc><c>Pd</c><c>   1</c></rc>
    <rc><c>Pd</c><c>   1</c></rc>
    <rc><c>Pd</c><c>   1</c></rc>
    <rc><c>Pd</c><c>   1</c></rc>
    <rc><c>Pd</c><c>   1</c></rc>
    <rc><c>Pd</c><c>   1</c></rc>
    <rc><c>C </c><c>   2</c></rc>
    <rc><c>O </c><c>   3</c></rc>
   </set>
  </array>
  <array name="atomtypes" >
   <dimension dim="1">type</dimension>
   <field type="int">atomspertype</field>
   <field type="string">element</field>
   <field>mass</field>
   <field>valence</field>
   <field type="string">pseudopotential</field>
   <set>
    <rc><c>  55</c><c>Pd</c><c>    106.42000000</c><c>     10.00000000</c><c>  PAW_PBE Pd 04Jan2005                  </c></rc>
    <rc><c>   1</c><c>C </c><c>     12.01100000</c><c>      4.00000000</c><c>  PAW_PBE C 08Apr2002                   </c></rc>
    <rc><c>   1</c><c>O </c><c>     16.00000000</c><c>      6.00000000</c><c>  PAW_PBE O 08Apr2002                   </c></rc>
   </set>
  </array>
 </atominfo>
 <structure name="initialpos" >
  <crystal>
   <varray name="basis" >
    <v>      30.00000000       0.00000000       0.00000000 </v>
    <v>       0.00000000      30.00000000       0.00000000 </v>
    <v>       0.00000000       0.00000000      30.00000000 </v>
   </varray>
   <i name="volume">  27000.00000000 </i>
   <varray name="rec_basis" >
    <v>       0.03333333       0.00000000       0.00000000 </v>
    <v>       0.00000000       0.03333333       0.00000000 </v>
    <v>       0.00000000       0.00000000       0.03333333 </v>
   </varray>
  </crystal>
  <varray name="positions" >
   <v>       0.44576020       0.32826710       0.41691983 </v>
   <v>       0.67173288       0.55423978       0.41691983 </v>
   <v>       0.55423980       0.32826710       0.41691983 </v>
   <v>       0.32826712       0.55423978       0.41691983 </v>
   <v>       0.50000000       0.38250690       0.34021317 </v>
   <v>       0.50000000       0.38250690       0.65978680 </v>
   <v>       0.50000000       0.27609440       0.50000000 </v>
   <v>       0.27609443       0.49999998       0.50000000 </v>
   <v>       0.72390557       0.49999998       0.50000000 </v>
   <v>       0.50000000       0.72390555       0.50000000 </v>
   <v>       0.61195280       0.38804720       0.34167483 </v>
   <v>       0.61195280       0.38804720       0.65832513 </v>
   <v>       0.38804722       0.61195278       0.34167483 </v>
   <v>       0.38804722       0.61195278       0.65832513 </v>
   <v>       0.38804720       0.38804720       0.34167483 </v>
   <v>       0.38804720       0.38804720       0.65832513 </v>
   <v>       0.61195278       0.61195278       0.34167483 </v>
   <v>       0.61195278       0.61195278       0.65832513 </v>
   <v>       0.44576020       0.32826710       0.58308023 </v>
   <v>       0.67173288       0.55423978       0.58308023 </v>
   <v>       0.55791699       0.44208301       0.41809300 </v>
   <v>       0.32826705       0.44576024       0.41691983 </v>
   <v>       0.55423973       0.67173293       0.41691983 </v>
   <v>       0.55423980       0.32826710       0.58308023 </v>
   <v>       0.32826712       0.55423978       0.58308023 </v>
   <v>       0.67173295       0.44576024       0.41691983 </v>
   <v>       0.44576027       0.67173293       0.41691983 </v>
   <v>       0.44208301       0.44208301       0.41809300 </v>
   <v>       0.50000000       0.38416601       0.50000000 </v>
   <v>       0.61749315       0.50000005       0.34021317 </v>
   <v>       0.61749315       0.50000005       0.65978680 </v>
   <v>       0.38250685       0.50000005       0.34021317 </v>
   <v>       0.38250685       0.50000005       0.65978680 </v>
   <v>       0.38317830       0.38317830       0.50000000 </v>
   <v>       0.61682172       0.61682172       0.50000000 </v>
   <v>       0.61682170       0.38317830       0.50000000 </v>
   <v>       0.38317828       0.61682172       0.50000000 </v>
   <v>       0.50000000       0.50000000       0.33478917 </v>
   <v>       0.50000000       0.50000000       0.66521087 </v>
   <v>       0.32826705       0.44576024       0.58308023 </v>
   <v>       0.55423973       0.67173293       0.58308023 </v>
   <v>       0.55791699       0.44208301       0.58190703 </v>
   <v>       0.44208298       0.55791702       0.41809300 </v>
   <v>       0.44208301       0.44208301       0.58190703 </v>
   <v>       0.67173295       0.44576024       0.58308023 </v>
   <v>       0.44576027       0.67173293       0.58308023 </v>
   <v>       0.55791702       0.55791702       0.41809300 </v>
   <v>       0.38416599       0.50000002       0.50000000 </v>
   <v>       0.61583401       0.50000002       0.50000000 </v>
   <v>       0.50000000       0.61749319       0.34021317 </v>
   <v>       0.50000000       0.61749319       0.65978680 </v>
   <v>       0.50000000       0.50000000       0.50000000 </v>
   <v>       0.44208298       0.55791702       0.58190703 </v>
   <v>       0.55791702       0.55791702       0.58190703 </v>
   <v>       0.50000000       0.61583404       0.50000000 </v>
   <v>       0.28844953       0.40606727       0.62504083 </v>
   <v>       0.25821447       0.39264230       0.64291183 </v>
  </varray>
  <varray name="selective"  type="logical" >
   <v type="logical" >  F  F  F </v>
   <v type="logical" >  F  F  F </v>
   <v type="logical" >  F  F  F </v>
   <v type="logical" >  F  F  F </v>
   <v type="logical" >  F  F  F </v>
   <v type="logical" >  F  F  F </v>
   <v type="logical" >  F  F  F </v>
   <v type="logical" >  F  F  F </v>
   <v type="logical" >  F  F  F </v>
   <v type="logical" >  F  F  F </v>
   <v type="logical" >  F  F  F </v>
   <v type="logical" >  F  F  F </v>
   <v type="logical" >  F  F  F </v>
   <v type="logical" >  F  F  F </v>
   <v type="logical" >  F  F  F </v>
   <v type="logical" >  F  F  F </v>
   <v type="logical" >  F  F  F </v>
   <v type="logical" >  F  F  F </v>
   <v type="logical" >  F  F  F </v>
   <v type="logical" >  F  F  F </v>
   <v type="logical" >  F  F  F </v>
   <v type="logical" >  F  F  F </v>
   <v type="logical" >  F  F  F </v>
   <v type="logical" >  F  F  F </v>
   <v type="logical" >  F  F  F </v>
   <v type="logical" >  F  F  F </v>
   <v type="logical" >  F  F  F </v>
   <v type="logical" >  F  F  F </v>
   <v type="logical" >  F  F  F </v>
   <v type="logical" >  F  F  F </v>
   <v type="logical" >  F  F  F </v>
   <v type="logical" >  F  F  F </v>
   <v type="logical" >  F  F  F </v>
   <v type="logical" >  F  F  F </v>
   <v type="logical" >  F  F  F </v>
   <v type="logical" >  F  F  F </v>
   <v type="logical" >  F  F  F </v>
   <v type="logical" >  F  F  F </v>
   <v type="logical" >  F  F  F </v>
   <v type="logical" >  F  F  F </v>
   <v type="logical" >  F  F  F </v>
   <v type="logical" >  F  F  F </v>
   <v type="logical" >  F  F  F </v>
   <v type="logical" >  F  F  F </v>
   <v type="logical" >  F  F  F </v>
   <v type="logical" >  F  F  F </v>
   <v type="logical" >  F  F  F </v>
   <v type="logical" >  F  F  F </v>
   <v type="logical" >  F  F  F </v>
   <v type="logical" >  F  F  F </v>
   <v type="logical" >  F  F  F </v>
   <v type="logical" >  F  F  F </v>
   <v type="logical" >  F  F  F </v>
   <v type="logical" >  F  F  F </v>
   <v type="logical" >  F  F  F </v>
   <v type="logical" >  F  F  F </v>
   <v type="logical" >  F  F  F </v>
  </varray>
  <nose>
   <v>      -3.00000000       0.00000000       0.00010000       0.00010000 </v>
  </nose>
 </structure>
 <calculation>
  <scstep>
   <time name="dav">  365.47  365.55</time>
   <time name="total">  379.77  379.85</time>
   <energy>
    <i name="alphaZ">     75.25431677 </i>
    <i name="ewald"> 137807.32852750 </i>
    <i name="hartreedc">-181170.96352580 </i>
    <i name="XCdc">  -1703.36983096 </i>
    <i name="pawpsdc">  44873.02882129 </i>
    <i name="pawaedc"> -41398.84523641 </i>
    <i name="eentropy">      0.02297131 </i>
    <i name="bandstr">    817.19816077 </i>
    <i name="atom">  45086.50549395 </i>
    <i name="e_fr_energy">   4386.15969842 </i>
    <i name="e_wo_entrp">   4386.13672711 </i>
    <i name="e_0_energy">   4386.15395559 </i>
   </energy>
  </scstep>
  <scstep>
   <time name="dav">  575.31  575.32</time>
   <time name="total">  575.31  575.33</time>
   <energy>
    <i name="e_fr_energy">   2025.99858073 </i>
    <i name="e_wo_entrp">   2026.01598353 </i>
    <i name="e_0_energy">   2026.00293143 </i>
   </energy>
  </scstep>
  <scstep>
   <time name="dav">  494.69  494.70</time>
   <time name="total">  494.69  494.70</time>
   <energy>
    <i name="e_fr_energy">    238.21073763 </i>
    <i name="e_wo_entrp">    238.21684861 </i>
    <i name="e_0_energy">    238.21226537 </i>
   </energy>
  </scstep>
  <scstep>
   <time name="dav">  418.80  418.81</time>
   <time name="total">  418.80  418.81</time>
   <energy>
    <i name="e_fr_energy">   -132.55984122 </i>
    <i name="e_wo_entrp">   -132.55232199 </i>
    <i name="e_0_energy">   -132.55796142 </i>
   </energy>
  </scstep>
  <scstep>
   <time name="dav">  510.08  510.11</time>
   <time name="total">  535.79  535.83</time>
   <energy>
    <i name="e_fr_energy">   -179.43519976 </i>
    <i name="e_wo_entrp">   -179.91407695 </i>
    <i name="e_0_energy">   -179.55491906 </i>
   </energy>
  </scstep>
  <scstep>
   <time name="diag">   68.17   68.17</time>
   <time name="diis">  189.43  189.43</time>
   <time name="orth">   13.42   13.42</time>
   <time name="total">  309.95  309.96</time>
   <energy>
    <i name="e_fr_energy">   -179.98518010 </i>
    <i name="e_wo_entrp">   -179.64629187 </i>
    <i name="e_0_energy">   -179.90045804 </i>
   </energy>
  </scstep>
  <scstep>
   <time name="diag">   67.83   67.83</time>
   <time name="diis">  219.27  219.30</time>
   <time name="orth">   13.54   13.54</time>
   <time name="total">  339.98  340.01</time>
   <energy>
    <i name="e_fr_energy">   -182.14362892 </i>
    <i name="e_wo_entrp">   -182.10071477 </i>
    <i name="e_0_energy">   -182.13290038 </i>
   </energy>
  </scstep>
  <scstep>
   <time name="diag">   68.88   68.88</time>
   <time name="diis">  209.70  209.72</time>
   <time name="orth">   13.46   13.46</time>
   <time name="total">  332.15  332.19</time>
   <energy>
    <i name="e_fr_energy">   -183.53494449 </i>
    <i name="e_wo_entrp">   -183.47166666 </i>
    <i name="e_0_energy">   -183.51912503 </i>
   </energy>
  </scstep>
  <scstep>
   <time name="diag">   68.61   68.62</time>
   <time name="diis">  192.30  192.32</time>
   <time name="orth">   13.70   13.70</time>
   <time name="total">  314.96  315.00</time>
   <energy>
    <i name="e_fr_energy">   -182.45805172 </i>
    <i name="e_wo_entrp">   -182.25663822 </i>
    <i name="e_0_energy">   -182.40769834 </i>
   </energy>
  </scstep>
  <scstep>
   <time name="diag">   68.48   68.49</time>
   <time name="diis">  193.09  193.10</time>
   <time name="orth">   13.70   13.70</time>
   <time name="total">  315.57  315.59</time>
   <energy>
    <i name="e_fr_energy">   -180.22205697 </i>
    <i name="e_wo_entrp">   -180.14914610 </i>
    <i name="e_0_energy">   -180.20382925 </i>
   </energy>
  </scstep>
  <scstep>
   <time name="diag">   68.71   68.72</time>
   <time name="diis">  194.92  194.94</time>
   <time name="orth">   13.87   13.87</time>
   <time name="total">  317.48  317.51</time>
   <energy>
    <i name="e_fr_energy">   -178.19201690 </i>
    <i name="e_wo_entrp">   -178.06963221 </i>
    <i name="e_0_energy">   -178.16142073 </i>
   </energy>
  </scstep>
  <scstep>
   <time name="diag">   68.28   68.29</time>
   <time name="diis">  190.65  190.67</time>
   <time name="orth">   13.97   13.97</time>
   <time name="total">  313.21  313.24</time>
   <energy>
    <i name="e_fr_energy">   -177.22257448 </i>
    <i name="e_wo_entrp">   -177.11198257 </i>
    <i name="e_0_energy">   -177.19492650 </i>
   </energy>
  </scstep>
  <scstep>
   <time name="diag">   68.17   68.17</time>
   <time name="diis">  194.96  194.96</time>
   <time name="orth">   13.83   13.83</time>
   <time name="total">  318.03  318.04</time>
   <energy>
    <i name="e_fr_energy">   -176.98468269 </i>
    <i name="e_wo_entrp">   -176.85057018 </i>
    <i name="e_0_energy">   -176.95115456 </i>
   </energy>
  </scstep>
  <scstep>
   <time name="diag">   69.28   69.28</time>
   <time name="diis">  189.85  189.87</time>
   <time name="orth">   13.67   13.67</time>
   <time name="total">  314.26  314.29</time>
   <energy>
    <i name="e_fr_energy">   -176.67797224 </i>
    <i name="e_wo_entrp">   -176.53300770 </i>
    <i name="e_0_energy">   -176.64173110 </i>
   </energy>
  </scstep>
  <scstep>
   <time name="diag">   69.22   69.23</time>
   <time name="diis">  190.01  190.02</time>
   <time name="orth">   13.79   13.79</time>
   <time name="total">  314.33  314.36</time>
   <energy>
    <i name="e_fr_energy">   -176.77273827 </i>
    <i name="e_wo_entrp">   -176.72782329 </i>
    <i name="e_0_energy">   -176.76150952 </i>
   </energy>
  </scstep>
  <scstep>
   <time name="diag">   69.27   69.27</time>
   <time name="diis">  186.95  186.96</time>
   <time name="orth">   13.84   13.84</time>
   <time name="total">  311.01  311.02</time>
   <energy>
    <i name="e_fr_energy">   -176.22419781 </i>
    <i name="e_wo_entrp">   -176.14184738 </i>
    <i name="e_0_energy">   -176.20361020 </i>
   </energy>
  </scstep>
  <scstep>
   <time name="diag">   69.48   69.49</time>
   <time name="diis">  186.93  186.95</time>
   <time name="orth">   13.94   13.94</time>
   <time name="total">  311.40  311.45</time>
   <energy>
    <i name="e_fr_energy">   -175.88003836 </i>
    <i name="e_wo_entrp">   -175.89115456 </i>
    <i name="e_0_energy">   -175.88281741 </i>
   </energy>
  </scstep>
  <scstep>
   <time name="diag">   69.44   69.45</time>
   <time name="diis">  186.41  186.43</time>
   <time name="orth">   13.94   13.94</time>
   <time name="total">  310.75  310.79</time>
   <energy>
    <i name="e_fr_energy">   -175.61937100 </i>
    <i name="e_wo_entrp">   -175.60201743 </i>
    <i name="e_0_energy">   -175.61503261 </i>
   </energy>
  </scstep>
  <scstep>
   <time name="diag">   69.89   69.90</time>
   <time name="diis">  184.00  184.01</time>
   <time name="orth">   13.65   13.65</time>
   <time name="total">  308.64  308.67</time>
   <energy>
    <i name="e_fr_energy">   -175.67919606 </i>
    <i name="e_wo_entrp">   -175.62615517 </i>
    <i name="e_0_energy">   -175.66593584 </i>
   </energy>
  </scstep>
  <scstep>
   <time name="diag">   70.35   70.36</time>
   <time name="diis">  183.73  183.75</time>
   <time name="orth">   13.54   13.54</time>
   <time name="total">  308.80  308.84</time>
   <energy>
    <i name="e_fr_energy">   -175.45069291 </i>
    <i name="e_wo_entrp">   -175.39175574 </i>
    <i name="e_0_energy">   -175.43595862 </i>
   </energy>
  </scstep>
  <scstep>
   <time name="diag">   70.36   70.37</time>
   <time name="diis">  183.22  183.24</time>
   <time name="orth">   13.71   13.71</time>
   <time name="total">  308.83  308.88</time>
   <energy>
    <i name="e_fr_energy">   -175.30484534 </i>
    <i name="e_wo_entrp">   -175.22731038 </i>
    <i name="e_0_energy">   -175.28546160 </i>
   </energy>
  </scstep>
  <scstep>
   <time name="diag">   70.48   70.49</time>
   <time name="diis">  182.33  182.33</time>
   <time name="orth">   13.84   13.84</time>
   <time name="total">  308.30  308.32</time>
   <energy>
    <i name="e_fr_energy">   -175.26339488 </i>
    <i name="e_wo_entrp">   -175.17576282 </i>
    <i name="e_0_energy">   -175.24148687 </i>
   </energy>
  </scstep>
  <scstep>
   <time name="diag">   70.04   70.05</time>
   <time name="diis">  182.19  182.19</time>
   <time name="orth">   13.72   13.72</time>
   <time name="total">  307.24  307.26</time>
   <energy>
    <i name="e_fr_energy">   -175.05686593 </i>
    <i name="e_wo_entrp">   -174.93972667 </i>
    <i name="e_0_energy">   -175.02758111 </i>
   </energy>
  </scstep>
  <scstep>
   <time name="diag">   69.25   69.25</time>
   <time name="diis">  182.99  183.00</time>
   <time name="orth">   13.60   13.60</time>
   <time name="total">  306.44  306.45</time>
   <energy>
    <i name="e_fr_energy">   -174.99169033 </i>
    <i name="e_wo_entrp">   -174.89025833 </i>
    <i name="e_0_energy">   -174.96633233 </i>
   </energy>
  </scstep>
  <scstep>
   <time name="diag">   69.33   69.33</time>
   <time name="diis">  184.30  184.30</time>
   <time name="orth">   13.80   13.80</time>
   <time name="total">  308.35  308.36</time>
   <energy>
    <i name="e_fr_energy">   -174.97539474 </i>
    <i name="e_wo_entrp">   -174.86873486 </i>
    <i name="e_0_energy">   -174.94872977 </i>
   </energy>
  </scstep>
  <scstep>
   <time name="diag">   69.55   69.56</time>
   <time name="diis">  182.90  182.90</time>
   <time name="orth">   13.67   13.67</time>
   <time name="total">  307.08  307.10</time>
   <energy>
    <i name="e_fr_energy">   -174.92788896 </i>
    <i name="e_wo_entrp">   -174.81057453 </i>
    <i name="e_0_energy">   -174.89856035 </i>
   </energy>
  </scstep>
  <scstep>
   <time name="diag">   69.63   69.64</time>
   <time name="diis">  182.42  182.42</time>
   <time name="orth">   13.84   13.84</time>
   <time name="total">  306.65  306.66</time>
   <energy>
    <i name="e_fr_energy">   -174.90706018 </i>
    <i name="e_wo_entrp">   -174.78818298 </i>
    <i name="e_0_energy">   -174.87734088 </i>
   </energy>
  </scstep>
  <scstep>
   <time name="diag">   69.31   69.31</time>
   <time name="diis">  182.50  182.51</time>
   <time name="orth">   13.53   13.53</time>
   <time name="total">  306.84  306.84</time>
   <energy>
    <i name="e_fr_energy">   -174.90086337 </i>
    <i name="e_wo_entrp">   -174.79188629 </i>
    <i name="e_0_energy">   -174.87361910 </i>
   </energy>
  </scstep>
  <scstep>
   <time name="diag">   69.83   69.83</time>
   <time name="diis">  181.53  181.53</time>
   <time name="orth">   13.65   13.65</time>
   <time name="total">  306.54  306.54</time>
   <energy>
    <i name="e_fr_energy">   -174.86575388 </i>
    <i name="e_wo_entrp">   -174.76772061 </i>
    <i name="e_0_energy">   -174.84124556 </i>
   </energy>
  </scstep>
  <scstep>
   <time name="diag">   68.87   68.88</time>
   <time name="diis">  182.48  182.49</time>
   <time name="orth">   13.49   13.49</time>
   <time name="total">  305.63  305.64</time>
   <energy>
    <i name="e_fr_energy">   -174.86154787 </i>
    <i name="e_wo_entrp">   -174.75976848 </i>
    <i name="e_0_energy">   -174.83610303 </i>
   </energy>
  </scstep>
  <scstep>
   <time name="diag">   69.30   69.31</time>
   <time name="diis">  181.81  181.82</time>
   <time name="orth">   13.74   13.74</time>
   <time name="total">  306.46  306.47</time>
   <energy>
    <i name="e_fr_energy">   -174.85268279 </i>
    <i name="e_wo_entrp">   -174.75456855 </i>
    <i name="e_0_energy">   -174.82815423 </i>
   </energy>
  </scstep>
  <scstep>
   <time name="diag">   69.94   69.95</time>
   <time name="diis">  181.29  181.29</time>
   <time name="orth">   13.65   13.65</time>
   <time name="total">  306.88  306.89</time>
   <energy>
    <i name="e_fr_energy">   -174.84729554 </i>
    <i name="e_wo_entrp">   -174.74851616 </i>
    <i name="e_0_energy">   -174.82260070 </i>
   </energy>
  </scstep>
  <scstep>
   <time name="diag">   68.83   68.83</time>
   <time name="diis">  182.12  182.12</time>
   <time name="orth">   13.61   13.61</time>
   <time name="total">  305.54  305.54</time>
   <energy>
    <i name="e_fr_energy">   -174.84671454 </i>
    <i name="e_wo_entrp">   -174.73840329 </i>
    <i name="e_0_energy">   -174.81963673 </i>
   </energy>
  </scstep>
  <scstep>
   <time name="diag">   68.72   68.72</time>
   <time name="diis">  181.50  181.50</time>
   <time name="orth">   13.54   13.54</time>
   <time name="total">  305.31  305.32</time>
   <energy>
    <i name="e_fr_energy">   -174.84653380 </i>
    <i name="e_wo_entrp">   -174.73487019 </i>
    <i name="e_0_energy">   -174.81861790 </i>
   </energy>
  </scstep>
  <scstep>
   <time name="diag">   69.12   69.12</time>
   <time name="diis">  180.98  180.99</time>
   <time name="orth">   13.62   13.62</time>
   <time name="total">  304.92  304.93</time>
   <energy>
    <i name="e_fr_energy">   -174.84645005 </i>
    <i name="e_wo_entrp">   -174.73429834 </i>
    <i name="e_0_energy">   -174.81841212 </i>
   </energy>
  </scstep>
  <scstep>
   <time name="diag">   67.97   67.98</time>
   <time name="diis">  180.31  180.31</time>
   <time name="orth">   13.51   13.51</time>
   <time name="total">  303.49  303.50</time>
   <energy>
    <i name="e_fr_energy">   -174.84609945 </i>
    <i name="e_wo_entrp">   -174.73766716 </i>
    <i name="e_0_energy">   -174.81899138 </i>
   </energy>
  </scstep>
  <scstep>
   <time name="diag">   69.04   69.04</time>
   <time name="diis">  179.90  179.91</time>
   <time name="orth">   13.56   13.56</time>
   <time name="total">  304.47  304.47</time>
   <energy>
    <i name="e_fr_energy">   -174.84732560 </i>
    <i name="e_wo_entrp">   -174.74106116 </i>
    <i name="e_0_energy">   -174.82075949 </i>
   </energy>
  </scstep>
  <scstep>
   <time name="diag">   68.75   68.75</time>
   <time name="diis">  180.14  180.14</time>
   <time name="orth">   13.48   13.48</time>
   <time name="total">  304.12  304.13</time>
   <energy>
    <i name="e_fr_energy">   -174.84915929 </i>
    <i name="e_wo_entrp">   -174.74372491 </i>
    <i name="e_0_energy">   -174.82280070 </i>
   </energy>
  </scstep>
  <scstep>
   <time name="diag">   68.49   68.49</time>
   <time name="diis">  175.85  175.85</time>
   <time name="orth">   13.51   13.51</time>
   <time name="total">  299.74  299.74</time>
   <energy>
    <i name="e_fr_energy">   -174.85103501 </i>
    <i name="e_wo_entrp">   -174.74472311 </i>
    <i name="e_0_energy">   -174.82445703 </i>
   </energy>
  </scstep>
  <scstep>
   <time name="diag">   68.73   68.73</time>
   <time name="diis">  145.78  145.78</time>
   <time name="orth">   13.62   13.62</time>
   <time name="total">  270.09  270.10</time>
   <energy>
    <i name="e_fr_energy">   -174.85246811 </i>
    <i name="e_wo_entrp">   -174.74711860 </i>
    <i name="e_0_energy">   -174.82613073 </i>
   </energy>
  </scstep>
  <scstep>
   <time name="diag">   68.75   68.75</time>
   <time name="diis">  123.68  123.68</time>
   <time name="orth">   13.53   13.53</time>
   <time name="total">  247.60  247.60</time>
   <energy>
    <i name="e_fr_energy">   -174.85404600 </i>
    <i name="e_wo_entrp">   -174.74596909 </i>
    <i name="e_0_energy">   -174.82702677 </i>
   </energy>
  </scstep>
  <scstep>
   <time name="diag">   68.16   68.16</time>
   <time name="diis">  139.91  139.91</time>
   <time name="orth">   13.37   13.37</time>
   <time name="total">  263.18  263.18</time>
   <energy>
    <i name="e_fr_energy">   -174.85707483 </i>
    <i name="e_wo_entrp">   -174.74908316 </i>
    <i name="e_0_energy">   -174.83007691 </i>
   </energy>
  </scstep>
  <scstep>
   <time name="diag">   68.06   68.06</time>
   <time name="diis">  117.43  117.43</time>
   <time name="orth">   13.48   13.48</time>
   <time name="total">  240.70  240.71</time>
   <energy>
    <i name="e_fr_energy">   -174.85835679 </i>
    <i name="e_wo_entrp">   -174.75193738 </i>
    <i name="e_0_energy">   -174.83175194 </i>
   </energy>
  </scstep>
  <scstep>
   <time name="diag">   68.08   68.08</time>
   <time name="diis">  132.23  132.23</time>
   <time name="orth">   13.60   13.60</time>
   <time name="total">  255.86  255.86</time>
   <energy>
    <i name="e_fr_energy">   -174.86106484 </i>
    <i name="e_wo_entrp">   -174.75499185 </i>
    <i name="e_0_energy">   -174.83454659 </i>
   </energy>
  </scstep>
  <scstep>
   <time name="diag">   67.63   67.63</time>
   <time name="diis">  149.48  149.48</time>
   <time name="orth">   13.56   13.56</time>
   <time name="total">  273.53  273.54</time>
   <energy>
    <i name="e_fr_energy">   -174.86420601 </i>
    <i name="e_wo_entrp">   -174.75841355 </i>
    <i name="e_0_energy">   -174.83775789 </i>
   </energy>
  </scstep>
  <scstep>
   <time name="diag">   68.40   68.40</time>
   <time name="diis">  120.21  120.22</time>
   <time name="orth">   13.55   13.55</time>
   <time name="total">  245.33  245.33</time>
   <energy>
    <i name="e_fr_energy">   -174.86540019 </i>
    <i name="e_wo_entrp">   -174.75882103 </i>
    <i name="e_0_energy">   -174.83875540 </i>
   </energy>
  </scstep>
  <scstep>
   <time name="diag">   68.84   68.84</time>
   <time name="diis">  122.24  122.24</time>
   <time name="orth">   13.22   13.22</time>
   <time name="total">  247.19  247.19</time>
   <energy>
    <i name="e_fr_energy">   -174.86711350 </i>
    <i name="e_wo_entrp">   -174.76085590 </i>
    <i name="e_0_energy">   -174.84054910 </i>
   </energy>
  </scstep>
  <scstep>
   <time name="diag">   67.76   67.76</time>
   <time name="diis">  119.09  119.09</time>
   <time name="orth">   13.69   13.69</time>
   <time name="total">  243.76  243.76</time>
   <energy>
    <i name="e_fr_energy">   -174.86771678 </i>
    <i name="e_wo_entrp">   -174.76096569 </i>
    <i name="e_0_energy">   -174.84102901 </i>
   </energy>
  </scstep>
  <scstep>
   <time name="diag">   67.33   67.33</time>
   <time name="diis">  117.48  117.48</time>
   <time name="orth">   13.67   13.67</time>
   <time name="total">  242.60  242.60</time>
   <energy>
    <i name="e_fr_energy">   -174.86876719 </i>
    <i name="e_wo_entrp">   -174.76162184 </i>
    <i name="e_0_energy">   -174.84198085 </i>
   </energy>
  </scstep>
  <scstep>
   <time name="diag">   68.72   68.72</time>
   <time name="diis">  113.75  113.75</time>
   <time name="orth">   13.56   13.56</time>
   <time name="total">  239.88  239.89</time>
   <energy>
    <i name="e_fr_energy">   -174.86949312 </i>
    <i name="e_wo_entrp">   -174.76303060 </i>
    <i name="e_0_energy">   -174.84287749 </i>
   </energy>
  </scstep>
  <scstep>
   <time name="diag">   70.15   70.16</time>
   <time name="diis">  115.00  115.00</time>
   <time name="orth">   13.19   13.19</time>
   <time name="total">  241.56  241.57</time>
   <energy>
    <i name="e_fr_energy">   -174.86996970 </i>
    <i name="e_wo_entrp">   -174.76346314 </i>
    <i name="e_0_energy">   -174.84334306 </i>
   </energy>
  </scstep>
  <scstep>
   <time name="diag">   69.15   69.15</time>
   <time name="diis">  114.81  114.81</time>
   <time name="orth">   13.51   13.51</time>
   <time name="total">  241.43  241.43</time>
   <energy>
    <i name="e_fr_energy">   -174.87093888 </i>
    <i name="e_wo_entrp">   -174.76453624 </i>
    <i name="e_0_energy">   -174.84433822 </i>
   </energy>
  </scstep>
  <scstep>
   <time name="diag">   68.87   68.87</time>
   <time name="diis">  103.07  103.07</time>
   <time name="orth">   13.57   13.57</time>
   <time name="total">  229.65  229.65</time>
   <energy>
    <i name="e_fr_energy">   -174.87124329 </i>
    <i name="e_wo_entrp">   -174.76479608 </i>
    <i name="e_0_energy">   -174.84463149 </i>
   </energy>
  </scstep>
  <scstep>
   <time name="diag">   69.41   69.41</time>
   <time name="diis">  103.21  103.21</time>
   <time name="orth">   13.58   13.58</time>
   <time name="total">  230.08  230.08</time>
   <energy>
    <i name="e_fr_energy">   -174.87169611 </i>
    <i name="e_wo_entrp">   -174.76527385 </i>
    <i name="e_0_energy">   -174.84509054 </i>
   </energy>
  </scstep>
  <scstep>
   <time name="diag">   69.40   69.40</time>
   <time name="diis">   97.25   97.25</time>
   <time name="orth">   13.38   13.37</time>
   <time name="total">  223.43  223.43</time>
   <energy>
    <i name="e_fr_energy">   -174.87219946 </i>
    <i name="e_wo_entrp">   -174.76576948 </i>
    <i name="e_0_energy">   -174.84559197 </i>
   </energy>
  </scstep>
  <scstep>
   <time name="diag">   68.65   68.65</time>
   <time name="diis">   83.02   83.02</time>
   <time name="orth">   14.64   14.64</time>
   <time name="total">  210.06  210.06</time>
   <energy>
    <i name="e_fr_energy">   -174.87238239 </i>
    <i name="e_wo_entrp">   -174.76592257 </i>
    <i name="e_0_energy">   -174.84576743 </i>
   </energy>
  </scstep>
  <scstep>
   <time name="diag">   68.61   68.61</time>
   <time name="diis">   95.19   95.19</time>
   <time name="orth">   13.60   13.60</time>
   <time name="total">  220.38  220.38</time>
   <energy>
    <i name="e_fr_energy">   -174.87276552 </i>
    <i name="e_wo_entrp">   -174.76626325 </i>
    <i name="e_0_energy">   -174.84613996 </i>
   </energy>
  </scstep>
  <scstep>
   <time name="diag">   68.86   68.86</time>
   <time name="diis">   85.21   85.22</time>
   <time name="orth">   13.71   13.72</time>
   <time name="total">  211.46  211.47</time>
   <energy>
    <i name="e_fr_energy">   -174.87297111 </i>
    <i name="e_wo_entrp">   -174.76652944 </i>
    <i name="e_0_energy">   -174.84636070 </i>
   </energy>
  </scstep>
  <scstep>
   <time name="diag">   67.67   67.67</time>
   <time name="diis">   84.08   84.09</time>
   <time name="orth">   13.96   13.96</time>
   <time name="total">  208.76  208.78</time>
   <energy>
    <i name="e_fr_energy">   -174.87314579 </i>
    <i name="e_wo_entrp">   -174.76674142 </i>
    <i name="e_0_energy">   -174.84654470 </i>
   </energy>
  </scstep>
  <scstep>
   <time name="diag">   67.63   67.63</time>
   <time name="diis">   86.21   86.21</time>
   <time name="orth">   13.56   13.56</time>
   <time name="total">  210.78  210.78</time>
   <energy>
    <i name="e_fr_energy">   -174.87330990 </i>
    <i name="e_wo_entrp">   -174.76684645 </i>
    <i name="e_0_energy">   -174.84669404 </i>
   </energy>
  </scstep>
  <scstep>
   <time name="diag">   68.56   68.56</time>
   <time name="diis">   69.91   69.91</time>
   <time name="orth">   13.42   13.42</time>
   <time name="total">  166.16  166.16</time>
   <energy>
    <i name="alphaZ">     75.25431677 </i>
    <i name="ewald"> 137807.32852750 </i>
    <i name="hartreedc">-182165.35564429 </i>
    <i name="XCdc">  -1692.78235767 </i>
    <i name="pawpsdc">  46113.22744168 </i>
    <i name="pawaedc"> -42583.79338474 </i>
    <i name="eentropy">     -0.10641234 </i>
    <i name="bandstr">  -2815.15129148 </i>
    <i name="atom">  45086.50549395 </i>
    <i name="e_fr_energy">   -174.87331062 </i>
    <i name="e_wo_entrp">   -174.76689828 </i>
    <i name="e_0_energy">   -174.84670754 </i>
   </energy>
  </scstep>
  <structure>
   <crystal>
    <varray name="basis" >
     <v>      30.00000000       0.00000000       0.00000000 </v>
     <v>       0.00000000      30.00000000       0.00000000 </v>
     <v>       0.00000000       0.00000000      30.00000000 </v>
    </varray>
    <i name="volume">  27000.00000000 </i>
    <varray name="rec_basis" >
     <v>       0.03333333       0.00000000       0.00000000 </v>
     <v>       0.00000000       0.03333333       0.00000000 </v>
     <v>       0.00000000       0.00000000       0.03333333 </v>
    </varray>
   </crystal>
   <varray name="positions" >
    <v>       0.44576020       0.32826710       0.41691983 </v>
    <v>       0.67173288       0.55423978       0.41691983 </v>
    <v>       0.55423980       0.32826710       0.41691983 </v>
    <v>       0.32826712       0.55423978       0.41691983 </v>
    <v>       0.50000000       0.38250690       0.34021317 </v>
    <v>       0.50000000       0.38250690       0.65978680 </v>
    <v>       0.50000000       0.27609440       0.50000000 </v>
    <v>       0.27609443       0.49999998       0.50000000 </v>
    <v>       0.72390557       0.49999998       0.50000000 </v>
    <v>       0.50000000       0.72390555       0.50000000 </v>
    <v>       0.61195280       0.38804720       0.34167483 </v>
    <v>       0.61195280       0.38804720       0.65832513 </v>
    <v>       0.38804722       0.61195278       0.34167483 </v>
    <v>       0.38804722       0.61195278       0.65832513 </v>
    <v>       0.38804720       0.38804720       0.34167483 </v>
    <v>       0.38804720       0.38804720       0.65832513 </v>
    <v>       0.61195278       0.61195278       0.34167483 </v>
    <v>       0.61195278       0.61195278       0.65832513 </v>
    <v>       0.44576020       0.32826710       0.58308023 </v>
    <v>       0.67173288       0.55423978       0.58308023 </v>
    <v>       0.55791699       0.44208301       0.41809300 </v>
    <v>       0.32826705       0.44576024       0.41691983 </v>
    <v>       0.55423973       0.67173293       0.41691983 </v>
    <v>       0.55423980       0.32826710       0.58308023 </v>
    <v>       0.32826712       0.55423978       0.58308023 </v>
    <v>       0.67173295       0.44576024       0.41691983 </v>
    <v>       0.44576027       0.67173293       0.41691983 </v>
    <v>       0.44208301       0.44208301       0.41809300 </v>
    <v>       0.50000000       0.38416601       0.50000000 </v>
    <v>       0.61749315       0.50000005       0.34021317 </v>
    <v>       0.61749315       0.50000005       0.65978680 </v>
    <v>       0.38250685       0.50000005       0.34021317 </v>
    <v>       0.38250685       0.50000005       0.65978680 </v>
    <v>       0.38317830       0.38317830       0.50000000 </v>
    <v>       0.61682172       0.61682172       0.50000000 </v>
    <v>       0.61682170       0.38317830       0.50000000 </v>
    <v>       0.38317828       0.61682172       0.50000000 </v>
    <v>       0.50000000       0.50000000       0.33478917 </v>
    <v>       0.50000000       0.50000000       0.66521087 </v>
    <v>       0.32826705       0.44576024       0.58308023 </v>
    <v>       0.55423973       0.67173293       0.58308023 </v>
    <v>       0.55791699       0.44208301       0.58190703 </v>
    <v>       0.44208298       0.55791702       0.41809300 </v>
    <v>       0.44208301       0.44208301       0.58190703 </v>
    <v>       0.67173295       0.44576024       0.58308023 </v>
    <v>       0.44576027       0.67173293       0.58308023 </v>
    <v>       0.55791702       0.55791702       0.41809300 </v>
    <v>       0.38416599       0.50000002       0.50000000 </v>
    <v>       0.61583401       0.50000002       0.50000000 </v>
    <v>       0.50000000       0.61749319       0.34021317 </v>
    <v>       0.50000000       0.61749319       0.65978680 </v>
    <v>       0.50000000       0.50000000       0.50000000 </v>
    <v>       0.44208298       0.55791702       0.58190703 </v>
    <v>       0.55791702       0.55791702       0.58190703 </v>
    <v>       0.50000000       0.61583404       0.50000000 </v>
    <v>       0.28844953       0.40606727       0.62504083 </v>
    <v>       0.25821447       0.39264230       0.64291183 </v>
   </varray>
  </structure>
  <varray name="forces" >
   <v>       0.71339232       1.11175953       0.28601420 </v>
   <v>      -1.10651737      -0.70751395       0.29126538 </v>
   <v>      -0.70740691       1.11008844       0.28470286 </v>
   <v>       1.10199842      -0.70628507       0.29849951 </v>
   <v>       0.00274419       0.41056608       1.28265345 </v>
   <v>       0.00769508       0.39792705      -1.27826858 </v>
   <v>       0.00162305       1.51963313      -0.00052582 </v>
   <v>       1.53248902       0.01547914      -0.01828990 </v>
   <v>      -1.51798722      -0.00192155       0.00311052 </v>
   <v>      -0.00056438      -1.51775140      -0.00237728 </v>
   <v>      -0.76050747       0.75090504       1.07224066 </v>
   <v>      -0.73894918       0.76619538      -1.07211687 </v>
   <v>       0.76864491      -0.75242926       1.07267519 </v>
   <v>       0.75875315      -0.78643507      -1.06427123 </v>
   <v>       0.75879472       0.75640061       1.07267399 </v>
   <v>       0.59376016       0.74831530      -1.07517997 </v>
   <v>      -0.75552641      -0.75576458       1.06853877 </v>
   <v>      -0.75461763      -0.76067972      -1.07392496 </v>
   <v>       0.74170068       1.08889749      -0.29901610 </v>
   <v>      -1.10992964      -0.70482087      -0.28542991 </v>
   <v>       0.10726696      -0.10983567      -0.15903371 </v>
   <v>       1.11317924       0.70930744       0.28684317 </v>
   <v>      -0.71149215      -1.10551918       0.30125537 </v>
   <v>      -0.71960458       1.10555237      -0.28694731 </v>
   <v>       1.14174927      -0.64061509      -0.33799545 </v>
   <v>      -1.10538579       0.70391110       0.29018917 </v>
   <v>       0.70664517      -1.10399558       0.28329208 </v>
   <v>      -0.11785195      -0.11180383      -0.15485133 </v>
   <v>       0.00155357      -0.22942126       0.00354018 </v>
   <v>      -0.41456079      -0.00177161       1.28248802 </v>
   <v>      -0.40789732      -0.00201297      -1.28643467 </v>
   <v>       0.41331572      -0.00200404       1.28333363 </v>
   <v>       0.46517266       0.09765314      -1.23198341 </v>
   <v>       0.86569529       0.80589294      -0.05356062 </v>
   <v>      -0.83029219      -0.82769526       0.00244111 </v>
   <v>      -0.82465037       0.82941444      -0.00280312 </v>
   <v>       0.81896289      -0.84130764       0.01542915 </v>
   <v>      -0.00006098      -0.00128367       1.17623597 </v>
   <v>      -0.00262995       0.00916976      -1.17736568 </v>
   <v>      -0.21836259      -0.51526597       0.93597278 </v>
   <v>      -0.70229547      -1.10751829      -0.29337356 </v>
   <v>       0.13086172      -0.10359908       0.15633023 </v>
   <v>      -0.10303531       0.13685884      -0.18269404 </v>
   <v>      -0.02455913      -0.09416424       0.11876159 </v>
   <v>      -1.11403616       0.70294704      -0.28457532 </v>
   <v>       0.70622439      -1.10786178      -0.29501890 </v>
   <v>       0.11402312       0.10666764      -0.15341953 </v>
   <v>      -0.26600843      -0.04096638       0.08234219 </v>
   <v>       0.22976308       0.00146518      -0.00123409 </v>
   <v>      -0.01298660      -0.41607268       1.28057027 </v>
   <v>       0.00105215      -0.41353406      -1.28091687 </v>
   <v>      -0.01432922      -0.00199339       0.01469909 </v>
   <v>      -0.11708994       0.10300132       0.15063145 </v>
   <v>       0.11242052       0.10981911       0.15895002 </v>
   <v>       0.00494196       0.23074800      -0.00575503 </v>
   <v>       4.31949289       2.63160496      -3.10953426 </v>
   <v>      -3.07478117      -1.48833732       1.91121752 </v>
  </varray>
  <varray name="stress" >
   <v>      -6.66414634      -0.00413426      -0.01821659 </v>
   <v>      -0.00413425      -6.78976880       0.04865404 </v>
   <v>      -0.01821659       0.04865402      -6.77938768 </v>
  </varray>
  <energy>
   <i name="e_fr_energy">   -174.87331062 </i>
   <i name="e_wo_entrp">   -174.84670754 </i>
   <i name="e_0_energy">     -0.10641234 </i>
  </energy>
  <time name="totalsc">18471.9118472.82</time>
  <eigenvalues>
   <array>
    <dimension dim="1">band</dimension>
    <dimension dim="2">kpoint</dimension>
    <dimension dim="3">spin</dimension>
    <field>eigene</field>
    <field>occ</field>
    <set>
     <set comment="spin 1">
      <set comment="kpoint 1">
       <r>  -28.7933    1.0000 </r>
       <r>  -13.4691    1.0000 </r>
       <r>  -11.1945    1.0000 </r>
       <r>  -11.1574    1.0000 </r>
       <r>  -10.2690    1.0000 </r>
       <r>   -6.6493    1.0000 </r>
       <r>   -6.1365    1.0000 </r>
       <r>   -6.1296    1.0000 </r>
       <r>   -6.1281    1.0000 </r>
       <r>   -5.9301    1.0000 </r>
       <r>   -5.8378    1.0000 </r>
       <r>   -5.8331    1.0000 </r>
       <r>   -5.8083    1.0000 </r>
       <r>   -5.7870    1.0000 </r>
       <r>   -5.7350    1.0000 </r>
       <r>   -5.7020    1.0000 </r>
       <r>   -5.6939    1.0000 </r>
       <r>   -5.6869    1.0000 </r>
       <r>   -5.6744    1.0000 </r>
       <r>   -5.6415    1.0000 </r>
       <r>   -5.6250    1.0000 </r>
       <r>   -5.6170    1.0000 </r>
       <r>   -5.6007    1.0000 </r>
       <r>   -5.5982    1.0000 </r>
       <r>   -5.5818    1.0000 </r>
       <r>   -5.5753    1.0000 </r>
       <r>   -5.5509    1.0000 </r>
       <r>   -5.5498    1.0000 </r>
       <r>   -5.5477    1.0000 </r>
       <r>   -5.5305    1.0000 </r>
       <r>   -5.5232    1.0000 </r>
       <r>   -5.5210    1.0000 </r>
       <r>   -5.5200    1.0000 </r>
       <r>   -5.5170    1.0000 </r>
       <r>   -5.5153    1.0000 </r>
       <r>   -5.5118    1.0000 </r>
       <r>   -5.4947    1.0000 </r>
       <r>   -5.4875    1.0000 </r>
       <r>   -5.4825    1.0000 </r>
       <r>   -5.4758    1.0000 </r>
       <r>   -5.4740    1.0000 </r>
       <r>   -5.4722    1.0000 </r>
       <r>   -5.4695    1.0000 </r>
       <r>   -5.4646    1.0000 </r>
       <r>   -5.4589    1.0000 </r>
       <r>   -5.4477    1.0000 </r>
       <r>   -5.4366    1.0000 </r>
       <r>   -5.4318    1.0000 </r>
       <r>   -5.4299    1.0000 </r>
       <r>   -5.4277    1.0000 </r>
       <r>   -5.4247    1.0000 </r>
       <r>   -5.4236    1.0000 </r>
       <r>   -5.4093    1.0000 </r>
       <r>   -5.4079    1.0000 </r>
       <r>   -5.3979    1.0000 </r>
       <r>   -5.3773    1.0000 </r>
       <r>   -5.3672    1.0000 </r>
       <r>   -5.3402    1.0000 </r>
       <r>   -5.3352    1.0000 </r>
       <r>   -5.3285    1.0000 </r>
       <r>   -5.3282    1.0000 </r>
       <r>   -5.3195    1.0000 </r>
       <r>   -5.3173    1.0000 </r>
       <r>   -5.3116    1.0000 </r>
       <r>   -5.3043    1.0000 </r>
       <r>   -5.3025    1.0000 </r>
       <r>   -5.2930    1.0000 </r>
       <r>   -5.2852    1.0000 </r>
       <r>   -5.2504    1.0000 </r>
       <r>   -5.2293    1.0000 </r>
       <r>   -5.2101    1.0000 </r>
       <r>   -5.2057    1.0000 </r>
       <r>   -5.1990    1.0000 </r>
       <r>   -5.1917    1.0000 </r>
       <r>   -5.1838    1.0000 </r>
       <r>   -5.1818    1.0000 </r>
       <r>   -5.1813    1.0000 </r>
       <r>   -5.1678    1.0000 </r>
       <r>   -5.1665    1.0000 </r>
       <r>   -5.1603    1.0000 </r>
       <r>   -5.1502    1.0000 </r>
       <r>   -5.1456    1.0000 </r>
       <r>   -5.1365    1.0000 </r>
       <r>   -5.1278    1.0000 </r>
       <r>   -5.1176    1.0000 </r>
       <r>   -5.1119    1.0000 </r>
       <r>   -5.1077    1.0000 </r>
       <r>   -5.1025    1.0000 </r>
       <r>   -5.0800    1.0000 </r>
       <r>   -5.0657    1.0000 </r>
       <r>   -5.0610    1.0000 </r>
       <r>   -5.0572    1.0000 </r>
       <r>   -5.0567    1.0000 </r>
       <r>   -5.0548    1.0000 </r>
       <r>   -5.0524    1.0000 </r>
       <r>   -5.0457    1.0000 </r>
       <r>   -5.0397    1.0000 </r>
       <r>   -5.0357    1.0000 </r>
       <r>   -5.0313    1.0000 </r>
       <r>   -5.0244    1.0000 </r>
       <r>   -5.0223    1.0000 </r>
       <r>   -5.0176    1.0000 </r>
       <r>   -5.0112    1.0000 </r>
       <r>   -5.0069    1.0000 </r>
       <r>   -5.0031    1.0000 </r>
       <r>   -4.9975    1.0000 </r>
       <r>   -4.9939    1.0000 </r>
       <r>   -4.9912    1.0000 </r>
       <r>   -4.9895    1.0000 </r>
       <r>   -4.9796    1.0000 </r>
       <r>   -4.9772    1.0000 </r>
       <r>   -4.9736    1.0000 </r>
       <r>   -4.9637    1.0000 </r>
       <r>   -4.9616    1.0000 </r>
       <r>   -4.9590    1.0000 </r>
       <r>   -4.9566    1.0000 </r>
       <r>   -4.9503    1.0000 </r>
       <r>   -4.9337    1.0000 </r>
       <r>   -4.9277    1.0000 </r>
       <r>   -4.9256    1.0000 </r>
       <r>   -4.9171    1.0000 </r>
       <r>   -4.9113    1.0000 </r>
       <r>   -4.9086    1.0000 </r>
       <r>   -4.9046    1.0000 </r>
       <r>   -4.9040    1.0000 </r>
       <r>   -4.9020    1.0000 </r>
       <r>   -4.8718    1.0000 </r>
       <r>   -4.8702    1.0000 </r>
       <r>   -4.8510    1.0000 </r>
       <r>   -4.8460    1.0000 </r>
       <r>   -4.8427    1.0000 </r>
       <r>   -4.8425    1.0000 </r>
       <r>   -4.8383    1.0000 </r>
       <r>   -4.8369    1.0000 </r>
       <r>   -4.8321    1.0000 </r>
       <r>   -4.8216    1.0000 </r>
       <r>   -4.8003    0.9999 </r>
       <r>   -4.7964    0.9999 </r>
       <r>   -4.7931    0.9999 </r>
       <r>   -4.7802    0.9999 </r>
       <r>   -4.7764    0.9998 </r>
       <r>   -4.7663    0.9998 </r>
       <r>   -4.7534    0.9997 </r>
       <r>   -4.7456    0.9997 </r>
       <r>   -4.7392    0.9996 </r>
       <r>   -4.7322    0.9995 </r>
       <r>   -4.7295    0.9995 </r>
       <r>   -4.7237    0.9995 </r>
       <r>   -4.7177    0.9994 </r>
       <r>   -4.7040    0.9992 </r>
       <r>   -4.6910    0.9989 </r>
       <r>   -4.6878    0.9989 </r>
       <r>   -4.6860    0.9988 </r>
       <r>   -4.6819    0.9988 </r>
       <r>   -4.6760    0.9986 </r>
       <r>   -4.6741    0.9986 </r>
       <r>   -4.6729    0.9985 </r>
       <r>   -4.6717    0.9985 </r>
       <r>   -4.6678    0.9984 </r>
       <r>   -4.6628    0.9983 </r>
       <r>   -4.6571    0.9981 </r>
       <r>   -4.6502    0.9979 </r>
       <r>   -4.6494    0.9979 </r>
       <r>   -4.6482    0.9978 </r>
       <r>   -4.6473    0.9978 </r>
       <r>   -4.6459    0.9978 </r>
       <r>   -4.6441    0.9977 </r>
       <r>   -4.6366    0.9974 </r>
       <r>   -4.6343    0.9974 </r>
       <r>   -4.6315    0.9973 </r>
       <r>   -4.6111    0.9965 </r>
       <r>   -4.6082    0.9964 </r>
       <r>   -4.6034    0.9962 </r>
       <r>   -4.6014    0.9961 </r>
       <r>   -4.5978    0.9960 </r>
       <r>   -4.5959    0.9959 </r>
       <r>   -4.5936    0.9959 </r>
       <r>   -4.5906    0.9958 </r>
       <r>   -4.5895    0.9957 </r>
       <r>   -4.5814    0.9955 </r>
       <r>   -4.5768    0.9954 </r>
       <r>   -4.5729    0.9953 </r>
       <r>   -4.5650    0.9951 </r>
       <r>   -4.5590    0.9951 </r>
       <r>   -4.5568    0.9951 </r>
       <r>   -4.5563    0.9951 </r>
       <r>   -4.5529    0.9951 </r>
       <r>   -4.5498    0.9951 </r>
       <r>   -4.5495    0.9951 </r>
       <r>   -4.5464    0.9951 </r>
       <r>   -4.5312    0.9956 </r>
       <r>   -4.5126    0.9970 </r>
       <r>   -4.5119    0.9970 </r>
       <r>   -4.5088    0.9974 </r>
       <r>   -4.5064    0.9977 </r>
       <r>   -4.4999    0.9986 </r>
       <r>   -4.4955    0.9992 </r>
       <r>   -4.4900    1.0002 </r>
       <r>   -4.4828    1.0017 </r>
       <r>   -4.4777    1.0029 </r>
       <r>   -4.4758    1.0033 </r>
       <r>   -4.4676    1.0055 </r>
       <r>   -4.4632    1.0069 </r>
       <r>   -4.4601    1.0078 </r>
       <r>   -4.4566    1.0090 </r>
       <r>   -4.4522    1.0105 </r>
       <r>   -4.4485    1.0119 </r>
       <r>   -4.4463    1.0127 </r>
       <r>   -4.4436    1.0137 </r>
       <r>   -4.4404    1.0150 </r>
       <r>   -4.4257    1.0213 </r>
       <r>   -4.4231    1.0225 </r>
       <r>   -4.4195    1.0242 </r>
       <r>   -4.4114    1.0281 </r>
       <r>   -4.4108    1.0284 </r>
       <r>   -4.4085    1.0295 </r>
       <r>   -4.4064    1.0305 </r>
       <r>   -4.4055    1.0309 </r>
       <r>   -4.4033    1.0320 </r>
       <r>   -4.3862    1.0399 </r>
       <r>   -4.3717    1.0458 </r>
       <r>   -4.3676    1.0472 </r>
       <r>   -4.3645    1.0482 </r>
       <r>   -4.3604    1.0493 </r>
       <r>   -4.3488    1.0513 </r>
       <r>   -4.3407    1.0516 </r>
       <r>   -4.3390    1.0515 </r>
       <r>   -4.3379    1.0514 </r>
       <r>   -4.3363    1.0513 </r>
       <r>   -4.3344    1.0510 </r>
       <r>   -4.3341    1.0510 </r>
       <r>   -4.3328    1.0507 </r>
       <r>   -4.3302    1.0502 </r>
       <r>   -4.3273    1.0494 </r>
       <r>   -4.3255    1.0488 </r>
       <r>   -4.3232    1.0479 </r>
       <r>   -4.3226    1.0477 </r>
       <r>   -4.3192    1.0461 </r>
       <r>   -4.3187    1.0459 </r>
       <r>   -4.3179    1.0455 </r>
       <r>   -4.3076    1.0386 </r>
       <r>   -4.3018    1.0334 </r>
       <r>   -4.2962    1.0273 </r>
       <r>   -4.2904    1.0201 </r>
       <r>   -4.2874    1.0159 </r>
       <r>   -4.2857    1.0134 </r>
       <r>   -4.2846    1.0118 </r>
       <r>   -4.2823    1.0080 </r>
       <r>   -4.2804    1.0048 </r>
       <r>   -4.2696    0.9844 </r>
       <r>   -4.2655    0.9755 </r>
       <r>   -4.2631    0.9698 </r>
       <r>   -4.2584    0.9585 </r>
       <r>   -4.2567    0.9540 </r>
       <r>   -4.2545    0.9482 </r>
       <r>   -4.2527    0.9434 </r>
       <r>   -4.2496    0.9346 </r>
       <r>   -4.2487    0.9322 </r>
       <r>   -4.2452    0.9218 </r>
       <r>   -4.2446    0.9198 </r>
       <r>   -4.2431    0.9151 </r>
       <r>   -4.2406    0.9073 </r>
       <r>   -4.2392    0.9028 </r>
       <r>   -4.2385    0.9004 </r>
       <r>   -4.2363    0.8929 </r>
       <r>   -4.2273    0.8610 </r>
       <r>   -4.2259    0.8559 </r>
       <r>   -4.2237    0.8476 </r>
       <r>   -4.2215    0.8391 </r>
       <r>   -4.2199    0.8328 </r>
       <r>   -4.2175    0.8232 </r>
       <r>   -4.2095    0.7897 </r>
       <r>   -4.2008    0.7508 </r>
       <r>   -4.1950    0.7242 </r>
       <r>   -4.1844    0.6729 </r>
       <r>   -4.1829    0.6651 </r>
       <r>   -4.1767    0.6340 </r>
       <r>   -4.1764    0.6322 </r>
       <r>   -4.1746    0.6234 </r>
       <r>   -4.1713    0.6064 </r>
       <r>   -4.1632    0.5642 </r>
       <r>   -4.1572    0.5328 </r>
       <r>   -4.1343    0.4120 </r>
       <r>   -4.1294    0.3867 </r>
       <r>   -4.1283    0.3809 </r>
       <r>   -4.1274    0.3764 </r>
       <r>   -4.1162    0.3199 </r>
       <r>   -4.1131    0.3046 </r>
       <r>   -4.1083    0.2820 </r>
       <r>   -3.9635   -0.0515 </r>
       <r>   -3.8817   -0.0238 </r>
       <r>   -3.8258   -0.0032 </r>
       <r>   -3.8150   -0.0008 </r>
       <r>   -3.7463    0.0049 </r>
       <r>   -3.5010    0.0001 </r>
       <r>   -3.4875    0.0001 </r>
       <r>   -3.4188    0.0000 </r>
       <r>   -3.0656    0.0000 </r>
       <r>   -3.0579    0.0000 </r>
       <r>   -3.0418    0.0000 </r>
       <r>   -3.0333    0.0000 </r>
       <r>   -3.0166    0.0000 </r>
       <r>   -2.9494    0.0000 </r>
       <r>   -2.9346    0.0000 </r>
       <r>   -2.8789    0.0000 </r>
       <r>   -2.5253    0.0000 </r>
       <r>   -2.5201    0.0000 </r>
       <r>   -2.4349    0.0000 </r>
       <r>   -2.3448    0.0000 </r>
       <r>   -2.1367    0.0000 </r>
       <r>   -2.1150    0.0000 </r>
       <r>   -2.0819    0.0000 </r>
       <r>   -2.0487    0.0000 </r>
       <r>   -1.9645    0.0000 </r>
       <r>   -1.9317    0.0000 </r>
       <r>   -1.8695    0.0000 </r>
       <r>   -1.8046    0.0000 </r>
       <r>   -1.7371    0.0000 </r>
       <r>   -1.7017    0.0000 </r>
       <r>   -1.6385    0.0000 </r>
       <r>   -1.6242    0.0000 </r>
       <r>   -1.5527    0.0000 </r>
       <r>   -1.4486    0.0000 </r>
       <r>   -1.4308    0.0000 </r>
       <r>   -1.2945    0.0000 </r>
       <r>   -1.2200    0.0000 </r>
       <r>   -1.1877    0.0000 </r>
       <r>   -1.0607    0.0000 </r>
       <r>   -0.9894    0.0000 </r>
       <r>   -0.9773    0.0000 </r>
       <r>   -0.9537    0.0000 </r>
       <r>   -0.9372    0.0000 </r>
       <r>   -0.9219    0.0000 </r>
       <r>   -0.8823    0.0000 </r>
       <r>   -0.7932    0.0000 </r>
       <r>   -0.5778    0.0000 </r>
      </set>
     </set>
    </set>
   </array>
  </eigenvalues>
  <separator name="orbital magnetization" >
   <v name="MAGDIPOLOUT">      0.00000000      0.00000000      0.00000000</v>
  </separator>
  <dos>
   <i name="efermi">     -4.15104253 </i>
   <total>
    <array>
     <dimension dim="1">gridpoints</dimension>
     <dimension dim="2">spin</dimension>
     <field>energy</field>
     <field>total</field>
     <field>integrated</field>
     <set>
      <set comment="spin 1">
       <r>   -30.7933     0.0000     0.0000 </r>
       <r>   -30.6859     0.0000     0.0000 </r>
       <r>   -30.5785     0.0000     0.0000 </r>
       <r>   -30.4711     0.0000     0.0000 </r>
       <r>   -30.3637     0.0000     0.0000 </r>
       <r>   -30.2563     0.0000     0.0000 </r>
       <r>   -30.1489     0.0000     0.0000 </r>
       <r>   -30.0416     0.0000     0.0000 </r>
       <r>   -29.9342     0.0000     0.0000 </r>
       <r>   -29.8268     0.0000     0.0000 </r>
       <r>   -29.7194     0.0000     0.0000 </r>
       <r>   -29.6120     0.0000     0.0000 </r>
       <r>   -29.5046     0.0003     0.0000 </r>
       <r>   -29.3972     0.0048     0.0005 </r>
       <r>   -29.2899     0.0356     0.0044 </r>
       <r>   -29.1825     0.0477     0.0095 </r>
       <r>   -29.0751    -0.4269    -0.0363 </r>
       <r>   -28.9677    -0.5702    -0.0976 </r>
       <r>   -28.8603     4.1579     0.3489 </r>
       <r>   -28.7529     9.9115     1.4133 </r>
       <r>   -28.6456     6.0270     2.0605 </r>
       <r>   -28.5382     0.0070     2.0612 </r>
       <r>   -28.4308    -0.6283     1.9937 </r>
       <r>   -28.3234    -0.0001     1.9937 </r>
       <r>   -28.2160     0.0490     1.9990 </r>
       <r>   -28.1086     0.0086     1.9999 </r>
       <r>   -28.0012     0.0006     2.0000 </r>
       <r>   -27.8939     0.0000     2.0000 </r>
       <r>   -27.7865     0.0000     2.0000 </r>
       <r>   -27.6791     0.0000     2.0000 </r>
       <r>   -27.5717     0.0000     2.0000 </r>
       <r>   -27.4643     0.0000     2.0000 </r>
       <r>   -27.3569     0.0000     2.0000 </r>
       <r>   -27.2496     0.0000     2.0000 </r>
       <r>   -27.1422     0.0000     2.0000 </r>
       <r>   -27.0348     0.0000     2.0000 </r>
       <r>   -26.9274     0.0000     2.0000 </r>
       <r>   -26.8200     0.0000     2.0000 </r>
       <r>   -26.7126     0.0000     2.0000 </r>
       <r>   -26.6052     0.0000     2.0000 </r>
       <r>   -26.4979     0.0000     2.0000 </r>
       <r>   -26.3905     0.0000     2.0000 </r>
       <r>   -26.2831     0.0000     2.0000 </r>
       <r>   -26.1757     0.0000     2.0000 </r>
       <r>   -26.0683     0.0000     2.0000 </r>
       <r>   -25.9609     0.0000     2.0000 </r>
       <r>   -25.8535     0.0000     2.0000 </r>
       <r>   -25.7462     0.0000     2.0000 </r>
       <r>   -25.6388     0.0000     2.0000 </r>
       <r>   -25.5314     0.0000     2.0000 </r>
       <r>   -25.4240     0.0000     2.0000 </r>
       <r>   -25.3166     0.0000     2.0000 </r>
       <r>   -25.2092     0.0000     2.0000 </r>
       <r>   -25.1019     0.0000     2.0000 </r>
       <r>   -24.9945     0.0000     2.0000 </r>
       <r>   -24.8871     0.0000     2.0000 </r>
       <r>   -24.7797     0.0000     2.0000 </r>
       <r>   -24.6723     0.0000     2.0000 </r>
       <r>   -24.5649     0.0000     2.0000 </r>
       <r>   -24.4575     0.0000     2.0000 </r>
       <r>   -24.3502     0.0000     2.0000 </r>
       <r>   -24.2428     0.0000     2.0000 </r>
       <r>   -24.1354     0.0000     2.0000 </r>
       <r>   -24.0280     0.0000     2.0000 </r>
       <r>   -23.9206     0.0000     2.0000 </r>
       <r>   -23.8132     0.0000     2.0000 </r>
       <r>   -23.7059     0.0000     2.0000 </r>
       <r>   -23.5985     0.0000     2.0000 </r>
       <r>   -23.4911     0.0000     2.0000 </r>
       <r>   -23.3837     0.0000     2.0000 </r>
       <r>   -23.2763     0.0000     2.0000 </r>
       <r>   -23.1689     0.0000     2.0000 </r>
       <r>   -23.0615     0.0000     2.0000 </r>
       <r>   -22.9542     0.0000     2.0000 </r>
       <r>   -22.8468     0.0000     2.0000 </r>
       <r>   -22.7394     0.0000     2.0000 </r>
       <r>   -22.6320     0.0000     2.0000 </r>
       <r>   -22.5246     0.0000     2.0000 </r>
       <r>   -22.4172     0.0000     2.0000 </r>
       <r>   -22.3098     0.0000     2.0000 </r>
       <r>   -22.2025     0.0000     2.0000 </r>
       <r>   -22.0951     0.0000     2.0000 </r>
       <r>   -21.9877     0.0000     2.0000 </r>
       <r>   -21.8803     0.0000     2.0000 </r>
       <r>   -21.7729     0.0000     2.0000 </r>
       <r>   -21.6655     0.0000     2.0000 </r>
       <r>   -21.5582     0.0000     2.0000 </r>
       <r>   -21.4508     0.0000     2.0000 </r>
       <r>   -21.3434     0.0000     2.0000 </r>
       <r>   -21.2360     0.0000     2.0000 </r>
       <r>   -21.1286     0.0000     2.0000 </r>
       <r>   -21.0212     0.0000     2.0000 </r>
       <r>   -20.9138     0.0000     2.0000 </r>
       <r>   -20.8065     0.0000     2.0000 </r>
       <r>   -20.6991     0.0000     2.0000 </r>
       <r>   -20.5917     0.0000     2.0000 </r>
       <r>   -20.4843     0.0000     2.0000 </r>
       <r>   -20.3769     0.0000     2.0000 </r>
       <r>   -20.2695     0.0000     2.0000 </r>
       <r>   -20.1622     0.0000     2.0000 </r>
       <r>   -20.0548     0.0000     2.0000 </r>
       <r>   -19.9474     0.0000     2.0000 </r>
       <r>   -19.8400     0.0000     2.0000 </r>
       <r>   -19.7326     0.0000     2.0000 </r>
       <r>   -19.6252     0.0000     2.0000 </r>
       <r>   -19.5178     0.0000     2.0000 </r>
       <r>   -19.4105     0.0000     2.0000 </r>
       <r>   -19.3031     0.0000     2.0000 </r>
       <r>   -19.1957     0.0000     2.0000 </r>
       <r>   -19.0883     0.0000     2.0000 </r>
       <r>   -18.9809     0.0000     2.0000 </r>
       <r>   -18.8735     0.0000     2.0000 </r>
       <r>   -18.7661     0.0000     2.0000 </r>
       <r>   -18.6588     0.0000     2.0000 </r>
       <r>   -18.5514     0.0000     2.0000 </r>
       <r>   -18.4440     0.0000     2.0000 </r>
       <r>   -18.3366     0.0000     2.0000 </r>
       <r>   -18.2292     0.0000     2.0000 </r>
       <r>   -18.1218     0.0000     2.0000 </r>
       <r>   -18.0145     0.0000     2.0000 </r>
       <r>   -17.9071     0.0000     2.0000 </r>
       <r>   -17.7997     0.0000     2.0000 </r>
       <r>   -17.6923     0.0000     2.0000 </r>
       <r>   -17.5849     0.0000     2.0000 </r>
       <r>   -17.4775     0.0000     2.0000 </r>
       <r>   -17.3701     0.0000     2.0000 </r>
       <r>   -17.2628     0.0000     2.0000 </r>
       <r>   -17.1554     0.0000     2.0000 </r>
       <r>   -17.0480     0.0000     2.0000 </r>
       <r>   -16.9406     0.0000     2.0000 </r>
       <r>   -16.8332     0.0000     2.0000 </r>
       <r>   -16.7258     0.0000     2.0000 </r>
       <r>   -16.6185     0.0000     2.0000 </r>
       <r>   -16.5111     0.0000     2.0000 </r>
       <r>   -16.4037     0.0000     2.0000 </r>
       <r>   -16.2963     0.0000     2.0000 </r>
       <r>   -16.1889     0.0000     2.0000 </r>
       <r>   -16.0815     0.0000     2.0000 </r>
       <r>   -15.9741     0.0000     2.0000 </r>
       <r>   -15.8668     0.0000     2.0000 </r>
       <r>   -15.7594     0.0000     2.0000 </r>
       <r>   -15.6520     0.0000     2.0000 </r>
       <r>   -15.5446     0.0000     2.0000 </r>
       <r>   -15.4372     0.0000     2.0000 </r>
       <r>   -15.3298     0.0000     2.0000 </r>
       <r>   -15.2224     0.0000     2.0000 </r>
       <r>   -15.1151     0.0000     2.0000 </r>
       <r>   -15.0077     0.0000     2.0000 </r>
       <r>   -14.9003     0.0000     2.0000 </r>
       <r>   -14.7929     0.0000     2.0000 </r>
       <r>   -14.6855     0.0000     2.0000 </r>
       <r>   -14.5781     0.0000     2.0000 </r>
       <r>   -14.4708     0.0000     2.0000 </r>
       <r>   -14.3634     0.0000     2.0000 </r>
       <r>   -14.2560     0.0000     2.0000 </r>
       <r>   -14.1486     0.0007     2.0001 </r>
       <r>   -14.0412     0.0096     2.0011 </r>
       <r>   -13.9338     0.0515     2.0066 </r>
       <r>   -13.8264    -0.0138     2.0052 </r>
       <r>   -13.7191    -0.6635     1.9339 </r>
       <r>   -13.6117     0.1622     1.9513 </r>
       <r>   -13.5043     6.3768     2.6361 </r>
       <r>   -13.3969     9.8250     3.6911 </r>
       <r>   -13.2895     3.8122     4.1005 </r>
       <r>   -13.1821    -0.6376     4.0320 </r>
       <r>   -13.0748    -0.3889     3.9903 </r>
       <r>   -12.9674     0.0528     3.9960 </r>
       <r>   -12.8600     0.0332     3.9995 </r>
       <r>   -12.7526     0.0042     4.0000 </r>
       <r>   -12.6452     0.0002     4.0000 </r>
       <r>   -12.5378     0.0000     4.0000 </r>
       <r>   -12.4304     0.0000     4.0000 </r>
       <r>   -12.3231     0.0000     4.0000 </r>
       <r>   -12.2157     0.0000     4.0000 </r>
       <r>   -12.1083     0.0000     4.0000 </r>
       <r>   -12.0009     0.0000     4.0000 </r>
       <r>   -11.8935     0.0005     4.0001 </r>
       <r>   -11.7861     0.0090     4.0010 </r>
       <r>   -11.6788     0.0663     4.0081 </r>
       <r>   -11.5714     0.0938     4.0182 </r>
       <r>   -11.4640    -0.7725     3.9353 </r>
       <r>   -11.3566    -1.1449     3.8123 </r>
       <r>   -11.2492     7.5639     4.6246 </r>
       <r>   -11.1418    19.2528     6.6920 </r>
       <r>   -11.0344    12.8222     8.0689 </r>
       <r>   -10.9271     0.6025     8.1336 </r>
       <r>   -10.8197    -1.2967     7.9944 </r>
       <r>   -10.7123     0.0036     7.9948 </r>
       <r>   -10.6049     0.0111     7.9960 </r>
       <r>   -10.4975    -0.7610     7.9142 </r>
       <r>   -10.3901     0.9913     8.0207 </r>
       <r>   -10.2827     7.7688     8.8550 </r>
       <r>   -10.1754     9.1733     9.8400 </r>
       <r>   -10.0680     2.4383    10.1019 </r>
       <r>    -9.9606    -0.7989    10.0161 </r>
       <r>    -9.8532    -0.2399     9.9903 </r>
       <r>    -9.7458     0.0636     9.9972 </r>
       <r>    -9.6384     0.0239     9.9997 </r>
       <r>    -9.5311     0.0025    10.0000 </r>
       <r>    -9.4237     0.0001    10.0000 </r>
       <r>    -9.3163     0.0000    10.0000 </r>
       <r>    -9.2089     0.0000    10.0000 </r>
       <r>    -9.1015     0.0000    10.0000 </r>
       <r>    -8.9941     0.0000    10.0000 </r>
       <r>    -8.8867     0.0000    10.0000 </r>
       <r>    -8.7794     0.0000    10.0000 </r>
       <r>    -8.6720     0.0000    10.0000 </r>
       <r>    -8.5646     0.0000    10.0000 </r>
       <r>    -8.4572     0.0000    10.0000 </r>
       <r>    -8.3498     0.0000    10.0000 </r>
       <r>    -8.2424     0.0000    10.0000 </r>
       <r>    -8.1351     0.0000    10.0000 </r>
       <r>    -8.0277     0.0000    10.0000 </r>
       <r>    -7.9203     0.0000    10.0000 </r>
       <r>    -7.8129     0.0000    10.0000 </r>
       <r>    -7.7055     0.0000    10.0000 </r>
       <r>    -7.5981     0.0000    10.0000 </r>
       <r>    -7.4907     0.0000    10.0000 </r>
       <r>    -7.3834     0.0001    10.0000 </r>
       <r>    -7.2760     0.0028    10.0003 </r>
       <r>    -7.1686     0.0254    10.0030 </r>
       <r>    -7.0612     0.0628    10.0098 </r>
       <r>    -6.9538    -0.2646     9.9814 </r>
       <r>    -6.8464    -0.7826     9.8973 </r>
       <r>    -6.7390     2.6835    10.1855 </r>
       <r>    -6.6317     9.4236    11.1974 </r>
       <r>    -6.5243     7.6957    12.0238 </r>
       <r>    -6.4169    -0.3128    11.9903 </r>
       <r>    -6.3095    -2.4034    11.7322 </r>
       <r>    -6.2021    11.5101    12.9682 </r>
       <r>    -6.0947    28.0167    15.9767 </r>
       <r>    -5.9874    21.2619    18.2600 </r>
       <r>    -5.8800    22.8404    20.7127 </r>
       <r>    -5.7726    49.2877    26.0054 </r>
       <r>    -5.6652    93.8323    36.0816 </r>
       <r>    -5.5578   193.1873    56.8270 </r>
       <r>    -5.4504   294.2518    88.4252 </r>
       <r>    -5.3430   275.6061   118.0211 </r>
       <r>    -5.2357   209.3068   140.4974 </r>
       <r>    -5.1283   239.3943   166.2048 </r>
       <r>    -5.0209   336.1686   202.3042 </r>
       <r>    -4.9135   356.1645   240.5508 </r>
       <r>    -4.8061   294.6729   272.1942 </r>
       <r>    -4.6987   320.4959   306.6106 </r>
       <r>    -4.5914   414.7201   351.1453 </r>
       <r>    -4.4840   426.6102   396.9568 </r>
       <r>    -4.3766   449.8491   445.2637 </r>
       <r>    -4.2692   549.4791   504.2695 </r>
       <r>    -4.1618   484.5249   556.3001 </r>
       <r>    -4.0544   208.8474   578.7271 </r>
       <r>    -3.9470    23.5818   581.2595 </r>
       <r>    -3.8397    16.7976   583.0633 </r>
       <r>    -3.7323    31.8311   586.4815 </r>
       <r>    -3.6249    14.7661   588.0671 </r>
       <r>    -3.5175    15.9607   589.7810 </r>
       <r>    -3.4101    26.8595   592.6653 </r>
       <r>    -3.3027    11.3415   593.8832 </r>
       <r>    -3.1953    -1.7717   593.6930 </r>
       <r>    -3.0880    26.4378   596.5320 </r>
       <r>    -2.9806    63.4057   603.3408 </r>
       <r>    -2.8732    51.1391   608.8324 </r>
       <r>    -2.7658    12.7937   610.2062 </r>
       <r>    -2.6584    -2.2514   609.9645 </r>
       <r>    -2.5510    12.8512   611.3445 </r>
       <r>    -2.4437    29.4356   614.5054 </r>
       <r>    -2.3363    22.3247   616.9028 </r>
       <r>    -2.2289    11.3246   618.1188 </r>
       <r>    -2.1215    25.3931   620.8457 </r>
       <r>    -2.0141    42.6250   625.4230 </r>
       <r>    -1.9067    39.0634   629.6178 </r>
       <r>    -1.7993    33.7590   633.2430 </r>
       <r>    -1.6920    38.2739   637.3530 </r>
       <r>    -1.5846    39.8864   641.6362 </r>
       <r>    -1.4772    31.8161   645.0528 </r>
       <r>    -1.3698    24.5394   647.6880 </r>
       <r>    -1.2624    23.3472   650.1951 </r>
       <r>    -1.1550    23.4156   652.7096 </r>
       <r>    -1.0477    32.0409   656.1503 </r>
       <r>    -0.9403    56.6735   662.2362 </r>
       <r>    -0.8329    52.8818   667.9149 </r>
       <r>    -0.7255    20.0304   670.0658 </r>
       <r>    -0.6181     6.3193   670.7444 </r>
       <r>    -0.5107     8.3198   671.6378 </r>
       <r>    -0.4033     4.0549   672.0733 </r>
       <r>    -0.2960    -0.3992   672.0304 </r>
       <r>    -0.1886    -0.3773   671.9899 </r>
       <r>    -0.0812     0.0532   671.9956 </r>
       <r>     0.0262     0.0359   671.9995 </r>
       <r>     0.1336     0.0048   672.0000 </r>
       <r>     0.2410     0.0003   672.0000 </r>
       <r>     0.3484     0.0000   672.0000 </r>
       <r>     0.4557     0.0000   672.0000 </r>
       <r>     0.5631     0.0000   672.0000 </r>
       <r>     0.6705     0.0000   672.0000 </r>
       <r>     0.7779     0.0000   672.0000 </r>
       <r>     0.8853     0.0000   672.0000 </r>
       <r>     0.9927     0.0000   672.0000 </r>
       <r>     1.1000     0.0000   672.0000 </r>
       <r>     1.2074     0.0000   672.0000 </r>
       <r>     1.3148     0.0000   672.0000 </r>
       <r>     1.4222     0.0000   672.0000 </r>
      </set>
     </set>
    </array>
   </total>
  </dos>
 </calculation>
 <structure name="finalpos" >
  <crystal>
   <varray name="basis" >
    <v>      30.00000000       0.00000000       0.00000000 </v>
    <v>       0.00000000      30.00000000       0.00000000 </v>
    <v>       0.00000000       0.00000000      30.00000000 </v>
   </varray>
   <i name="volume">  27000.00000000 </i>
   <varray name="rec_basis" >
    <v>       0.03333333       0.00000000       0.00000000 </v>
    <v>       0.00000000       0.03333333       0.00000000 </v>
    <v>       0.00000000       0.00000000       0.03333333 </v>
   </varray>
  </crystal>
  <varray name="positions" >
   <v>       0.44576020       0.32826710       0.41691983 </v>
   <v>       0.67173288       0.55423978       0.41691983 </v>
   <v>       0.55423980       0.32826710       0.41691983 </v>
   <v>       0.32826712       0.55423978       0.41691983 </v>
   <v>       0.50000000       0.38250690       0.34021317 </v>
   <v>       0.50000000       0.38250690       0.65978680 </v>
   <v>       0.50000000       0.27609440       0.50000000 </v>
   <v>       0.27609443       0.49999998       0.50000000 </v>
   <v>       0.72390557       0.49999998       0.50000000 </v>
   <v>       0.50000000       0.72390555       0.50000000 </v>
   <v>       0.61195280       0.38804720       0.34167483 </v>
   <v>       0.61195280       0.38804720       0.65832513 </v>
   <v>       0.38804722       0.61195278       0.34167483 </v>
   <v>       0.38804722       0.61195278       0.65832513 </v>
   <v>       0.38804720       0.38804720       0.34167483 </v>
   <v>       0.38804720       0.38804720       0.65832513 </v>
   <v>       0.61195278       0.61195278       0.34167483 </v>
   <v>       0.61195278       0.61195278       0.65832513 </v>
   <v>       0.44576020       0.32826710       0.58308023 </v>
   <v>       0.67173288       0.55423978       0.58308023 </v>
   <v>       0.55791699       0.44208301       0.41809300 </v>
   <v>       0.32826705       0.44576024       0.41691983 </v>
   <v>       0.55423973       0.67173293       0.41691983 </v>
   <v>       0.55423980       0.32826710       0.58308023 </v>
   <v>       0.32826712       0.55423978       0.58308023 </v>
   <v>       0.67173295       0.44576024       0.41691983 </v>
   <v>       0.44576027       0.67173293       0.41691983 </v>
   <v>       0.44208301       0.44208301       0.41809300 </v>
   <v>       0.50000000       0.38416601       0.50000000 </v>
   <v>       0.61749315       0.50000005       0.34021317 </v>
   <v>       0.61749315       0.50000005       0.65978680 </v>
   <v>       0.38250685       0.50000005       0.34021317 </v>
   <v>       0.38250685       0.50000005       0.65978680 </v>
   <v>       0.38317830       0.38317830       0.50000000 </v>
   <v>       0.61682172       0.61682172       0.50000000 </v>
   <v>       0.61682170       0.38317830       0.50000000 </v>
   <v>       0.38317828       0.61682172       0.50000000 </v>
   <v>       0.50000000       0.50000000       0.33478917 </v>
   <v>       0.50000000       0.50000000       0.66521087 </v>
   <v>       0.32826705       0.44576024       0.58308023 </v>
   <v>       0.55423973       0.67173293       0.58308023 </v>
   <v>       0.55791699       0.44208301       0.58190703 </v>
   <v>       0.44208298       0.55791702       0.41809300 </v>
   <v>       0.44208301       0.44208301       0.58190703 </v>
   <v>       0.67173295       0.44576024       0.58308023 </v>
   <v>       0.44576027       0.67173293       0.58308023 </v>
   <v>       0.55791702       0.55791702       0.41809300 </v>
   <v>       0.38416599       0.50000002       0.50000000 </v>
   <v>       0.61583401       0.50000002       0.50000000 </v>
   <v>       0.50000000       0.61749319       0.34021317 </v>
   <v>       0.50000000       0.61749319       0.65978680 </v>
   <v>       0.50000000       0.50000000       0.50000000 </v>
   <v>       0.44208298       0.55791702       0.58190703 </v>
   <v>       0.55791702       0.55791702       0.58190703 </v>
   <v>       0.50000000       0.61583404       0.50000000 </v>
   <v>       0.28844953       0.40606727       0.62504083 </v>
   <v>       0.25821447       0.39264230       0.64291183 </v>
  </varray>
  <varray name="selective"  type="logical" >
   <v type="logical" >  F  F  F </v>
   <v type="logical" >  F  F  F </v>
   <v type="logical" >  F  F  F </v>
   <v type="logical" >  F  F  F </v>
   <v type="logical" >  F  F  F </v>
   <v type="logical" >  F  F  F </v>
   <v type="logical" >  F  F  F </v>
   <v type="logical" >  F  F  F </v>
   <v type="logical" >  F  F  F </v>
   <v type="logical" >  F  F  F </v>
   <v type="logical" >  F  F  F </v>
   <v type="logical" >  F  F  F </v>
   <v type="logical" >  F  F  F </v>
   <v type="logical" >  F  F  F </v>
   <v type="logical" >  F  F  F </v>
   <v type="logical" >  F  F  F </v>
   <v type="logical" >  F  F  F </v>
   <v type="logical" >  F  F  F </v>
   <v type="logical" >  F  F  F </v>
   <v type="logical" >  F  F  F </v>
   <v type="logical" >  F  F  F </v>
   <v type="logical" >  F  F  F </v>
   <v type="logical" >  F  F  F </v>
   <v type="logical" >  F  F  F </v>
   <v type="logical" >  F  F  F </v>
   <v type="logical" >  F  F  F </v>
   <v type="logical" >  F  F  F </v>
   <v type="logical" >  F  F  F </v>
   <v type="logical" >  F  F  F </v>
   <v type="logical" >  F  F  F </v>
   <v type="logical" >  F  F  F </v>
   <v type="logical" >  F  F  F </v>
   <v type="logical" >  F  F  F </v>
   <v type="logical" >  F  F  F </v>
   <v type="logical" >  F  F  F </v>
   <v type="logical" >  F  F  F </v>
   <v type="logical" >  F  F  F </v>
   <v type="logical" >  F  F  F </v>
   <v type="logical" >  F  F  F </v>
   <v type="logical" >  F  F  F </v>
   <v type="logical" >  F  F  F </v>
   <v type="logical" >  F  F  F </v>
   <v type="logical" >  F  F  F </v>
   <v type="logical" >  F  F  F </v>
   <v type="logical" >  F  F  F </v>
   <v type="logical" >  F  F  F </v>
   <v type="logical" >  F  F  F </v>
   <v type="logical" >  F  F  F </v>
   <v type="logical" >  F  F  F </v>
   <v type="logical" >  F  F  F </v>
   <v type="logical" >  F  F  F </v>
   <v type="logical" >  F  F  F </v>
   <v type="logical" >  F  F  F </v>
   <v type="logical" >  F  F  F </v>
   <v type="logical" >  F  F  F </v>
   <v type="logical" >  F  F  F </v>
   <v type="logical" >  F  F  F </v>
  </varray>
  <nose>
   <v>      -3.00000000       0.00000000       0.00010000       0.00010000 </v>
  </nose>
 </structure>
</modeling>
