 vasp.5.4.4.18Apr17-6-g9f103f2a35 (build Sep 03 2018 23:53:05) complex          
  
 executed on             LinuxIFC date 2021.11.27  14:02:52
 running on    1 total cores
 distrk:  each k-point on    1 cores,    1 groups
 distr:  one band on NCORES_PER_BAND=   1 cores,    1 groups


--------------------------------------------------------------------------------------------------------


 INCAR:
 POTCAR:    PAW_PBE Pd 04Jan2005                  
 POTCAR:    PAW_PBE C 08Apr2002                   
 POTCAR:    PAW_PBE O 08Apr2002                   
 POTCAR:    PAW_PBE Pd 04Jan2005                  
   VRHFIN =Pd : s1 d9                                                           
   LEXCH  = PE                                                                  
   EATOM  =   809.7530 eV,   59.5152 Ry                                         
                                                                                
   TITEL  = PAW_PBE Pd 04Jan2005                                                
   LULTRA =        F    use ultrasoft PP ?                                      
   IUNSCR =        1    unscreen: 0-lin 1-nonlin 2-no                           
   RPACOR =    2.000    partial core radius                                     
   POMASS =  106.420; ZVAL   =   10.000    mass and valenz                      
   RCORE  =    2.600    outmost cutoff radius                                   
   RWIGS  =    2.710; RWIGS  =    1.434    wigner-seitz radius (au A)           
   ENMAX  =  250.925; ENMIN  =  188.194 eV                                      
   ICORE  =        3    local potential                                         
   LCOR   =        T    correct aug charges                                     
   LPAW   =        T    paw PP                                                  
   EAUG   =  416.230                                                            
   DEXC   =    0.000                                                            
   RMAX   =    2.653    core radius for proj-oper                               
   RAUG   =    1.300    factor for augmentation sphere                          
   RDEP   =    2.734    radius for radial grids                                 
   RDEPT  =    2.103    core radius for aug-charge                              
                                                                                
   Atomic configuration                                                         
   12 entries                                                                   
     n  l   j            E        occ.                                          
     1  0  0.50    -24164.6631   2.0000                                         
     2  0  0.50     -3530.9218   2.0000                                         
     2  1  1.50     -3165.6822   6.0000                                         
     3  0  0.50      -639.4577   2.0000                                         
     3  1  1.50      -519.4532   6.0000                                         
     3  2  2.50      -328.9757  10.0000                                         
     4  0  0.50       -88.7014   2.0000                                         
     4  1  1.50       -54.4540   6.0000                                         
     4  2  2.50        -6.6878   9.0000                                         
     5  0  0.50        -4.3543   1.0000                                         
     5  1  0.50        -1.3606   0.0000                                         
     4  3  2.50        -1.3606   0.0000                                         
   Description                                                                  
     l       E           TYP  RCUT    TYP  RCUT                                 
     2     -6.6878251     23  2.400                                             
     2     -8.0484077     23  2.400                                             
     0     -4.3542939     23  2.400                                             
     0      4.3406793     23  2.400                                             
     1     -4.0817478     23  2.600                                             
     1     15.8380318     23  2.600                                             
     3     -4.0817478     23  2.400                                             
  local pseudopotential read in
  partial core-charges read in
  partial kinetic energy density read in
  atomic valenz-charges read in
  non local Contribution for L=           2  read in
    real space projection operators read in
  non local Contribution for L=           2  read in
    real space projection operators read in
  non local Contribution for L=           0  read in
    real space projection operators read in
  non local Contribution for L=           0  read in
    real space projection operators read in
  non local Contribution for L=           1  read in
    real space projection operators read in
  non local Contribution for L=           1  read in
    real space projection operators read in
    PAW grid and wavefunctions read in
 
   number of l-projection  operators is LMAX  =           6
   number of lm-projection operators is LMMAX =          18
 
 POTCAR:    PAW_PBE C 08Apr2002                   
   VRHFIN =C: s2p2                                                              
   LEXCH  = PE                                                                  
   EATOM  =   147.1560 eV,   10.8157 Ry                                         
                                                                                
   TITEL  = PAW_PBE C 08Apr2002                                                 
   LULTRA =        F    use ultrasoft PP ?                                      
   IUNSCR =        1    unscreen: 0-lin 1-nonlin 2-no                           
   RPACOR =    1.200    partial core radius                                     
   POMASS =   12.011; ZVAL   =    4.000    mass and valenz                      
   RCORE  =    1.500    outmost cutoff radius                                   
   RWIGS  =    1.630; RWIGS  =    0.863    wigner-seitz radius (au A)           
   ENMAX  =  400.000; ENMIN  =  300.000 eV                                      
   ICORE  =        2    local potential                                         
   LCOR   =        T    correct aug charges                                     
   LPAW   =        T    paw PP                                                  
   EAUG   =  644.873                                                            
   DEXC   =    0.000                                                            
   RMAX   =    1.529    core radius for proj-oper                               
   RAUG   =    1.300    factor for augmentation sphere                          
   RDEP   =    1.501    radius for radial grids                                 
   RDEPT  =    1.300    core radius for aug-charge                              
                                                                                
   Atomic configuration                                                         
    4 entries                                                                   
     n  l   j            E        occ.                                          
     1  0  0.50      -273.3789   2.0000                                         
     2  0  0.50       -13.7508   2.0000                                         
     2  1  0.50        -5.2854   2.0000                                         
     3  2  1.50        -5.4423   0.0000                                         
   Description                                                                  
     l       E           TYP  RCUT    TYP  RCUT                                 
     0    -13.7508458     23  1.200                                             
     0     -8.2022199     23  1.200                                             
     1     -5.2854383     23  1.500                                             
     1     34.0145650     23  1.500                                             
     2     -5.4423304      7  1.500                                             
  local pseudopotential read in
  partial core-charges read in
  partial kinetic energy density read in
  atomic valenz-charges read in
  non local Contribution for L=           0  read in
    real space projection operators read in
  non local Contribution for L=           0  read in
    real space projection operators read in
  non local Contribution for L=           1  read in
    real space projection operators read in
  non local Contribution for L=           1  read in
    real space projection operators read in
    PAW grid and wavefunctions read in
 
   number of l-projection  operators is LMAX  =           4
   number of lm-projection operators is LMMAX =           8
 
 POTCAR:    PAW_PBE O 08Apr2002                   
   VRHFIN =O: s2p4                                                              
   LEXCH  = PE                                                                  
   EATOM  =   432.3788 eV,   31.7789 Ry                                         
                                                                                
   TITEL  = PAW_PBE O 08Apr2002                                                 
   LULTRA =        F    use ultrasoft PP ?                                      
   IUNSCR =        1    unscreen: 0-lin 1-nonlin 2-no                           
   RPACOR =    1.200    partial core radius                                     
   POMASS =   16.000; ZVAL   =    6.000    mass and valenz                      
   RCORE  =    1.520    outmost cutoff radius                                   
   RWIGS  =    1.550; RWIGS  =    0.820    wigner-seitz radius (au A)           
   ENMAX  =  400.000; ENMIN  =  300.000 eV                                      
   ICORE  =        2    local potential                                         
   LCOR   =        T    correct aug charges                                     
   LPAW   =        T    paw PP                                                  
   EAUG   =  605.392                                                            
   DEXC   =    0.000                                                            
   RMAX   =    1.553    core radius for proj-oper                               
   RAUG   =    1.300    factor for augmentation sphere                          
   RDEP   =    1.550    radius for radial grids                                 
   RDEPT  =    1.329    core radius for aug-charge                              
                                                                                
   Atomic configuration                                                         
    4 entries                                                                   
     n  l   j            E        occ.                                          
     1  0  0.50      -514.6923   2.0000                                         
     2  0  0.50       -23.9615   2.0000                                         
     2  1  0.50        -9.0305   4.0000                                         
     3  2  1.50        -9.5241   0.0000                                         
   Description                                                                  
     l       E           TYP  RCUT    TYP  RCUT                                 
     0    -23.9615318     23  1.200                                             
     0     -9.5240782     23  1.200                                             
     1     -9.0304911     23  1.520                                             
     1      8.1634956     23  1.520                                             
     2     -9.5240782      7  1.500                                             
  local pseudopotential read in
  partial core-charges read in
  partial kinetic energy density read in
  kinetic energy density of atom read in
  atomic valenz-charges read in
  non local Contribution for L=           0  read in
    real space projection operators read in
  non local Contribution for L=           0  read in
    real space projection operators read in
  non local Contribution for L=           1  read in
    real space projection operators read in
  non local Contribution for L=           1  read in
    real space projection operators read in
    PAW grid and wavefunctions read in
 
   number of l-projection  operators is LMAX  =           4
   number of lm-projection operators is LMMAX =           8
 
 Optimization of the real space projectors (new method)

 maximal supplied QI-value         = 14.36
 optimisation between [QCUT,QGAM] = [ 10.20, 20.39] = [ 29.12,116.47] Ry 
 Optimized for a Real-space Cutoff    1.51 Angstroem

   l    n(q)    QCUT    max X(q) W(low)/X(q) W(high)/X(q)  e(spline) 
   2      8    10.197    59.108    0.26E-03    0.14E-03    0.96E-07
   2      8    10.197    58.101    0.27E-03    0.14E-03    0.98E-07
   0      9    10.197   102.235    0.54E-04    0.60E-05    0.72E-07
   0      9    10.197    58.388    0.52E-04    0.60E-05    0.68E-07
   1      9    10.197    22.191    0.18E-03    0.25E-03    0.79E-07
   1      9    10.197    15.590    0.15E-03    0.21E-03    0.69E-07
 Optimization of the real space projectors (new method)

 maximal supplied QI-value         = 25.13
 optimisation between [QCUT,QGAM] = [ 10.05, 20.36] = [ 28.30,116.06] Ry 
 Optimized for a Real-space Cutoff    1.30 Angstroem

   l    n(q)    QCUT    max X(q) W(low)/X(q) W(high)/X(q)  e(spline) 
   0      8    10.053   115.676    0.49E-03    0.72E-03    0.18E-06
   0      8    10.053    87.132    0.49E-03    0.71E-03    0.18E-06
   1      7    10.053     4.429    0.32E-03    0.31E-03    0.18E-06
   1      7    10.053     2.733    0.23E-03    0.19E-03    0.20E-06
 Optimization of the real space projectors (new method)

 maximal supplied QI-value         = 24.76
 optimisation between [QCUT,QGAM] = [ 10.15, 20.30] = [ 28.85,115.39] Ry 
 Optimized for a Real-space Cutoff    1.38 Angstroem

   l    n(q)    QCUT    max X(q) W(low)/X(q) W(high)/X(q)  e(spline) 
   0      8    10.150    20.381    0.22E-03    0.32E-03    0.29E-06
   0      8    10.150    15.268    0.23E-03    0.35E-03    0.30E-06
   1      8    10.150     5.964    0.46E-03    0.53E-03    0.21E-06
   1      8    10.150     5.382    0.38E-03    0.45E-03    0.19E-06

 ----------------------------------------------------------------------------- 
|                                                                             |
|  ADVICE TO THIS USER RUNNING 'VASP/VAMP'   (HEAR YOUR MASTER'S VOICE ...):  |
|                                                                             |
|      You enforced a specific xc-type in the INCAR file,                     |
|      a different type was found on the POTCAR file                          |
|          I HOPE YOU KNOW, WHAT YOU ARE  DOING                               |
|                                                                             |
 ----------------------------------------------------------------------------- 

  PAW_PBE Pd 04Jan2005                  :
 energy of atom  1       EATOM= -809.7530
 kinetic energy error for atom=    0.0091 (will be added to EATOM!!)
  PAW_PBE C 08Apr2002                   :
 energy of atom  2       EATOM= -147.1560
 kinetic energy error for atom=    0.0288 (will be added to EATOM!!)
  PAW_PBE O 08Apr2002                   :
 energy of atom  3       EATOM= -432.3788
 kinetic energy error for atom=    0.1156 (will be added to EATOM!!)
 
 
 POSCAR: Pd55PES                                 
  positions in cartesian coordinates
  No initial velocities read in
 exchange correlation table for  LEXCH =        9
   RHO(1)=    0.500       N(1)  =     2000
   RHO(2)=  100.500       N(2)  =     4000
 


--------------------------------------------------------------------------------------------------------


 ion  position               nearest neighbor table
   1  0.446  0.328  0.417-  56 1.66   3 3.25   5 3.25   7 3.36  15 3.36  29 3.42  28 3.42
   2  0.672  0.554  0.417-  26 3.25  30 3.25  17 3.36   9 3.36  47 3.42  49 3.42
   3  0.554  0.328  0.417-   1 3.25   5 3.25   7 3.36  11 3.36  29 3.42  21 3.42
   4  0.328  0.554  0.417-  32 3.25  22 3.25  13 3.36   8 3.36  43 3.42  48 3.42
   5  0.500  0.383  0.340-   1 3.25   3 3.25  11 3.36  15 3.36  21 3.42  28 3.42
   6  0.500  0.383  0.660-  24 3.25  19 3.25  16 3.36  12 3.36  42 3.42  44 3.42
   7  0.500  0.276  0.500-  29 3.24   3 3.36   1 3.36  19 3.36  24 3.36
   8  0.276  0.500  0.500-  48 3.24  22 3.36  40 3.36   4 3.36  25 3.36
   9  0.724  0.500  0.500-  49 3.24  26 3.36  45 3.36   2 3.36  20 3.36
  10  0.500  0.724  0.500-  55 3.24  27 3.36  23 3.36  46 3.36  41 3.36
  11  0.612  0.388  0.342-  21 3.24   5 3.36   3 3.36  30 3.36  26 3.36
  12  0.612  0.388  0.658-  42 3.24  24 3.36  45 3.36   6 3.36  31 3.36
  13  0.388  0.612  0.342-  43 3.24  32 3.36  50 3.36   4 3.36  27 3.36
  14  0.388  0.612  0.658-  53 3.24  25 3.36  33 3.36  51 3.36  46 3.36
  15  0.388  0.388  0.342-  28 3.24   5 3.36   1 3.36  32 3.36  22 3.36
  16  0.388  0.388  0.658-  44 3.24  19 3.36  40 3.36   6 3.36  33 3.36
  17  0.612  0.612  0.342-  47 3.24  30 3.36  50 3.36   2 3.36  23 3.36
  18  0.612  0.612  0.658-  54 3.24  31 3.36  20 3.36  51 3.36  41 3.36
  19  0.446  0.328  0.583-   6 3.25  24 3.25  16 3.36   7 3.36  44 3.42  29 3.42
  20  0.672  0.554  0.583-  31 3.25  45 3.25  18 3.36   9 3.36  54 3.42  49 3.42
  21  0.558  0.442  0.418-  11 3.24   5 3.42   3 3.42  30 3.42  26 3.42
  22  0.328  0.446  0.417-   4 3.25  32 3.25   8 3.36  15 3.36  48 3.42  28 3.42
  23  0.554  0.672  0.417-  27 3.25  50 3.25  10 3.36  17 3.36  55 3.42  47 3.42
  24  0.554  0.328  0.583-   6 3.25  19 3.25  12 3.36   7 3.36  42 3.42  29 3.42
  25  0.328  0.554  0.583-  33 3.25  40 3.25  14 3.36   8 3.36  53 3.42  48 3.42
  26  0.672  0.446  0.417-   2 3.25  30 3.25   9 3.36  11 3.36  49 3.42  21 3.42
  27  0.446  0.672  0.417-  23 3.25  50 3.25  10 3.36  13 3.36  55 3.42  43 3.42
  28  0.442  0.442  0.418-  15 3.24   5 3.42   1 3.42  32 3.42  22 3.42
  29  0.500  0.384  0.500-   7 3.24   3 3.42   1 3.42  24 3.42  19 3.42
  30  0.617  0.500  0.340-   2 3.25  26 3.25  17 3.36  11 3.36  47 3.42  21 3.42
  31  0.617  0.500  0.660-  20 3.25  45 3.25  18 3.36  12 3.36  54 3.42  42 3.42
  32  0.383  0.500  0.340-   4 3.25  22 3.25  13 3.36  15 3.36  43 3.42  28 3.42
  33  0.383  0.500  0.660-  25 3.25  40 3.25  14 3.36  16 3.36  53 3.42  44 3.42
  34  0.383  0.383  0.500-
  35  0.617  0.617  0.500-
  36  0.617  0.383  0.500-
  37  0.383  0.617  0.500-
  38  0.500  0.500  0.335-
  39  0.500  0.500  0.665-
  40  0.328  0.446  0.583-  33 3.25  25 3.25  16 3.36   8 3.36  44 3.42  48 3.42
  41  0.554  0.672  0.583-  46 3.25  51 3.25  10 3.36  18 3.36  54 3.42  55 3.42
  42  0.558  0.442  0.582-  12 3.24   6 3.42  24 3.42  31 3.42  45 3.42
  43  0.442  0.558  0.418-  13 3.24   4 3.42  32 3.42  27 3.42  50 3.42
  44  0.442  0.442  0.582-  16 3.24   6 3.42  19 3.42  33 3.42  40 3.42
  45  0.672  0.446  0.583-  20 3.25  31 3.25   9 3.36  12 3.36  49 3.42  42 3.42
  46  0.446  0.672  0.583-  41 3.25  51 3.25  10 3.36  14 3.36  53 3.42  55 3.42
  47  0.558  0.558  0.418-  17 3.24   2 3.42  30 3.42  23 3.42  50 3.42
  48  0.384  0.500  0.500-   8 3.24   4 3.42  22 3.42  25 3.42  40 3.42
  49  0.616  0.500  0.500-   9 3.24   2 3.42  26 3.42  20 3.42  45 3.42
  50  0.500  0.617  0.340-  27 3.25  23 3.25  13 3.36  17 3.36  43 3.42  47 3.42
  51  0.500  0.617  0.660-  41 3.25  46 3.25  14 3.36  18 3.36  53 3.42  54 3.42
  52  0.500  0.500  0.500-
  53  0.442  0.558  0.582-  14 3.24  25 3.42  33 3.42  51 3.42  46 3.42
  54  0.558  0.558  0.582-  18 3.24  31 3.42  20 3.42  51 3.42  41 3.42
  55  0.500  0.616  0.500-  10 3.24  23 3.42  27 3.42  41 3.42  46 3.42
  56  0.438  0.278  0.397-  57 1.13   1 1.66
  57  0.428  0.245  0.381-  56 1.13
 
  LATTYP: Found a simple cubic cell.
 ALAT       =    30.0000000000
  
  Lattice vectors:
  
 A1 = (  30.0000000000,   0.0000000000,   0.0000000000)
 A2 = (   0.0000000000,  30.0000000000,   0.0000000000)
 A3 = (   0.0000000000,   0.0000000000,  30.0000000000)


Analysis of symmetry for initial positions (statically):
=====================================================================
 Subroutine PRICEL returns:
 Original cell was already a primitive cell.
 

 Routine SETGRP: Setting up the symmetry group for a 
 simple cubic supercell.


 Subroutine GETGRP returns: Found  1 space group operations
 (whereof  1 operations were pure point group operations)
 out of a pool of 48 trial point group operations.


The static configuration has the point symmetry C_1 .


Analysis of symmetry for dynamics (positions and initial velocities):
=====================================================================
 Subroutine PRICEL returns:
 Original cell was already a primitive cell.
 

 Routine SETGRP: Setting up the symmetry group for a 
 simple cubic supercell.


 Subroutine GETGRP returns: Found  1 space group operations
 (whereof  1 operations were pure point group operations)
 out of a pool of 48 trial point group operations.


The dynamic configuration has the point symmetry C_1 .


Analysis of constrained symmetry for selective dynamics:
=====================================================================
 Subroutine PRICEL returns:
 Original cell was already a primitive cell.
 

 Routine SETGRP: Setting up the symmetry group for a 
 simple cubic supercell.


 Subroutine GETGRP returns: Found  1 space group operations
 (whereof  1 operations were pure point group operations)
 out of a pool of 48 trial point group operations.


The constrained configuration has the point symmetry C_1 .


 Subroutine INISYM returns: Found  1 space group operations
 (whereof  1 operations are pure point group operations),
 and found     1 'primitive' translations

 
 
 KPOINTS: K-points                                

Automatic generation of k-mesh.
Space group operators:
 irot       det(A)        alpha          n_x          n_y          n_z        tau_x        tau_y        tau_z
    1     1.000000     0.000000     1.000000     0.000000     0.000000     0.000000     0.000000     0.000000
 
 Subroutine IBZKPT returns following result:
 ===========================================
 
 Found      1 irreducible k-points:
 
 Following reciprocal coordinates:
            Coordinates               Weight
  0.000000  0.000000  0.000000      1.000000
 
 Following cartesian coordinates:
            Coordinates               Weight
  0.000000  0.000000  0.000000      1.000000
 


--------------------------------------------------------------------------------------------------------




 Dimension of arrays:
   k-points           NKPTS =      1   k-points in BZ     NKDIM =      1   number of bands    NBANDS=    336
   number of dos      NEDOS =    301   number of ions     NIONS =     57
   non local maximal  LDIM  =      6   non local SUM 2l+1 LMDIM =     18
   total plane-waves  NPLWV = ******
   max r-space proj   IRMAX =   1847   max aug-charges    IRDMAX=   6262
   dimension x,y,z NGX =   150 NGY =  150 NGZ =  150
   dimension x,y,z NGXF=   300 NGYF=  300 NGZF=  300
   support grid    NGXF=   300 NGYF=  300 NGZF=  300
   ions per type =              55   1   1
   NGX,Y,Z   is equivalent  to a cutoff of   8.31,  8.31,  8.31 a.u.
   NGXF,Y,Z  is equivalent  to a cutoff of  16.62, 16.62, 16.62 a.u.

 SYSTEM =  6_Pd100_top_free_z(O)                   
 POSCAR =  Pd55PES                                 

 Startparameter for this run:
   NWRITE =      2    write-flag & timer
   PREC   = normal    normal or accurate (medium, high low for compatibility)
   ISTART =      0    job   : 0-new  1-cont  2-samecut
   ICHARG =      2    charge: 1-file 2-atom 10-const
   ISPIN  =      1    spin polarized calculation?
   LNONCOLLINEAR =      F non collinear calculations
   LSORBIT =      F    spin-orbit coupling
   INIWAV =      1    electr: 0-lowe 1-rand  2-diag
   LASPH  =      F    aspherical Exc in radial PAW
   METAGGA=      F    non-selfconsistent MetaGGA calc.

 Electronic Relaxation 1
   ENCUT  =  400.0 eV  29.40 Ry    5.42 a.u.  48.92 48.92 48.92*2*pi/ulx,y,z
   ENINI  =  400.0     initial cutoff
   ENAUG  =  644.9 eV  augmentation charge cutoff
   NELM   =    100;   NELMIN=  6; NELMDL= -5     # of ELM steps 
   EDIFF  = 0.1E-03   stopping-criterion for ELM
   LREAL  =      T    real-space projection
   NLSPLINE    = F    spline interpolate recip. space projectors
   LCOMPAT=      F    compatible to vasp.4.4
   GGA_COMPAT  = T    GGA compatible to vasp.4.4-vasp.4.6
   LMAXPAW     = -100 max onsite density
   LMAXMIX     =    2 max onsite mixed and CHGCAR
   VOSKOWN=      0    Vosko Wilk Nusair interpolation
   ROPT   =   -0.00050  -0.00050  -0.00050
 Ionic relaxation
   EDIFFG = -.5E-01   stopping-criterion for IOM
   NSW    =      0    number of steps for IOM
   NBLOCK =      1;   KBLOCK =      1    inner block; outer block 
   IBRION =     -1    ionic relax: 0-MD 1-quasi-New 2-CG
   NFREE  =      1    steps in history (QN), initial steepest desc. (CG)
   ISIF   =      2    stress and relaxation
   IWAVPR =     10    prediction:  0-non 1-charg 2-wave 3-comb
   ISYM   =      2    0-nonsym 1-usesym 2-fastsym
   LCORR  =      T    Harris-Foulkes like correction to forces

   POTIM  = 0.5000    time-step for ionic-motion
   TEIN   =    0.0    initial temperature
   TEBEG  =    0.0;   TEEND  =   0.0 temperature during run
   SMASS  =  -3.00    Nose mass-parameter (am)
   estimated Nose-frequenzy (Omega)   =  0.10E-29 period in steps =****** mass=  -0.206E-25a.u.
   SCALEE = 1.0000    scale energy and forces
   NPACO  =    256;   APACO  = 16.0  distance and # of slots for P.C.
   PSTRESS=    0.0 pullay stress

  Mass of Ions in am
   POMASS = 106.42 12.01 16.00
  Ionic Valenz
   ZVAL   =  10.00  4.00  6.00
  Atomic Wigner-Seitz radii
   RWIGS  =  -1.00 -1.00 -1.00
  virtual crystal weights 
   VCA    =   1.00  1.00  1.00
   NELECT =     560.0000    total number of electrons
   NUPDOWN=      -1.0000    fix difference up-down

 DOS related values:
   EMIN   =  10.00;   EMAX   =-10.00  energy-range for DOS
   EFERMI =   0.00
   ISMEAR =     2;   SIGMA  =   0.20  broadening in eV -4-tet -1-fermi 0-gaus

 Electronic relaxation 2 (details)
   IALGO  =     68    algorithm
   LDIAG  =      T    sub-space diagonalisation (order eigenvalues)
   LSUBROT=      F    optimize rotation matrix (better conditioning)
   TURBO    =      0    0=normal 1=particle mesh
   IRESTART =      0    0=no restart 2=restart with 2 vectors
   NREBOOT  =      0    no. of reboots
   NMIN     =      0    reboot dimension
   EREF     =   0.00    reference energy to select bands
   IMIX   =      4    mixing-type and parameters
     AMIX     =   0.40;   BMIX     =  1.00
     AMIX_MAG =   1.60;   BMIX_MAG =  1.00
     AMIN     =   0.10
     WC   =   100.;   INIMIX=   1;  MIXPRE=   1;  MAXMIX= -45

 Intra band minimization:
   WEIMIN = 0.0000     energy-eigenvalue tresh-hold
   EBREAK =  0.74E-07  absolut break condition
   DEPER  =   0.30     relativ break condition  

   TIME   =   0.40     timestep for ELM

  volume/ion in A,a.u.               =     473.68      3196.58
  Fermi-wavevector in a.u.,A,eV,Ry     =   0.449797  0.849992  2.752691  0.202317
  Thomas-Fermi vector in A             =   1.430086
 
 Write flags
   LWAVE        =      F    write WAVECAR
   LDOWNSAMPLE  =      F    k-point downsampling of WAVECAR
   LCHARG       =      F    write CHGCAR
   LVTOT        =      F    write LOCPOT, total local potential
   LVHAR        =      F    write LOCPOT, Hartree potential only
   LELF         =      F    write electronic localiz. function (ELF)
   LORBIT       =      0    0 simple, 1 ext, 2 COOP (PROOUT), +10 PAW based schemes


 Dipole corrections
   LMONO  =      F    monopole corrections only (constant potential shift)
   LDIPOL =      F    correct potential (dipole corrections)
   IDIPOL =      0    1-x, 2-y, 3-z, 4-all directions 
   EPSILON=  1.0000000 bulk dielectric constant

 Exchange correlation treatment:
   GGA     =    RP    GGA type
   LEXCH   =     9    internal setting for exchange type
   VOSKOWN=      0    Vosko Wilk Nusair interpolation
   LHFCALC =     F    Hartree Fock is set to
   LHFONE  =     F    Hartree Fock one center treatment
   AEXX    =    0.0000 exact exchange contribution

 Linear response parameters
   LEPSILON=     F    determine dielectric tensor
   LRPA    =     F    only Hartree local field effects (RPA)
   LNABLA  =     F    use nabla operator in PAW spheres
   LVEL    =     F    velocity operator in full k-point grid
   LINTERFAST=   F  fast interpolation
   KINTER  =     0    interpolate to denser k-point grid
   CSHIFT  =0.1000    complex shift for real part using Kramers Kronig
   OMEGAMAX=  -1.0    maximum frequency
   DEG_THRESHOLD= 0.2000000E-02 threshold for treating states as degnerate
   RTIME   =   -0.100 relaxation time in fs
  (WPLASMAI=    0.000 imaginary part of plasma frequency in eV, 0.658/RTIME)
   DFIELD  = 0.0000000 0.0000000 0.0000000 field for delta impulse in time
 
 Orbital magnetization related:
   ORBITALMAG=     F  switch on orbital magnetization
   LCHIMAG   =     F  perturbation theory with respect to B field
   DQ        =  0.001000  dq finite difference perturbation B field
   LLRAUG    =     F  two centre corrections for induced B field



--------------------------------------------------------------------------------------------------------


 Static calculation
 charge density and potential will be updated during run
 non-spin polarized calculation
 RMM-DIIS sequential band-by-band and
  variant of blocked Davidson during initial phase
 perform sub-space diagonalisation
    before iterative eigenvector-optimisation
 modified Broyden-mixing scheme, WC =      100.0
 initial mixing is a Kerker type mixing with AMIX =  0.4000 and BMIX =      1.0000
 Hartree-type preconditioning will be used
 using additional bands           56
 real space projection scheme for non local part
 use partial core corrections
 calculate Harris-corrections to forces 
   (improved forces if not selfconsistent)
 use gradient corrections 
 use of overlap-Matrix (Vanderbilt PP)
 Methfessel and Paxton  Order N= 2 SIGMA  =   0.20


--------------------------------------------------------------------------------------------------------


  energy-cutoff  :      400.00
  volume of cell :    27000.00
      direct lattice vectors                 reciprocal lattice vectors
    30.000000000  0.000000000  0.000000000     0.033333333  0.000000000  0.000000000
     0.000000000 30.000000000  0.000000000     0.000000000  0.033333333  0.000000000
     0.000000000  0.000000000 30.000000000     0.000000000  0.000000000  0.033333333

  length of vectors
    30.000000000 30.000000000 30.000000000     0.033333333  0.033333333  0.033333333


 
 k-points in units of 2pi/SCALE and weight: K-points                                
   0.00000000  0.00000000  0.00000000       1.000
 
 k-points in reciprocal lattice and weights: K-points                                
   0.00000000  0.00000000  0.00000000       1.000
 
 position of ions in fractional coordinates (direct lattice) 
   0.44576020  0.32826710  0.41691983
   0.67173288  0.55423978  0.41691983
   0.55423980  0.32826710  0.41691983
   0.32826712  0.55423978  0.41691983
   0.50000000  0.38250690  0.34021317
   0.50000000  0.38250690  0.65978680
   0.50000000  0.27609440  0.50000000
   0.27609443  0.49999998  0.50000000
   0.72390557  0.49999998  0.50000000
   0.50000000  0.72390555  0.50000000
   0.61195280  0.38804720  0.34167483
   0.61195280  0.38804720  0.65832513
   0.38804722  0.61195278  0.34167483
   0.38804722  0.61195278  0.65832513
   0.38804720  0.38804720  0.34167483
   0.38804720  0.38804720  0.65832513
   0.61195278  0.61195278  0.34167483
   0.61195278  0.61195278  0.65832513
   0.44576020  0.32826710  0.58308023
   0.67173288  0.55423978  0.58308023
   0.55791699  0.44208301  0.41809300
   0.32826705  0.44576024  0.41691983
   0.55423973  0.67173293  0.41691983
   0.55423980  0.32826710  0.58308023
   0.32826712  0.55423978  0.58308023
   0.67173295  0.44576024  0.41691983
   0.44576027  0.67173293  0.41691983
   0.44208301  0.44208301  0.41809300
   0.50000000  0.38416601  0.50000000
   0.61749315  0.50000005  0.34021317
   0.61749315  0.50000005  0.65978680
   0.38250685  0.50000005  0.34021317
   0.38250685  0.50000005  0.65978680
   0.38317830  0.38317830  0.50000000
   0.61682172  0.61682172  0.50000000
   0.61682170  0.38317830  0.50000000
   0.38317828  0.61682172  0.50000000
   0.50000000  0.50000000  0.33478917
   0.50000000  0.50000000  0.66521087
   0.32826705  0.44576024  0.58308023
   0.55423973  0.67173293  0.58308023
   0.55791699  0.44208301  0.58190703
   0.44208298  0.55791702  0.41809300
   0.44208301  0.44208301  0.58190703
   0.67173295  0.44576024  0.58308023
   0.44576027  0.67173293  0.58308023
   0.55791702  0.55791702  0.41809300
   0.38416599  0.50000002  0.50000000
   0.61583401  0.50000002  0.50000000
   0.50000000  0.61749319  0.34021317
   0.50000000  0.61749319  0.65978680
   0.50000000  0.50000000  0.50000000
   0.44208298  0.55791702  0.58190703
   0.55791702  0.55791702  0.58190703
   0.50000000  0.61583404  0.50000000
   0.43752837  0.27763373  0.39659450
   0.42824643  0.24459500  0.38123070
 
 position of ions in cartesian coordinates  (Angst):
  13.37280588  9.84801292 12.50759500
  20.15198637 16.62719342 12.50759500
  16.62719412  9.84801292 12.50759500
   9.84801363 16.62719342 12.50759500
  15.00000000 11.47520705 10.20639500
  15.00000000 11.47520705 19.79360400
  15.00000000  8.28283206 15.00000000
   8.28283277 14.99999929 15.00000000
  21.71716723 14.99999929 15.00000000
  15.00000000 21.71716652 14.99999999
  18.35858397 11.64141603 10.25024500
  18.35858397 11.64141603 19.74975399
  11.64141674 18.35858326 10.25024500
  11.64141674 18.35858326 19.74975400
  11.64141603 11.64141603 10.25024500
  11.64141603 11.64141603 19.74975400
  18.35858326 18.35858326 10.25024500
  18.35858326 18.35858326 19.74975400
  13.37280588  9.84801291 17.49240700
  20.15198638 16.62719341 17.49240700
  16.73750985 13.26249015 12.54279000
   9.84801151 13.37280729 12.50759500
  16.62719200 20.15198779 12.50759500
  16.62719412  9.84801292 17.49240700
   9.84801363 16.62719342 17.49240700
  20.15198849 13.37280729 12.50759500
  13.37280800 20.15198779 12.50759500
  13.26249015 13.26249015 12.54279000
  15.00000000 11.52498029 15.00000000
  18.52479437 15.00000140 10.20639500
  18.52479437 15.00000141 19.79360400
  11.47520562 15.00000141 10.20639501
  11.47520563 15.00000141 19.79360400
  11.49534898 11.49534898 15.00000000
  18.50465172 18.50465172 15.00000000
  18.50465102 11.49534898 15.00000000
  11.49534828 18.50465172 15.00000000
  15.00000000 15.00000000 10.04367500
  15.00000000 15.00000000 19.95632599
   9.84801151 13.37280729 17.49240700
  16.62719200 20.15198779 17.49240700
  16.73750985 13.26249015 17.45721100
  13.26248944 16.73751056 12.54279001
  13.26249015 13.26249015 17.45721100
  20.15198849 13.37280729 17.49240699
  13.37280800 20.15198779 17.49240700
  16.73751056 16.73751056 12.54279000
  11.52497959 15.00000071 15.00000000
  18.47502041 15.00000071 15.00000000
  14.99999999 18.52479579 10.20639500
  15.00000000 18.52479578 19.79360400
  15.00000000 15.00000000 15.00000000
  13.26248944 16.73751057 17.45721101
  16.73751056 16.73751057 17.45721100
  15.00000000 18.47502112 15.00000000
  13.12585100  8.32901200 11.89783500
  12.84739300  7.33785000 11.43692100
 


--------------------------------------------------------------------------------------------------------


 k-point  1 :   0.0000 0.0000 0.0000  plane waves:  490521

 maximum and minimum number of plane-waves per node :    490521   490521

 maximum number of plane-waves:    490521
 maximum index in each direction: 
   IXMAX=   48   IYMAX=   48   IZMAX=   48
   IXMIN=  -48   IYMIN=  -48   IZMIN=  -48


 serial   3D FFT for wavefunctions
 parallel 3D FFT for charge:
    minimum data exchange during FFTs selected (reduces bandwidth)


 total amount of memory used by VASP MPI-rank0  5486940. kBytes
=======================================================================

   base      :      30000. kBytes
   nonlr-proj:      17125. kBytes
   fftplans  :     924480. kBytes
   grid      :    1872000. kBytes
   one-center:        886. kBytes
   wavefun   :    2642449. kBytes
 
     INWAV:  cpu time    0.0001: real time    0.0005
 Broyden mixing: mesh for mixing (old mesh)
   NGX = 97   NGY = 97   NGZ = 97
  (NGX  =300   NGY  =300   NGZ  =300)
  gives a total of 912673 points

 initial charge density was supplied:
 charge density of overlapping atoms calculated
 number of electron     560.0000000 magnetization 
 keeping initial charge density in first step


--------------------------------------------------------------------------------------------------------


 Maximum index for non-local projection operator         1763
 Maximum index for augmentation-charges         5898 (set IRDMAX)


--------------------------------------------------------------------------------------------------------


 First call to EWALD:  gamma=   0.059
 Maximum number of real-space cells 3x 3x 3
 Maximum number of reciprocal cells 3x 3x 3

    FEWALD:  cpu time    0.0150: real time    0.0150


--------------------------------------- Iteration      1(   1)  ---------------------------------------


    POTLOK:  cpu time   14.0873: real time   14.0920
    SETDIJ:  cpu time    0.1212: real time    0.1212
     EDDAV:  cpu time  363.3455: real time  363.4226
       DOS:  cpu time    0.0013: real time    0.0013
    --------------------------------------------
      LOOP:  cpu time  377.5554: real time  377.6372

 eigenvalue-minimisations  :   688
 total energy-change (2. order) : 0.4396681E+04  (-0.1005424E+05)
 number of electron     560.0000000 magnetization 
 augmentation part      560.0000000 magnetization 

 Free energy of the ion-electron system (eV)
  ---------------------------------------------------
  alpha Z        PSCENC =        75.25431677
  Ewald energy   TEWEN  =    138178.49077382
  -Hartree energ DENC   =   -181529.44708274
  -exchange      EXHF   =         0.00000000
  -V(xc)+E(xc)   XCENC  =     -1702.47967248
  PAW double counting   =     44873.02882129   -41398.84523641
  entropy T*S    EENTRO =        -0.01202150
  eigenvalues    EBANDS =       814.18530972
  atomic energy  EATOM  =     45086.50549395
  Solvation  Ediel_sol  =         0.00000000
  ---------------------------------------------------
  free energy    TOTEN  =      4396.68070242 eV

  energy without entropy =     4396.69272392  energy(sigma->0) =     4396.68370779


--------------------------------------------------------------------------------------------------------




--------------------------------------- Iteration      1(   2)  ---------------------------------------


     EDDAV:  cpu time  584.5900: real time  584.6110
       DOS:  cpu time    0.0013: real time    0.0013
    --------------------------------------------
      LOOP:  cpu time  584.5913: real time  584.6123

 eigenvalue-minimisations  :  1224
 total energy-change (2. order) :-0.2386159E+04  (-0.2146279E+04)
 number of electron     560.0000000 magnetization 
 augmentation part      560.0000000 magnetization 

 Free energy of the ion-electron system (eV)
  ---------------------------------------------------
  alpha Z        PSCENC =        75.25431677
  Ewald energy   TEWEN  =    138178.49077382
  -Hartree energ DENC   =   -181529.44708274
  -exchange      EXHF   =         0.00000000
  -V(xc)+E(xc)   XCENC  =     -1702.47967248
  PAW double counting   =     44873.02882129   -41398.84523641
  entropy T*S    EENTRO =        -0.00071583
  eigenvalues    EBANDS =     -1571.98525908
  atomic energy  EATOM  =     45086.50549395
  Solvation  Ediel_sol  =         0.00000000
  ---------------------------------------------------
  free energy    TOTEN  =      2010.52143930 eV

  energy without entropy =     2010.52215513  energy(sigma->0) =     2010.52161826


--------------------------------------------------------------------------------------------------------




--------------------------------------- Iteration      1(   3)  ---------------------------------------


     EDDAV:  cpu time  491.2370: real time  491.2520
       DOS:  cpu time    0.0011: real time    0.0011
    --------------------------------------------
      LOOP:  cpu time  491.2381: real time  491.2531

 eigenvalue-minimisations  :  1000
 total energy-change (2. order) :-0.1782082E+04  (-0.1677128E+04)
 number of electron     560.0000000 magnetization 
 augmentation part      560.0000000 magnetization 

 Free energy of the ion-electron system (eV)
  ---------------------------------------------------
  alpha Z        PSCENC =        75.25431677
  Ewald energy   TEWEN  =    138178.49077382
  -Hartree energ DENC   =   -181529.44708274
  -exchange      EXHF   =         0.00000000
  -V(xc)+E(xc)   XCENC  =     -1702.47967248
  PAW double counting   =     44873.02882129   -41398.84523641
  entropy T*S    EENTRO =        -0.00635489
  eigenvalues    EBANDS =     -3354.06131372
  atomic energy  EATOM  =     45086.50549395
  Solvation  Ediel_sol  =         0.00000000
  ---------------------------------------------------
  free energy    TOTEN  =       228.43974560 eV

  energy without entropy =      228.44610049  energy(sigma->0) =      228.44133432


--------------------------------------------------------------------------------------------------------




--------------------------------------- Iteration      1(   4)  ---------------------------------------


     EDDAV:  cpu time  422.7381: real time  422.7688
       DOS:  cpu time    0.0012: real time    0.0012
    --------------------------------------------
      LOOP:  cpu time  422.7393: real time  422.7700

 eigenvalue-minimisations  :   832
 total energy-change (2. order) :-0.3650510E+03  (-0.3122042E+03)
 number of electron     560.0000000 magnetization 
 augmentation part      560.0000000 magnetization 

 Free energy of the ion-electron system (eV)
  ---------------------------------------------------
  alpha Z        PSCENC =        75.25431677
  Ewald energy   TEWEN  =    138178.49077382
  -Hartree energ DENC   =   -181529.44708274
  -exchange      EXHF   =         0.00000000
  -V(xc)+E(xc)   XCENC  =     -1702.47967248
  PAW double counting   =     44873.02882129   -41398.84523641
  entropy T*S    EENTRO =        -0.02355352
  eigenvalues    EBANDS =     -3719.09510571
  atomic energy  EATOM  =     45086.50549395
  Solvation  Ediel_sol  =         0.00000000
  ---------------------------------------------------
  free energy    TOTEN  =      -136.61124502 eV

  energy without entropy =     -136.58769150  energy(sigma->0) =     -136.60535664


--------------------------------------------------------------------------------------------------------




--------------------------------------- Iteration      1(   5)  ---------------------------------------


     EDDAV:  cpu time  508.8702: real time  508.9185
       DOS:  cpu time    0.0014: real time    0.0014
    CHARGE:  cpu time   25.1700: real time   25.1728
    MIXING:  cpu time    0.4450: real time    0.4451
    --------------------------------------------
      LOOP:  cpu time  534.4866: real time  534.5378

 eigenvalue-minimisations  :  1032
 total energy-change (2. order) :-0.4399368E+02  (-0.3616591E+02)
 number of electron     559.9999811 magnetization 
 augmentation part      244.8643260 magnetization 

 Broyden mixing:
  rms(total) = 0.20340E+01    rms(broyden)= 0.20333E+01
  rms(prec ) = 0.21245E+01
  weight for this iteration     100.00

 Free energy of the ion-electron system (eV)
  ---------------------------------------------------
  alpha Z        PSCENC =        75.25431677
  Ewald energy   TEWEN  =    138178.49077382
  -Hartree energ DENC   =   -181529.44708274
  -exchange      EXHF   =         0.00000000
  -V(xc)+E(xc)   XCENC  =     -1702.47967248
  PAW double counting   =     44873.02882129   -41398.84523641
  entropy T*S    EENTRO =         0.50485684
  eigenvalues    EBANDS =     -3763.61719565
  atomic energy  EATOM  =     45086.50549395
  Solvation  Ediel_sol  =         0.00000000
  ---------------------------------------------------
  free energy    TOTEN  =      -180.60492460 eV

  energy without entropy =     -181.10978144  energy(sigma->0) =     -180.73113881


--------------------------------------------------------------------------------------------------------




--------------------------------------- Iteration      1(   6)  ---------------------------------------


    POTLOK:  cpu time   13.4069: real time   13.4095
    SETDIJ:  cpu time    0.1204: real time    0.1204
    EDDIAG:  cpu time   67.5243: real time   67.5270
  RMM-DIIS:  cpu time  189.6611: real time  189.6710
    ORTHCH:  cpu time   13.6006: real time   13.6007
       DOS:  cpu time    0.0015: real time    0.0015
    CHARGE:  cpu time   24.5820: real time   24.5827
    MIXING:  cpu time    0.4544: real time    0.4544
    --------------------------------------------
      LOOP:  cpu time  309.3510: real time  309.3672

 eigenvalue-minimisations  :   728
 total energy-change (2. order) : 0.1170566E+01  (-0.7019453E+01)
 number of electron     559.9999858 magnetization 
 augmentation part      240.5452990 magnetization 

 Broyden mixing:
  rms(total) = 0.21250E+01    rms(broyden)= 0.21247E+01
  rms(prec ) = 0.23650E+01
  weight for this iteration     100.00

 eigenvalues of (default mixing * dielectric matrix)
  average eigenvalue GAMMA=   0.4898
  0.4898

 Free energy of the ion-electron system (eV)
  ---------------------------------------------------
  alpha Z        PSCENC =        75.25431677
  Ewald energy   TEWEN  =    138178.49077382
  -Hartree energ DENC   =   -181924.89033240
  -exchange      EXHF   =         0.00000000
  -V(xc)+E(xc)   XCENC  =     -1696.02011157
  PAW double counting   =     45708.54452749   -42208.82510113
  entropy T*S    EENTRO =        -0.15300604
  eigenvalues    EBANDS =     -3398.34091957
  atomic energy  EATOM  =     45086.50549395
  Solvation  Ediel_sol  =         0.00000000
  ---------------------------------------------------
  free energy    TOTEN  =      -179.43435867 eV

  energy without entropy =     -179.28135263  energy(sigma->0) =     -179.39610716


--------------------------------------------------------------------------------------------------------




--------------------------------------- Iteration      1(   7)  ---------------------------------------


    POTLOK:  cpu time   13.1463: real time   13.1476
    SETDIJ:  cpu time    0.1201: real time    0.1201
    EDDIAG:  cpu time   66.9044: real time   66.9064
  RMM-DIIS:  cpu time  209.0948: real time  209.1096
    ORTHCH:  cpu time   13.2288: real time   13.2290
       DOS:  cpu time    0.0014: real time    0.0014
    CHARGE:  cpu time   25.4542: real time   25.4548
    MIXING:  cpu time    0.4770: real time    0.4770
    --------------------------------------------
      LOOP:  cpu time  328.4271: real time  328.4461

 eigenvalue-minimisations  :   823
 total energy-change (2. order) :-0.5003828E+01  (-0.2265500E+01)
 number of electron     559.9999787 magnetization 
 augmentation part      239.8442565 magnetization 

 Broyden mixing:
  rms(total) = 0.27791E+01    rms(broyden)= 0.27789E+01
  rms(prec ) = 0.33275E+01
  weight for this iteration     100.00

 eigenvalues of (default mixing * dielectric matrix)
  average eigenvalue GAMMA=   0.4317
  0.6787  0.1847

 Free energy of the ion-electron system (eV)
  ---------------------------------------------------
  alpha Z        PSCENC =        75.25431677
  Ewald energy   TEWEN  =    138178.49077382
  -Hartree energ DENC   =   -182048.38586108
  -exchange      EXHF   =         0.00000000
  -V(xc)+E(xc)   XCENC  =     -1696.30888917
  PAW double counting   =     45839.08523487   -42335.73669950
  entropy T*S    EENTRO =        -0.05370848
  eigenvalues    EBANDS =     -3283.28884742
  atomic energy  EATOM  =     45086.50549395
  Solvation  Ediel_sol  =         0.00000000
  ---------------------------------------------------
  free energy    TOTEN  =      -184.43818623 eV

  energy without entropy =     -184.38447776  energy(sigma->0) =     -184.42475911


--------------------------------------------------------------------------------------------------------




--------------------------------------- Iteration      1(   8)  ---------------------------------------


    POTLOK:  cpu time   13.2416: real time   13.2432
    SETDIJ:  cpu time    0.1231: real time    0.1231
    EDDIAG:  cpu time   67.5554: real time   67.5604
  RMM-DIIS:  cpu time  207.4992: real time  207.5026
    ORTHCH:  cpu time   13.4797: real time   13.4797
       DOS:  cpu time    0.0014: real time    0.0014
    CHARGE:  cpu time   25.4190: real time   25.4191
    MIXING:  cpu time    0.5178: real time    0.5178
    --------------------------------------------
      LOOP:  cpu time  327.8371: real time  327.8472

 eigenvalue-minimisations  :   793
 total energy-change (2. order) :-0.2372021E+01  (-0.1117371E+01)
 number of electron     559.9999803 magnetization 
 augmentation part      239.8175054 magnetization 

 Broyden mixing:
  rms(total) = 0.29086E+01    rms(broyden)= 0.29083E+01
  rms(prec ) = 0.34358E+01
  weight for this iteration     100.00

 eigenvalues of (default mixing * dielectric matrix)
  average eigenvalue GAMMA=   0.4050
  0.8591  0.2213  0.1347

 Free energy of the ion-electron system (eV)
  ---------------------------------------------------
  alpha Z        PSCENC =        75.25431677
  Ewald energy   TEWEN  =    138178.49077382
  -Hartree energ DENC   =   -182062.68079056
  -exchange      EXHF   =         0.00000000
  -V(xc)+E(xc)   XCENC  =     -1696.31899192
  PAW double counting   =     45925.47662727   -42419.93768301
  entropy T*S    EENTRO =        -0.14345523
  eigenvalues    EBANDS =     -3273.45649880
  atomic energy  EATOM  =     45086.50549395
  Solvation  Ediel_sol  =         0.00000000
  ---------------------------------------------------
  free energy    TOTEN  =      -186.81020770 eV

  energy without entropy =     -186.66675248  energy(sigma->0) =     -186.77434390


--------------------------------------------------------------------------------------------------------




--------------------------------------- Iteration      1(   9)  ---------------------------------------


    POTLOK:  cpu time   13.0876: real time   13.0886
    SETDIJ:  cpu time    0.1225: real time    0.1225
    EDDIAG:  cpu time   67.5787: real time   67.5794
  RMM-DIIS:  cpu time  190.2961: real time  190.2991
    ORTHCH:  cpu time   13.4241: real time   13.4241
       DOS:  cpu time    0.0014: real time    0.0014
    CHARGE:  cpu time   25.3157: real time   25.3156
    MIXING:  cpu time    0.5404: real time    0.5404
    --------------------------------------------
      LOOP:  cpu time  310.3665: real time  310.3711

 eigenvalue-minimisations  :   728
 total energy-change (2. order) : 0.2481780E+01  (-0.9322800E+00)
 number of electron     559.9999798 magnetization 
 augmentation part      240.7881960 magnetization 

 Broyden mixing:
  rms(total) = 0.27028E+01    rms(broyden)= 0.27024E+01
  rms(prec ) = 0.30973E+01
  weight for this iteration     100.00

 eigenvalues of (default mixing * dielectric matrix)
  average eigenvalue GAMMA=   0.3834
  0.9966  0.2603  0.1383  0.1383

 Free energy of the ion-electron system (eV)
  ---------------------------------------------------
  alpha Z        PSCENC =        75.25431677
  Ewald energy   TEWEN  =    138178.49077382
  -Hartree energ DENC   =   -182069.43845281
  -exchange      EXHF   =         0.00000000
  -V(xc)+E(xc)   XCENC  =     -1696.32285218
  PAW double counting   =     46005.86452386   -42498.48116597
  entropy T*S    EENTRO =        -0.23399405
  eigenvalues    EBANDS =     -3265.96707109
  atomic energy  EATOM  =     45086.50549395
  Solvation  Ediel_sol  =         0.00000000
  ---------------------------------------------------
  free energy    TOTEN  =      -184.32842769 eV

  energy without entropy =     -184.09443364  energy(sigma->0) =     -184.26992917


--------------------------------------------------------------------------------------------------------




--------------------------------------- Iteration      1(  10)  ---------------------------------------


    POTLOK:  cpu time   13.1905: real time   13.1916
    SETDIJ:  cpu time    0.1223: real time    0.1223
    EDDIAG:  cpu time   67.7103: real time   67.7113
  RMM-DIIS:  cpu time  190.4636: real time  190.4765
    ORTHCH:  cpu time   13.5397: real time   13.5398
       DOS:  cpu time    0.0015: real time    0.0015
    CHARGE:  cpu time   25.4591: real time   25.4592
    MIXING:  cpu time    0.5822: real time    0.5822
    --------------------------------------------
      LOOP:  cpu time  311.0692: real time  311.0842

 eigenvalue-minimisations  :   729
 total energy-change (2. order) : 0.3098264E+01  (-0.6263054E+00)
 number of electron     559.9999825 magnetization 
 augmentation part      241.4239237 magnetization 

 Broyden mixing:
  rms(total) = 0.28512E+01    rms(broyden)= 0.28509E+01
  rms(prec ) = 0.33775E+01
  weight for this iteration     100.00

 eigenvalues of (default mixing * dielectric matrix)
  average eigenvalue GAMMA=   0.3522
  1.0827  0.2802  0.1531  0.1531  0.0917

 Free energy of the ion-electron system (eV)
  ---------------------------------------------------
  alpha Z        PSCENC =        75.25431677
  Ewald energy   TEWEN  =    138178.49077382
  -Hartree energ DENC   =   -182105.44270122
  -exchange      EXHF   =         0.00000000
  -V(xc)+E(xc)   XCENC  =     -1696.19571792
  PAW double counting   =     46074.91335410   -42565.81765035
  entropy T*S    EENTRO =        -0.00067323
  eigenvalues    EBANDS =     -3228.93735957
  atomic energy  EATOM  =     45086.50549395
  Solvation  Ediel_sol  =         0.00000000
  ---------------------------------------------------
  free energy    TOTEN  =      -181.23016364 eV

  energy without entropy =     -181.22949041  energy(sigma->0) =     -181.22999533


--------------------------------------------------------------------------------------------------------




--------------------------------------- Iteration      1(  11)  ---------------------------------------


    POTLOK:  cpu time   13.1986: real time   13.1994
    SETDIJ:  cpu time    0.1234: real time    0.1234
    EDDIAG:  cpu time   67.8057: real time   67.8079
  RMM-DIIS:  cpu time  188.3831: real time  188.3893
    ORTHCH:  cpu time   13.5067: real time   13.5067
       DOS:  cpu time    0.0015: real time    0.0015
    CHARGE:  cpu time   25.4754: real time   25.4807
    MIXING:  cpu time    0.6085: real time    0.6085
    --------------------------------------------
      LOOP:  cpu time  309.1028: real time  309.1173

 eigenvalue-minimisations  :   722
 total energy-change (2. order) : 0.1860733E+01  (-0.3555014E+00)
 number of electron     559.9999827 magnetization 
 augmentation part      241.6592856 magnetization 

 Broyden mixing:
  rms(total) = 0.22414E+01    rms(broyden)= 0.22412E+01
  rms(prec ) = 0.26563E+01
  weight for this iteration     100.00

 eigenvalues of (default mixing * dielectric matrix)
  average eigenvalue GAMMA=   0.3398
  1.1768  0.3269  0.1755  0.1755  0.0919  0.0919

 Free energy of the ion-electron system (eV)
  ---------------------------------------------------
  alpha Z        PSCENC =        75.25431677
  Ewald energy   TEWEN  =    138178.49077382
  -Hartree energ DENC   =   -182123.94269636
  -exchange      EXHF   =         0.00000000
  -V(xc)+E(xc)   XCENC  =     -1696.03285798
  PAW double counting   =     46116.68958421   -42606.29528305
  entropy T*S    EENTRO =        -0.04562770
  eigenvalues    EBANDS =     -3209.99313436
  atomic energy  EATOM  =     45086.50549395
  Solvation  Ediel_sol  =         0.00000000
  ---------------------------------------------------
  free energy    TOTEN  =      -179.36943070 eV

  energy without entropy =     -179.32380300  energy(sigma->0) =     -179.35802377


--------------------------------------------------------------------------------------------------------




--------------------------------------- Iteration      1(  12)  ---------------------------------------


    POTLOK:  cpu time   13.2876: real time   13.2931
    SETDIJ:  cpu time    0.1219: real time    0.1219
    EDDIAG:  cpu time   67.8539: real time   67.8560
  RMM-DIIS:  cpu time  191.1167: real time  191.1244
    ORTHCH:  cpu time   13.7122: real time   13.7122
       DOS:  cpu time    0.0015: real time    0.0015
    CHARGE:  cpu time   25.7107: real time   25.7107
    MIXING:  cpu time    0.6435: real time    0.6435
    --------------------------------------------
      LOOP:  cpu time  312.4480: real time  312.4633

 eigenvalue-minimisations  :   729
 total energy-change (2. order) : 0.6547839E+00  (-0.3275360E+00)
 number of electron     559.9999846 magnetization 
 augmentation part      241.6641552 magnetization 

 Broyden mixing:
  rms(total) = 0.23185E+01    rms(broyden)= 0.23182E+01
  rms(prec ) = 0.27117E+01
  weight for this iteration     100.00

 eigenvalues of (default mixing * dielectric matrix)
  average eigenvalue GAMMA=   0.3231
  1.2370  0.3704  0.1877  0.1877  0.1010  0.0889  0.0889

 Free energy of the ion-electron system (eV)
  ---------------------------------------------------
  alpha Z        PSCENC =        75.25431677
  Ewald energy   TEWEN  =    138178.49077382
  -Hartree energ DENC   =   -182150.20847239
  -exchange      EXHF   =         0.00000000
  -V(xc)+E(xc)   XCENC  =     -1695.76252245
  PAW double counting   =     46165.67764292   -42653.67512546
  entropy T*S    EENTRO =         0.06725808
  eigenvalues    EBANDS =     -3185.06401203
  atomic energy  EATOM  =     45086.50549395
  Solvation  Ediel_sol  =         0.00000000
  ---------------------------------------------------
  free energy    TOTEN  =      -178.71464678 eV

  energy without entropy =     -178.78190486  energy(sigma->0) =     -178.73146130


--------------------------------------------------------------------------------------------------------




--------------------------------------- Iteration      1(  13)  ---------------------------------------


    POTLOK:  cpu time   13.3916: real time   13.3938
    SETDIJ:  cpu time    0.1222: real time    0.1222
    EDDIAG:  cpu time   68.5533: real time   68.5556
  RMM-DIIS:  cpu time  188.0638: real time  188.0667
    ORTHCH:  cpu time   13.6741: real time   13.6741
       DOS:  cpu time    0.0015: real time    0.0015
    CHARGE:  cpu time   25.7341: real time   25.7341
    MIXING:  cpu time    0.7070: real time    0.7070
    --------------------------------------------
      LOOP:  cpu time  310.2476: real time  310.2551

 eigenvalue-minimisations  :   717
 total energy-change (2. order) : 0.5146993E+00  (-0.2452281E+00)
 number of electron     559.9999841 magnetization 
 augmentation part      241.5173734 magnetization 

 Broyden mixing:
  rms(total) = 0.19881E+01    rms(broyden)= 0.19878E+01
  rms(prec ) = 0.23816E+01
  weight for this iteration     100.00

 eigenvalues of (default mixing * dielectric matrix)
  average eigenvalue GAMMA=   0.3270
  1.3643  0.4456  0.2073  0.2073  0.1116  0.1116  0.1037  0.0645

 Free energy of the ion-electron system (eV)
  ---------------------------------------------------
  alpha Z        PSCENC =        75.25431677
  Ewald energy   TEWEN  =    138178.49077382
  -Hartree energ DENC   =   -182174.92018809
  -exchange      EXHF   =         0.00000000
  -V(xc)+E(xc)   XCENC  =     -1695.51439348
  PAW double counting   =     46203.13337782   -42689.84752947
  entropy T*S    EENTRO =         0.05945523
  eigenvalues    EBANDS =     -3161.36125405
  atomic energy  EATOM  =     45086.50549395
  Solvation  Ediel_sol  =         0.00000000
  ---------------------------------------------------
  free energy    TOTEN  =      -178.19994750 eV

  energy without entropy =     -178.25940273  energy(sigma->0) =     -178.21481131


--------------------------------------------------------------------------------------------------------




--------------------------------------- Iteration      1(  14)  ---------------------------------------


    POTLOK:  cpu time   13.3466: real time   13.3473
    SETDIJ:  cpu time    0.1218: real time    0.1218
    EDDIAG:  cpu time   68.9281: real time   68.9291
  RMM-DIIS:  cpu time  189.1720: real time  189.1755
    ORTHCH:  cpu time   13.5639: real time   13.5638
       DOS:  cpu time    0.0014: real time    0.0014
    CHARGE:  cpu time   25.5478: real time   25.5478
    MIXING:  cpu time    0.7151: real time    0.7151
    --------------------------------------------
      LOOP:  cpu time  311.3966: real time  311.4019

 eigenvalue-minimisations  :   721
 total energy-change (2. order) :-0.9547116E+00  (-0.2248812E+00)
 number of electron     559.9999788 magnetization 
 augmentation part      241.3282919 magnetization 

 Broyden mixing:
  rms(total) = 0.27720E+01    rms(broyden)= 0.27718E+01
  rms(prec ) = 0.32952E+01
  weight for this iteration     100.00

 eigenvalues of (default mixing * dielectric matrix)
  average eigenvalue GAMMA=   0.3221
  1.4621  0.4999  0.2309  0.2309  0.1181  0.1181  0.1083  0.0688  0.0618

 Free energy of the ion-electron system (eV)
  ---------------------------------------------------
  alpha Z        PSCENC =        75.25431677
  Ewald energy   TEWEN  =    138178.49077382
  -Hartree energ DENC   =   -182204.78320077
  -exchange      EXHF   =         0.00000000
  -V(xc)+E(xc)   XCENC  =     -1695.10761546
  PAW double counting   =     46261.42074775   -42746.05825473
  entropy T*S    EENTRO =        -0.00989111
  eigenvalues    EBANDS =     -3134.86702929
  atomic energy  EATOM  =     45086.50549395
  Solvation  Ediel_sol  =         0.00000000
  ---------------------------------------------------
  free energy    TOTEN  =      -179.15465906 eV

  energy without entropy =     -179.14476795  energy(sigma->0) =     -179.15218628


--------------------------------------------------------------------------------------------------------




--------------------------------------- Iteration      1(  15)  ---------------------------------------


    POTLOK:  cpu time   13.3034: real time   13.3044
    SETDIJ:  cpu time    0.1225: real time    0.1225
    EDDIAG:  cpu time   69.3360: real time   69.3373
  RMM-DIIS:  cpu time  191.8061: real time  191.8125
    ORTHCH:  cpu time   13.6836: real time   13.6836
       DOS:  cpu time    0.0015: real time    0.0015
    CHARGE:  cpu time   25.8833: real time   25.8834
    MIXING:  cpu time    0.8050: real time    0.8050
    --------------------------------------------
      LOOP:  cpu time  314.9415: real time  314.9502

 eigenvalue-minimisations  :   722
 total energy-change (2. order) : 0.8907447E+00  (-0.1669552E+00)
 number of electron     559.9999784 magnetization 
 augmentation part      241.3108712 magnetization 

 Broyden mixing:
  rms(total) = 0.26529E+01    rms(broyden)= 0.26527E+01
  rms(prec ) = 0.31697E+01
  weight for this iteration     100.00

 eigenvalues of (default mixing * dielectric matrix)
  average eigenvalue GAMMA=   0.3050
  1.4944  0.5390  0.2392  0.2392  0.1225  0.1225  0.0902  0.0902  0.0620  0.0509

 Free energy of the ion-electron system (eV)
  ---------------------------------------------------
  alpha Z        PSCENC =        75.25431677
  Ewald energy   TEWEN  =    138178.49077382
  -Hartree energ DENC   =   -182232.50777927
  -exchange      EXHF   =         0.00000000
  -V(xc)+E(xc)   XCENC  =     -1694.75343431
  PAW double counting   =     46308.48881219   -42791.36119221
  entropy T*S    EENTRO =         0.09988811
  eigenvalues    EBANDS =     -3108.48079340
  atomic energy  EATOM  =     45086.50549395
  Solvation  Ediel_sol  =         0.00000000
  ---------------------------------------------------
  free energy    TOTEN  =      -178.26391435 eV

  energy without entropy =     -178.36380246  energy(sigma->0) =     -178.28888638


--------------------------------------------------------------------------------------------------------




--------------------------------------- Iteration      1(  16)  ---------------------------------------


    POTLOK:  cpu time   13.4891: real time   13.4899
    SETDIJ:  cpu time    0.1240: real time    0.1240
    EDDIAG:  cpu time   70.2773: real time   70.2796
  RMM-DIIS:  cpu time  194.6705: real time  194.6742
    ORTHCH:  cpu time   13.8331: real time   13.8331
       DOS:  cpu time    0.0014: real time    0.0014
    CHARGE:  cpu time   25.9231: real time   25.9233
    MIXING:  cpu time    0.8307: real time    0.8307
    --------------------------------------------
      LOOP:  cpu time  319.1493: real time  319.1562

 eigenvalue-minimisations  :   723
 total energy-change (2. order) : 0.1641734E+01  (-0.8971073E-01)
 number of electron     559.9999814 magnetization 
 augmentation part      241.2845909 magnetization 

 Broyden mixing:
  rms(total) = 0.14961E+01    rms(broyden)= 0.14958E+01
  rms(prec ) = 0.17064E+01
  weight for this iteration     100.00

 eigenvalues of (default mixing * dielectric matrix)
  average eigenvalue GAMMA=   0.2978
  1.5664  0.5599  0.2355  0.2355  0.1437  0.1437  0.1055  0.1055  0.0688  0.0554
  0.0554

 Free energy of the ion-electron system (eV)
  ---------------------------------------------------
  alpha Z        PSCENC =        75.25431677
  Ewald energy   TEWEN  =    138178.49077382
  -Hartree energ DENC   =   -182243.94252550
  -exchange      EXHF   =         0.00000000
  -V(xc)+E(xc)   XCENC  =     -1694.60500341
  PAW double counting   =     46326.70568420   -42808.92574470
  entropy T*S    EENTRO =        -0.06683197
  eigenvalues    EBANDS =     -3096.03834329
  atomic energy  EATOM  =     45086.50549395
  Solvation  Ediel_sol  =         0.00000000
  ---------------------------------------------------
  free energy    TOTEN  =      -176.62218012 eV

  energy without entropy =     -176.55534815  energy(sigma->0) =     -176.60547212


--------------------------------------------------------------------------------------------------------




--------------------------------------- Iteration      1(  17)  ---------------------------------------


    POTLOK:  cpu time   13.5336: real time   13.5344
    SETDIJ:  cpu time    0.1254: real time    0.1254
    EDDIAG:  cpu time   69.5053: real time   69.5066
  RMM-DIIS:  cpu time  191.3391: real time  191.3453
    ORTHCH:  cpu time   14.0325: real time   14.0338
       DOS:  cpu time    0.0014: real time    0.0014
    CHARGE:  cpu time   25.5051: real time   25.5058
    MIXING:  cpu time    0.9079: real time    0.9080
    --------------------------------------------
      LOOP:  cpu time  314.9504: real time  314.9606

 eigenvalue-minimisations  :   707
 total energy-change (2. order) : 0.6284994E+00  (-0.9261265E-01)
 number of electron     559.9999816 magnetization 
 augmentation part      241.2554617 magnetization 

 Broyden mixing:
  rms(total) = 0.13629E+01    rms(broyden)= 0.13626E+01
  rms(prec ) = 0.15907E+01
  weight for this iteration     100.00

 eigenvalues of (default mixing * dielectric matrix)
  average eigenvalue GAMMA=   0.2863
  1.6070  0.5561  0.2429  0.1935  0.1935  0.1573  0.1094  0.1094  0.0851  0.0706
  0.0643  0.0469

 Free energy of the ion-electron system (eV)
  ---------------------------------------------------
  alpha Z        PSCENC =        75.25431677
  Ewald energy   TEWEN  =    138178.49077382
  -Hartree energ DENC   =   -182264.78533873
  -exchange      EXHF   =         0.00000000
  -V(xc)+E(xc)   XCENC  =     -1694.33928227
  PAW double counting   =     46357.14019502   -42838.11328746
  entropy T*S    EENTRO =        -0.06426588
  eigenvalues    EBANDS =     -3076.08228597
  atomic energy  EATOM  =     45086.50549395
  Solvation  Ediel_sol  =         0.00000000
  ---------------------------------------------------
  free energy    TOTEN  =      -175.99368073 eV

  energy without entropy =     -175.92941486  energy(sigma->0) =     -175.97761426


--------------------------------------------------------------------------------------------------------




--------------------------------------- Iteration      1(  18)  ---------------------------------------


    POTLOK:  cpu time   13.4547: real time   13.4560
    SETDIJ:  cpu time    0.1245: real time    0.1245
    EDDIAG:  cpu time   69.1148: real time   69.1160
  RMM-DIIS:  cpu time  190.5716: real time  190.5756
    ORTHCH:  cpu time   13.9139: real time   13.9140
       DOS:  cpu time    0.0015: real time    0.0015
    CHARGE:  cpu time   25.4775: real time   25.4777
    MIXING:  cpu time    0.9172: real time    0.9172
    --------------------------------------------
      LOOP:  cpu time  313.5757: real time  313.5824

 eigenvalue-minimisations  :   710
 total energy-change (2. order) : 0.5223073E+00  (-0.4851060E-01)
 number of electron     559.9999823 magnetization 
 augmentation part      241.2369988 magnetization 

 Broyden mixing:
  rms(total) = 0.92011E+00    rms(broyden)= 0.91994E+00
  rms(prec ) = 0.10690E+01
  weight for this iteration     100.00

 eigenvalues of (default mixing * dielectric matrix)
  average eigenvalue GAMMA=   0.2913
  1.6590  0.5475  0.3693  0.2453  0.2453  0.1247  0.1247  0.1026  0.1026  0.0799
  0.0799  0.0611  0.0443

 Free energy of the ion-electron system (eV)
  ---------------------------------------------------
  alpha Z        PSCENC =        75.25431677
  Ewald energy   TEWEN  =    138178.49077382
  -Hartree energ DENC   =   -182273.23537302
  -exchange      EXHF   =         0.00000000
  -V(xc)+E(xc)   XCENC  =     -1694.16249170
  PAW double counting   =     46372.46480527   -42852.70375515
  entropy T*S    EENTRO =        -0.11816704
  eigenvalues    EBANDS =     -3067.96697638
  atomic energy  EATOM  =     45086.50549395
  Solvation  Ediel_sol  =         0.00000000
  ---------------------------------------------------
  free energy    TOTEN  =      -175.47137348 eV

  energy without entropy =     -175.35320644  energy(sigma->0) =     -175.44183172


--------------------------------------------------------------------------------------------------------




--------------------------------------- Iteration      1(  19)  ---------------------------------------


    POTLOK:  cpu time   13.4823: real time   13.4845
    SETDIJ:  cpu time    0.1271: real time    0.1271
    EDDIAG:  cpu time   69.6697: real time   69.6723
  RMM-DIIS:  cpu time  186.3741: real time  186.3824
    ORTHCH:  cpu time   13.9719: real time   13.9721
       DOS:  cpu time    0.0015: real time    0.0015
    CHARGE:  cpu time   25.7628: real time   25.7634
    MIXING:  cpu time    0.9499: real time    0.9499
    --------------------------------------------
      LOOP:  cpu time  310.3391: real time  310.3531

 eigenvalue-minimisations  :   696
 total energy-change (2. order) : 0.1992823E+00  (-0.4423638E-01)
 number of electron     559.9999827 magnetization 
 augmentation part      241.1593390 magnetization 

 Broyden mixing:
  rms(total) = 0.76546E+00    rms(broyden)= 0.76531E+00
  rms(prec ) = 0.87399E+00
  weight for this iteration     100.00

 eigenvalues of (default mixing * dielectric matrix)
  average eigenvalue GAMMA=   0.2906
  1.7130  0.5438  0.3613  0.2874  0.2874  0.1346  0.1346  0.1188  0.1188  0.1095
  0.0773  0.0773  0.0600  0.0443

 Free energy of the ion-electron system (eV)
  ---------------------------------------------------
  alpha Z        PSCENC =        75.25431677
  Ewald energy   TEWEN  =    138178.49077382
  -Hartree energ DENC   =   -182288.90784354
  -exchange      EXHF   =         0.00000000
  -V(xc)+E(xc)   XCENC  =     -1693.89344177
  PAW double counting   =     46392.85926890   -42871.95194408
  entropy T*S    EENTRO =        -0.10928924
  eigenvalues    EBANDS =     -3053.51942596
  atomic energy  EATOM  =     45086.50549395
  Solvation  Ediel_sol  =         0.00000000
  ---------------------------------------------------
  free energy    TOTEN  =      -175.27209115 eV

  energy without entropy =     -175.16280191  energy(sigma->0) =     -175.24476884


--------------------------------------------------------------------------------------------------------




--------------------------------------- Iteration      1(  20)  ---------------------------------------


    POTLOK:  cpu time   13.3634: real time   13.3804
    SETDIJ:  cpu time    0.1257: real time    0.1258
    EDDIAG:  cpu time   69.5744: real time   69.5770
  RMM-DIIS:  cpu time  188.1668: real time  188.1703
    ORTHCH:  cpu time   13.9436: real time   13.9437
       DOS:  cpu time    0.0015: real time    0.0015
    CHARGE:  cpu time   25.8743: real time   25.8745
    MIXING:  cpu time    1.0342: real time    1.0342
    --------------------------------------------
      LOOP:  cpu time  312.0839: real time  312.1075

 eigenvalue-minimisations  :   701
 total energy-change (2. order) : 0.6099358E-01  (-0.3055894E-01)
 number of electron     559.9999825 magnetization 
 augmentation part      241.1138372 magnetization 

 Broyden mixing:
  rms(total) = 0.74898E+00    rms(broyden)= 0.74880E+00
  rms(prec ) = 0.85937E+00
  weight for this iteration     100.00

 eigenvalues of (default mixing * dielectric matrix)
  average eigenvalue GAMMA=   0.3073
  1.7865  0.7320  0.4288  0.4288  0.2065  0.2065  0.1280  0.1280  0.1080  0.1036
  0.1036  0.0727  0.0727  0.0596  0.0442

 Free energy of the ion-electron system (eV)
  ---------------------------------------------------
  alpha Z        PSCENC =        75.25431677
  Ewald energy   TEWEN  =    138178.49077382
  -Hartree energ DENC   =   -182301.61985086
  -exchange      EXHF   =         0.00000000
  -V(xc)+E(xc)   XCENC  =     -1693.65011509
  PAW double counting   =     46407.28130305   -42885.39233706
  entropy T*S    EENTRO =        -0.03524099
  eigenvalues    EBANDS =     -3042.04544117
  atomic energy  EATOM  =     45086.50549395
  Solvation  Ediel_sol  =         0.00000000
  ---------------------------------------------------
  free energy    TOTEN  =      -175.21109757 eV

  energy without entropy =     -175.17585658  energy(sigma->0) =     -175.20228733


--------------------------------------------------------------------------------------------------------




--------------------------------------- Iteration      1(  21)  ---------------------------------------


    POTLOK:  cpu time   13.2491: real time   13.2501
    SETDIJ:  cpu time    0.1282: real time    0.1282
    EDDIAG:  cpu time   69.4696: real time   69.4723
  RMM-DIIS:  cpu time  186.7579: real time  186.7609
    ORTHCH:  cpu time   13.8549: real time   13.8549
       DOS:  cpu time    0.0015: real time    0.0015
    CHARGE:  cpu time   26.0973: real time   26.0974
    MIXING:  cpu time    1.1441: real time    1.1441
    --------------------------------------------
      LOOP:  cpu time  310.7027: real time  310.7095

 eigenvalue-minimisations  :   698
 total energy-change (2. order) : 0.2907923E-01  (-0.2506699E-01)
 number of electron     559.9999828 magnetization 
 augmentation part      241.1229944 magnetization 

 Broyden mixing:
  rms(total) = 0.87559E+00    rms(broyden)= 0.87544E+00
  rms(prec ) = 0.10140E+01
  weight for this iteration     100.00

 eigenvalues of (default mixing * dielectric matrix)
  average eigenvalue GAMMA=   0.3143
  1.8028  0.8690  0.4884  0.4884  0.2278  0.2278  0.1282  0.1282  0.1171  0.1171
  0.0927  0.0927  0.0722  0.0722  0.0596  0.0441

 Free energy of the ion-electron system (eV)
  ---------------------------------------------------
  alpha Z        PSCENC =        75.25431677
  Ewald energy   TEWEN  =    138178.49077382
  -Hartree energ DENC   =   -182320.82288970
  -exchange      EXHF   =         0.00000000
  -V(xc)+E(xc)   XCENC  =     -1693.32142404
  PAW double counting   =     46425.02394130   -42901.82107072
  entropy T*S    EENTRO =        -0.01688267
  eigenvalues    EBANDS =     -3024.47427707
  atomic energy  EATOM  =     45086.50549395
  Solvation  Ediel_sol  =         0.00000000
  ---------------------------------------------------
  free energy    TOTEN  =      -175.18201834 eV

  energy without entropy =     -175.16513568  energy(sigma->0) =     -175.17779768


--------------------------------------------------------------------------------------------------------




--------------------------------------- Iteration      1(  22)  ---------------------------------------


    POTLOK:  cpu time   13.2786: real time   13.2796
    SETDIJ:  cpu time    0.1260: real time    0.1260
    EDDIAG:  cpu time   69.6724: real time   69.6736
  RMM-DIIS:  cpu time  186.9764: real time  186.9890
    ORTHCH:  cpu time   13.6720: real time   13.6720
       DOS:  cpu time    0.0015: real time    0.0015
    CHARGE:  cpu time   26.0545: real time   26.0546
    MIXING:  cpu time    1.2122: real time    1.2122
    --------------------------------------------
      LOOP:  cpu time  310.9935: real time  311.0084

 eigenvalue-minimisations  :   699
 total energy-change (2. order) : 0.9071396E-02  (-0.1833015E-01)
 number of electron     559.9999831 magnetization 
 augmentation part      241.0845473 magnetization 

 Broyden mixing:
  rms(total) = 0.92673E+00    rms(broyden)= 0.92658E+00
  rms(prec ) = 0.10692E+01
  weight for this iteration     100.00

 eigenvalues of (default mixing * dielectric matrix)
  average eigenvalue GAMMA=   0.3240
  1.7956  1.0274  0.5725  0.5725  0.2501  0.2501  0.1312  0.1312  0.1321  0.1321
  0.0999  0.0999  0.0739  0.0739  0.0441  0.0618  0.0588

 Free energy of the ion-electron system (eV)
  ---------------------------------------------------
  alpha Z        PSCENC =        75.25431677
  Ewald energy   TEWEN  =    138178.49077382
  -Hartree energ DENC   =   -182332.90145229
  -exchange      EXHF   =         0.00000000
  -V(xc)+E(xc)   XCENC  =     -1693.20928908
  PAW double counting   =     46429.81322188   -42906.06051908
  entropy T*S    EENTRO =        -0.00919905
  eigenvalues    EBANDS =     -3013.05629388
  atomic energy  EATOM  =     45086.50549395
  Solvation  Ediel_sol  =         0.00000000
  ---------------------------------------------------
  free energy    TOTEN  =      -175.17294695 eV

  energy without entropy =     -175.16374790  energy(sigma->0) =     -175.17064718


--------------------------------------------------------------------------------------------------------




--------------------------------------- Iteration      1(  23)  ---------------------------------------


    POTLOK:  cpu time   13.1472: real time   13.1494
    SETDIJ:  cpu time    0.1246: real time    0.1246
    EDDIAG:  cpu time   69.3328: real time   69.3344
  RMM-DIIS:  cpu time  188.1409: real time  188.1451
    ORTHCH:  cpu time   13.7185: real time   13.7185
       DOS:  cpu time    0.0015: real time    0.0015
    CHARGE:  cpu time   26.0370: real time   26.0369
    MIXING:  cpu time    1.3023: real time    1.3023
    --------------------------------------------
      LOOP:  cpu time  311.8048: real time  311.8127

 eigenvalue-minimisations  :   704
 total energy-change (2. order) : 0.1145958E+00  (-0.2170694E-01)
 number of electron     559.9999835 magnetization 
 augmentation part      241.0520901 magnetization 

 Broyden mixing:
  rms(total) = 0.68166E+00    rms(broyden)= 0.68147E+00
  rms(prec ) = 0.79123E+00
  weight for this iteration     100.00

 eigenvalues of (default mixing * dielectric matrix)
  average eigenvalue GAMMA=   0.3280
  1.8744  1.0864  0.6307  0.6307  0.2511  0.2511  0.1523  0.1523  0.1300  0.1300
[...]
  0.025   0.064  -0.032   0.016  -0.081   0.024   0.063  -0.032
  0.041   0.109  -0.054   0.027  -0.138   0.040   0.106  -0.053
 -0.026  -0.034   0.026  -0.005   0.054  -0.026  -0.035   0.026
 -0.005  -0.032  -0.001  -0.016   0.014  -0.005  -0.032  -0.001
 -0.022  -0.005   0.011  -0.006  -0.008  -0.022  -0.005   0.010
 -0.034  -0.047   0.038  -0.006   0.079  -0.033  -0.047   0.038
 -0.006  -0.051  -0.007  -0.022   0.017  -0.006  -0.051  -0.006
 -0.039  -0.006   0.014  -0.013  -0.012  -0.039  -0.006   0.014
 total augmentation occupancy for first ion, spin component:           1
  2.041   0.990  -0.375  -0.099  -1.303  -1.075  -1.252   0.665  -0.301   1.525  -0.887   0.134   0.347   0.151   0.072   0.008
  0.990   4.408  -1.685   0.422  -3.352  -1.253  -3.913   1.654  -0.598   4.183  -2.593   0.440   0.971   0.390   0.140   0.045
 -0.375  -1.685   2.861  -0.302   1.531   0.666   1.651  -1.407   0.275  -2.291   1.403  -0.240  -0.531  -0.178  -0.061  -0.023
 -0.099   0.422  -0.302   2.340  -0.679  -0.305  -0.609   0.278  -0.495   0.673  -0.571   0.130   0.165   0.049   0.044   0.007
 -1.303  -3.352   1.531  -0.679   6.373   1.526   4.188  -2.291   0.664  -5.796   3.449  -0.609  -1.232  -0.472  -0.188  -0.050
 -1.075  -1.253   0.666  -0.305   1.526   1.907   1.484  -0.918   0.651  -1.728   0.779  -0.052  -0.367  -0.156  -0.199  -0.041
 -1.252  -3.913   1.651  -0.609   4.188   1.484   5.169  -1.637   0.774  -4.931   2.169  -0.193  -1.036  -0.513  -0.151  -0.084
  0.665   1.654  -1.407   0.278  -2.291  -0.918  -1.637   1.831  -0.263   2.951  -1.180   0.120   0.604   0.119   0.069   0.039
 -0.301  -0.598   0.275  -0.495   0.664   0.651   0.774  -0.263   0.576  -0.671   0.417  -0.048  -0.164  -0.052  -0.097  -0.016
  1.525   4.183  -2.291   0.673  -5.796  -1.728  -4.931   2.951  -0.671   7.003  -2.843   0.287   1.354   0.475   0.200   0.096
 -0.887  -2.593   1.403  -0.571   3.449   0.779   2.169  -1.180   0.417  -2.843   3.284  -0.751  -0.636  -0.270  -0.040   0.006
  0.134   0.440  -0.240   0.130  -0.609  -0.052  -0.193   0.120  -0.048   0.287  -0.751   0.220   0.106   0.044   0.000  -0.014
  0.347   0.971  -0.531   0.165  -1.232  -0.367  -1.036   0.604  -0.164   1.354  -0.636   0.106   0.360   0.104   0.037   0.012
  0.151   0.390  -0.178   0.049  -0.472  -0.156  -0.513   0.119  -0.052   0.475  -0.270   0.044   0.104   0.120   0.023   0.006
  0.072   0.140  -0.061   0.044  -0.188  -0.199  -0.151   0.069  -0.097   0.200  -0.040   0.000   0.037   0.023   0.077   0.005
  0.008   0.045  -0.023   0.007  -0.050  -0.041  -0.084   0.039  -0.016   0.096   0.006  -0.014   0.012   0.006   0.005   0.004
  0.009   0.014  -0.006  -0.013  -0.021  -0.017  -0.025   0.024  -0.005   0.043   0.008  -0.007   0.006  -0.001   0.002   0.002
  0.001   0.008   0.004   0.005  -0.027   0.005  -0.016   0.008   0.002   0.022  -0.013   0.002   0.004   0.001  -0.003   0.000


------------------------ aborting loop because EDIFF is reached ----------------------------------------


    CHARGE:  cpu time   25.1817: real time   25.1817
    FORLOC:  cpu time    6.8068: real time    6.8068
    FORNL :  cpu time   65.2543: real time   65.2543
    STRESS:  cpu time  200.1866: real time  200.1897
    FORCOR:  cpu time   21.8702: real time   21.8705
    FORHAR:  cpu time    9.7287: real time    9.7288
    MIXING:  cpu time    3.4878: real time    3.4878
    OFIELD:  cpu time    0.0000: real time    0.0000

  FORCE on cell =-STRESS in cart. coord.  units (eV):
  Direction    XX          YY          ZZ          XY          YZ          ZX
  --------------------------------------------------------------------------------------
  Alpha Z    75.25432    75.25432    75.25432
  Ewald   44223.36387 48998.37840 44956.64272  1014.21674  1579.92349   594.08857
  Hartree 59156.99084 63527.05259 59828.92024   911.99662  1401.71688   533.50125
  E(xc)   -2906.43025 -2904.11753 -2906.12525     0.58803     1.04952     0.29031
  Local  ************************************ -1912.70959 -2955.52121 -1121.01879
  n-local  -875.75085  -871.77819  -875.07042     0.58500     2.24688    -0.93933
  augment  4107.30171  4095.87576  4105.76839    -2.47944    -5.23548    -0.75088
  Kinetic  7820.93941  7781.16143  7815.39876    -9.39853   -18.37039    -4.07579
  Fock        0.00000     0.00000     0.00000     0.00000     0.00000     0.00000
  -------------------------------------------------------------------------------------
  Total    -112.95989  -100.30058  -111.13398     2.79882     5.80969     1.09535
  in kB      -6.70303    -5.95183    -6.59468     0.16608     0.34475     0.06500
  external pressure =       -6.42 kB  Pullay stress =        0.00 kB


 VOLUME and BASIS-vectors are now :
 -----------------------------------------------------------------------------
  energy-cutoff  :      400.00
  volume of cell :    27000.00
      direct lattice vectors                 reciprocal lattice vectors
    30.000000000  0.000000000  0.000000000     0.033333333  0.000000000  0.000000000
     0.000000000 30.000000000  0.000000000     0.000000000  0.033333333  0.000000000
     0.000000000  0.000000000 30.000000000     0.000000000  0.000000000  0.033333333

  length of vectors
    30.000000000 30.000000000 30.000000000     0.033333333  0.033333333  0.033333333


 FORCES acting on ions
    electron-ion (+dipol)            ewald-force                    non-local-force                 convergence-correction
 -----------------------------------------------------------------------------------------------
   0.339E+03 0.666E+03 0.291E+03   -.339E+03 -.674E+03 -.295E+03   0.171E+01 0.138E+02 0.579E+01   -.444E-02 0.278E-02 0.412E-02
   -.976E+03 -.400E+03 0.415E+03   0.973E+03 0.398E+03 -.414E+03   0.182E+01 0.148E+01 -.234E+00   -.212E-02 0.161E-02 0.818E-02
   -.459E+03 0.934E+03 0.401E+03   0.458E+03 -.931E+03 -.400E+03   0.114E+01 -.194E+01 -.237E+00   -.550E-03 0.275E-02 0.264E-02
   0.975E+03 -.406E+03 0.414E+03   -.972E+03 0.404E+03 -.414E+03   -.182E+01 0.152E+01 -.228E+00   0.372E-02 -.661E-03 0.486E-02
   -.324E+02 0.527E+03 0.987E+03   0.326E+02 -.526E+03 -.984E+03   -.163E+00 -.556E+00 -.223E+01   -.176E-02 0.107E-02 0.393E-02
   -.350E+01 0.579E+03 -.976E+03   0.348E+01 -.579E+03 0.973E+03   0.172E-01 -.298E+00 0.237E+01   -.315E-02 0.394E-02 -.275E-03
   -.461E+02 0.112E+04 -.762E+02   0.461E+02 -.112E+04 0.763E+02   -.814E-01 -.293E+01 -.134E+00   -.387E-02 0.216E-02 0.342E-02
   0.114E+04 -.114E+02 -.556E+01   -.114E+04 0.115E+02 0.557E+01   -.311E+01 -.141E-01 -.605E-02   0.400E-02 0.210E-02 0.897E-03
   -.114E+04 -.505E+01 -.253E+01   0.113E+04 0.505E+01 0.254E+01   0.311E+01 -.440E-02 -.120E-01   -.543E-02 0.285E-02 0.674E-02
   -.108E+01 -.113E+04 -.176E+01   0.108E+01 0.113E+04 0.176E+01   0.140E-02 0.311E+01 -.471E-02   -.256E-02 -.184E-02 0.617E-02
   -.601E+03 0.561E+03 0.818E+03   0.599E+03 -.558E+03 -.814E+03   0.155E+01 -.158E+01 -.223E+01   0.315E-03 0.815E-03 0.181E-02
   -.583E+03 0.573E+03 -.820E+03   0.581E+03 -.571E+03 0.817E+03   0.154E+01 -.157E+01 0.218E+01   -.313E-03 0.912E-02 -.924E-03
   0.579E+03 -.586E+03 0.813E+03   -.577E+03 0.584E+03 -.810E+03   -.156E+01 0.153E+01 -.220E+01   0.116E-03 0.209E-02 0.366E-02
   0.578E+03 -.581E+03 -.815E+03   -.576E+03 0.579E+03 0.812E+03   -.155E+01 0.157E+01 0.220E+01   0.773E-02 0.220E-02 -.322E-02
   0.601E+03 0.511E+03 0.836E+03   -.599E+03 -.508E+03 -.833E+03   -.149E+01 -.167E+01 -.211E+01   -.111E-02 0.787E-04 0.423E-02
   0.580E+03 0.571E+03 -.825E+03   -.577E+03 -.568E+03 0.822E+03   -.156E+01 -.157E+01 0.219E+01   0.410E-02 -.363E-02 0.126E-02
   -.581E+03 -.583E+03 0.813E+03   0.579E+03 0.581E+03 -.809E+03   0.157E+01 0.155E+01 -.221E+01   0.179E-02 -.112E-02 0.406E-02
   -.580E+03 -.580E+03 -.814E+03   0.577E+03 0.578E+03 0.811E+03   0.156E+01 0.156E+01 0.220E+01   -.443E-02 -.465E-02 -.137E-02
   0.391E+03 0.958E+03 -.449E+03   -.389E+03 -.955E+03 0.449E+03   -.152E+01 -.188E+01 0.220E+00   -.367E-02 0.273E-02 0.264E-02
   -.974E+03 -.398E+03 -.419E+03   0.971E+03 0.396E+03 0.418E+03   0.181E+01 0.152E+01 0.222E+00   -.783E-02 -.393E-04 0.510E-02
   -.338E+03 0.295E+03 0.448E+03   0.338E+03 -.296E+03 -.449E+03   -.334E+00 0.416E+00 0.529E+00   -.300E-02 0.616E-02 0.928E-02
   0.986E+03 0.365E+03 0.411E+03   -.983E+03 -.363E+03 -.411E+03   -.186E+01 -.151E+01 -.240E+00   0.399E-02 -.114E-02 0.469E-02
   -.396E+03 -.974E+03 0.415E+03   0.394E+03 0.971E+03 -.415E+03   0.150E+01 0.183E+01 -.200E+00   -.265E-02 -.683E-03 0.947E-02
   -.407E+03 0.963E+03 -.437E+03   0.405E+03 -.960E+03 0.436E+03   0.153E+01 -.183E+01 0.270E+00   -.271E-02 0.352E-02 0.245E-02
   0.973E+03 -.401E+03 -.421E+03   -.970E+03 0.399E+03 0.420E+03   -.181E+01 0.151E+01 0.199E+00   0.724E-02 0.728E-02 0.120E-02
   -.982E+03 0.384E+03 0.414E+03   0.979E+03 -.382E+03 -.414E+03   0.182E+01 -.148E+01 -.225E+00   -.280E-02 0.277E-02 0.539E-02
   0.393E+03 -.975E+03 0.415E+03   -.391E+03 0.972E+03 -.414E+03   -.149E+01 0.184E+01 -.203E+00   -.164E-02 0.107E-02 0.710E-02
   0.318E+03 0.275E+03 0.445E+03   -.319E+03 -.276E+03 -.446E+03   0.313E+00 0.719E+00 0.432E+00   0.127E-03 0.318E-02 0.988E-02
   -.183E+02 0.605E+03 -.302E+02   0.182E+02 -.605E+03 0.301E+02   0.125E+00 0.658E+00 0.143E+00   -.355E-02 0.779E-02 0.207E-02
   -.595E+03 -.116E+02 0.966E+03   0.594E+03 0.116E+02 -.962E+03   0.321E+00 0.525E-02 -.233E+01   -.108E-03 0.565E-04 0.522E-02
   -.589E+03 -.454E+01 -.968E+03   0.588E+03 0.449E+01 0.965E+03   0.307E+00 0.227E-01 0.236E+01   -.181E-02 0.750E-02 -.259E-02
   0.590E+03 -.225E+02 0.968E+03   -.590E+03 0.225E+02 -.964E+03   -.337E+00 0.529E-01 -.238E+01   -.365E-03 -.730E-03 0.440E-02
   0.587E+03 -.646E+01 -.970E+03   -.586E+03 0.646E+01 0.967E+03   -.281E+00 -.741E-02 0.234E+01   0.696E-02 0.742E-02 -.773E-03
   0.775E+03 0.723E+03 -.333E+02   -.773E+03 -.721E+03 0.334E+02   -.126E+01 -.132E+01 -.200E-01   0.295E-02 0.102E-02 0.200E-03
   -.763E+03 -.764E+03 -.221E+01   0.761E+03 0.762E+03 0.219E+01   0.114E+01 0.116E+01 0.107E-01   -.695E-03 -.416E-02 0.806E-02
   -.777E+03 0.747E+03 -.110E+02   0.775E+03 -.745E+03 0.110E+02   0.120E+01 -.113E+01 0.325E-01   -.206E-03 0.670E-02 0.421E-02
   0.761E+03 -.767E+03 -.302E+01   -.759E+03 0.765E+03 0.302E+01   -.115E+01 0.114E+01 0.126E-02   0.567E-02 -.173E-02 0.707E-02
   -.613E+01 -.212E+02 0.107E+04   0.612E+01 0.211E+02 -.107E+04   0.184E-01 0.720E-01 -.163E+01   -.432E-03 -.192E-03 0.782E-02
   -.185E+01 -.607E+01 -.107E+04   0.185E+01 0.608E+01 0.107E+04   -.650E-02 -.104E-01 0.161E+01   0.522E-02 0.803E-02 -.239E-02
   0.976E+03 0.382E+03 -.427E+03   -.974E+03 -.380E+03 0.427E+03   -.181E+01 -.152E+01 0.200E+00   0.566E-02 0.114E-02 -.167E-02
   -.395E+03 -.973E+03 -.418E+03   0.393E+03 0.970E+03 0.418E+03   0.152E+01 0.183E+01 0.218E+00   -.301E-02 -.672E-02 0.492E-02
   -.328E+03 0.310E+03 -.463E+03   0.328E+03 -.311E+03 0.464E+03   -.383E+00 0.356E+00 -.561E+00   0.129E-02 0.104E-01 0.193E-02
   0.320E+03 -.335E+03 0.451E+03   -.320E+03 0.336E+03 -.451E+03   0.380E+00 -.430E+00 0.518E+00   0.214E-02 -.207E-02 0.106E-01
   0.320E+03 0.306E+03 -.468E+03   -.320E+03 -.307E+03 0.468E+03   0.369E+00 0.404E+00 -.477E+00   0.432E-02 0.357E-02 -.105E-02
   -.977E+03 0.388E+03 -.421E+03   0.974E+03 -.386E+03 0.421E+03   0.181E+01 -.152E+01 0.198E+00   -.375E-02 0.771E-02 0.345E-02
   0.393E+03 -.973E+03 -.419E+03   -.391E+03 0.970E+03 0.418E+03   -.150E+01 0.183E+01 0.228E+00   0.258E-02 -.592E-02 0.537E-02
   -.326E+03 -.332E+03 0.451E+03   0.326E+03 0.332E+03 -.452E+03   -.378E+00 -.400E+00 0.515E+00   -.129E-02 -.449E-02 0.128E-01
   0.641E+03 -.178E+02 -.856E+01   -.642E+03 0.178E+02 0.854E+01   0.716E+00 0.435E-01 0.158E-01   0.815E-02 0.230E-02 0.171E-02
   -.645E+03 -.984E+01 -.481E+01   0.646E+03 0.986E+01 0.482E+01   -.743E+00 -.232E-01 -.115E-01   -.476E-02 0.451E-02 0.681E-02
   -.201E+01 -.594E+03 0.965E+03   0.201E+01 0.593E+03 -.961E+03   -.295E-02 0.277E+00 -.236E+01   -.340E-02 0.452E-03 0.490E-02
   -.103E+01 -.589E+03 -.967E+03   0.103E+01 0.588E+03 0.963E+03   -.257E-02 0.317E+00 0.235E+01   -.122E-04 -.240E-02 -.262E-02
   -.497E+01 -.170E+02 -.819E+01   0.495E+01 0.170E+02 0.816E+01   0.137E-01 0.332E-01 0.112E-01   -.551E-05 0.365E-02 0.314E-02
   0.320E+03 -.329E+03 -.458E+03   -.321E+03 0.329E+03 0.459E+03   0.366E+00 -.379E+00 -.526E+00   0.438E-02 0.535E-02 0.322E-02
   -.324E+03 -.327E+03 -.457E+03   0.324E+03 0.328E+03 0.458E+03   -.349E+00 -.380E+00 -.520E+00   0.882E-04 0.120E-02 0.621E-02
   -.181E+01 -.645E+03 -.295E+01   0.181E+01 0.646E+03 0.297E+01   0.377E-02 -.717E+00 -.191E-01   -.875E-03 -.305E-02 0.839E-02
   0.891E+02 0.295E+03 0.124E+03   -.853E+02 -.283E+03 -.118E+03   -.369E+01 -.129E+02 -.608E+01   -.113E-02 0.593E-03 0.813E-03
   0.212E+03 0.683E+03 0.319E+03   -.228E+03 -.741E+03 -.346E+03   0.153E+02 0.534E+02 0.249E+02   -.112E-02 0.459E-03 0.767E-03
 -----------------------------------------------------------------------------------------------
   -.144E+02 -.560E+02 -.251E+02   0.398E-12 0.159E-11 -.171E-11   0.144E+02 0.559E+02 0.249E+02   0.198E-02 0.949E-01 0.210E+00
 
 
 POSITION                                       TOTAL-FORCE (eV/Angst)
 -----------------------------------------------------------------------------------
     13.37281      9.84801     12.50759         1.666805      6.478687      2.468933
     20.15199     16.62719     12.50759        -1.108124     -0.700945      0.293772
     16.62719      9.84801     12.50759        -0.597932      1.141113      0.287979
      9.84801     16.62719     12.50759         1.106725     -0.713280      0.291566
     15.00000     11.47521     10.20639         0.052788      0.505895      1.229080
     15.00000     11.47521     19.79360        -0.006136      0.404139     -1.288897
     15.00000      8.28283     15.00000        -0.025599      1.504581     -0.024033
      8.28283     15.00000     15.00000         1.519346      0.004499      0.003250
     21.71717     15.00000     15.00000        -1.519850      0.000737      0.007210
     15.00000     21.71717     15.00000        -0.001813     -1.514614     -0.002866
     18.35858     11.64142     10.25025        -0.775029      0.751496      1.092486
     18.35858     11.64142     19.74975        -0.745134      0.772641     -1.069208
     11.64142     18.35858     10.25025         0.768170     -0.742056      1.078236
     11.64142     18.35858     19.74975         0.749312     -0.762536     -1.071521
     11.64142     11.64142     10.25025         0.754272      0.755151      1.083509
     11.64142     11.64142     19.74975         0.758529      0.761602     -1.071377
     18.35858     18.35858     10.25025        -0.761431     -0.752922      1.074417
     18.35858     18.35858     19.74975        -0.754115     -0.759949     -1.070704
     13.37281      9.84801     17.49241         0.709929      1.118507     -0.257296
     20.15199     16.62719     17.49241        -1.103887     -0.713525     -0.296293
     16.73751     13.26249     12.54279         0.093806     -0.119679     -0.153265
      9.84801     13.37281     12.50759         1.101091      0.725892      0.292166
     16.62719     20.15199     12.50759        -0.700950     -1.116665      0.281567
     16.62719      9.84801     17.49241        -0.704939      1.105838     -0.276945
      9.84801     16.62719     17.49241         1.109194     -0.708581     -0.284275
     20.15199     13.37281     12.50759        -1.108003      0.703330      0.292638
     13.37281     20.15199     12.50759         0.697944     -1.116312      0.280639
     13.26249     13.26249     12.54279        -0.094059     -0.167429     -0.111370
     15.00000     11.52498     15.00000        -0.013568     -0.161714      0.008205
     18.52479     15.00000     10.20639        -0.414817      0.001005      1.280928
     18.52479     15.00000     19.79360        -0.411525     -0.012014     -1.284332
     11.47521     15.00000     10.20640         0.406040     -0.000679      1.277981
     11.47521     15.00000     19.79360         0.405553      0.004098     -1.285392
     11.49535     11.49535     15.00000         0.819616      0.879682      0.033606
     18.50465     18.50465     15.00000        -0.826118     -0.830440     -0.002519
     18.50465     11.49535     15.00000        -0.824579      0.828110     -0.016007
     11.49535     18.50465     15.00000         0.827290     -0.825672      0.002622
     15.00000     15.00000     10.04368         0.009939     -0.018222      1.174426
     15.00000     15.00000     19.95633        -0.000190      0.003956     -1.174898
      9.84801     13.37281     17.49241         1.107781      0.731105     -0.273414
     16.62719     20.15199     17.49241        -0.707393     -1.108120     -0.287563
     16.73751     13.26249     17.45721         0.136094     -0.093401      0.177582
     13.26249     16.73751     12.54279        -0.107629      0.155559     -0.165415
     13.26249     13.26249     17.45721        -0.109886     -0.118367      0.155623
     20.15199     13.37281     17.49241        -1.108217      0.714868     -0.280940
     13.37281     20.15199     17.49241         0.703822     -1.109262     -0.289848
     16.73751     16.73751     12.54279         0.110103      0.118014     -0.155367
     11.52498     15.00000     15.00000        -0.231134     -0.006213     -0.005219
     18.47502     15.00000     15.00000         0.230599      0.000902      0.004163
     15.00000     18.52480     10.20639        -0.002995     -0.399322      1.286856
     15.00000     18.52480     19.79360        -0.000869     -0.411755     -1.280739
     15.00000     15.00000     15.00000         0.001104     -0.026755     -0.016153
     13.26249     16.73751     17.45721        -0.111650      0.107928      0.152083
     16.73751     16.73751     17.45721         0.109056      0.112363      0.155981
     15.00000     18.47502     15.00000        -0.000893      0.226063      0.003915
     13.12585      8.32901     11.89783         0.073481     -0.815090     -0.106811
     12.84739      7.33785     11.43692        -1.149927     -4.792243     -2.168746
 -----------------------------------------------------------------------------------
    total drift:                               -0.002964     -0.006951     -0.009175


--------------------------------------------------------------------------------------------------------



  FREE ENERGIE OF THE ION-ELECTRON SYSTEM (eV)
  ---------------------------------------------------
  free  energy   TOTEN  =      -174.72820665 eV

  energy  without entropy=     -174.61368787  energy(sigma->0) =     -174.69957695
 


--------------------------------------------------------------------------------------------------------


    POTLOK:  cpu time   13.9103: real time   13.9105


--------------------------------------------------------------------------------------------------------


     LOOP+:  cpu time18601.1145: real time18601.8675
    4ORBIT:  cpu time    0.0000: real time    0.0000

 total amount of memory used by VASP MPI-rank0  5486940. kBytes
=======================================================================

   base      :      30000. kBytes
   nonlr-proj:      17125. kBytes
   fftplans  :     924480. kBytes
   grid      :    1872000. kBytes
   one-center:        886. kBytes
   wavefun   :    2642449. kBytes
 
  
  
 General timing and accounting informations for this job:
 ========================================================
  
                  Total CPU time used (sec):    18675.689
                            User time (sec):    17631.126
                          System time (sec):     1044.564
                         Elapsed time (sec):    18676.586
  
                   Maximum memory used (kb):     7178664.
                   Average memory used (kb):           0.
  
                          Minor page faults:    829112133
                          Major page faults:            0
                 Voluntary context switches:          429
