<?xml version="1.0" encoding="ISO-8859-1"?>
<modeling>
 <generator>
  <i name="program" type="string">vasp </i>
  <i name="version" type="string">5.4.4.18Apr17-6-g9f103f2a35  </i>
  <i name="subversion" type="string">(build Sep 03 2018 23:53:05) complex            parallel </i>
  <i name="platform" type="string">LinuxIFC </i>
  <i name="date" type="string">2021 12 03 </i>
  <i name="time" type="string">04:40:53 </i>
 </generator>
 <incar>
  <i type="string" name="SYSTEM"> 6_Pd100_top_free_z(O)</i>
  <i type="int" name="ISTART">     0</i>
  <i type="string" name="PREC">normal   			! encut=max(enmax), ngx,y,z</i>
  <i type="string" name="ALGO"> Fast     			! Mix RMM-DIIS and Dav</i>
  <i type="logical" name="ADDGRID"> F  </i>
  <i type="int" name="ISPIN">     1</i>
  <i type="int" name="ICHARG">     2</i>
  <i type="int" name="NELM">   100</i>
  <i type="int" name="NELMIN">     6</i>
  <i type="int" name="IBRION">     2</i>
  <i name="EDIFF">      0.00010000</i>
  <i name="EDIFFG">     -0.05000000</i>
  <i type="int" name="NSW">     0</i>
  <i type="int" name="ISIF">     2</i>
  <i type="int" name="ISYM">     2</i>
  <i name="ENCUT">    400.00000000</i>
  <i type="string" name="LREAL"> Auto     			! Auto or A projection done</i>
  <i type="int" name="ISMEAR">     2</i>
  <i name="SIGMA">      0.20000000</i>
  <i type="logical" name="LWAVE"> F  </i>
  <i type="logical" name="LCHARG"> F  </i>
  <v type="int" name="KPOINT_BSE">    -1     0     0     0</v>
  <i type="int" name="MAXMEM"> 10000</i>
  <i type="int" name="NELM">   100</i>
  <i type="string" name="GGA"> RP         			! Revised PBE</i>
 </incar>
 <structure name="primitive_cell" >
  <crystal>
   <varray name="basis" >
    <v>      30.00000000       0.00000000       0.00000000 </v>
    <v>       0.00000000      30.00000000       0.00000000 </v>
    <v>       0.00000000       0.00000000      30.00000000 </v>
   </varray>
   <i name="volume">  27000.00000000 </i>
   <varray name="rec_basis" >
    <v>       0.03333333       0.00000000       0.00000000 </v>
    <v>       0.00000000       0.03333333       0.00000000 </v>
    <v>       0.00000000       0.00000000       0.03333333 </v>
   </varray>
  </crystal>
  <varray name="positions" >
   <v>       0.44576020       0.32826710       0.41691983 </v>
   <v>      -0.44576020       0.32826710       0.41691983 </v>
   <v>      -0.50000000       0.38250690       0.34021317 </v>
   <v>      -0.50000000       0.27609440      -0.50000000 </v>
   <v>       0.38804720       0.38804720       0.34167483 </v>
   <v>      -0.50000000       0.38416601      -0.50000000 </v>
   <v>       0.44208300       0.44208300       0.41809300 </v>
   <v>       0.38317830       0.38317830      -0.50000000 </v>
   <v>      -0.44208300       0.44208300       0.41809300 </v>
   <v>       0.30597147       0.39343090       0.36763047 </v>
   <v>       0.44576020       0.32826710      -0.41691977 </v>
   <v>       0.32826705       0.44576024       0.41691983 </v>
   <v>       0.27768630       0.37789543       0.34833387 </v>
   <v>      -0.38804720       0.38804720       0.34167483 </v>
   <v>      -0.38317830       0.38317830      -0.50000000 </v>
   <v>      -0.50000000      -0.50000000       0.33478917 </v>
   <v>      -0.50000000      -0.50000000      -0.50000000 </v>
   <v>      -0.44576020       0.32826710      -0.41691977 </v>
   <v>       0.38250685      -0.49999995       0.34021317 </v>
   <v>       0.44208300       0.44208300      -0.41809297 </v>
   <v>       0.38416599      -0.49999998      -0.50000000 </v>
   <v>      -0.44208300       0.44208300      -0.41809297 </v>
   <v>       0.44208298      -0.44208298       0.41809300 </v>
   <v>       0.32826705       0.44576024      -0.41691977 </v>
   <v>      -0.50000000       0.38250690      -0.34021320 </v>
   <v>       0.32826712      -0.44576022       0.41691983 </v>
   <v>      -0.38250685      -0.49999995       0.34021317 </v>
   <v>      -0.32826705       0.44576024       0.41691983 </v>
   <v>       0.27609443       0.49999998      -0.50000000 </v>
   <v>       0.38804720       0.38804720      -0.34167487 </v>
   <v>      -0.38416599      -0.49999998      -0.50000000 </v>
   <v>      -0.44208298      -0.44208298       0.41809300 </v>
   <v>       0.44208298      -0.44208298      -0.41809297 </v>
   <v>      -0.38804720       0.38804720      -0.34167487 </v>
   <v>       0.38804722      -0.38804722       0.34167483 </v>
   <v>       0.38250685      -0.49999995      -0.34021320 </v>
   <v>       0.32826712      -0.44576022      -0.41691977 </v>
   <v>      -0.32826705       0.44576024      -0.41691977 </v>
   <v>       0.50000000      -0.38250681       0.34021317 </v>
   <v>      -0.50000000      -0.38416596      -0.50000000 </v>
   <v>      -0.44208298      -0.44208298      -0.41809297 </v>
   <v>      -0.50000000      -0.50000000      -0.33478913 </v>
   <v>       0.38317828      -0.38317828      -0.50000000 </v>
   <v>      -0.32826712      -0.44576022       0.41691983 </v>
   <v>      -0.27609443       0.49999998      -0.50000000 </v>
   <v>      -0.38804722      -0.38804722       0.34167483 </v>
   <v>      -0.38250685      -0.49999995      -0.34021320 </v>
   <v>       0.44576027      -0.32826707       0.41691983 </v>
   <v>      -0.38317828      -0.38317828      -0.50000000 </v>
   <v>      -0.32826712      -0.44576022      -0.41691977 </v>
   <v>      -0.44576027      -0.32826707       0.41691983 </v>
   <v>       0.38804722      -0.38804722      -0.34167487 </v>
   <v>      -0.50000000      -0.38250681      -0.34021320 </v>
   <v>       0.44576027      -0.32826707      -0.41691977 </v>
   <v>      -0.44576027      -0.32826707      -0.41691977 </v>
   <v>      -0.50000000      -0.27609445       0.50000000 </v>
   <v>      -0.38804722      -0.38804722      -0.34167487 </v>
  </varray>
 </structure>
 <varray name="primitive_index" >
  <v type="int" >        1 </v>
  <v type="int" >        3 </v>
  <v type="int" >        5 </v>
  <v type="int" >        7 </v>
  <v type="int" >       15 </v>
  <v type="int" >       29 </v>
  <v type="int" >       28 </v>
  <v type="int" >       34 </v>
  <v type="int" >       21 </v>
  <v type="int" >       56 </v>
  <v type="int" >       19 </v>
  <v type="int" >       22 </v>
  <v type="int" >       57 </v>
  <v type="int" >       11 </v>
  <v type="int" >       36 </v>
  <v type="int" >       38 </v>
  <v type="int" >       52 </v>
  <v type="int" >       24 </v>
  <v type="int" >       32 </v>
  <v type="int" >       44 </v>
  <v type="int" >       48 </v>
  <v type="int" >       42 </v>
  <v type="int" >       43 </v>
  <v type="int" >       40 </v>
  <v type="int" >        6 </v>
  <v type="int" >        4 </v>
  <v type="int" >       30 </v>
  <v type="int" >       26 </v>
  <v type="int" >        8 </v>
  <v type="int" >       16 </v>
  <v type="int" >       49 </v>
  <v type="int" >       47 </v>
  <v type="int" >       53 </v>
  <v type="int" >       12 </v>
  <v type="int" >       13 </v>
  <v type="int" >       33 </v>
  <v type="int" >       25 </v>
  <v type="int" >       45 </v>
  <v type="int" >       50 </v>
  <v type="int" >       55 </v>
  <v type="int" >       54 </v>
  <v type="int" >       39 </v>
  <v type="int" >       37 </v>
  <v type="int" >        2 </v>
  <v type="int" >        9 </v>
  <v type="int" >       17 </v>
  <v type="int" >       31 </v>
  <v type="int" >       27 </v>
  <v type="int" >       35 </v>
  <v type="int" >       20 </v>
  <v type="int" >       23 </v>
  <v type="int" >       14 </v>
  <v type="int" >       51 </v>
  <v type="int" >       46 </v>
  <v type="int" >       41 </v>
  <v type="int" >       10 </v>
  <v type="int" >       18 </v>
 </varray>
 <kpoints>
  <generation param="Monkhorst-Pack">
   <v type="int" name="divisions">       1        1        1 </v>
   <v name="usershift">      0.00000000       0.00000000       0.00000000 </v>
   <v name="genvec1">      1.00000000       0.00000000       0.00000000 </v>
   <v name="genvec2">      0.00000000       1.00000000       0.00000000 </v>
   <v name="genvec3">      0.00000000       0.00000000       1.00000000 </v>
   <v name="shift">      0.00000000       0.00000000       0.00000000 </v>
  </generation>
  <varray name="kpointlist" >
   <v>       0.00000000       0.00000000       0.00000000 </v>
  </varray>
  <varray name="weights" >
   <v>       1.00000000 </v>
  </varray>
 </kpoints>
 <parameters>
  <separator name="general" >
   <i type="string" name="SYSTEM">6_Pd100_top_free_z(O)</i>
   <i type="logical" name="LCOMPAT"> F  </i>
  </separator>
  <separator name="electronic" >
   <i type="string" name="PREC">normal</i>
   <i name="ENMAX">    400.00000000</i>
   <i name="ENAUG">    644.87300000</i>
   <i name="EDIFF">      0.00010000</i>
   <i type="int" name="IALGO">    68</i>
   <i type="int" name="IWAVPR">    10</i>
   <i type="int" name="NBANDS">   336</i>
   <i name="NELECT">    560.00000000</i>
   <i type="int" name="TURBO">     0</i>
   <i type="int" name="IRESTART">     0</i>
   <i type="int" name="NREBOOT">     0</i>
   <i type="int" name="NMIN">     0</i>
   <i name="EREF">      0.00000000</i>
   <separator name="electronic smearing" >
    <i type="int" name="ISMEAR">     2</i>
    <i name="SIGMA">      0.20000000</i>
    <i name="KSPACING">      0.50000000</i>
    <i type="logical" name="KGAMMA"> T  </i>
   </separator>
   <separator name="electronic projectors" >
    <i type="logical" name="LREAL"> T  </i>
    <v name="ROPT">     -0.00050000     -0.00050000     -0.00050000</v>
    <i type="int" name="LMAXPAW">  -100</i>
    <i type="int" name="LMAXMIX">     2</i>
    <i type="logical" name="NLSPLINE"> F  </i>
   </separator>
   <separator name="electronic startup" >
    <i type="int" name="ISTART">     0</i>
    <i type="int" name="ICHARG">     2</i>
    <i type="int" name="INIWAV">     1</i>
   </separator>
   <separator name="electronic spin" >
    <i type="int" name="ISPIN">     1</i>
    <i type="logical" name="LNONCOLLINEAR"> F  </i>
    <v name="MAGMOM">      1.00000000      1.00000000      1.00000000      1.00000000      1.00000000      1.00000000      1.00000000      1.00000000      1.00000000      1.00000000      1.00000000      1.00000000      1.00000000      1.00000000      1.00000000      1.00000000      1.00000000      1.00000000      1.00000000      1.00000000
      1.00000000      1.00000000      1.00000000      1.00000000      1.00000000      1.00000000      1.00000000      1.00000000      1.00000000      1.00000000      1.00000000      1.00000000      1.00000000      1.00000000      1.00000000      1.00000000      1.00000000      1.00000000      1.00000000      1.00000000
      1.00000000      1.00000000      1.00000000      1.00000000      1.00000000      1.00000000      1.00000000      1.00000000      1.00000000      1.00000000      1.00000000      1.00000000      1.00000000      1.00000000      1.00000000      1.00000000      1.00000000</v>
    <i name="NUPDOWN">     -1.00000000</i>
    <i type="logical" name="LSORBIT"> F  </i>
    <v name="SAXIS">      0.00000000      0.00000000      1.00000000</v>
    <i type="logical" name="LSPIRAL"> F  </i>
    <v name="QSPIRAL">      0.00000000      0.00000000      0.00000000</v>
    <i type="logical" name="LZEROZ"> F  </i>
   </separator>
   <separator name="electronic exchange-correlation" >
    <i type="logical" name="LASPH"> F  </i>
    <i type="logical" name="LMETAGGA"> F  </i>
   </separator>
   <separator name="electronic convergence" >
    <i type="int" name="NELM">   100</i>
    <i type="int" name="NELMDL">    -5</i>
    <i type="int" name="NELMIN">     6</i>
    <i name="ENINI">    400.00000000</i>
    <separator name="electronic convergence detail" >
     <i type="logical" name="LDIAG"> T  </i>
     <i type="logical" name="LSUBROT"> F  </i>
     <i name="WEIMIN">      0.00000000</i>
     <i name="EBREAK">      0.00000007</i>
     <i name="DEPER">      0.30000000</i>
     <i type="int" name="NRMM">     4</i>
     <i name="TIME">      0.40000000</i>
    </separator>
   </separator>
   <separator name="electronic mixer" >
    <i name="AMIX">      0.40000000</i>
    <i name="BMIX">      1.00000000</i>
    <i name="AMIN">      0.10000000</i>
    <i name="AMIX_MAG">      1.60000000</i>
    <i name="BMIX_MAG">      1.00000000</i>
    <separator name="electronic mixer details" >
     <i type="int" name="IMIX">     4</i>
     <i type="logical" name="MIXFIRST"> F  </i>
     <i type="int" name="MAXMIX">   -45</i>
     <i name="WC">    100.00000000</i>
     <i type="int" name="INIMIX">     1</i>
     <i type="int" name="MIXPRE">     1</i>
     <i type="int" name="MREMOVE">     5</i>
    </separator>
   </separator>
   <separator name="electronic dipolcorrection" >
    <i type="logical" name="LDIPOL"> F  </i>
    <i type="logical" name="LMONO"> F  </i>
    <i type="int" name="IDIPOL">     0</i>
    <i name="EPSILON">      1.00000000</i>
    <v name="DIPOL">   -100.00000000   -100.00000000   -100.00000000</v>
    <i name="EFIELD">      0.00000000</i>
   </separator>
  </separator>
  <separator name="grids" >
   <i type="int" name="NGX">   150</i>
   <i type="int" name="NGY">   150</i>
   <i type="int" name="NGZ">   150</i>
   <i type="int" name="NGXF">   300</i>
   <i type="int" name="NGYF">   300</i>
   <i type="int" name="NGZF">   300</i>
   <i type="logical" name="ADDGRID"> F  </i>
  </separator>
  <separator name="ionic" >
   <i type="int" name="NSW">     0</i>
   <i type="int" name="IBRION">    -1</i>
   <i type="int" name="MDALGO">     0</i>
   <i type="int" name="ISIF">     2</i>
   <i name="PSTRESS">      0.00000000</i>
   <i name="EDIFFG">     -0.05000000</i>
   <i type="int" name="NFREE">     1</i>
   <i name="POTIM">      0.50000000</i>
   <i name="SMASS">     -3.00000000</i>
   <i name="SCALEE">      1.00000000</i>
  </separator>
  <separator name="ionic md" >
   <i name="TEBEG">      0.00010000</i>
   <i name="TEEND">      0.00010000</i>
   <i type="int" name="NBLOCK">     1</i>
   <i type="int" name="KBLOCK">     1</i>
   <i type="int" name="NPACO">   256</i>
   <i name="APACO">     16.00000000</i>
  </separator>
  <separator name="symmetry" >
   <i type="int" name="ISYM">     2</i>
   <i name="SYMPREC">      0.00001000</i>
  </separator>
  <separator name="dos" >
   <i type="int" name="LORBIT">     0</i>
   <v name="RWIGS">     -1.00000000     -1.00000000     -1.00000000</v>
   <i type="int" name="NEDOS">   301</i>
   <i name="EMIN">     10.00000000</i>
   <i name="EMAX">    -10.00000000</i>
   <i name="EFERMI">      0.00000000</i>
  </separator>
  <separator name="writing" >
   <i type="int" name="NWRITE">     2</i>
   <i type="logical" name="LWAVE"> F  </i>
   <i type="logical" name="LDOWNSAMPLE"> F  </i>
   <i type="logical" name="LCHARG"> F  </i>
   <i type="logical" name="LPARD"> F  </i>
   <i type="logical" name="LVTOT"> F  </i>
   <i type="logical" name="LVHAR"> F  </i>
   <i type="logical" name="LELF"> F  </i>
   <i type="logical" name="LOPTICS"> F  </i>
   <v name="STM">      0.00000000      0.00000000      0.00000000      0.00000000      0.00000000      0.00000000      0.00000000</v>
  </separator>
  <separator name="performance" >
   <i type="int" name="NPAR">     1</i>
   <i type="int" name="NSIM">     4</i>
   <i type="int" name="NBLK">    -1</i>
   <i type="logical" name="LPLANE"> T  </i>
   <i type="logical" name="LSCALAPACK"> T  </i>
   <i type="logical" name="LSCAAWARE"> F  </i>
   <i type="logical" name="LSCALU"> F  </i>
   <i type="logical" name="LASYNC"> F  </i>
   <i type="logical" name="LORBITALREAL"> F  </i>
  </separator>
  <separator name="miscellaneous" >
   <i type="int" name="IDIOT">     3</i>
   <i type="int" name="ISPECIAL">     0</i>
   <i type="logical" name="LMUSIC"> F  </i>
   <v name="POMASS">    106.42000000     12.01100000     16.00000000</v>
   <v name="DARWINR">      0.00000000      0.00000000      0.00000000</v>
   <v name="DARWINV">      1.00000000      1.00000000      1.00000000</v>
   <i type="logical" name="LCORR"> T  </i>
  </separator>
  <i type="logical" name="GGA_COMPAT"> T  </i>
  <i type="logical" name="LBERRY"> F  </i>
  <i type="int" name="ICORELEVEL">     0</i>
  <i type="logical" name="LDAU"> F  </i>
  <i type="int" name="I_CONSTRAINED_M">     0</i>
  <separator name="electronic exchange-correlation" >
   <i type="string" name="GGA">RP</i>
   <i type="int" name="VOSKOWN">     0</i>
   <i type="logical" name="LHFCALC"> F  </i>
   <i type="string" name="PRECFOCK"></i>
   <i type="logical" name="LSYMGRAD"> F  </i>
   <i type="logical" name="LHFONE"> F  </i>
   <i type="logical" name="LRHFCALC"> F  </i>
   <i type="logical" name="LTHOMAS"> F  </i>
   <i type="logical" name="LMODELHF"> F  </i>
   <i name="ENCUT4O">     -1.00000000</i>
   <i type="int" name="EXXOEP">     0</i>
   <i type="int" name="FOURORBIT">     0</i>
   <i name="AEXX">      0.00000000</i>
   <i name="HFALPHA">      0.00000000</i>
   <i name="MCALPHA">      0.00000000</i>
   <i name="ALDAX">      1.00000000</i>
   <i name="AGGAX">      1.00000000</i>
   <i name="ALDAC">      1.00000000</i>
   <i name="AGGAC">      1.00000000</i>
   <i type="int" name="NKREDX">     1</i>
   <i type="int" name="NKREDY">     1</i>
   <i type="int" name="NKREDZ">     1</i>
   <i type="logical" name="SHIFTRED"> F  </i>
   <i type="logical" name="ODDONLY"> F  </i>
   <i type="logical" name="EVENONLY"> F  </i>
   <i type="int" name="LMAXFOCK">     0</i>
   <i type="int" name="NMAXFOCKAE">     0</i>
   <i type="logical" name="LFOCKAEDFT"> F  </i>
   <i name="HFSCREEN">      0.00000000</i>
   <i name="HFSCREENC">      0.00000000</i>
   <i type="int" name="NBANDSGWLOW">     0</i>
  </separator>
  <separator name="vdW DFT" >
   <i type="logical" name="LUSE_VDW"> F  </i>
   <i name="Zab_VDW">     -0.84910000</i>
   <i name="PARAM1">      0.12340000</i>
   <i name="PARAM2">      1.00000000</i>
   <i name="PARAM3">      0.00000000</i>
  </separator>
  <separator name="model GW" >
   <i type="int" name="MODEL_GW">     0</i>
   <i name="MODEL_EPS0">    284.21052632</i>
   <i name="MODEL_ALPHA">      1.00000000</i>
  </separator>
  <separator name="linear response parameters" >
   <i type="logical" name="LEPSILON"> F  </i>
   <i type="logical" name="LRPA"> F  </i>
   <i type="logical" name="LNABLA"> F  </i>
   <i type="logical" name="LVEL"> F  </i>
   <i type="int" name="KINTER">     0</i>
   <i name="CSHIFT">      0.10000000</i>
   <i name="OMEGAMAX">     -1.00000000</i>
   <i name="DEG_THRESHOLD">      0.00200000</i>
   <i name="RTIME">     -0.10000000</i>
   <i name="WPLASMAI">      0.00000000</i>
   <v name="DFIELD">      0.00000000      0.00000000      0.00000000</v>
   <v name="WPLASMA">      0.00000000      0.00000000      0.00000000      0.00000000      0.00000000      0.00000000      0.00000000      0.00000000      0.00000000</v>
  </separator>
  <separator name="orbital magnetization" >
   <i type="logical" name="NUCIND"> F  </i>
   <v name="MAGPOS">      0.00000000      0.00000000      0.00000000</v>
   <i type="logical" name="LNICSALL"> T  </i>
   <i type="logical" name="ORBITALMAG"> F  </i>
   <i type="logical" name="LMAGBLOCH"> F  </i>
   <i type="logical" name="LCHIMAG"> F  </i>
   <i type="logical" name="LGAUGE"> T  </i>
   <i type="int" name="MAGATOM">     0</i>
   <v name="MAGDIPOL">      0.00000000      0.00000000      0.00000000</v>
   <v name="AVECCONST">      0.00000000      0.00000000      0.00000000</v>
  </separator>
  <separator name="response functions" >
   <i type="logical" name="LADDER"> F  </i>
   <i type="logical" name="LRPAFORCE"> F  </i>
   <i type="logical" name="LFXC"> F  </i>
   <i type="logical" name="LHARTREE"> T  </i>
   <i type="int" name="IBSE">     0</i>
   <v type="int" name="KPOINT">    -1     0     0     0</v>
   <i type="logical" name="LTCTE"> F  </i>
   <i type="logical" name="LTETE"> F  </i>
   <i type="logical" name="LTRIPLET"> F  </i>
   <i type="logical" name="LFXCEPS"> F  </i>
   <i type="logical" name="LFXHEG"> F  </i>
   <i type="int" name="NATURALO">     2</i>
   <i type="logical" name="L2ORDER"> F  </i>
   <i type="logical" name="LMP2LT"> F  </i>
   <i type="logical" name="LUSEW"> F  </i>
   <i name="ENCUTGW">     -2.00000000</i>
   <i name="ENCUTGWSOFT">     -2.00000000</i>
   <i name="ENCUTLF">     -1.00000000</i>
   <i type="int" name="LMAXMP2">    -1</i>
   <i name="SCISSOR">      0.00000000</i>
   <i type="int" name="NOMEGA">     0</i>
   <i type="int" name="NOMEGAR">     0</i>
   <i type="int" name="NBANDSGW">    -1</i>
   <i type="int" name="NBANDSO">    -1</i>
   <i type="int" name="NBANDSV">    -1</i>
   <i type="int" name="NELM">   100</i>
   <i type="int" name="NELMHF">     1</i>
   <i type="int" name="DIM">     3</i>
   <i type="int" name="ANTIRES">     0</i>
   <i name="OMEGAMAX">    -30.00000000</i>
   <i name="OMEGAMIN">    -30.00000000</i>
   <i name="OMEGATL">   -200.00000000</i>
   <i type="int" name="OMEGAGRID">   140</i>
   <i name="CSHIFT">     -0.10000000</i>
   <i type="logical" name="SELFENERGY"> F  </i>
   <i type="logical" name="LSPECTRAL"> F  </i>
   <i type="logical" name="LSPECTRALGW"> F  </i>
   <i type="logical" name="LSINGLES"> F  </i>
   <i type="logical" name="LFERMIGW"> F  </i>
   <i type="logical" name="ODDONLYGW"> F  </i>
   <i type="logical" name="EVENONLYGW"> F  </i>
   <i type="int" name="NKREDLFX">     1</i>
   <i type="int" name="NKREDLFY">     1</i>
   <i type="int" name="NKREDLFZ">     1</i>
   <i type="int" name="MAXMEM"> 10000</i>
   <i type="int" name="TELESCOPE">     0</i>
   <i type="int" name="TAUPAR">     1</i>
   <i type="int" name="OMEGAPAR">    -1</i>
   <i name="LAMBDA">      1.00000000</i>
  </separator>
  <separator name="External order field" >
   <i name="OFIELD_KAPPA">      0.00000000</i>
   <v name="OFIELD_K">      0.00000000      0.00000000      0.00000000</v>
   <i name="OFIELD_Q6_NEAR">      0.00000000</i>
   <i name="OFIELD_Q6_FAR">      0.00000000</i>
   <i name="OFIELD_A">      0.00000000</i>
  </separator>
 </parameters>
 <atominfo>
  <atoms>      57 </atoms>
  <types>       3 </types>
  <array name="atoms" >
   <dimension dim="1">ion</dimension>
   <field type="string">element</field>
   <field type="int">atomtype</field>
   <set>
    <rc><c>Pd</c><c>   1</c></rc>
    <rc><c>Pd</c><c>   1</c></rc>
    <rc><c>Pd</c><c>   1</c></rc>
    <rc><c>Pd</c><c>   1</c></rc>
    <rc><c>Pd</c><c>   1</c></rc>
    <rc><c>Pd</c><c>   1</c></rc>
    <rc><c>Pd</c><c>   1</c></rc>
    <rc><c>Pd</c><c>   1</c></rc>
    <rc><c>Pd</c><c>   1</c></rc>
    <rc><c>Pd</c><c>   1</c></rc>
    <rc><c>Pd</c><c>   1</c></rc>
    <rc><c>Pd</c><c>   1</c></rc>
    <rc><c>Pd</c><c>   1</c></rc>
    <rc><c>Pd</c><c>   1</c></rc>
    <rc><c>Pd</c><c>   1</c></rc>
    <rc><c>Pd</c><c>   1</c></rc>
    <rc><c>Pd</c><c>   1</c></rc>
    <rc><c>Pd</c><c>   1</c></rc>
    <rc><c>Pd</c><c>   1</c></rc>
    <rc><c>Pd</c><c>   1</c></rc>
    <rc><c>Pd</c><c>   1</c></rc>
    <rc><c>Pd</c><c>   1</c></rc>
    <rc><c>Pd</c><c>   1</c></rc>
    <rc><c>Pd</c><c>   1</c></rc>
    <rc><c>Pd</c><c>   1</c></rc>
    <rc><c>Pd</c><c>   1</c></rc>
    <rc><c>Pd</c><c>   1</c></rc>
    <rc><c>Pd</c><c>   1</c></rc>
    <rc><c>Pd</c><c>   1</c></rc>
    <rc><c>Pd</c><c>   1</c></rc>
    <rc><c>Pd</c><c>   1</c></rc>
    <rc><c>Pd</c><c>   1</c></rc>
    <rc><c>Pd</c><c>   1</c></rc>
    <rc><c>Pd</c><c>   1</c></rc>
    <rc><c>Pd</c><c>   1</c></rc>
    <rc><c>Pd</c><c>   1</c></rc>
    <rc><c>Pd</c><c>   1</c></rc>
    <rc><c>Pd</c><c>   1</c></rc>
    <rc><c>Pd</c><c>   1</c></rc>
    <rc><c>Pd</c><c>   1</c></rc>
    <rc><c>Pd</c><c>   1</c></rc>
    <rc><c>Pd</c><c>   1</c></rc>
    <rc><c>Pd</c><c>   1</c></rc>
    <rc><c>Pd</c><c>   1</c></rc>
    <rc><c>Pd</c><c>   1</c></rc>
    <rc><c>Pd</c><c>   1</c></rc>
    <rc><c>Pd</c><c>   1</c></rc>
    <rc><c>Pd</c><c>   1</c></rc>
    <rc><c>Pd</c><c>   1</c></rc>
    <rc><c>Pd</c><c>   1</c></rc>
    <rc><c>Pd</c><c>   1</c></rc>
    <rc><c>Pd</c><c>   1</c></rc>
    <rc><c>Pd</c><c>   1</c></rc>
    <rc><c>Pd</c><c>   1</c></rc>
    <rc><c>Pd</c><c>   1</c></rc>
    <rc><c>C </c><c>   2</c></rc>
    <rc><c>O </c><c>   3</c></rc>
   </set>
  </array>
  <array name="atomtypes" >
   <dimension dim="1">type</dimension>
   <field type="int">atomspertype</field>
   <field type="string">element</field>
   <field>mass</field>
   <field>valence</field>
   <field type="string">pseudopotential</field>
   <set>
    <rc><c>  55</c><c>Pd</c><c>    106.42000000</c><c>     10.00000000</c><c>  PAW_PBE Pd 04Jan2005                  </c></rc>
    <rc><c>   1</c><c>C </c><c>     12.01100000</c><c>      4.00000000</c><c>  PAW_PBE C 08Apr2002                   </c></rc>
    <rc><c>   1</c><c>O </c><c>     16.00000000</c><c>      6.00000000</c><c>  PAW_PBE O 08Apr2002                   </c></rc>
   </set>
  </array>
 </atominfo>
 <structure name="initialpos" >
  <crystal>
   <varray name="basis" >
    <v>      30.00000000       0.00000000       0.00000000 </v>
    <v>       0.00000000      30.00000000       0.00000000 </v>
    <v>       0.00000000       0.00000000      30.00000000 </v>
   </varray>
   <i name="volume">  27000.00000000 </i>
   <varray name="rec_basis" >
    <v>       0.03333333       0.00000000       0.00000000 </v>
    <v>       0.00000000       0.03333333       0.00000000 </v>
    <v>       0.00000000       0.00000000       0.03333333 </v>
   </varray>
  </crystal>
  <varray name="positions" >
   <v>       0.44576020       0.32826710       0.41691983 </v>
   <v>       0.67173288       0.55423978       0.41691983 </v>
   <v>       0.55423980       0.32826710       0.41691983 </v>
   <v>       0.32826712       0.55423978       0.41691983 </v>
   <v>       0.50000000       0.38250690       0.34021317 </v>
   <v>       0.50000000       0.38250690       0.65978680 </v>
   <v>       0.50000000       0.27609440       0.50000000 </v>
   <v>       0.27609443       0.49999998       0.50000000 </v>
   <v>       0.72390557       0.49999998       0.50000000 </v>
   <v>       0.50000000       0.72390555       0.50000000 </v>
   <v>       0.61195280       0.38804720       0.34167483 </v>
   <v>       0.61195280       0.38804720       0.65832513 </v>
   <v>       0.38804722       0.61195278       0.34167483 </v>
   <v>       0.38804722       0.61195278       0.65832513 </v>
   <v>       0.38804720       0.38804720       0.34167483 </v>
   <v>       0.38804720       0.38804720       0.65832513 </v>
   <v>       0.61195278       0.61195278       0.34167483 </v>
   <v>       0.61195278       0.61195278       0.65832513 </v>
   <v>       0.44576020       0.32826710       0.58308023 </v>
   <v>       0.67173288       0.55423978       0.58308023 </v>
   <v>       0.55791699       0.44208301       0.41809300 </v>
   <v>       0.32826705       0.44576024       0.41691983 </v>
   <v>       0.55423973       0.67173293       0.41691983 </v>
   <v>       0.55423980       0.32826710       0.58308023 </v>
   <v>       0.32826712       0.55423978       0.58308023 </v>
   <v>       0.67173295       0.44576024       0.41691983 </v>
   <v>       0.44576027       0.67173293       0.41691983 </v>
   <v>       0.44208301       0.44208301       0.41809300 </v>
   <v>       0.50000000       0.38416601       0.50000000 </v>
   <v>       0.61749315       0.50000005       0.34021317 </v>
   <v>       0.61749315       0.50000005       0.65978680 </v>
   <v>       0.38250685       0.50000005       0.34021317 </v>
   <v>       0.38250685       0.50000005       0.65978680 </v>
   <v>       0.38317830       0.38317830       0.50000000 </v>
   <v>       0.61682172       0.61682172       0.50000000 </v>
   <v>       0.61682170       0.38317830       0.50000000 </v>
   <v>       0.38317828       0.61682172       0.50000000 </v>
   <v>       0.50000000       0.50000000       0.33478917 </v>
   <v>       0.50000000       0.50000000       0.66521087 </v>
   <v>       0.32826705       0.44576024       0.58308023 </v>
   <v>       0.55423973       0.67173293       0.58308023 </v>
   <v>       0.55791699       0.44208301       0.58190703 </v>
   <v>       0.44208298       0.55791702       0.41809300 </v>
   <v>       0.44208301       0.44208301       0.58190703 </v>
   <v>       0.67173295       0.44576024       0.58308023 </v>
   <v>       0.44576027       0.67173293       0.58308023 </v>
   <v>       0.55791702       0.55791702       0.41809300 </v>
   <v>       0.38416599       0.50000002       0.50000000 </v>
   <v>       0.61583401       0.50000002       0.50000000 </v>
   <v>       0.50000000       0.61749319       0.34021317 </v>
   <v>       0.50000000       0.61749319       0.65978680 </v>
   <v>       0.50000000       0.50000000       0.50000000 </v>
   <v>       0.44208298       0.55791702       0.58190703 </v>
   <v>       0.55791702       0.55791702       0.58190703 </v>
   <v>       0.50000000       0.61583404       0.50000000 </v>
   <v>       0.30597147       0.39343090       0.36763047 </v>
   <v>       0.27768630       0.37789543       0.34833387 </v>
  </varray>
  <varray name="selective"  type="logical" >
   <v type="logical" >  F  F  F </v>
   <v type="logical" >  F  F  F </v>
   <v type="logical" >  F  F  F </v>
   <v type="logical" >  F  F  F </v>
   <v type="logical" >  F  F  F </v>
   <v type="logical" >  F  F  F </v>
   <v type="logical" >  F  F  F </v>
   <v type="logical" >  F  F  F </v>
   <v type="logical" >  F  F  F </v>
   <v type="logical" >  F  F  F </v>
   <v type="logical" >  F  F  F </v>
   <v type="logical" >  F  F  F </v>
   <v type="logical" >  F  F  F </v>
   <v type="logical" >  F  F  F </v>
   <v type="logical" >  F  F  F </v>
   <v type="logical" >  F  F  F </v>
   <v type="logical" >  F  F  F </v>
   <v type="logical" >  F  F  F </v>
   <v type="logical" >  F  F  F </v>
   <v type="logical" >  F  F  F </v>
   <v type="logical" >  F  F  F </v>
   <v type="logical" >  F  F  F </v>
   <v type="logical" >  F  F  F </v>
   <v type="logical" >  F  F  F </v>
   <v type="logical" >  F  F  F </v>
   <v type="logical" >  F  F  F </v>
   <v type="logical" >  F  F  F </v>
   <v type="logical" >  F  F  F </v>
   <v type="logical" >  F  F  F </v>
   <v type="logical" >  F  F  F </v>
   <v type="logical" >  F  F  F </v>
   <v type="logical" >  F  F  F </v>
   <v type="logical" >  F  F  F </v>
   <v type="logical" >  F  F  F </v>
   <v type="logical" >  F  F  F </v>
   <v type="logical" >  F  F  F </v>
   <v type="logical" >  F  F  F </v>
   <v type="logical" >  F  F  F </v>
   <v type="logical" >  F  F  F </v>
   <v type="logical" >  F  F  F </v>
   <v type="logical" >  F  F  F </v>
   <v type="logical" >  F  F  F </v>
   <v type="logical" >  F  F  F </v>
   <v type="logical" >  F  F  F </v>
   <v type="logical" >  F  F  F </v>
   <v type="logical" >  F  F  F </v>
   <v type="logical" >  F  F  F </v>
   <v type="logical" >  F  F  F </v>
   <v type="logical" >  F  F  F </v>
   <v type="logical" >  F  F  F </v>
   <v type="logical" >  F  F  F </v>
   <v type="logical" >  F  F  F </v>
   <v type="logical" >  F  F  F </v>
   <v type="logical" >  F  F  F </v>
   <v type="logical" >  F  F  F </v>
   <v type="logical" >  F  F  F </v>
   <v type="logical" >  F  F  F </v>
  </varray>
  <nose>
   <v>      -3.00000000       0.00000000       0.00010000       0.00010000 </v>
  </nose>
 </structure>
 <calculation>
  <scstep>
   <time name="dav">  363.93  363.99</time>
   <time name="total">  378.43  378.50</time>
   <energy>
    <i name="alphaZ">     75.25431677 </i>
    <i name="ewald"> 137954.25672353 </i>
    <i name="hartreedc">-181318.39285822 </i>
    <i name="XCdc">  -1703.31831378 </i>
    <i name="pawpsdc">  44873.02882129 </i>
    <i name="pawaedc"> -41398.84523641 </i>
    <i name="eentropy">      0.01018993 </i>
    <i name="bandstr">    817.23716552 </i>
    <i name="atom">  45086.50549395 </i>
    <i name="e_fr_energy">   4385.73630259 </i>
    <i name="e_wo_entrp">   4385.72611266 </i>
    <i name="e_0_energy">   4385.73375510 </i>
   </energy>
  </scstep>
  <scstep>
   <time name="dav">  594.62  594.61</time>
   <time name="total">  594.62  594.61</time>
   <energy>
    <i name="e_fr_energy">   2009.94480815 </i>
    <i name="e_wo_entrp">   2009.99420251 </i>
    <i name="e_0_energy">   2009.95715674 </i>
   </energy>
  </scstep>
  <scstep>
   <time name="dav">  498.43  498.42</time>
   <time name="total">  498.43  498.42</time>
   <energy>
    <i name="e_fr_energy">    234.88567135 </i>
    <i name="e_wo_entrp">    234.91752615 </i>
    <i name="e_0_energy">    234.89363505 </i>
   </energy>
  </scstep>
  <scstep>
   <time name="dav">  431.44  431.44</time>
   <time name="total">  431.44  431.44</time>
   <energy>
    <i name="e_fr_energy">   -135.74143730 </i>
    <i name="e_wo_entrp">   -135.74679355 </i>
    <i name="e_0_energy">   -135.74277637 </i>
   </energy>
  </scstep>
  <scstep>
   <time name="dav">  539.65  539.64</time>
   <time name="total">  566.81  566.80</time>
   <energy>
    <i name="e_fr_energy">   -179.68045469 </i>
    <i name="e_wo_entrp">   -180.20962824 </i>
    <i name="e_0_energy">   -179.81274808 </i>
   </energy>
  </scstep>
  <scstep>
   <time name="diag">   69.81   69.81</time>
   <time name="diis">  204.05  204.05</time>
   <time name="orth">   13.71   13.71</time>
   <time name="total">  328.53  328.52</time>
   <energy>
    <i name="e_fr_energy">   -180.31503345 </i>
    <i name="e_wo_entrp">   -180.27481508 </i>
    <i name="e_0_energy">   -180.30497885 </i>
   </energy>
  </scstep>
  <scstep>
   <time name="diag">   70.47   70.47</time>
   <time name="diis">  247.14  247.14</time>
   <time name="orth">   13.98   13.98</time>
   <time name="total">  372.15  372.14</time>
   <energy>
    <i name="e_fr_energy">   -182.51336915 </i>
    <i name="e_wo_entrp">   -182.55450468 </i>
    <i name="e_0_energy">   -182.52365303 </i>
   </energy>
  </scstep>
  <scstep>
   <time name="diag">   70.78   70.78</time>
   <time name="diis">  222.40  222.40</time>
   <time name="orth">   14.13   14.13</time>
   <time name="total">  348.70  348.71</time>
   <energy>
    <i name="e_fr_energy">   -183.22348895 </i>
    <i name="e_wo_entrp">   -183.13887787 </i>
    <i name="e_0_energy">   -183.20233618 </i>
   </energy>
  </scstep>
  <scstep>
   <time name="diag">   70.95   70.95</time>
   <time name="diis">  205.42  205.42</time>
   <time name="orth">   13.96   13.96</time>
   <time name="total">  332.44  332.44</time>
   <energy>
    <i name="e_fr_energy">   -183.55405330 </i>
    <i name="e_wo_entrp">   -183.34220161 </i>
    <i name="e_0_energy">   -183.50109038 </i>
   </energy>
  </scstep>
  <scstep>
   <time name="diag">   71.07   71.07</time>
   <time name="diis">  206.88  206.88</time>
   <time name="orth">   13.93   13.92</time>
   <time name="total">  334.62  334.62</time>
   <energy>
    <i name="e_fr_energy">   -181.87282678 </i>
    <i name="e_wo_entrp">   -181.68039060 </i>
    <i name="e_0_energy">   -181.82471774 </i>
   </energy>
  </scstep>
  <scstep>
   <time name="diag">   70.86   70.86</time>
   <time name="diis">  200.12  200.12</time>
   <time name="orth">   14.14   14.14</time>
   <time name="total">  327.39  327.39</time>
   <energy>
    <i name="e_fr_energy">   -179.07715120 </i>
    <i name="e_wo_entrp">   -178.94144606 </i>
    <i name="e_0_energy">   -179.04322491 </i>
   </energy>
  </scstep>
  <scstep>
   <time name="diag">   71.17   71.17</time>
   <time name="diis">  199.70  199.70</time>
   <time name="orth">   14.19   14.19</time>
   <time name="total">  327.35  327.35</time>
   <energy>
    <i name="e_fr_energy">   -177.26030434 </i>
    <i name="e_wo_entrp">   -177.19813043 </i>
    <i name="e_0_energy">   -177.24476086 </i>
   </energy>
  </scstep>
  <scstep>
   <time name="diag">   71.19   71.19</time>
   <time name="diis">  197.08  197.08</time>
   <time name="orth">   14.17   14.17</time>
   <time name="total">  324.79  324.79</time>
   <energy>
    <i name="e_fr_energy">   -176.74480468 </i>
    <i name="e_wo_entrp">   -176.63263163 </i>
    <i name="e_0_energy">   -176.71676142 </i>
   </energy>
  </scstep>
  <scstep>
   <time name="diag">   71.37   71.37</time>
   <time name="diis">  199.16  199.16</time>
   <time name="orth">   14.17   14.17</time>
   <time name="total">  327.07  327.07</time>
   <energy>
    <i name="e_fr_energy">   -176.93840850 </i>
    <i name="e_wo_entrp">   -176.77965812 </i>
    <i name="e_0_energy">   -176.89872090 </i>
   </energy>
  </scstep>
  <scstep>
   <time name="diag">   71.58   71.58</time>
   <time name="diis">  196.89  196.89</time>
   <time name="orth">   14.09   14.09</time>
   <time name="total">  324.71  324.71</time>
   <energy>
    <i name="e_fr_energy">   -176.93554065 </i>
    <i name="e_wo_entrp">   -176.88945629 </i>
    <i name="e_0_energy">   -176.92401956 </i>
   </energy>
  </scstep>
  <scstep>
   <time name="diag">   71.62   71.62</time>
   <time name="diis">  196.18  196.17</time>
   <time name="orth">   14.12   14.12</time>
   <time name="total">  324.05  324.05</time>
   <energy>
    <i name="e_fr_energy">   -176.30845415 </i>
    <i name="e_wo_entrp">   -176.23874111 </i>
    <i name="e_0_energy">   -176.29102589 </i>
   </energy>
  </scstep>
  <scstep>
   <time name="diag">   71.46   71.46</time>
   <time name="diis">  193.11  193.11</time>
   <time name="orth">   14.23   14.23</time>
   <time name="total">  321.07  321.07</time>
   <energy>
    <i name="e_fr_energy">   -175.89679635 </i>
    <i name="e_wo_entrp">   -175.92612241 </i>
    <i name="e_0_energy">   -175.90412787 </i>
   </energy>
  </scstep>
  <scstep>
   <time name="diag">   70.72   70.72</time>
   <time name="diis">  197.41  197.41</time>
   <time name="orth">   14.15   14.15</time>
   <time name="total">  323.73  323.73</time>
   <energy>
    <i name="e_fr_energy">   -175.60530286 </i>
    <i name="e_wo_entrp">   -175.58062289 </i>
    <i name="e_0_energy">   -175.59913287 </i>
   </energy>
  </scstep>
  <scstep>
   <time name="diag">   70.23   70.23</time>
   <time name="diis">  197.23  197.23</time>
   <time name="orth">   13.97   13.97</time>
   <time name="total">  323.11  323.11</time>
   <energy>
    <i name="e_fr_energy">   -175.82179372 </i>
    <i name="e_wo_entrp">   -175.92459991 </i>
    <i name="e_0_energy">   -175.84749526 </i>
   </energy>
  </scstep>
  <scstep>
   <time name="diag">   70.88   70.88</time>
   <time name="diis">  194.43  194.43</time>
   <time name="orth">   13.89   13.89</time>
   <time name="total">  320.72  320.72</time>
   <energy>
    <i name="e_fr_energy">   -175.58749290 </i>
    <i name="e_wo_entrp">   -175.61264333 </i>
    <i name="e_0_energy">   -175.59378051 </i>
   </energy>
  </scstep>
  <scstep>
   <time name="diag">   71.29   71.29</time>
   <time name="diis">  190.86  190.86</time>
   <time name="orth">   14.12   14.12</time>
   <time name="total">  318.51  318.51</time>
   <energy>
    <i name="e_fr_energy">   -175.48301509 </i>
    <i name="e_wo_entrp">   -175.49208383 </i>
    <i name="e_0_energy">   -175.48528228 </i>
   </energy>
  </scstep>
  <scstep>
   <time name="diag">   71.60   71.60</time>
   <time name="diis">  191.63  191.63</time>
   <time name="orth">   14.19   14.19</time>
   <time name="total">  319.86  319.86</time>
   <energy>
    <i name="e_fr_energy">   -175.22925392 </i>
    <i name="e_wo_entrp">   -175.16916912 </i>
    <i name="e_0_energy">   -175.21423272 </i>
   </energy>
  </scstep>
  <scstep>
   <time name="diag">   71.20   71.20</time>
   <time name="diis">  193.18  193.19</time>
   <time name="orth">   14.31   14.31</time>
   <time name="total">  320.42  320.43</time>
   <energy>
    <i name="e_fr_energy">   -175.13523446 </i>
    <i name="e_wo_entrp">   -175.05259798 </i>
    <i name="e_0_energy">   -175.11457534 </i>
   </energy>
  </scstep>
  <scstep>
   <time name="diag">   71.08   71.08</time>
   <time name="diis">  193.33  193.34</time>
   <time name="orth">   14.06   14.06</time>
   <time name="total">  320.51  320.53</time>
   <energy>
    <i name="e_fr_energy">   -175.19819506 </i>
    <i name="e_wo_entrp">   -175.11910348 </i>
    <i name="e_0_energy">   -175.17842217 </i>
   </energy>
  </scstep>
  <scstep>
   <time name="diag">   71.44   71.45</time>
   <time name="diis">  190.74  190.75</time>
   <time name="orth">   14.14   14.14</time>
   <time name="total">  318.79  318.81</time>
   <energy>
    <i name="e_fr_energy">   -175.09590215 </i>
    <i name="e_wo_entrp">   -174.99274587 </i>
    <i name="e_0_energy">   -175.07011308 </i>
   </energy>
  </scstep>
  <scstep>
   <time name="diag">   71.75   71.75</time>
   <time name="diis">  190.40  190.40</time>
   <time name="orth">   13.87   13.87</time>
   <time name="total">  318.21  318.21</time>
   <energy>
    <i name="e_fr_energy">   -175.00560337 </i>
    <i name="e_wo_entrp">   -174.90259772 </i>
    <i name="e_0_energy">   -174.97985196 </i>
   </energy>
  </scstep>
  <scstep>
   <time name="diag">   70.86   70.86</time>
   <time name="diis">  190.49  190.49</time>
   <time name="orth">   13.90   13.90</time>
   <time name="total">  317.38  317.38</time>
   <energy>
    <i name="e_fr_energy">   -174.93127009 </i>
    <i name="e_wo_entrp">   -174.84211562 </i>
    <i name="e_0_energy">   -174.90898147 </i>
   </energy>
  </scstep>
  <scstep>
   <time name="diag">   71.75   71.75</time>
   <time name="diis">  190.43  190.42</time>
   <time name="orth">   14.05   14.05</time>
   <time name="total">  319.13  319.13</time>
   <energy>
    <i name="e_fr_energy">   -174.88892478 </i>
    <i name="e_wo_entrp">   -174.79497918 </i>
    <i name="e_0_energy">   -174.86543838 </i>
   </energy>
  </scstep>
  <scstep>
   <time name="diag">   71.05   71.05</time>
   <time name="diis">  190.92  190.92</time>
   <time name="orth">   14.23   14.23</time>
   <time name="total">  318.75  318.75</time>
   <energy>
    <i name="e_fr_energy">   -174.86447649 </i>
    <i name="e_wo_entrp">   -174.78213224 </i>
    <i name="e_0_energy">   -174.84389042 </i>
   </energy>
  </scstep>
  <scstep>
   <time name="diag">   71.15   71.15</time>
   <time name="diis">  191.01  191.01</time>
   <time name="orth">   14.04   14.04</time>
   <time name="total">  318.88  318.88</time>
   <energy>
    <i name="e_fr_energy">   -174.84896318 </i>
    <i name="e_wo_entrp">   -174.76189631 </i>
    <i name="e_0_energy">   -174.82719646 </i>
   </energy>
  </scstep>
  <scstep>
   <time name="diag">   71.17   71.17</time>
   <time name="diis">  189.52  189.52</time>
   <time name="orth">   13.87   13.87</time>
   <time name="total">  317.15  317.15</time>
   <energy>
    <i name="e_fr_energy">   -174.83124096 </i>
    <i name="e_wo_entrp">   -174.74185559 </i>
    <i name="e_0_energy">   -174.80889462 </i>
   </energy>
  </scstep>
  <scstep>
   <time name="diag">   70.89   70.89</time>
   <time name="diis">  190.60  190.60</time>
   <time name="orth">   13.88   13.88</time>
   <time name="total">  318.06  318.06</time>
   <energy>
    <i name="e_fr_energy">   -174.82252611 </i>
    <i name="e_wo_entrp">   -174.73791228 </i>
    <i name="e_0_energy">   -174.80137265 </i>
   </energy>
  </scstep>
  <scstep>
   <time name="diag">   68.87   68.87</time>
   <time name="diis">  181.35  181.35</time>
   <time name="orth">   13.54   13.54</time>
   <time name="total">  305.34  305.34</time>
   <energy>
    <i name="e_fr_energy">   -174.81787081 </i>
    <i name="e_wo_entrp">   -174.72987790 </i>
    <i name="e_0_energy">   -174.79587258 </i>
   </energy>
  </scstep>
  <scstep>
   <time name="diag">   68.59   68.59</time>
   <time name="diis">  181.03  181.03</time>
   <time name="orth">   13.66   13.66</time>
   <time name="total">  304.84  304.84</time>
   <energy>
    <i name="e_fr_energy">   -174.81471404 </i>
    <i name="e_wo_entrp">   -174.72609704 </i>
    <i name="e_0_energy">   -174.79255979 </i>
   </energy>
  </scstep>
  <scstep>
   <time name="diag">   68.59   68.59</time>
   <time name="diis">  180.43  180.43</time>
   <time name="orth">   13.59   13.59</time>
   <time name="total">  304.11  304.11</time>
   <energy>
    <i name="e_fr_energy">   -174.81344150 </i>
    <i name="e_wo_entrp">   -174.71959056 </i>
    <i name="e_0_energy">   -174.78997877 </i>
   </energy>
  </scstep>
  <scstep>
   <time name="diag">   68.89   68.89</time>
   <time name="diis">  180.31  180.30</time>
   <time name="orth">   13.62   13.62</time>
   <time name="total">  304.59  304.59</time>
   <energy>
    <i name="e_fr_energy">   -174.81451704 </i>
    <i name="e_wo_entrp">   -174.72146181 </i>
    <i name="e_0_energy">   -174.79125323 </i>
   </energy>
  </scstep>
  <scstep>
   <time name="diag">   68.85   68.85</time>
   <time name="diis">  179.04  179.04</time>
   <time name="orth">   13.54   13.54</time>
   <time name="total">  303.53  303.53</time>
   <energy>
    <i name="e_fr_energy">   -174.81453486 </i>
    <i name="e_wo_entrp">   -174.72341756 </i>
    <i name="e_0_energy">   -174.79175554 </i>
   </energy>
  </scstep>
  <scstep>
   <time name="diag">   69.01   69.01</time>
   <time name="diis">  179.58  179.58</time>
   <time name="orth">   13.53   13.53</time>
   <time name="total">  304.46  304.46</time>
   <energy>
    <i name="e_fr_energy">   -174.81650342 </i>
    <i name="e_wo_entrp">   -174.72344597 </i>
    <i name="e_0_energy">   -174.79323906 </i>
   </energy>
  </scstep>
  <scstep>
   <time name="diag">   68.48   68.48</time>
   <time name="diis">  178.31  178.31</time>
   <time name="orth">   13.72   13.71</time>
   <time name="total">  302.88  302.88</time>
   <energy>
    <i name="e_fr_energy">   -174.81739141 </i>
    <i name="e_wo_entrp">   -174.72401468 </i>
    <i name="e_0_energy">   -174.79404723 </i>
   </energy>
  </scstep>
  <scstep>
   <time name="diag">   67.90   67.90</time>
   <time name="diis">  178.97  178.97</time>
   <time name="orth">   13.38   13.38</time>
   <time name="total">  302.02  302.02</time>
   <energy>
    <i name="e_fr_energy">   -174.82005542 </i>
    <i name="e_wo_entrp">   -174.72814374 </i>
    <i name="e_0_energy">   -174.79707750 </i>
   </energy>
  </scstep>
  <scstep>
   <time name="diag">   67.10   67.10</time>
   <time name="diis">  178.96  178.96</time>
   <time name="orth">   13.44   13.44</time>
   <time name="total">  301.09  301.09</time>
   <energy>
    <i name="e_fr_energy">   -174.82323890 </i>
    <i name="e_wo_entrp">   -174.73014550 </i>
    <i name="e_0_energy">   -174.79996555 </i>
   </energy>
  </scstep>
  <scstep>
   <time name="diag">   67.33   67.33</time>
   <time name="diis">  127.46  127.46</time>
   <time name="orth">   13.26   13.26</time>
   <time name="total">  249.58  249.59</time>
   <energy>
    <i name="e_fr_energy">   -174.82441144 </i>
    <i name="e_wo_entrp">   -174.73218511 </i>
    <i name="e_0_energy">   -174.80135486 </i>
   </energy>
  </scstep>
  <scstep>
   <time name="diag">   67.25   67.25</time>
   <time name="diis">  130.20  130.20</time>
   <time name="orth">   13.18   13.18</time>
   <time name="total">  252.00  251.99</time>
   <energy>
    <i name="e_fr_energy">   -174.82668289 </i>
    <i name="e_wo_entrp">   -174.73376229 </i>
    <i name="e_0_energy">   -174.80345274 </i>
   </energy>
  </scstep>
  <scstep>
   <time name="diag">   67.43   67.43</time>
   <time name="diis">  115.03  115.03</time>
   <time name="orth">   13.12   13.11</time>
   <time name="total">  237.19  237.18</time>
   <energy>
    <i name="e_fr_energy">   -174.82784269 </i>
    <i name="e_wo_entrp">   -174.73487641 </i>
    <i name="e_0_energy">   -174.80460112 </i>
   </energy>
  </scstep>
  <scstep>
   <time name="diag">   67.28   67.28</time>
   <time name="diis">  114.59  114.59</time>
   <time name="orth">   13.16   13.16</time>
   <time name="total">  236.76  236.76</time>
   <energy>
    <i name="e_fr_energy">   -174.82916511 </i>
    <i name="e_wo_entrp">   -174.73676475 </i>
    <i name="e_0_energy">   -174.80606502 </i>
   </energy>
  </scstep>
  <scstep>
   <time name="diag">   67.11   67.11</time>
   <time name="diis">  115.26  115.26</time>
   <time name="orth">   13.28   13.28</time>
   <time name="total">  237.67  237.67</time>
   <energy>
    <i name="e_fr_energy">   -174.83107767 </i>
    <i name="e_wo_entrp">   -174.73784989 </i>
    <i name="e_0_energy">   -174.80777072 </i>
   </energy>
  </scstep>
  <scstep>
   <time name="diag">   66.95   66.95</time>
   <time name="diis">  116.02  116.02</time>
   <time name="orth">   13.32   13.32</time>
   <time name="total">  238.33  238.33</time>
   <energy>
    <i name="e_fr_energy">   -174.83226889 </i>
    <i name="e_wo_entrp">   -174.73933016 </i>
    <i name="e_0_energy">   -174.80903421 </i>
   </energy>
  </scstep>
  <scstep>
   <time name="diag">   67.17   67.17</time>
   <time name="diis">  127.70  127.70</time>
   <time name="orth">   13.57   13.57</time>
   <time name="total">  250.39  250.39</time>
   <energy>
    <i name="e_fr_energy">   -174.83572321 </i>
    <i name="e_wo_entrp">   -174.74357161 </i>
    <i name="e_0_energy">   -174.81268531 </i>
   </energy>
  </scstep>
  <scstep>
   <time name="diag">   67.39   67.39</time>
   <time name="diis">  117.32  117.31</time>
   <time name="orth">   13.03   13.03</time>
   <time name="total">  240.03  240.02</time>
   <energy>
    <i name="e_fr_energy">   -174.83688031 </i>
    <i name="e_wo_entrp">   -174.74417232 </i>
    <i name="e_0_energy">   -174.81370331 </i>
   </energy>
  </scstep>
  <scstep>
   <time name="diag">   67.34   67.34</time>
   <time name="diis">  117.97  117.97</time>
   <time name="orth">   13.04   13.04</time>
   <time name="total">  240.36  240.36</time>
   <energy>
    <i name="e_fr_energy">   -174.83824133 </i>
    <i name="e_wo_entrp">   -174.74566718 </i>
    <i name="e_0_energy">   -174.81509780 </i>
   </energy>
  </scstep>
  <scstep>
   <time name="diag">   67.31   67.31</time>
   <time name="diis">  114.49  114.49</time>
   <time name="orth">   12.97   12.97</time>
   <time name="total">  236.59  236.59</time>
   <energy>
    <i name="e_fr_energy">   -174.83889715 </i>
    <i name="e_wo_entrp">   -174.74608117 </i>
    <i name="e_0_energy">   -174.81569316 </i>
   </energy>
  </scstep>
  <scstep>
   <time name="diag">   67.72   67.72</time>
   <time name="diis">  115.63  115.63</time>
   <time name="orth">   13.02   13.02</time>
   <time name="total">  238.44  238.44</time>
   <energy>
    <i name="e_fr_energy">   -174.83915632 </i>
    <i name="e_wo_entrp">   -174.74643628 </i>
    <i name="e_0_energy">   -174.81597631 </i>
   </energy>
  </scstep>
  <scstep>
   <time name="diag">   67.57   67.57</time>
   <time name="diis">  110.30  110.30</time>
   <time name="orth">   13.16   13.16</time>
   <time name="total">  233.35  233.35</time>
   <energy>
    <i name="e_fr_energy">   -174.83984567 </i>
    <i name="e_wo_entrp">   -174.74708380 </i>
    <i name="e_0_energy">   -174.81665520 </i>
   </energy>
  </scstep>
  <scstep>
   <time name="diag">   67.65   67.65</time>
   <time name="diis">   98.02   98.02</time>
   <time name="orth">   13.14   13.14</time>
   <time name="total">  221.14  221.14</time>
   <energy>
    <i name="e_fr_energy">   -174.84004594 </i>
    <i name="e_wo_entrp">   -174.74725119 </i>
    <i name="e_0_energy">   -174.81684725 </i>
   </energy>
  </scstep>
  <scstep>
   <time name="diag">   67.61   67.60</time>
   <time name="diis">   89.16   89.16</time>
   <time name="orth">   13.15   13.15</time>
   <time name="total">  212.08  212.08</time>
   <energy>
    <i name="e_fr_energy">   -174.84035681 </i>
    <i name="e_wo_entrp">   -174.74784598 </i>
    <i name="e_0_energy">   -174.81722911 </i>
   </energy>
  </scstep>
  <scstep>
   <time name="diag">   67.32   67.32</time>
   <time name="diis">   81.01   81.01</time>
   <time name="orth">   13.08   13.08</time>
   <time name="total">  203.41  203.41</time>
   <energy>
    <i name="e_fr_energy">   -174.84060125 </i>
    <i name="e_wo_entrp">   -174.74793887 </i>
    <i name="e_0_energy">   -174.81743566 </i>
   </energy>
  </scstep>
  <scstep>
   <time name="diag">   67.13   67.13</time>
   <time name="diis">   81.79   81.79</time>
   <time name="orth">   13.48   13.48</time>
   <time name="total">  204.46  204.46</time>
   <energy>
    <i name="e_fr_energy">   -174.84080770 </i>
    <i name="e_wo_entrp">   -174.74817475 </i>
    <i name="e_0_energy">   -174.81764946 </i>
   </energy>
  </scstep>
  <scstep>
   <time name="diag">   66.42   66.42</time>
   <time name="diis">   95.85   95.85</time>
   <time name="orth">   13.07   13.07</time>
   <time name="total">  217.68  217.68</time>
   <energy>
    <i name="e_fr_energy">   -174.84120436 </i>
    <i name="e_wo_entrp">   -174.74851166 </i>
    <i name="e_0_energy">   -174.81803119 </i>
   </energy>
  </scstep>
  <scstep>
   <time name="diag">   66.56   66.56</time>
   <time name="diis">   81.21   81.21</time>
   <time name="orth">   12.94   12.94</time>
   <time name="total">  202.25  202.25</time>
   <energy>
    <i name="e_fr_energy">   -174.84143156 </i>
    <i name="e_wo_entrp">   -174.74880548 </i>
    <i name="e_0_energy">   -174.81827504 </i>
   </energy>
  </scstep>
  <scstep>
   <time name="diag">   65.55   65.55</time>
   <time name="diis">   74.64   74.64</time>
   <time name="orth">   13.02   13.02</time>
   <time name="total">  194.00  194.00</time>
   <energy>
    <i name="e_fr_energy">   -174.84153694 </i>
    <i name="e_wo_entrp">   -174.74888160 </i>
    <i name="e_0_energy">   -174.81837311 </i>
   </energy>
  </scstep>
  <scstep>
   <time name="diag">   64.83   64.83</time>
   <time name="diis">   77.18   77.18</time>
   <time name="orth">   12.63   12.63</time>
   <time name="total">  194.73  194.73</time>
   <energy>
    <i name="e_fr_energy">   -174.84172188 </i>
    <i name="e_wo_entrp">   -174.74912580 </i>
    <i name="e_0_energy">   -174.81857286 </i>
   </energy>
  </scstep>
  <scstep>
   <time name="diag">   62.68   62.68</time>
   <time name="diis">   69.51   69.51</time>
   <time name="orth">   12.14   12.14</time>
   <time name="total">  156.80  156.80</time>
   <energy>
    <i name="alphaZ">     75.25431677 </i>
    <i name="ewald"> 137954.25672353 </i>
    <i name="hartreedc">-182314.30957250 </i>
    <i name="XCdc">  -1692.70107546 </i>
    <i name="pawpsdc">  46087.50752970 </i>
    <i name="pawaedc"> -42557.58469486 </i>
    <i name="eentropy">     -0.09267313 </i>
    <i name="bandstr">  -2813.67786358 </i>
    <i name="atom">  45086.50549395 </i>
    <i name="e_fr_energy">   -174.84181557 </i>
    <i name="e_wo_entrp">   -174.74914244 </i>
    <i name="e_0_energy">   -174.81864729 </i>
   </energy>
  </scstep>
  <structure>
   <crystal>
    <varray name="basis" >
     <v>      30.00000000       0.00000000       0.00000000 </v>
     <v>       0.00000000      30.00000000       0.00000000 </v>
     <v>       0.00000000       0.00000000      30.00000000 </v>
    </varray>
    <i name="volume">  27000.00000000 </i>
    <varray name="rec_basis" >
     <v>       0.03333333       0.00000000       0.00000000 </v>
     <v>       0.00000000       0.03333333       0.00000000 </v>
     <v>       0.00000000       0.00000000       0.03333333 </v>
    </varray>
   </crystal>
   <varray name="positions" >
    <v>       0.44576020       0.32826710       0.41691983 </v>
    <v>       0.67173288       0.55423978       0.41691983 </v>
    <v>       0.55423980       0.32826710       0.41691983 </v>
    <v>       0.32826712       0.55423978       0.41691983 </v>
    <v>       0.50000000       0.38250690       0.34021317 </v>
    <v>       0.50000000       0.38250690       0.65978680 </v>
    <v>       0.50000000       0.27609440       0.50000000 </v>
    <v>       0.27609443       0.49999998       0.50000000 </v>
    <v>       0.72390557       0.49999998       0.50000000 </v>
    <v>       0.50000000       0.72390555       0.50000000 </v>
    <v>       0.61195280       0.38804720       0.34167483 </v>
    <v>       0.61195280       0.38804720       0.65832513 </v>
    <v>       0.38804722       0.61195278       0.34167483 </v>
    <v>       0.38804722       0.61195278       0.65832513 </v>
    <v>       0.38804720       0.38804720       0.34167483 </v>
    <v>       0.38804720       0.38804720       0.65832513 </v>
    <v>       0.61195278       0.61195278       0.34167483 </v>
    <v>       0.61195278       0.61195278       0.65832513 </v>
    <v>       0.44576020       0.32826710       0.58308023 </v>
    <v>       0.67173288       0.55423978       0.58308023 </v>
    <v>       0.55791699       0.44208301       0.41809300 </v>
    <v>       0.32826705       0.44576024       0.41691983 </v>
    <v>       0.55423973       0.67173293       0.41691983 </v>
    <v>       0.55423980       0.32826710       0.58308023 </v>
    <v>       0.32826712       0.55423978       0.58308023 </v>
    <v>       0.67173295       0.44576024       0.41691983 </v>
    <v>       0.44576027       0.67173293       0.41691983 </v>
    <v>       0.44208301       0.44208301       0.41809300 </v>
    <v>       0.50000000       0.38416601       0.50000000 </v>
    <v>       0.61749315       0.50000005       0.34021317 </v>
    <v>       0.61749315       0.50000005       0.65978680 </v>
    <v>       0.38250685       0.50000005       0.34021317 </v>
    <v>       0.38250685       0.50000005       0.65978680 </v>
    <v>       0.38317830       0.38317830       0.50000000 </v>
    <v>       0.61682172       0.61682172       0.50000000 </v>
    <v>       0.61682170       0.38317830       0.50000000 </v>
    <v>       0.38317828       0.61682172       0.50000000 </v>
    <v>       0.50000000       0.50000000       0.33478917 </v>
    <v>       0.50000000       0.50000000       0.66521087 </v>
    <v>       0.32826705       0.44576024       0.58308023 </v>
    <v>       0.55423973       0.67173293       0.58308023 </v>
    <v>       0.55791699       0.44208301       0.58190703 </v>
    <v>       0.44208298       0.55791702       0.41809300 </v>
    <v>       0.44208301       0.44208301       0.58190703 </v>
    <v>       0.67173295       0.44576024       0.58308023 </v>
    <v>       0.44576027       0.67173293       0.58308023 </v>
    <v>       0.55791702       0.55791702       0.41809300 </v>
    <v>       0.38416599       0.50000002       0.50000000 </v>
    <v>       0.61583401       0.50000002       0.50000000 </v>
    <v>       0.50000000       0.61749319       0.34021317 </v>
    <v>       0.50000000       0.61749319       0.65978680 </v>
    <v>       0.50000000       0.50000000       0.50000000 </v>
    <v>       0.44208298       0.55791702       0.58190703 </v>
    <v>       0.55791702       0.55791702       0.58190703 </v>
    <v>       0.50000000       0.61583404       0.50000000 </v>
    <v>       0.30597147       0.39343090       0.36763047 </v>
    <v>       0.27768630       0.37789543       0.34833387 </v>
   </varray>
  </structure>
  <varray name="forces" >
   <v>       0.76994199       1.07764688       0.31134520 </v>
   <v>      -1.10802640      -0.70563502       0.28607603 </v>
   <v>      -0.73117839       1.10341831       0.28144382 </v>
   <v>       1.12592523      -0.66909008       0.33607594 </v>
   <v>       0.05118538       0.37760420       1.28235924 </v>
   <v>       0.00066897       0.41288618      -1.28184819 </v>
   <v>       0.00177978       1.51862890      -0.00071343 </v>
   <v>       1.52976687       0.00805670       0.00008445 </v>
   <v>      -1.51772196      -0.00221729      -0.00356254 </v>
   <v>      -0.00017637      -1.51676884       0.00138495 </v>
   <v>      -0.72903732       0.76766284       1.06764555 </v>
   <v>      -0.75819949       0.75234352      -1.07163199 </v>
   <v>       0.76053398      -0.79034010       1.05811720 </v>
   <v>       0.76506248      -0.75410353      -1.07190611 </v>
   <v>      -0.19298056       0.74878206       1.29811510 </v>
   <v>       0.75724934       0.75556982      -1.07294158 </v>
   <v>      -0.75475356      -0.75962115       1.07374912 </v>
   <v>      -0.75681863      -0.75526857      -1.06689024 </v>
   <v>       0.70726361       1.11012226      -0.28840158 </v>
   <v>      -1.10476755      -0.70931852      -0.29297566 </v>
   <v>       0.11243478      -0.10473378      -0.15508068 </v>
   <v>       0.37514866      -0.60064771      -0.88477049 </v>
   <v>      -0.70200095      -1.10814657       0.29347184 </v>
   <v>      -0.70642432       1.11012927      -0.28444785 </v>
   <v>       1.10580138      -0.70353926      -0.29533427 </v>
   <v>      -1.10872483       0.70884295       0.28723366 </v>
   <v>       0.70589606      -1.10646076       0.29497956 </v>
   <v>      -0.00743102      -0.08964707      -0.10540479 </v>
   <v>       0.00634542      -0.22871753      -0.00187594 </v>
   <v>      -0.41020120      -0.00062737       1.28637132 </v>
   <v>      -0.41518741      -0.00385510      -1.28205294 </v>
   <v>       0.42902894       0.12950985       1.24247523 </v>
   <v>       0.41489235      -0.00192865      -1.28089339 </v>
   <v>       0.85150392       0.80845820       0.05187171 </v>
   <v>      -0.83030222      -0.82737126      -0.00296564 </v>
   <v>      -0.82682580       0.83142334       0.00541719 </v>
   <v>       0.81881485      -0.84466963      -0.01246058 </v>
   <v>       0.00535885       0.00581776       1.17814043 </v>
   <v>       0.00041965      -0.00170221      -1.17598543 </v>
   <v>       1.11266197       0.70822943      -0.28939725 </v>
   <v>      -0.71078435      -1.10416989      -0.30189667 </v>
   <v>       0.10609994      -0.10747666       0.16056677 </v>
   <v>      -0.11271311       0.10820710      -0.15070496 </v>
   <v>      -0.11487336      -0.11099189       0.15486578 </v>
   <v>      -1.10383089       0.70357206      -0.28975548 </v>
   <v>       0.70715760      -1.10275436      -0.28313274 </v>
   <v>       0.11135854       0.10856799      -0.15940713 </v>
   <v>      -0.24015707      -0.00821664      -0.02456600 </v>
   <v>       0.22778468       0.00016719      -0.00170289 </v>
   <v>       0.00094355      -0.41349780       1.28095520 </v>
   <v>      -0.01352952      -0.41762683      -1.28107266 </v>
   <v>      -0.00998423      -0.00025995      -0.00949580 </v>
   <v>      -0.10108650       0.13467371       0.18196277 </v>
   <v>       0.11454789       0.10718858       0.15284995 </v>
   <v>       0.00673939       0.23042590       0.00638604 </v>
   <v>       4.70962140       3.05979917       2.97334334 </v>
   <v>      -3.32422043      -1.83833013      -2.12401250 </v>
  </varray>
  <varray name="stress" >
   <v>      -6.69268135       0.04603504       0.10945193 </v>
   <v>       0.04603504      -6.80258140      -0.05115955 </v>
   <v>       0.10945192      -0.05115954      -6.77526348 </v>
  </varray>
  <energy>
   <i name="e_fr_energy">   -174.84181557 </i>
   <i name="e_wo_entrp">   -174.81864729 </i>
   <i name="e_0_energy">     -0.09267313 </i>
  </energy>
  <time name="totalsc">19002.8819003.00</time>
  <eigenvalues>
   <array>
    <dimension dim="1">band</dimension>
    <dimension dim="2">kpoint</dimension>
    <dimension dim="3">spin</dimension>
    <field>eigene</field>
    <field>occ</field>
    <set>
     <set comment="spin 1">
      <set comment="kpoint 1">
       <r>  -28.7002    1.0000 </r>
       <r>  -13.3695    1.0000 </r>
       <r>  -11.1498    1.0000 </r>
       <r>  -11.0856    1.0000 </r>
       <r>   -9.9914    1.0000 </r>
       <r>   -6.6477    1.0000 </r>
       <r>   -6.1369    1.0000 </r>
       <r>   -6.1296    1.0000 </r>
       <r>   -6.1203    1.0000 </r>
       <r>   -5.8476    1.0000 </r>
       <r>   -5.8165    1.0000 </r>
       <r>   -5.8097    1.0000 </r>
       <r>   -5.7779    1.0000 </r>
       <r>   -5.7266    1.0000 </r>
       <r>   -5.7039    1.0000 </r>
       <r>   -5.6914    1.0000 </r>
       <r>   -5.6866    1.0000 </r>
       <r>   -5.6799    1.0000 </r>
       <r>   -5.6454    1.0000 </r>
       <r>   -5.6264    1.0000 </r>
       <r>   -5.6200    1.0000 </r>
       <r>   -5.6088    1.0000 </r>
       <r>   -5.6031    1.0000 </r>
       <r>   -5.5937    1.0000 </r>
       <r>   -5.5830    1.0000 </r>
       <r>   -5.5572    1.0000 </r>
       <r>   -5.5514    1.0000 </r>
       <r>   -5.5486    1.0000 </r>
       <r>   -5.5457    1.0000 </r>
       <r>   -5.5275    1.0000 </r>
       <r>   -5.5250    1.0000 </r>
       <r>   -5.5216    1.0000 </r>
       <r>   -5.5207    1.0000 </r>
       <r>   -5.5167    1.0000 </r>
       <r>   -5.5146    1.0000 </r>
       <r>   -5.5056    1.0000 </r>
       <r>   -5.4918    1.0000 </r>
       <r>   -5.4878    1.0000 </r>
       <r>   -5.4775    1.0000 </r>
       <r>   -5.4760    1.0000 </r>
       <r>   -5.4731    1.0000 </r>
       <r>   -5.4714    1.0000 </r>
       <r>   -5.4684    1.0000 </r>
       <r>   -5.4622    1.0000 </r>
       <r>   -5.4536    1.0000 </r>
       <r>   -5.4414    1.0000 </r>
       <r>   -5.4364    1.0000 </r>
       <r>   -5.4334    1.0000 </r>
       <r>   -5.4304    1.0000 </r>
       <r>   -5.4282    1.0000 </r>
       <r>   -5.4243    1.0000 </r>
       <r>   -5.4190    1.0000 </r>
       <r>   -5.4084    1.0000 </r>
       <r>   -5.4074    1.0000 </r>
       <r>   -5.3983    1.0000 </r>
       <r>   -5.3825    1.0000 </r>
       <r>   -5.3568    1.0000 </r>
       <r>   -5.3389    1.0000 </r>
       <r>   -5.3329    1.0000 </r>
       <r>   -5.3294    1.0000 </r>
       <r>   -5.3242    1.0000 </r>
       <r>   -5.3219    1.0000 </r>
       <r>   -5.3151    1.0000 </r>
       <r>   -5.3046    1.0000 </r>
       <r>   -5.3030    1.0000 </r>
       <r>   -5.2987    1.0000 </r>
       <r>   -5.2930    1.0000 </r>
       <r>   -5.2696    1.0000 </r>
       <r>   -5.2431    1.0000 </r>
       <r>   -5.2185    1.0000 </r>
       <r>   -5.2101    1.0000 </r>
       <r>   -5.2037    1.0000 </r>
       <r>   -5.2001    1.0000 </r>
       <r>   -5.1947    1.0000 </r>
       <r>   -5.1877    1.0000 </r>
       <r>   -5.1841    1.0000 </r>
       <r>   -5.1810    1.0000 </r>
       <r>   -5.1716    1.0000 </r>
       <r>   -5.1661    1.0000 </r>
       <r>   -5.1595    1.0000 </r>
       <r>   -5.1563    1.0000 </r>
       <r>   -5.1387    1.0000 </r>
       <r>   -5.1333    1.0000 </r>
       <r>   -5.1286    1.0000 </r>
       <r>   -5.1232    1.0000 </r>
       <r>   -5.1130    1.0000 </r>
       <r>   -5.1109    1.0000 </r>
       <r>   -5.1063    1.0000 </r>
       <r>   -5.0788    1.0000 </r>
       <r>   -5.0654    1.0000 </r>
       <r>   -5.0627    1.0000 </r>
       <r>   -5.0585    1.0000 </r>
       <r>   -5.0565    1.0000 </r>
       <r>   -5.0539    1.0000 </r>
       <r>   -5.0525    1.0000 </r>
       <r>   -5.0436    1.0000 </r>
       <r>   -5.0393    1.0000 </r>
       <r>   -5.0321    1.0000 </r>
       <r>   -5.0304    1.0000 </r>
       <r>   -5.0226    1.0000 </r>
       <r>   -5.0217    1.0000 </r>
       <r>   -5.0185    1.0000 </r>
       <r>   -5.0096    1.0000 </r>
       <r>   -5.0059    1.0000 </r>
       <r>   -5.0047    1.0000 </r>
       <r>   -4.9997    1.0000 </r>
       <r>   -4.9921    1.0000 </r>
       <r>   -4.9883    1.0000 </r>
       <r>   -4.9840    1.0000 </r>
       <r>   -4.9779    1.0000 </r>
       <r>   -4.9772    1.0000 </r>
       <r>   -4.9701    1.0000 </r>
       <r>   -4.9673    1.0000 </r>
       <r>   -4.9606    1.0000 </r>
       <r>   -4.9586    1.0000 </r>
       <r>   -4.9571    1.0000 </r>
       <r>   -4.9467    1.0000 </r>
       <r>   -4.9395    1.0000 </r>
       <r>   -4.9313    1.0000 </r>
       <r>   -4.9229    1.0000 </r>
       <r>   -4.9161    1.0000 </r>
       <r>   -4.9132    1.0000 </r>
       <r>   -4.9059    1.0000 </r>
       <r>   -4.9055    1.0000 </r>
       <r>   -4.9042    1.0000 </r>
       <r>   -4.9005    1.0000 </r>
       <r>   -4.8716    1.0000 </r>
       <r>   -4.8593    1.0000 </r>
       <r>   -4.8534    1.0000 </r>
       <r>   -4.8458    1.0000 </r>
       <r>   -4.8438    1.0000 </r>
       <r>   -4.8424    1.0000 </r>
       <r>   -4.8384    1.0000 </r>
       <r>   -4.8327    1.0000 </r>
       <r>   -4.8299    1.0000 </r>
       <r>   -4.8167    0.9999 </r>
       <r>   -4.8098    0.9999 </r>
       <r>   -4.7984    0.9999 </r>
       <r>   -4.7950    0.9999 </r>
       <r>   -4.7894    0.9999 </r>
       <r>   -4.7772    0.9998 </r>
       <r>   -4.7674    0.9998 </r>
       <r>   -4.7623    0.9998 </r>
       <r>   -4.7567    0.9997 </r>
       <r>   -4.7439    0.9996 </r>
       <r>   -4.7420    0.9996 </r>
       <r>   -4.7342    0.9996 </r>
       <r>   -4.7278    0.9995 </r>
       <r>   -4.7248    0.9995 </r>
       <r>   -4.7139    0.9993 </r>
       <r>   -4.7047    0.9992 </r>
       <r>   -4.7028    0.9992 </r>
       <r>   -4.6906    0.9989 </r>
       <r>   -4.6864    0.9989 </r>
       <r>   -4.6824    0.9988 </r>
       <r>   -4.6805    0.9987 </r>
       <r>   -4.6771    0.9986 </r>
       <r>   -4.6760    0.9986 </r>
       <r>   -4.6725    0.9985 </r>
       <r>   -4.6653    0.9983 </r>
       <r>   -4.6648    0.9983 </r>
       <r>   -4.6557    0.9981 </r>
       <r>   -4.6537    0.9980 </r>
       <r>   -4.6512    0.9979 </r>
       <r>   -4.6483    0.9978 </r>
       <r>   -4.6478    0.9978 </r>
       <r>   -4.6471    0.9978 </r>
       <r>   -4.6439    0.9977 </r>
       <r>   -4.6371    0.9975 </r>
       <r>   -4.6339    0.9973 </r>
       <r>   -4.6223    0.9969 </r>
       <r>   -4.6173    0.9967 </r>
       <r>   -4.6069    0.9963 </r>
       <r>   -4.6022    0.9962 </r>
       <r>   -4.5987    0.9960 </r>
       <r>   -4.5975    0.9960 </r>
       <r>   -4.5964    0.9960 </r>
       <r>   -4.5910    0.9958 </r>
       <r>   -4.5881    0.9957 </r>
       <r>   -4.5788    0.9954 </r>
       <r>   -4.5767    0.9954 </r>
       <r>   -4.5722    0.9953 </r>
       <r>   -4.5687    0.9952 </r>
       <r>   -4.5634    0.9951 </r>
       <r>   -4.5599    0.9951 </r>
       <r>   -4.5571    0.9951 </r>
       <r>   -4.5554    0.9951 </r>
       <r>   -4.5504    0.9951 </r>
       <r>   -4.5498    0.9951 </r>
       <r>   -4.5468    0.9951 </r>
       <r>   -4.5320    0.9956 </r>
       <r>   -4.5181    0.9965 </r>
       <r>   -4.5105    0.9972 </r>
       <r>   -4.5100    0.9973 </r>
       <r>   -4.5069    0.9976 </r>
       <r>   -4.5015    0.9983 </r>
       <r>   -4.4951    0.9993 </r>
       <r>   -4.4894    1.0004 </r>
       <r>   -4.4858    1.0011 </r>
       <r>   -4.4843    1.0014 </r>
       <r>   -4.4753    1.0035 </r>
       <r>   -4.4696    1.0050 </r>
       <r>   -4.4664    1.0059 </r>
       <r>   -4.4623    1.0072 </r>
       <r>   -4.4583    1.0084 </r>
       <r>   -4.4518    1.0107 </r>
       <r>   -4.4505    1.0112 </r>
       <r>   -4.4490    1.0117 </r>
       <r>   -4.4467    1.0126 </r>
       <r>   -4.4406    1.0150 </r>
       <r>   -4.4284    1.0202 </r>
       <r>   -4.4275    1.0206 </r>
       <r>   -4.4227    1.0228 </r>
       <r>   -4.4150    1.0264 </r>
       <r>   -4.4102    1.0287 </r>
       <r>   -4.4079    1.0298 </r>
       <r>   -4.4071    1.0302 </r>
       <r>   -4.4049    1.0312 </r>
       <r>   -4.3983    1.0344 </r>
       <r>   -4.3873    1.0395 </r>
       <r>   -4.3810    1.0423 </r>
       <r>   -4.3688    1.0469 </r>
       <r>   -4.3665    1.0476 </r>
       <r>   -4.3598    1.0495 </r>
       <r>   -4.3510    1.0511 </r>
       <r>   -4.3469    1.0515 </r>
       <r>   -4.3396    1.0515 </r>
       <r>   -4.3390    1.0515 </r>
       <r>   -4.3362    1.0512 </r>
       <r>   -4.3347    1.0510 </r>
       <r>   -4.3343    1.0510 </r>
       <r>   -4.3332    1.0508 </r>
       <r>   -4.3300    1.0501 </r>
       <r>   -4.3278    1.0495 </r>
       <r>   -4.3265    1.0491 </r>
       <r>   -4.3234    1.0479 </r>
       <r>   -4.3220    1.0474 </r>
       <r>   -4.3198    1.0464 </r>
       <r>   -4.3184    1.0456 </r>
       <r>   -4.3158    1.0442 </r>
       <r>   -4.3074    1.0383 </r>
       <r>   -4.3014    1.0329 </r>
       <r>   -4.2954    1.0263 </r>
       <r>   -4.2907    1.0203 </r>
       <r>   -4.2873    1.0156 </r>
       <r>   -4.2859    1.0136 </r>
       <r>   -4.2852    1.0124 </r>
       <r>   -4.2829    1.0088 </r>
       <r>   -4.2800    1.0039 </r>
       <r>   -4.2706    0.9862 </r>
       <r>   -4.2657    0.9756 </r>
       <r>   -4.2632    0.9698 </r>
       <r>   -4.2611    0.9649 </r>
       <r>   -4.2568    0.9540 </r>
       <r>   -4.2551    0.9497 </r>
       <r>   -4.2533    0.9447 </r>
       <r>   -4.2494    0.9338 </r>
       <r>   -4.2487    0.9318 </r>
       <r>   -4.2460    0.9237 </r>
       <r>   -4.2448    0.9201 </r>
       <r>   -4.2437    0.9167 </r>
       <r>   -4.2416    0.9101 </r>
       <r>   -4.2410    0.9081 </r>
       <r>   -4.2394    0.9030 </r>
       <r>   -4.2367    0.8940 </r>
       <r>   -4.2306    0.8729 </r>
       <r>   -4.2270    0.8596 </r>
       <r>   -4.2234    0.8459 </r>
       <r>   -4.2219    0.8403 </r>
       <r>   -4.2204    0.8340 </r>
       <r>   -4.2185    0.8265 </r>
       <r>   -4.2091    0.7873 </r>
       <r>   -4.2047    0.7680 </r>
       <r>   -4.1979    0.7368 </r>
       <r>   -4.1862    0.6809 </r>
       <r>   -4.1824    0.6624 </r>
       <r>   -4.1773    0.6362 </r>
       <r>   -4.1754    0.6269 </r>
       <r>   -4.1741    0.6202 </r>
       <r>   -4.1725    0.6117 </r>
       <r>   -4.1635    0.5650 </r>
       <r>   -4.1572    0.5318 </r>
       <r>   -4.1346    0.4127 </r>
       <r>   -4.1301    0.3895 </r>
       <r>   -4.1289    0.3835 </r>
       <r>   -4.1279    0.3784 </r>
       <r>   -4.1167    0.3218 </r>
       <r>   -4.1132    0.3047 </r>
       <r>   -4.0931    0.2123 </r>
       <r>   -3.9656   -0.0513 </r>
       <r>   -3.8899   -0.0276 </r>
       <r>   -3.8217   -0.0022 </r>
       <r>   -3.8150   -0.0008 </r>
       <r>   -3.7202    0.0045 </r>
       <r>   -3.4987    0.0001 </r>
       <r>   -3.4901    0.0001 </r>
       <r>   -3.4185    0.0000 </r>
       <r>   -3.0723    0.0000 </r>
       <r>   -3.0601    0.0000 </r>
       <r>   -3.0451    0.0000 </r>
       <r>   -3.0404    0.0000 </r>
       <r>   -3.0159    0.0000 </r>
       <r>   -2.9596    0.0000 </r>
       <r>   -2.9388    0.0000 </r>
       <r>   -2.8476    0.0000 </r>
       <r>   -2.5320    0.0000 </r>
       <r>   -2.5260    0.0000 </r>
       <r>   -2.4135    0.0000 </r>
       <r>   -2.3451    0.0000 </r>
       <r>   -2.2258    0.0000 </r>
       <r>   -2.1157    0.0000 </r>
       <r>   -2.0852    0.0000 </r>
       <r>   -2.0794    0.0000 </r>
       <r>   -1.9771    0.0000 </r>
       <r>   -1.9289    0.0000 </r>
       <r>   -1.8715    0.0000 </r>
       <r>   -1.8244    0.0000 </r>
       <r>   -1.7646    0.0000 </r>
       <r>   -1.7233    0.0000 </r>
       <r>   -1.6418    0.0000 </r>
       <r>   -1.6121    0.0000 </r>
       <r>   -1.5531    0.0000 </r>
       <r>   -1.4377    0.0000 </r>
       <r>   -1.4044    0.0000 </r>
       <r>   -1.2969    0.0000 </r>
       <r>   -1.2236    0.0000 </r>
       <r>   -1.1833    0.0000 </r>
       <r>   -1.0930    0.0000 </r>
       <r>   -0.9861    0.0000 </r>
       <r>   -0.9791    0.0000 </r>
       <r>   -0.9523    0.0000 </r>
       <r>   -0.9377    0.0000 </r>
       <r>   -0.9249    0.0000 </r>
       <r>   -0.9092    0.0000 </r>
       <r>   -0.8210    0.0000 </r>
       <r>   -0.7718    0.0000 </r>
      </set>
     </set>
    </set>
   </array>
  </eigenvalues>
  <separator name="orbital magnetization" >
   <v name="MAGDIPOLOUT">      0.00000000      0.00000000      0.00000000</v>
  </separator>
  <dos>
   <i name="efermi">     -4.15116325 </i>
   <total>
    <array>
     <dimension dim="1">gridpoints</dimension>
     <dimension dim="2">spin</dimension>
     <field>energy</field>
     <field>total</field>
     <field>integrated</field>
     <set>
      <set comment="spin 1">
       <r>   -30.7002     0.0000     0.0000 </r>
       <r>   -30.5937     0.0000     0.0000 </r>
       <r>   -30.4873     0.0000     0.0000 </r>
       <r>   -30.3809     0.0000     0.0000 </r>
       <r>   -30.2744     0.0000     0.0000 </r>
       <r>   -30.1680     0.0000     0.0000 </r>
       <r>   -30.0616     0.0000     0.0000 </r>
       <r>   -29.9552     0.0000     0.0000 </r>
       <r>   -29.8487     0.0000     0.0000 </r>
       <r>   -29.7423     0.0000     0.0000 </r>
       <r>   -29.6359     0.0000     0.0000 </r>
       <r>   -29.5294     0.0000     0.0000 </r>
       <r>   -29.4230     0.0002     0.0000 </r>
       <r>   -29.3166     0.0036     0.0004 </r>
       <r>   -29.2102     0.0296     0.0035 </r>
       <r>   -29.1037     0.0594     0.0099 </r>
       <r>   -28.9973    -0.3178    -0.0240 </r>
       <r>   -28.8909    -0.7449    -0.1032 </r>
       <r>   -28.7845     3.0409     0.2204 </r>
       <r>   -28.6780     9.5041     1.2319 </r>
       <r>   -28.5716     7.2824     2.0070 </r>
       <r>   -28.4652     0.6868     2.0801 </r>
       <r>   -28.3587    -0.7566     1.9995 </r>
       <r>   -28.2523    -0.0698     1.9921 </r>
       <r>   -28.1459     0.0592     1.9984 </r>
       <r>   -28.0395     0.0138     1.9999 </r>
       <r>   -27.9330     0.0012     2.0000 </r>
       <r>   -27.8266     0.0000     2.0000 </r>
       <r>   -27.7202     0.0000     2.0000 </r>
       <r>   -27.6137     0.0000     2.0000 </r>
       <r>   -27.5073     0.0000     2.0000 </r>
       <r>   -27.4009     0.0000     2.0000 </r>
       <r>   -27.2945     0.0000     2.0000 </r>
       <r>   -27.1880     0.0000     2.0000 </r>
       <r>   -27.0816     0.0000     2.0000 </r>
       <r>   -26.9752     0.0000     2.0000 </r>
       <r>   -26.8687     0.0000     2.0000 </r>
       <r>   -26.7623     0.0000     2.0000 </r>
       <r>   -26.6559     0.0000     2.0000 </r>
       <r>   -26.5495     0.0000     2.0000 </r>
       <r>   -26.4430     0.0000     2.0000 </r>
       <r>   -26.3366     0.0000     2.0000 </r>
       <r>   -26.2302     0.0000     2.0000 </r>
       <r>   -26.1238     0.0000     2.0000 </r>
       <r>   -26.0173     0.0000     2.0000 </r>
       <r>   -25.9109     0.0000     2.0000 </r>
       <r>   -25.8045     0.0000     2.0000 </r>
       <r>   -25.6980     0.0000     2.0000 </r>
       <r>   -25.5916     0.0000     2.0000 </r>
       <r>   -25.4852     0.0000     2.0000 </r>
       <r>   -25.3788     0.0000     2.0000 </r>
       <r>   -25.2723     0.0000     2.0000 </r>
       <r>   -25.1659     0.0000     2.0000 </r>
       <r>   -25.0595     0.0000     2.0000 </r>
       <r>   -24.9530     0.0000     2.0000 </r>
       <r>   -24.8466     0.0000     2.0000 </r>
       <r>   -24.7402     0.0000     2.0000 </r>
       <r>   -24.6338     0.0000     2.0000 </r>
       <r>   -24.5273     0.0000     2.0000 </r>
       <r>   -24.4209     0.0000     2.0000 </r>
       <r>   -24.3145     0.0000     2.0000 </r>
       <r>   -24.2080     0.0000     2.0000 </r>
       <r>   -24.1016     0.0000     2.0000 </r>
       <r>   -23.9952     0.0000     2.0000 </r>
       <r>   -23.8888     0.0000     2.0000 </r>
       <r>   -23.7823     0.0000     2.0000 </r>
       <r>   -23.6759     0.0000     2.0000 </r>
       <r>   -23.5695     0.0000     2.0000 </r>
       <r>   -23.4631     0.0000     2.0000 </r>
       <r>   -23.3566     0.0000     2.0000 </r>
       <r>   -23.2502     0.0000     2.0000 </r>
       <r>   -23.1438     0.0000     2.0000 </r>
       <r>   -23.0373     0.0000     2.0000 </r>
       <r>   -22.9309     0.0000     2.0000 </r>
       <r>   -22.8245     0.0000     2.0000 </r>
       <r>   -22.7181     0.0000     2.0000 </r>
       <r>   -22.6116     0.0000     2.0000 </r>
       <r>   -22.5052     0.0000     2.0000 </r>
       <r>   -22.3988     0.0000     2.0000 </r>
       <r>   -22.2923     0.0000     2.0000 </r>
       <r>   -22.1859     0.0000     2.0000 </r>
       <r>   -22.0795     0.0000     2.0000 </r>
       <r>   -21.9731     0.0000     2.0000 </r>
       <r>   -21.8666     0.0000     2.0000 </r>
       <r>   -21.7602     0.0000     2.0000 </r>
       <r>   -21.6538     0.0000     2.0000 </r>
       <r>   -21.5473     0.0000     2.0000 </r>
       <r>   -21.4409     0.0000     2.0000 </r>
       <r>   -21.3345     0.0000     2.0000 </r>
       <r>   -21.2281     0.0000     2.0000 </r>
       <r>   -21.1216     0.0000     2.0000 </r>
       <r>   -21.0152     0.0000     2.0000 </r>
       <r>   -20.9088     0.0000     2.0000 </r>
       <r>   -20.8024     0.0000     2.0000 </r>
       <r>   -20.6959     0.0000     2.0000 </r>
       <r>   -20.5895     0.0000     2.0000 </r>
       <r>   -20.4831     0.0000     2.0000 </r>
       <r>   -20.3766     0.0000     2.0000 </r>
       <r>   -20.2702     0.0000     2.0000 </r>
       <r>   -20.1638     0.0000     2.0000 </r>
       <r>   -20.0574     0.0000     2.0000 </r>
       <r>   -19.9509     0.0000     2.0000 </r>
       <r>   -19.8445     0.0000     2.0000 </r>
       <r>   -19.7381     0.0000     2.0000 </r>
       <r>   -19.6316     0.0000     2.0000 </r>
       <r>   -19.5252     0.0000     2.0000 </r>
       <r>   -19.4188     0.0000     2.0000 </r>
       <r>   -19.3124     0.0000     2.0000 </r>
       <r>   -19.2059     0.0000     2.0000 </r>
       <r>   -19.0995     0.0000     2.0000 </r>
       <r>   -18.9931     0.0000     2.0000 </r>
       <r>   -18.8866     0.0000     2.0000 </r>
       <r>   -18.7802     0.0000     2.0000 </r>
       <r>   -18.6738     0.0000     2.0000 </r>
       <r>   -18.5674     0.0000     2.0000 </r>
       <r>   -18.4609     0.0000     2.0000 </r>
       <r>   -18.3545     0.0000     2.0000 </r>
       <r>   -18.2481     0.0000     2.0000 </r>
       <r>   -18.1417     0.0000     2.0000 </r>
       <r>   -18.0352     0.0000     2.0000 </r>
       <r>   -17.9288     0.0000     2.0000 </r>
       <r>   -17.8224     0.0000     2.0000 </r>
       <r>   -17.7159     0.0000     2.0000 </r>
       <r>   -17.6095     0.0000     2.0000 </r>
       <r>   -17.5031     0.0000     2.0000 </r>
       <r>   -17.3967     0.0000     2.0000 </r>
       <r>   -17.2902     0.0000     2.0000 </r>
       <r>   -17.1838     0.0000     2.0000 </r>
       <r>   -17.0774     0.0000     2.0000 </r>
       <r>   -16.9709     0.0000     2.0000 </r>
       <r>   -16.8645     0.0000     2.0000 </r>
       <r>   -16.7581     0.0000     2.0000 </r>
       <r>   -16.6517     0.0000     2.0000 </r>
       <r>   -16.5452     0.0000     2.0000 </r>
       <r>   -16.4388     0.0000     2.0000 </r>
       <r>   -16.3324     0.0000     2.0000 </r>
       <r>   -16.2259     0.0000     2.0000 </r>
       <r>   -16.1195     0.0000     2.0000 </r>
       <r>   -16.0131     0.0000     2.0000 </r>
       <r>   -15.9067     0.0000     2.0000 </r>
       <r>   -15.8002     0.0000     2.0000 </r>
       <r>   -15.6938     0.0000     2.0000 </r>
       <r>   -15.5874     0.0000     2.0000 </r>
       <r>   -15.4810     0.0000     2.0000 </r>
       <r>   -15.3745     0.0000     2.0000 </r>
       <r>   -15.2681     0.0000     2.0000 </r>
       <r>   -15.1617     0.0000     2.0000 </r>
       <r>   -15.0552     0.0000     2.0000 </r>
       <r>   -14.9488     0.0000     2.0000 </r>
       <r>   -14.8424     0.0000     2.0000 </r>
       <r>   -14.7360     0.0000     2.0000 </r>
       <r>   -14.6295     0.0000     2.0000 </r>
       <r>   -14.5231     0.0000     2.0000 </r>
       <r>   -14.4167     0.0000     2.0000 </r>
       <r>   -14.3102     0.0000     2.0000 </r>
       <r>   -14.2038     0.0000     2.0000 </r>
       <r>   -14.0974     0.0002     2.0000 </r>
       <r>   -13.9910     0.0032     2.0004 </r>
       <r>   -13.8845     0.0274     2.0033 </r>
       <r>   -13.7781     0.0617     2.0098 </r>
       <r>   -13.6717    -0.2833     1.9797 </r>
       <r>   -13.5652    -0.7768     1.8970 </r>
       <r>   -13.4588     2.7260     2.1871 </r>
       <r>   -13.3524     9.3302     3.1801 </r>
       <r>   -13.2460     7.5975     3.9887 </r>
       <r>   -13.1395     0.8988     4.0844 </r>
       <r>   -13.0331    -0.7794     4.0014 </r>
       <r>   -12.9267    -0.0909     3.9918 </r>
       <r>   -12.8203     0.0609     3.9982 </r>
       <r>   -12.7138     0.0152     3.9999 </r>
       <r>   -12.6074     0.0013     4.0000 </r>
       <r>   -12.5010     0.0001     4.0000 </r>
       <r>   -12.3945     0.0000     4.0000 </r>
       <r>   -12.2881     0.0000     4.0000 </r>
       <r>   -12.1817     0.0000     4.0000 </r>
       <r>   -12.0753     0.0000     4.0000 </r>
       <r>   -11.9688     0.0000     4.0000 </r>
       <r>   -11.8624     0.0003     4.0000 </r>
       <r>   -11.7560     0.0055     4.0006 </r>
       <r>   -11.6495     0.0457     4.0055 </r>
       <r>   -11.5431     0.1069     4.0169 </r>
       <r>   -11.4367    -0.4268     3.9714 </r>
       <r>   -11.3303    -1.3486     3.8279 </r>
       <r>   -11.2238     4.0375     4.2576 </r>
       <r>   -11.1174    16.4304     6.0063 </r>
       <r>   -11.0110    16.3738     7.7489 </r>
       <r>   -10.9045     3.9734     8.1718 </r>
       <r>   -10.7981    -1.3520     8.0279 </r>
       <r>   -10.6917    -0.4197     7.9832 </r>
       <r>   -10.5853     0.1133     7.9953 </r>
       <r>   -10.4788     0.0857     8.0044 </r>
       <r>   -10.3724     0.0422     8.0089 </r>
       <r>   -10.2660    -0.4853     7.9572 </r>
       <r>   -10.1596    -0.4653     7.9077 </r>
       <r>   -10.0531     4.5584     8.3928 </r>
       <r>    -9.9467     9.9783     9.4548 </r>
       <r>    -9.8403     5.7565    10.0675 </r>
       <r>    -9.7338    -0.0810    10.0589 </r>
       <r>    -9.6274    -0.6144     9.9935 </r>
       <r>    -9.5210     0.0031     9.9938 </r>
       <r>    -9.4146     0.0490     9.9990 </r>
       <r>    -9.3081     0.0088     9.9999 </r>
       <r>    -9.2017     0.0006    10.0000 </r>
       <r>    -9.0953     0.0000    10.0000 </r>
       <r>    -8.9888     0.0000    10.0000 </r>
       <r>    -8.8824     0.0000    10.0000 </r>
       <r>    -8.7760     0.0000    10.0000 </r>
       <r>    -8.6696     0.0000    10.0000 </r>
       <r>    -8.5631     0.0000    10.0000 </r>
       <r>    -8.4567     0.0000    10.0000 </r>
       <r>    -8.3503     0.0000    10.0000 </r>
       <r>    -8.2438     0.0000    10.0000 </r>
       <r>    -8.1374     0.0000    10.0000 </r>
       <r>    -8.0310     0.0000    10.0000 </r>
       <r>    -7.9246     0.0000    10.0000 </r>
       <r>    -7.8181     0.0000    10.0000 </r>
       <r>    -7.7117     0.0000    10.0000 </r>
       <r>    -7.6053     0.0000    10.0000 </r>
       <r>    -7.4989     0.0000    10.0000 </r>
       <r>    -7.3924     0.0001    10.0000 </r>
       <r>    -7.2860     0.0021    10.0002 </r>
       <r>    -7.1796     0.0208    10.0024 </r>
       <r>    -7.0731     0.0643    10.0093 </r>
       <r>    -6.9667    -0.1785     9.9903 </r>
       <r>    -6.8603    -0.8184     9.9032 </r>
       <r>    -6.7539     1.7594    10.0904 </r>
       <r>    -6.6474     8.6634    11.0125 </r>
       <r>    -6.5410     8.7422    11.9429 </r>
       <r>    -6.4346     0.9498    12.0440 </r>
       <r>    -6.3281    -3.0450    11.7199 </r>
       <r>    -6.2217     7.7592    12.5457 </r>
       <r>    -6.1153    27.0359    15.4231 </r>
       <r>    -6.0089    20.6847    17.6245 </r>
       <r>    -5.9024     9.4403    18.6292 </r>
       <r>    -5.7960    34.1588    22.2647 </r>
       <r>    -5.6896    83.7610    31.1792 </r>
       <r>    -5.5831   174.1623    49.7149 </r>
       <r>    -5.4767   283.0282    79.8371 </r>
       <r>    -5.3703   291.2399   110.8331 </r>
       <r>    -5.2639   221.5137   134.4084 </r>
       <r>    -5.1574   223.5436   158.1997 </r>
       <r>    -5.0510   310.7268   191.2697 </r>
       <r>    -4.9446   361.6929   229.7640 </r>
       <r>    -4.8382   317.8480   263.5919 </r>
       <r>    -4.7317   310.3362   296.6204 </r>
       <r>    -4.6253   390.2754   338.1566 </r>
       <r>    -4.5189   422.7488   383.1489 </r>
       <r>    -4.4124   426.2819   428.5172 </r>
       <r>    -4.3060   518.4319   483.6929 </r>
       <r>    -4.1996   537.7451   540.9241 </r>
       <r>    -4.0932   311.2218   574.0468 </r>
       <r>    -3.9867    66.6502   581.1402 </r>
       <r>    -3.8803     7.8906   581.9800 </r>
       <r>    -3.7739    28.7903   585.0441 </r>
       <r>    -3.6674    22.1416   587.4006 </r>
       <r>    -3.5610    13.6504   588.8534 </r>
       <r>    -3.4546    25.0889   591.5235 </r>
       <r>    -3.3482    20.2545   593.6792 </r>
       <r>    -3.2417     0.0555   593.6851 </r>
       <r>    -3.1353    10.6725   594.8209 </r>
       <r>    -3.0289    51.6741   600.3205 </r>
       <r>    -2.9224    60.4184   606.7507 </r>
       <r>    -2.8160    27.9435   609.7247 </r>
       <r>    -2.7096     2.4735   609.9879 </r>
       <r>    -2.6032     4.5651   610.4738 </r>
       <r>    -2.4967    21.7358   612.7871 </r>
       <r>    -2.3903    27.4245   615.7058 </r>
       <r>    -2.2839    20.5263   617.8904 </r>
       <r>    -2.1775    21.5590   620.1849 </r>
       <r>    -2.0710    33.3931   623.7388 </r>
       <r>    -1.9646    37.6948   627.7506 </r>
       <r>    -1.8582    36.4805   631.6331 </r>
       <r>    -1.7517    37.4488   635.6187 </r>
       <r>    -1.6453    36.8749   639.5433 </r>
       <r>    -1.5389    32.1822   642.9684 </r>
       <r>    -1.4325    26.4597   645.7844 </r>
       <r>    -1.3260    25.5302   648.5015 </r>
       <r>    -1.2196    26.3420   651.3051 </r>
       <r>    -1.1132    26.0471   654.0772 </r>
       <r>    -1.0067    41.2717   658.4697 </r>
       <r>    -0.9003    62.9215   665.1663 </r>
       <r>    -0.7939    48.7717   670.3570 </r>
       <r>    -0.6875    16.5962   672.1233 </r>
       <r>    -0.5810     0.2124   672.1459 </r>
       <r>    -0.4746    -1.5104   671.9851 </r>
       <r>    -0.3682    -0.0846   671.9761 </r>
       <r>    -0.2617     0.1729   671.9945 </r>
       <r>    -0.1553     0.0465   671.9995 </r>
       <r>    -0.0489     0.0048   672.0000 </r>
       <r>     0.0575     0.0002   672.0000 </r>
       <r>     0.1640     0.0000   672.0000 </r>
       <r>     0.2704     0.0000   672.0000 </r>
       <r>     0.3768     0.0000   672.0000 </r>
       <r>     0.4832     0.0000   672.0000 </r>
       <r>     0.5897     0.0000   672.0000 </r>
       <r>     0.6961     0.0000   672.0000 </r>
       <r>     0.8025     0.0000   672.0000 </r>
       <r>     0.9090     0.0000   672.0000 </r>
       <r>     1.0154     0.0000   672.0000 </r>
       <r>     1.1218     0.0000   672.0000 </r>
       <r>     1.2282     0.0000   672.0000 </r>
      </set>
     </set>
    </array>
   </total>
  </dos>
 </calculation>
 <structure name="finalpos" >
  <crystal>
   <varray name="basis" >
    <v>      30.00000000       0.00000000       0.00000000 </v>
    <v>       0.00000000      30.00000000       0.00000000 </v>
    <v>       0.00000000       0.00000000      30.00000000 </v>
   </varray>
   <i name="volume">  27000.00000000 </i>
   <varray name="rec_basis" >
    <v>       0.03333333       0.00000000       0.00000000 </v>
    <v>       0.00000000       0.03333333       0.00000000 </v>
    <v>       0.00000000       0.00000000       0.03333333 </v>
   </varray>
  </crystal>
  <varray name="positions" >
   <v>       0.44576020       0.32826710       0.41691983 </v>
   <v>       0.67173288       0.55423978       0.41691983 </v>
   <v>       0.55423980       0.32826710       0.41691983 </v>
   <v>       0.32826712       0.55423978       0.41691983 </v>
   <v>       0.50000000       0.38250690       0.34021317 </v>
   <v>       0.50000000       0.38250690       0.65978680 </v>
   <v>       0.50000000       0.27609440       0.50000000 </v>
   <v>       0.27609443       0.49999998       0.50000000 </v>
   <v>       0.72390557       0.49999998       0.50000000 </v>
   <v>       0.50000000       0.72390555       0.50000000 </v>
   <v>       0.61195280       0.38804720       0.34167483 </v>
   <v>       0.61195280       0.38804720       0.65832513 </v>
   <v>       0.38804722       0.61195278       0.34167483 </v>
   <v>       0.38804722       0.61195278       0.65832513 </v>
   <v>       0.38804720       0.38804720       0.34167483 </v>
   <v>       0.38804720       0.38804720       0.65832513 </v>
   <v>       0.61195278       0.61195278       0.34167483 </v>
   <v>       0.61195278       0.61195278       0.65832513 </v>
   <v>       0.44576020       0.32826710       0.58308023 </v>
   <v>       0.67173288       0.55423978       0.58308023 </v>
   <v>       0.55791699       0.44208301       0.41809300 </v>
   <v>       0.32826705       0.44576024       0.41691983 </v>
   <v>       0.55423973       0.67173293       0.41691983 </v>
   <v>       0.55423980       0.32826710       0.58308023 </v>
   <v>       0.32826712       0.55423978       0.58308023 </v>
   <v>       0.67173295       0.44576024       0.41691983 </v>
   <v>       0.44576027       0.67173293       0.41691983 </v>
   <v>       0.44208301       0.44208301       0.41809300 </v>
   <v>       0.50000000       0.38416601       0.50000000 </v>
   <v>       0.61749315       0.50000005       0.34021317 </v>
   <v>       0.61749315       0.50000005       0.65978680 </v>
   <v>       0.38250685       0.50000005       0.34021317 </v>
   <v>       0.38250685       0.50000005       0.65978680 </v>
   <v>       0.38317830       0.38317830       0.50000000 </v>
   <v>       0.61682172       0.61682172       0.50000000 </v>
   <v>       0.61682170       0.38317830       0.50000000 </v>
   <v>       0.38317828       0.61682172       0.50000000 </v>
   <v>       0.50000000       0.50000000       0.33478917 </v>
   <v>       0.50000000       0.50000000       0.66521087 </v>
   <v>       0.32826705       0.44576024       0.58308023 </v>
   <v>       0.55423973       0.67173293       0.58308023 </v>
   <v>       0.55791699       0.44208301       0.58190703 </v>
   <v>       0.44208298       0.55791702       0.41809300 </v>
   <v>       0.44208301       0.44208301       0.58190703 </v>
   <v>       0.67173295       0.44576024       0.58308023 </v>
   <v>       0.44576027       0.67173293       0.58308023 </v>
   <v>       0.55791702       0.55791702       0.41809300 </v>
   <v>       0.38416599       0.50000002       0.50000000 </v>
   <v>       0.61583401       0.50000002       0.50000000 </v>
   <v>       0.50000000       0.61749319       0.34021317 </v>
   <v>       0.50000000       0.61749319       0.65978680 </v>
   <v>       0.50000000       0.50000000       0.50000000 </v>
   <v>       0.44208298       0.55791702       0.58190703 </v>
   <v>       0.55791702       0.55791702       0.58190703 </v>
   <v>       0.50000000       0.61583404       0.50000000 </v>
   <v>       0.30597147       0.39343090       0.36763047 </v>
   <v>       0.27768630       0.37789543       0.34833387 </v>
  </varray>
  <varray name="selective"  type="logical" >
   <v type="logical" >  F  F  F </v>
   <v type="logical" >  F  F  F </v>
   <v type="logical" >  F  F  F </v>
   <v type="logical" >  F  F  F </v>
   <v type="logical" >  F  F  F </v>
   <v type="logical" >  F  F  F </v>
   <v type="logical" >  F  F  F </v>
   <v type="logical" >  F  F  F </v>
   <v type="logical" >  F  F  F </v>
   <v type="logical" >  F  F  F </v>
   <v type="logical" >  F  F  F </v>
   <v type="logical" >  F  F  F </v>
   <v type="logical" >  F  F  F </v>
   <v type="logical" >  F  F  F </v>
   <v type="logical" >  F  F  F </v>
   <v type="logical" >  F  F  F </v>
   <v type="logical" >  F  F  F </v>
   <v type="logical" >  F  F  F </v>
   <v type="logical" >  F  F  F </v>
   <v type="logical" >  F  F  F </v>
   <v type="logical" >  F  F  F </v>
   <v type="logical" >  F  F  F </v>
   <v type="logical" >  F  F  F </v>
   <v type="logical" >  F  F  F </v>
   <v type="logical" >  F  F  F </v>
   <v type="logical" >  F  F  F </v>
   <v type="logical" >  F  F  F </v>
   <v type="logical" >  F  F  F </v>
   <v type="logical" >  F  F  F </v>
   <v type="logical" >  F  F  F </v>
   <v type="logical" >  F  F  F </v>
   <v type="logical" >  F  F  F </v>
   <v type="logical" >  F  F  F </v>
   <v type="logical" >  F  F  F </v>
   <v type="logical" >  F  F  F </v>
   <v type="logical" >  F  F  F </v>
   <v type="logical" >  F  F  F </v>
   <v type="logical" >  F  F  F </v>
   <v type="logical" >  F  F  F </v>
   <v type="logical" >  F  F  F </v>
   <v type="logical" >  F  F  F </v>
   <v type="logical" >  F  F  F </v>
   <v type="logical" >  F  F  F </v>
   <v type="logical" >  F  F  F </v>
   <v type="logical" >  F  F  F </v>
   <v type="logical" >  F  F  F </v>
   <v type="logical" >  F  F  F </v>
   <v type="logical" >  F  F  F </v>
   <v type="logical" >  F  F  F </v>
   <v type="logical" >  F  F  F </v>
   <v type="logical" >  F  F  F </v>
   <v type="logical" >  F  F  F </v>
   <v type="logical" >  F  F  F </v>
   <v type="logical" >  F  F  F </v>
   <v type="logical" >  F  F  F </v>
   <v type="logical" >  F  F  F </v>
   <v type="logical" >  F  F  F </v>
  </varray>
  <nose>
   <v>      -3.00000000       0.00000000       0.00010000       0.00010000 </v>
  </nose>
 </structure>
</modeling>
