  57  57   0   0
  0.4736842E+03  0.3000000E-08  0.3000000E-08  0.3000000E-08  0.5000000E-15
  1.000000000000000E-004
  CAR 
 6_Pd100_top_free_z(O)                   
      1.34809145    -31.19471167  301     -4.13372586      1.00000000
    -31.195  0.0000E+00  0.0000E+00
    -31.086  0.0000E+00  0.0000E+00
    -30.978  0.0000E+00  0.0000E+00
    -30.869  0.5192E-27  0.5632E-28
    -30.761  0.2763E-23  0.2998E-24
    -30.652  0.8035E-20  0.8719E-21
    -30.544  0.1273E-16  0.1381E-17
    -30.435  0.1093E-13  0.1187E-14
    -30.327  0.5081E-11  0.5523E-12
    -30.218  0.1263E-08  0.1376E-09
    -30.110  0.1665E-06  0.1820E-07
    -30.001  0.1143E-04  0.1258E-05
    -29.893  0.3965E-03  0.4427E-04
    -29.785  0.6532E-02  0.7528E-03
    -29.676  0.4297E-01  0.5414E-02
    -29.568  0.2365E-01  0.7979E-02
    -29.459 -0.5557E+00 -0.5230E-01
    -29.351 -0.2196E+00 -0.7612E-01
    -29.242  0.5491E+01  0.5195E+00
    -29.134  0.9972E+01  0.1601E+01
    -29.025  0.4539E+01  0.2094E+01
    -28.917 -0.4966E+00  0.2040E+01
    -28.808 -0.4522E+00  0.1991E+01
    -28.700  0.4474E-01  0.1996E+01
    -28.591  0.3618E-01  0.1999E+01
    -28.483  0.4806E-02  0.2000E+01
    -28.374  0.2642E-03  0.2000E+01
    -28.266  0.6974E-05  0.2000E+01
    -28.157  0.9347E-07  0.2000E+01
    -28.049  0.6544E-09  0.2000E+01
    -27.940  0.2432E-11  0.2000E+01
    -27.832  0.4094E-14  0.2000E+01
    -27.723  0.0000E+00  0.2000E+01
    -27.615  0.0000E+00  0.2000E+01
    -27.507  0.0000E+00  0.2000E+01
    -27.398  0.0000E+00  0.2000E+01
    -27.290  0.0000E+00  0.2000E+01
    -27.181  0.0000E+00  0.2000E+01
    -27.073  0.0000E+00  0.2000E+01
    -26.964  0.0000E+00  0.2000E+01
    -26.856  0.0000E+00  0.2000E+01
    -26.747  0.0000E+00  0.2000E+01
    -26.639  0.0000E+00  0.2000E+01
    -26.530  0.0000E+00  0.2000E+01
    -26.422  0.0000E+00  0.2000E+01
    -26.313  0.0000E+00  0.2000E+01
    -26.205  0.0000E+00  0.2000E+01
    -26.096  0.0000E+00  0.2000E+01
    -25.988  0.0000E+00  0.2000E+01
    -25.879  0.0000E+00  0.2000E+01
    -25.771  0.0000E+00  0.2000E+01
    -25.662  0.0000E+00  0.2000E+01
    -25.554  0.0000E+00  0.2000E+01
    -25.445  0.0000E+00  0.2000E+01
    -25.337  0.0000E+00  0.2000E+01
    -25.229  0.0000E+00  0.2000E+01
    -25.120  0.0000E+00  0.2000E+01
    -25.012  0.0000E+00  0.2000E+01
    -24.903  0.0000E+00  0.2000E+01
    -24.795  0.0000E+00  0.2000E+01
    -24.686  0.0000E+00  0.2000E+01
    -24.578  0.0000E+00  0.2000E+01
    -24.469  0.0000E+00  0.2000E+01
    -24.361  0.0000E+00  0.2000E+01
    -24.252  0.0000E+00  0.2000E+01
    -24.144  0.0000E+00  0.2000E+01
    -24.035  0.0000E+00  0.2000E+01
    -23.927  0.0000E+00  0.2000E+01
    -23.818  0.0000E+00  0.2000E+01
    -23.710  0.0000E+00  0.2000E+01
    -23.601  0.0000E+00  0.2000E+01
    -23.493  0.0000E+00  0.2000E+01
    -23.384  0.0000E+00  0.2000E+01
    -23.276  0.0000E+00  0.2000E+01
    -23.167  0.0000E+00  0.2000E+01
    -23.059  0.0000E+00  0.2000E+01
    -22.951  0.0000E+00  0.2000E+01
    -22.842  0.0000E+00  0.2000E+01
    -22.734  0.0000E+00  0.2000E+01
    -22.625  0.0000E+00  0.2000E+01
    -22.517  0.0000E+00  0.2000E+01
    -22.408  0.0000E+00  0.2000E+01
    -22.300  0.0000E+00  0.2000E+01
    -22.191  0.0000E+00  0.2000E+01
    -22.083  0.0000E+00  0.2000E+01
    -21.974  0.0000E+00  0.2000E+01
    -21.866  0.0000E+00  0.2000E+01
    -21.757  0.0000E+00  0.2000E+01
    -21.649  0.0000E+00  0.2000E+01
    -21.540  0.0000E+00  0.2000E+01
    -21.432  0.0000E+00  0.2000E+01
    -21.323  0.0000E+00  0.2000E+01
    -21.215  0.0000E+00  0.2000E+01
    -21.106  0.0000E+00  0.2000E+01
    -20.998  0.0000E+00  0.2000E+01
    -20.889  0.0000E+00  0.2000E+01
    -20.781  0.0000E+00  0.2000E+01
    -20.673  0.0000E+00  0.2000E+01
    -20.564  0.0000E+00  0.2000E+01
    -20.456  0.0000E+00  0.2000E+01
    -20.347  0.0000E+00  0.2000E+01
    -20.239  0.0000E+00  0.2000E+01
    -20.130  0.0000E+00  0.2000E+01
    -20.022  0.0000E+00  0.2000E+01
    -19.913  0.0000E+00  0.2000E+01
    -19.805  0.0000E+00  0.2000E+01
    -19.696  0.0000E+00  0.2000E+01
    -19.588  0.0000E+00  0.2000E+01
    -19.479  0.0000E+00  0.2000E+01
    -19.371  0.0000E+00  0.2000E+01
    -19.262  0.0000E+00  0.2000E+01
    -19.154  0.0000E+00  0.2000E+01
    -19.045  0.0000E+00  0.2000E+01
    -18.937  0.0000E+00  0.2000E+01
    -18.828  0.0000E+00  0.2000E+01
    -18.720  0.0000E+00  0.2000E+01
    -18.611  0.0000E+00  0.2000E+01
    -18.503  0.0000E+00  0.2000E+01
    -18.395  0.0000E+00  0.2000E+01
    -18.286  0.0000E+00  0.2000E+01
    -18.178  0.0000E+00  0.2000E+01
    -18.069  0.0000E+00  0.2000E+01
    -17.961  0.0000E+00  0.2000E+01
    -17.852  0.0000E+00  0.2000E+01
    -17.744  0.0000E+00  0.2000E+01
    -17.635  0.0000E+00  0.2000E+01
    -17.527  0.0000E+00  0.2000E+01
    -17.418  0.0000E+00  0.2000E+01
    -17.310  0.0000E+00  0.2000E+01
    -17.201  0.0000E+00  0.2000E+01
    -17.093  0.0000E+00  0.2000E+01
    -16.984  0.0000E+00  0.2000E+01
    -16.876  0.0000E+00  0.2000E+01
    -16.767  0.0000E+00  0.2000E+01
    -16.659  0.0000E+00  0.2000E+01
    -16.550  0.0000E+00  0.2000E+01
    -16.442  0.0000E+00  0.2000E+01
    -16.333  0.0000E+00  0.2000E+01
    -16.225  0.0000E+00  0.2000E+01
    -16.117  0.0000E+00  0.2000E+01
    -16.008  0.0000E+00  0.2000E+01
    -15.900  0.0000E+00  0.2000E+01
    -15.791  0.0000E+00  0.2000E+01
    -15.683  0.0000E+00  0.2000E+01
    -15.574  0.0000E+00  0.2000E+01
    -15.466  0.0000E+00  0.2000E+01
    -15.357  0.2451E-25  0.2000E+01
    -15.249  0.9997E-22  0.2000E+01
    -15.140  0.2225E-18  0.2000E+01
    -15.032  0.2693E-15  0.2000E+01
    -14.923  0.1765E-12  0.2000E+01
    -14.815  0.6237E-10  0.2000E+01
    -14.706  0.1174E-07  0.2000E+01
    -14.598  0.1164E-05  0.2000E+01
    -14.489  0.5947E-04  0.2000E+01
    -14.381  0.1502E-02  0.2000E+01
    -14.272  0.1711E-01  0.2002E+01
    -14.164  0.6289E-01  0.2009E+01
    -14.056 -0.1415E+00  0.1993E+01
    -13.947 -0.8103E+00  0.1906E+01
    -13.839  0.1602E+01  0.2079E+01
    -13.730  0.8522E+01  0.3004E+01
    -13.622  0.8485E+01  0.3924E+01
    -13.513  0.1564E+01  0.4094E+01
    -13.405 -0.8093E+00  0.4006E+01
    -13.296 -0.1378E+00  0.3991E+01
    -13.188  0.6274E-01  0.3998E+01
    -13.079  0.1689E-01  0.4000E+01
    -12.971  0.1474E-02  0.4000E+01
    -12.862  0.5806E-04  0.4000E+01
    -12.754  0.1132E-05  0.4000E+01
    -12.645  0.1137E-07  0.4000E+01
    -12.537  0.1422E-08  0.4000E+01
    -12.428  0.1935E-06  0.4000E+01
    -12.320  0.1436E-04  0.4000E+01
    -12.211  0.5411E-03  0.4000E+01
    -12.103  0.9784E-02  0.4001E+01
    -11.994  0.7310E-01  0.4009E+01
    -11.886  0.8751E-01  0.4019E+01
    -11.778 -0.9158E+00  0.3919E+01
    -11.669 -0.9665E+00  0.3814E+01
    -11.561  0.9182E+01  0.4810E+01
    -11.452  0.1995E+02  0.6975E+01
    -11.344  0.1088E+02  0.8155E+01
    -11.235 -0.4733E+00  0.8103E+01
    -11.127 -0.1100E+01  0.7984E+01
    -11.018  0.4997E-01  0.7989E+01
    -10.910  0.8518E-01  0.7999E+01
    -10.801  0.1286E-01  0.8000E+01
    -10.693  0.7767E-03  0.8000E+01
    -10.584  0.2244E-04  0.8000E+01
    -10.476  0.1062E-04  0.8000E+01
    -10.367  0.3642E-03  0.8000E+01
    -10.259  0.6127E-02  0.8001E+01
    -10.150  0.4151E-01  0.8005E+01
    -10.042  0.2893E-01  0.8008E+01
     -9.933 -0.5339E+00  0.7950E+01
     -9.825 -0.2868E+00  0.7919E+01
     -9.716  0.5289E+01  0.8493E+01
     -9.608  0.9989E+01  0.9577E+01
     -9.500  0.4740E+01  0.1009E+02
     -9.391 -0.4461E+00  0.1004E+02
     -9.283 -0.4742E+00  0.9991E+01
     -9.174  0.4104E-01  0.9995E+01
     -9.066  0.3760E-01  0.9999E+01
     -8.957  0.5135E-02  0.1000E+02
     -8.849  0.2883E-03  0.1000E+02
     -8.740  0.7751E-05  0.1000E+02
     -8.632  0.1057E-06  0.1000E+02
     -8.523  0.7530E-09  0.1000E+02
     -8.415  0.2845E-11  0.1000E+02
     -8.306  0.6141E-14  0.1000E+02
     -8.198  0.2442E-23  0.1000E+02
     -8.089  0.7164E-20  0.1000E+02
     -7.981  0.1145E-16  0.1000E+02
     -7.872  0.9928E-14  0.1000E+02
     -7.764  0.4657E-11  0.1000E+02
     -7.655  0.1169E-08  0.1000E+02
     -7.547  0.1555E-06  0.1000E+02
     -7.438  0.1078E-04  0.1000E+02
     -7.330  0.3781E-03  0.1000E+02
     -7.222  0.6302E-02  0.1000E+02
     -7.113  0.4215E-01  0.1001E+02
     -7.005  0.2667E-01  0.1001E+02
     -6.896 -0.5434E+00  0.9949E+01
     -6.788 -0.2558E+00  0.9922E+01
     -6.679  0.5407E+01  0.1051E+02
     -6.571  0.1014E+02  0.1161E+02
     -6.462  0.4576E+01  0.1210E+02
     -6.354 -0.2502E+01  0.1183E+02
     -6.245  0.9132E+00  0.1193E+02
     -6.137  0.2077E+02  0.1418E+02
     -6.028  0.2698E+02  0.1711E+02
     -5.920  0.9462E+01  0.1814E+02
     -5.811  0.1805E+02  0.2010E+02
     -5.703  0.5839E+02  0.2643E+02
     -5.594  0.1375E+03  0.4134E+02
     -5.486  0.2602E+03  0.6957E+02
     -5.377  0.3055E+03  0.1027E+03
     -5.269  0.2362E+03  0.1283E+03
     -5.160  0.2112E+03  0.1512E+03
     -5.052  0.2945E+03  0.1832E+03
     -4.944  0.3672E+03  0.2230E+03
     -4.835  0.3239E+03  0.2582E+03
     -4.727  0.2912E+03  0.2897E+03
     -4.618  0.3793E+03  0.3309E+03
     -4.510  0.4331E+03  0.3779E+03
     -4.401  0.4274E+03  0.4242E+03
     -4.293  0.5153E+03  0.4801E+03
     -4.184  0.5482E+03  0.5396E+03
     -4.076  0.3195E+03  0.5743E+03
     -3.967  0.6365E+02  0.5812E+03
     -3.859  0.9268E+01  0.5822E+03
     -3.750  0.3393E+02  0.5859E+03
     -3.642  0.1890E+02  0.5879E+03
     -3.533  0.1091E+02  0.5891E+03
     -3.425  0.2703E+02  0.5920E+03
     -3.316  0.1774E+02  0.5939E+03
     -3.208 -0.2903E+01  0.5936E+03
     -3.099  0.1427E+02  0.5952E+03
     -2.991  0.5879E+02  0.6016E+03
     -2.882  0.6147E+02  0.6082E+03
     -2.774  0.1953E+02  0.6103E+03
     -2.666 -0.3917E+01  0.6099E+03
     -2.557  0.1075E+02  0.6111E+03
     -2.449  0.3060E+02  0.6144E+03
     -2.340  0.2257E+02  0.6168E+03
     -2.232  0.8633E+01  0.6178E+03
     -2.123  0.2131E+02  0.6201E+03
     -2.015  0.4262E+02  0.6247E+03
     -1.906  0.4118E+02  0.6292E+03
     -1.798  0.3584E+02  0.6331E+03
     -1.689  0.4365E+02  0.6378E+03
     -1.581  0.4783E+02  0.6430E+03
     -1.472  0.3824E+02  0.6471E+03
     -1.364  0.2157E+02  0.6495E+03
     -1.255  0.1496E+02  0.6511E+03
     -1.147  0.2229E+02  0.6535E+03
     -1.038  0.3055E+02  0.6568E+03
     -0.930  0.5079E+02  0.6623E+03
     -0.821  0.5093E+02  0.6679E+03
     -0.713  0.2441E+02  0.6705E+03
     -0.604  0.1025E+02  0.6716E+03
     -0.496  0.3961E+01  0.6721E+03
     -0.388 -0.3034E+00  0.6720E+03
     -0.279 -0.3947E+00  0.6720E+03
     -0.171  0.6787E-01  0.6720E+03
     -0.062  0.4758E-01  0.6720E+03
      0.046  0.6756E-02  0.6720E+03
      0.155  0.4020E-03  0.6720E+03
      0.263  0.1150E-04  0.6720E+03
      0.372  0.1669E-06  0.6720E+03
      0.480  0.1265E-08  0.6720E+03
      0.589  0.5087E-11  0.6720E+03
      0.697  0.1023E-13  0.6720E+03
      0.806  0.0000E+00  0.6720E+03
      0.914  0.0000E+00  0.6720E+03
      1.023  0.0000E+00  0.6720E+03
      1.131  0.0000E+00  0.6720E+03
      1.240  0.0000E+00  0.6720E+03
      1.348  0.0000E+00  0.6720E+03
