  57  57   0   0
  0.4736842E+03  0.3000000E-08  0.3000000E-08  0.3000000E-08  0.5000000E-15
  1.000000000000000E-004
  CAR 
 6_Pd100_top_free_z(O)                   
      1.23627801    -30.21922568  301     -4.14157133      1.00000000
    -30.219  0.0000E+00  0.0000E+00
    -30.114  0.0000E+00  0.0000E+00
    -30.010  0.0000E+00  0.0000E+00
    -29.905  0.2199E-27  0.2305E-28
    -29.800  0.9405E-24  0.9864E-25
    -29.695  0.2288E-20  0.2400E-21
    -29.590  0.3156E-17  0.3312E-18
    -29.485  0.2461E-14  0.2583E-15
    -29.380  0.1082E-11  0.1137E-12
    -29.276  0.2656E-09  0.2797E-10
    -29.171  0.3617E-07  0.3820E-08
    -29.066  0.2694E-05  0.2863E-06
    -28.961  0.1074E-03  0.1155E-04
    -28.856  0.2195E-02  0.2417E-03
    -28.751  0.2091E-01  0.2434E-02
    -28.646  0.6454E-01  0.9201E-02
    -28.542 -0.1629E+00 -0.7880E-02
    -28.437 -0.8194E+00 -0.9379E-01
    -28.332  0.1442E+01  0.5739E-01
    -28.227  0.8202E+01  0.9174E+00
    -28.122  0.8994E+01  0.1860E+01
    -28.017  0.2300E+01  0.2102E+01
    -27.912 -0.8053E+00  0.2017E+01
    -27.808 -0.2571E+00  0.1990E+01
    -27.703  0.6290E-01  0.1997E+01
    -27.598  0.2704E-01  0.2000E+01
    -27.493  0.3237E-02  0.2000E+01
    -27.388  0.1759E-03  0.2000E+01
    -27.283  0.4861E-05  0.2000E+01
    -27.179  0.7150E-07  0.2000E+01
    -27.074  0.5740E-09  0.2000E+01
    -26.969  0.2550E-11  0.2000E+01
    -26.864  0.6353E-14  0.2000E+01
    -26.759  0.0000E+00  0.2000E+01
    -26.654  0.0000E+00  0.2000E+01
    -26.549  0.0000E+00  0.2000E+01
    -26.445  0.0000E+00  0.2000E+01
    -26.340  0.0000E+00  0.2000E+01
    -26.235  0.0000E+00  0.2000E+01
    -26.130  0.0000E+00  0.2000E+01
    -26.025  0.0000E+00  0.2000E+01
    -25.920  0.0000E+00  0.2000E+01
    -25.815  0.0000E+00  0.2000E+01
    -25.711  0.0000E+00  0.2000E+01
    -25.606  0.0000E+00  0.2000E+01
    -25.501  0.0000E+00  0.2000E+01
    -25.396  0.0000E+00  0.2000E+01
    -25.291  0.0000E+00  0.2000E+01
    -25.186  0.0000E+00  0.2000E+01
    -25.081  0.0000E+00  0.2000E+01
    -24.977  0.0000E+00  0.2000E+01
    -24.872  0.0000E+00  0.2000E+01
    -24.767  0.0000E+00  0.2000E+01
    -24.662  0.0000E+00  0.2000E+01
    -24.557  0.0000E+00  0.2000E+01
    -24.452  0.0000E+00  0.2000E+01
    -24.348  0.0000E+00  0.2000E+01
    -24.243  0.0000E+00  0.2000E+01
    -24.138  0.0000E+00  0.2000E+01
    -24.033  0.0000E+00  0.2000E+01
    -23.928  0.0000E+00  0.2000E+01
    -23.823  0.0000E+00  0.2000E+01
    -23.718  0.0000E+00  0.2000E+01
    -23.614  0.0000E+00  0.2000E+01
    -23.509  0.0000E+00  0.2000E+01
    -23.404  0.0000E+00  0.2000E+01
    -23.299  0.0000E+00  0.2000E+01
    -23.194  0.0000E+00  0.2000E+01
    -23.089  0.0000E+00  0.2000E+01
    -22.984  0.0000E+00  0.2000E+01
    -22.880  0.0000E+00  0.2000E+01
    -22.775  0.0000E+00  0.2000E+01
    -22.670  0.0000E+00  0.2000E+01
    -22.565  0.0000E+00  0.2000E+01
    -22.460  0.0000E+00  0.2000E+01
    -22.355  0.0000E+00  0.2000E+01
    -22.250  0.0000E+00  0.2000E+01
    -22.146  0.0000E+00  0.2000E+01
    -22.041  0.0000E+00  0.2000E+01
    -21.936  0.0000E+00  0.2000E+01
    -21.831  0.0000E+00  0.2000E+01
    -21.726  0.0000E+00  0.2000E+01
    -21.621  0.0000E+00  0.2000E+01
    -21.517  0.0000E+00  0.2000E+01
    -21.412  0.0000E+00  0.2000E+01
    -21.307  0.0000E+00  0.2000E+01
    -21.202  0.0000E+00  0.2000E+01
    -21.097  0.0000E+00  0.2000E+01
    -20.992  0.0000E+00  0.2000E+01
    -20.887  0.0000E+00  0.2000E+01
    -20.783  0.0000E+00  0.2000E+01
    -20.678  0.0000E+00  0.2000E+01
    -20.573  0.0000E+00  0.2000E+01
    -20.468  0.0000E+00  0.2000E+01
    -20.363  0.0000E+00  0.2000E+01
    -20.258  0.0000E+00  0.2000E+01
    -20.153  0.0000E+00  0.2000E+01
    -20.049  0.0000E+00  0.2000E+01
    -19.944  0.0000E+00  0.2000E+01
    -19.839  0.0000E+00  0.2000E+01
    -19.734  0.0000E+00  0.2000E+01
    -19.629  0.0000E+00  0.2000E+01
    -19.524  0.0000E+00  0.2000E+01
    -19.420  0.0000E+00  0.2000E+01
    -19.315  0.0000E+00  0.2000E+01
    -19.210  0.0000E+00  0.2000E+01
    -19.105  0.0000E+00  0.2000E+01
    -19.000  0.0000E+00  0.2000E+01
    -18.895  0.0000E+00  0.2000E+01
    -18.790  0.0000E+00  0.2000E+01
    -18.686  0.0000E+00  0.2000E+01
    -18.581  0.0000E+00  0.2000E+01
    -18.476  0.0000E+00  0.2000E+01
    -18.371  0.0000E+00  0.2000E+01
    -18.266  0.0000E+00  0.2000E+01
    -18.161  0.0000E+00  0.2000E+01
    -18.056  0.0000E+00  0.2000E+01
    -17.952  0.0000E+00  0.2000E+01
    -17.847  0.0000E+00  0.2000E+01
    -17.742  0.0000E+00  0.2000E+01
    -17.637  0.0000E+00  0.2000E+01
    -17.532  0.0000E+00  0.2000E+01
    -17.427  0.0000E+00  0.2000E+01
    -17.322  0.0000E+00  0.2000E+01
    -17.218  0.0000E+00  0.2000E+01
    -17.113  0.0000E+00  0.2000E+01
    -17.008  0.0000E+00  0.2000E+01
    -16.903  0.0000E+00  0.2000E+01
    -16.798  0.0000E+00  0.2000E+01
    -16.693  0.0000E+00  0.2000E+01
    -16.589  0.0000E+00  0.2000E+01
    -16.484  0.0000E+00  0.2000E+01
    -16.379  0.0000E+00  0.2000E+01
    -16.274  0.0000E+00  0.2000E+01
    -16.169  0.0000E+00  0.2000E+01
    -16.064  0.0000E+00  0.2000E+01
    -15.959  0.0000E+00  0.2000E+01
    -15.855  0.0000E+00  0.2000E+01
    -15.750  0.0000E+00  0.2000E+01
    -15.645  0.0000E+00  0.2000E+01
    -15.540  0.0000E+00  0.2000E+01
    -15.435  0.0000E+00  0.2000E+01
    -15.330  0.0000E+00  0.2000E+01
    -15.225  0.0000E+00  0.2000E+01
    -15.121  0.0000E+00  0.2000E+01
    -15.016  0.2280E-27  0.2000E+01
    -14.911  0.9730E-24  0.2000E+01
    -14.806  0.2361E-20  0.2000E+01
    -14.701  0.3249E-17  0.2000E+01
    -14.596  0.2528E-14  0.2000E+01
    -14.491  0.1108E-11  0.2000E+01
    -14.387  0.2715E-09  0.2000E+01
    -14.282  0.3688E-07  0.2000E+01
    -14.177  0.2740E-05  0.2000E+01
    -14.072  0.1089E-03  0.2000E+01
    -13.967  0.2220E-02  0.2000E+01
    -13.862  0.2107E-01  0.2002E+01
    -13.758  0.6457E-01  0.2009E+01
    -13.653 -0.1653E+00  0.1992E+01
    -13.548 -0.8199E+00  0.1906E+01
    -13.443  0.1464E+01  0.2059E+01
    -13.338  0.8227E+01  0.2922E+01
    -13.233  0.8975E+01  0.3863E+01
    -13.128  0.2274E+01  0.4101E+01
    -13.024 -0.8067E+00  0.4017E+01
    -12.919 -0.2542E+00  0.3990E+01
    -12.814  0.6303E-01  0.3997E+01
    -12.709  0.2686E-01  0.4000E+01
    -12.604  0.3202E-02  0.4000E+01
    -12.499  0.1736E-03  0.4000E+01
    -12.394  0.5503E-05  0.4000E+01
    -12.290  0.3533E-04  0.4000E+01
    -12.185  0.8991E-03  0.4000E+01
    -12.080  0.1114E-01  0.4001E+01
    -11.975  0.5402E-01  0.4007E+01
    -11.870 -0.1998E-01  0.4005E+01
    -11.765 -0.6655E+00  0.3935E+01
    -11.660  0.7097E-01  0.3942E+01
    -11.556  0.6036E+01  0.4575E+01
    -11.451  0.9973E+01  0.5621E+01
    -11.346  0.4532E+01  0.6096E+01
    -11.241 -0.4033E+00  0.6054E+01
    -11.136 -0.8537E+00  0.5964E+01
    -11.031 -0.6911E+00  0.5892E+01
    -10.927  0.3206E+01  0.6228E+01
    -10.822  0.9585E+01  0.7233E+01
    -10.717  0.7103E+01  0.7978E+01
    -10.612  0.2638E-01  0.7981E+01
    -10.507  0.1806E+01  0.8170E+01
    -10.402  0.9103E+01  0.9125E+01
    -10.297  0.7988E+01  0.9962E+01
    -10.193  0.1222E+01  0.1009E+02
    -10.088 -0.8087E+00  0.1001E+02
     -9.983 -0.1374E+00  0.9991E+01
     -9.878  0.6398E-01  0.9998E+01
     -9.773  0.1923E-01  0.1000E+02
     -9.668  0.1943E-02  0.1000E+02
     -9.563  0.9203E-04  0.1000E+02
     -9.459  0.2243E-05  0.1000E+02
     -9.354  0.2928E-07  0.1000E+02
     -9.249  0.2092E-09  0.1000E+02
     -9.144  0.8280E-12  0.1000E+02
     -9.039  0.2118E-14  0.1000E+02
     -8.934  0.0000E+00  0.1000E+02
     -8.829  0.0000E+00  0.1000E+02
     -8.725  0.0000E+00  0.1000E+02
     -8.620  0.0000E+00  0.1000E+02
     -8.515  0.0000E+00  0.1000E+02
     -8.410  0.0000E+00  0.1000E+02
     -8.305  0.2388E-26  0.1000E+02
     -8.200  0.8731E-23  0.1000E+02
     -8.096  0.1814E-19  0.1000E+02
     -7.991  0.2136E-16  0.1000E+02
     -7.886  0.1419E-13  0.1000E+02
     -7.781  0.5312E-11  0.1000E+02
     -7.676  0.1108E-08  0.1000E+02
     -7.571  0.1278E-06  0.1000E+02
     -7.466  0.8018E-05  0.1000E+02
     -7.362  0.2669E-03  0.1000E+02
     -7.257  0.4476E-02  0.1000E+02
     -7.152  0.3332E-01  0.1000E+02
     -7.047  0.5903E-01  0.1001E+02
     -6.942 -0.3235E+00  0.9976E+01
     -6.837 -0.6614E+00  0.9907E+01
     -6.732  0.2895E+01  0.1021E+02
     -6.628  0.8856E+01  0.1114E+02
     -6.523  0.9929E+01  0.1218E+02
     -6.418  0.8429E+01  0.1306E+02
     -6.313  0.5281E+01  0.1362E+02
     -6.208  0.1452E+02  0.1514E+02
     -6.103  0.3479E+02  0.1879E+02
     -5.998  0.2896E+02  0.2182E+02
     -5.894  0.1842E+02  0.2375E+02
     -5.789  0.4176E+02  0.2813E+02
     -5.684  0.9115E+02  0.3769E+02
     -5.579  0.1730E+03  0.5583E+02
     -5.474  0.2675E+03  0.8388E+02
     -5.369  0.2812E+03  0.1134E+03
     -5.265  0.2232E+03  0.1368E+03
     -5.160  0.2233E+03  0.1602E+03
     -5.055  0.3080E+03  0.1925E+03
     -4.950  0.3602E+03  0.2302E+03
     -4.845  0.3155E+03  0.2633E+03
     -4.740  0.2899E+03  0.2937E+03
     -4.635  0.3634E+03  0.3318E+03
     -4.531  0.4188E+03  0.3757E+03
     -4.426  0.4234E+03  0.4201E+03
     -4.321  0.4952E+03  0.4720E+03
     -4.216  0.5465E+03  0.5293E+03
     -4.111  0.3700E+03  0.5681E+03
     -4.006  0.1101E+03  0.5797E+03
     -3.901  0.1685E+02  0.5814E+03
     -3.797  0.3074E+02  0.5847E+03
     -3.692  0.2573E+02  0.5874E+03
     -3.587  0.1071E+02  0.5885E+03
     -3.482  0.1571E+02  0.5901E+03
     -3.377  0.1707E+02  0.5919E+03
     -3.272  0.7209E+01  0.5927E+03
     -3.167  0.9985E+01  0.5937E+03
     -3.063  0.4218E+02  0.5982E+03
     -2.958  0.6383E+02  0.6048E+03
     -2.853  0.3785E+02  0.6088E+03
     -2.748  0.8505E+01  0.6097E+03
     -2.643  0.3372E+01  0.6101E+03
     -2.538  0.1853E+02  0.6120E+03
     -2.434  0.2654E+02  0.6148E+03
     -2.329  0.1078E+02  0.6159E+03
     -2.224  0.8719E+01  0.6168E+03
     -2.119  0.3093E+02  0.6201E+03
     -2.014  0.4395E+02  0.6247E+03
     -1.909  0.4301E+02  0.6292E+03
     -1.804  0.3774E+02  0.6332E+03
     -1.700  0.3394E+02  0.6367E+03
     -1.595  0.3798E+02  0.6407E+03
     -1.490  0.3732E+02  0.6446E+03
     -1.385  0.2594E+02  0.6473E+03
     -1.280  0.1448E+02  0.6488E+03
     -1.175  0.7895E+01  0.6497E+03
     -1.070  0.2231E+02  0.6520E+03
     -0.966  0.6005E+02  0.6583E+03
     -0.861  0.7533E+02  0.6662E+03
     -0.756  0.4643E+02  0.6711E+03
     -0.651  0.1156E+02  0.6723E+03
     -0.546 -0.1746E+01  0.6721E+03
     -0.441 -0.1319E+01  0.6720E+03
     -0.336  0.1253E+00  0.6720E+03
     -0.232  0.1696E+00  0.6720E+03
     -0.127  0.3476E-01  0.6720E+03
     -0.022  0.3088E-02  0.6720E+03
      0.083  0.1376E-03  0.6720E+03
      0.188  0.3252E-05  0.6720E+03
      0.293  0.4184E-07  0.6720E+03
      0.397  0.2977E-09  0.6720E+03
      0.502  0.1184E-11  0.6720E+03
      0.607  0.2118E-14  0.6720E+03
      0.712  0.0000E+00  0.6720E+03
      0.817  0.0000E+00  0.6720E+03
      0.922  0.0000E+00  0.6720E+03
      1.027  0.0000E+00  0.6720E+03
      1.131  0.0000E+00  0.6720E+03
      1.236  0.0000E+00  0.6720E+03
