 vasp.5.4.4.18Apr17-6-g9f103f2a35 (build Sep 03 2018 23:53:05) complex          
  
 executed on             LinuxIFC date 2021.11.30  21:43:10
 running on    1 total cores
 distrk:  each k-point on    1 cores,    1 groups
 distr:  one band on NCORES_PER_BAND=   1 cores,    1 groups


--------------------------------------------------------------------------------------------------------


 INCAR:
 POTCAR:    PAW_PBE Pd 04Jan2005                  
 POTCAR:    PAW_PBE C 08Apr2002                   
 POTCAR:    PAW_PBE O 08Apr2002                   
 POTCAR:    PAW_PBE Pd 04Jan2005                  
   VRHFIN =Pd : s1 d9                                                           
   LEXCH  = PE                                                                  
   EATOM  =   809.7530 eV,   59.5152 Ry                                         
                                                                                
   TITEL  = PAW_PBE Pd 04Jan2005                                                
   LULTRA =        F    use ultrasoft PP ?                                      
   IUNSCR =        1    unscreen: 0-lin 1-nonlin 2-no                           
   RPACOR =    2.000    partial core radius                                     
   POMASS =  106.420; ZVAL   =   10.000    mass and valenz                      
   RCORE  =    2.600    outmost cutoff radius                                   
   RWIGS  =    2.710; RWIGS  =    1.434    wigner-seitz radius (au A)           
   ENMAX  =  250.925; ENMIN  =  188.194 eV                                      
   ICORE  =        3    local potential                                         
   LCOR   =        T    correct aug charges                                     
   LPAW   =        T    paw PP                                                  
   EAUG   =  416.230                                                            
   DEXC   =    0.000                                                            
   RMAX   =    2.653    core radius for proj-oper                               
   RAUG   =    1.300    factor for augmentation sphere                          
   RDEP   =    2.734    radius for radial grids                                 
   RDEPT  =    2.103    core radius for aug-charge                              
                                                                                
   Atomic configuration                                                         
   12 entries                                                                   
     n  l   j            E        occ.                                          
     1  0  0.50    -24164.6631   2.0000                                         
     2  0  0.50     -3530.9218   2.0000                                         
     2  1  1.50     -3165.6822   6.0000                                         
     3  0  0.50      -639.4577   2.0000                                         
     3  1  1.50      -519.4532   6.0000                                         
     3  2  2.50      -328.9757  10.0000                                         
     4  0  0.50       -88.7014   2.0000                                         
     4  1  1.50       -54.4540   6.0000                                         
     4  2  2.50        -6.6878   9.0000                                         
     5  0  0.50        -4.3543   1.0000                                         
     5  1  0.50        -1.3606   0.0000                                         
     4  3  2.50        -1.3606   0.0000                                         
   Description                                                                  
     l       E           TYP  RCUT    TYP  RCUT                                 
     2     -6.6878251     23  2.400                                             
     2     -8.0484077     23  2.400                                             
     0     -4.3542939     23  2.400                                             
     0      4.3406793     23  2.400                                             
     1     -4.0817478     23  2.600                                             
     1     15.8380318     23  2.600                                             
     3     -4.0817478     23  2.400                                             
  local pseudopotential read in
  partial core-charges read in
  partial kinetic energy density read in
  atomic valenz-charges read in
  non local Contribution for L=           2  read in
    real space projection operators read in
  non local Contribution for L=           2  read in
    real space projection operators read in
  non local Contribution for L=           0  read in
    real space projection operators read in
  non local Contribution for L=           0  read in
    real space projection operators read in
  non local Contribution for L=           1  read in
    real space projection operators read in
  non local Contribution for L=           1  read in
    real space projection operators read in
    PAW grid and wavefunctions read in
 
   number of l-projection  operators is LMAX  =           6
   number of lm-projection operators is LMMAX =          18
 
 POTCAR:    PAW_PBE C 08Apr2002                   
   VRHFIN =C: s2p2                                                              
   LEXCH  = PE                                                                  
   EATOM  =   147.1560 eV,   10.8157 Ry                                         
                                                                                
   TITEL  = PAW_PBE C 08Apr2002                                                 
   LULTRA =        F    use ultrasoft PP ?                                      
   IUNSCR =        1    unscreen: 0-lin 1-nonlin 2-no                           
   RPACOR =    1.200    partial core radius                                     
   POMASS =   12.011; ZVAL   =    4.000    mass and valenz                      
   RCORE  =    1.500    outmost cutoff radius                                   
   RWIGS  =    1.630; RWIGS  =    0.863    wigner-seitz radius (au A)           
   ENMAX  =  400.000; ENMIN  =  300.000 eV                                      
   ICORE  =        2    local potential                                         
   LCOR   =        T    correct aug charges                                     
   LPAW   =        T    paw PP                                                  
   EAUG   =  644.873                                                            
   DEXC   =    0.000                                                            
   RMAX   =    1.529    core radius for proj-oper                               
   RAUG   =    1.300    factor for augmentation sphere                          
   RDEP   =    1.501    radius for radial grids                                 
   RDEPT  =    1.300    core radius for aug-charge                              
                                                                                
   Atomic configuration                                                         
    4 entries                                                                   
     n  l   j            E        occ.                                          
     1  0  0.50      -273.3789   2.0000                                         
     2  0  0.50       -13.7508   2.0000                                         
     2  1  0.50        -5.2854   2.0000                                         
     3  2  1.50        -5.4423   0.0000                                         
   Description                                                                  
     l       E           TYP  RCUT    TYP  RCUT                                 
     0    -13.7508458     23  1.200                                             
     0     -8.2022199     23  1.200                                             
     1     -5.2854383     23  1.500                                             
     1     34.0145650     23  1.500                                             
     2     -5.4423304      7  1.500                                             
  local pseudopotential read in
  partial core-charges read in
  partial kinetic energy density read in
  atomic valenz-charges read in
  non local Contribution for L=           0  read in
    real space projection operators read in
  non local Contribution for L=           0  read in
    real space projection operators read in
  non local Contribution for L=           1  read in
    real space projection operators read in
  non local Contribution for L=           1  read in
    real space projection operators read in
    PAW grid and wavefunctions read in
 
   number of l-projection  operators is LMAX  =           4
   number of lm-projection operators is LMMAX =           8
 
 POTCAR:    PAW_PBE O 08Apr2002                   
   VRHFIN =O: s2p4                                                              
   LEXCH  = PE                                                                  
   EATOM  =   432.3788 eV,   31.7789 Ry                                         
                                                                                
   TITEL  = PAW_PBE O 08Apr2002                                                 
   LULTRA =        F    use ultrasoft PP ?                                      
   IUNSCR =        1    unscreen: 0-lin 1-nonlin 2-no                           
   RPACOR =    1.200    partial core radius                                     
   POMASS =   16.000; ZVAL   =    6.000    mass and valenz                      
   RCORE  =    1.520    outmost cutoff radius                                   
   RWIGS  =    1.550; RWIGS  =    0.820    wigner-seitz radius (au A)           
   ENMAX  =  400.000; ENMIN  =  300.000 eV                                      
   ICORE  =        2    local potential                                         
   LCOR   =        T    correct aug charges                                     
   LPAW   =        T    paw PP                                                  
   EAUG   =  605.392                                                            
   DEXC   =    0.000                                                            
   RMAX   =    1.553    core radius for proj-oper                               
   RAUG   =    1.300    factor for augmentation sphere                          
   RDEP   =    1.550    radius for radial grids                                 
   RDEPT  =    1.329    core radius for aug-charge                              
                                                                                
   Atomic configuration                                                         
    4 entries                                                                   
     n  l   j            E        occ.                                          
     1  0  0.50      -514.6923   2.0000                                         
     2  0  0.50       -23.9615   2.0000                                         
     2  1  0.50        -9.0305   4.0000                                         
     3  2  1.50        -9.5241   0.0000                                         
   Description                                                                  
     l       E           TYP  RCUT    TYP  RCUT                                 
     0    -23.9615318     23  1.200                                             
     0     -9.5240782     23  1.200                                             
     1     -9.0304911     23  1.520                                             
     1      8.1634956     23  1.520                                             
     2     -9.5240782      7  1.500                                             
  local pseudopotential read in
  partial core-charges read in
  partial kinetic energy density read in
  kinetic energy density of atom read in
  atomic valenz-charges read in
  non local Contribution for L=           0  read in
    real space projection operators read in
  non local Contribution for L=           0  read in
    real space projection operators read in
  non local Contribution for L=           1  read in
    real space projection operators read in
  non local Contribution for L=           1  read in
    real space projection operators read in
    PAW grid and wavefunctions read in
 
   number of l-projection  operators is LMAX  =           4
   number of lm-projection operators is LMMAX =           8
 
 Optimization of the real space projectors (new method)

 maximal supplied QI-value         = 14.36
 optimisation between [QCUT,QGAM] = [ 10.20, 20.39] = [ 29.12,116.47] Ry 
 Optimized for a Real-space Cutoff    1.51 Angstroem

   l    n(q)    QCUT    max X(q) W(low)/X(q) W(high)/X(q)  e(spline) 
   2      8    10.197    59.108    0.26E-03    0.14E-03    0.96E-07
   2      8    10.197    58.101    0.27E-03    0.14E-03    0.98E-07
   0      9    10.197   102.235    0.54E-04    0.60E-05    0.72E-07
   0      9    10.197    58.388    0.52E-04    0.60E-05    0.68E-07
   1      9    10.197    22.191    0.18E-03    0.25E-03    0.79E-07
   1      9    10.197    15.590    0.15E-03    0.21E-03    0.69E-07
 Optimization of the real space projectors (new method)

 maximal supplied QI-value         = 25.13
 optimisation between [QCUT,QGAM] = [ 10.05, 20.36] = [ 28.30,116.06] Ry 
 Optimized for a Real-space Cutoff    1.30 Angstroem

   l    n(q)    QCUT    max X(q) W(low)/X(q) W(high)/X(q)  e(spline) 
   0      8    10.053   115.676    0.49E-03    0.72E-03    0.18E-06
   0      8    10.053    87.132    0.49E-03    0.71E-03    0.18E-06
   1      7    10.053     4.429    0.32E-03    0.31E-03    0.18E-06
   1      7    10.053     2.733    0.23E-03    0.19E-03    0.20E-06
 Optimization of the real space projectors (new method)

 maximal supplied QI-value         = 24.76
 optimisation between [QCUT,QGAM] = [ 10.15, 20.30] = [ 28.85,115.39] Ry 
 Optimized for a Real-space Cutoff    1.38 Angstroem

   l    n(q)    QCUT    max X(q) W(low)/X(q) W(high)/X(q)  e(spline) 
   0      8    10.150    20.381    0.22E-03    0.32E-03    0.29E-06
   0      8    10.150    15.268    0.23E-03    0.35E-03    0.30E-06
   1      8    10.150     5.964    0.46E-03    0.53E-03    0.21E-06
   1      8    10.150     5.382    0.38E-03    0.45E-03    0.19E-06

 ----------------------------------------------------------------------------- 
|                                                                             |
|  ADVICE TO THIS USER RUNNING 'VASP/VAMP'   (HEAR YOUR MASTER'S VOICE ...):  |
|                                                                             |
|      You enforced a specific xc-type in the INCAR file,                     |
|      a different type was found on the POTCAR file                          |
|          I HOPE YOU KNOW, WHAT YOU ARE  DOING                               |
|                                                                             |
 ----------------------------------------------------------------------------- 

  PAW_PBE Pd 04Jan2005                  :
 energy of atom  1       EATOM= -809.7530
 kinetic energy error for atom=    0.0091 (will be added to EATOM!!)
  PAW_PBE C 08Apr2002                   :
 energy of atom  2       EATOM= -147.1560
 kinetic energy error for atom=    0.0288 (will be added to EATOM!!)
  PAW_PBE O 08Apr2002                   :
 energy of atom  3       EATOM= -432.3788
 kinetic energy error for atom=    0.1156 (will be added to EATOM!!)
 
 
 POSCAR: Pd55PES                                 
  positions in cartesian coordinates
  No initial velocities read in
 exchange correlation table for  LEXCH =        9
   RHO(1)=    0.500       N(1)  =     2000
   RHO(2)=  100.500       N(2)  =     4000
 


--------------------------------------------------------------------------------------------------------


 ion  position               nearest neighbor table
   1  0.446  0.328  0.417-   3 3.25   5 3.25   7 3.36  15 3.36  29 3.42  28 3.42
   2  0.672  0.554  0.417-  26 3.25  30 3.25  17 3.36   9 3.36  47 3.42  49 3.42
   3  0.554  0.328  0.417-   1 3.25   5 3.25   7 3.36  11 3.36  29 3.42  21 3.42
   4  0.328  0.554  0.417-  32 3.25  22 3.25  13 3.36   8 3.36  43 3.42  48 3.42
   5  0.500  0.383  0.340-   1 3.25   3 3.25  11 3.36  15 3.36  21 3.42  28 3.42
   6  0.500  0.383  0.660-  24 3.25  19 3.25  16 3.36  12 3.36  42 3.42  44 3.42
   7  0.500  0.276  0.500-  29 3.24   3 3.36   1 3.36  19 3.36  24 3.36
   8  0.276  0.500  0.500-  48 3.24  22 3.36  40 3.36   4 3.36  25 3.36
   9  0.724  0.500  0.500-  49 3.24  26 3.36  45 3.36   2 3.36  20 3.36
  10  0.500  0.724  0.500-  55 3.24  27 3.36  23 3.36  46 3.36  41 3.36
  11  0.612  0.388  0.342-  21 3.24   5 3.36   3 3.36  30 3.36  26 3.36
  12  0.612  0.388  0.658-  42 3.24  24 3.36  45 3.36   6 3.36  31 3.36
  13  0.388  0.612  0.342-  43 3.24  32 3.36  50 3.36   4 3.36  27 3.36
  14  0.388  0.612  0.658-  53 3.24  25 3.36  33 3.36  51 3.36  46 3.36
  15  0.388  0.388  0.342-  28 3.24   5 3.36   1 3.36  32 3.36  22 3.36
  16  0.388  0.388  0.658-  44 3.24  19 3.36  40 3.36   6 3.36  33 3.36
  17  0.612  0.612  0.342-  47 3.24  30 3.36  50 3.36   2 3.36  23 3.36
  18  0.612  0.612  0.658-  54 3.24  31 3.36  20 3.36  51 3.36  41 3.36
  19  0.446  0.328  0.583-   6 3.25  24 3.25  16 3.36   7 3.36  44 3.42  29 3.42
  20  0.672  0.554  0.583-  31 3.25  45 3.25  18 3.36   9 3.36  54 3.42  49 3.42
  21  0.558  0.442  0.418-  11 3.24   5 3.42   3 3.42  30 3.42  26 3.42
  22  0.328  0.446  0.417-   4 3.25  32 3.25   8 3.36  15 3.36  48 3.42  28 3.42
  23  0.554  0.672  0.417-  27 3.25  50 3.25  10 3.36  17 3.36  55 3.42  47 3.42
  24  0.554  0.328  0.583-   6 3.25  19 3.25  12 3.36   7 3.36  42 3.42  29 3.42
  25  0.328  0.554  0.583-  33 3.25  40 3.25  14 3.36   8 3.36  53 3.42  48 3.42
  26  0.672  0.446  0.417-   2 3.25  30 3.25   9 3.36  11 3.36  49 3.42  21 3.42
  27  0.446  0.672  0.417-  23 3.25  50 3.25  10 3.36  13 3.36  55 3.42  43 3.42
  28  0.442  0.442  0.418-  15 3.24   5 3.42   1 3.42  32 3.42  22 3.42
  29  0.500  0.384  0.500-   7 3.24   3 3.42   1 3.42  24 3.42  19 3.42
  30  0.617  0.500  0.340-   2 3.25  26 3.25  17 3.36  11 3.36  47 3.42  21 3.42
  31  0.617  0.500  0.660-  20 3.25  45 3.25  18 3.36  12 3.36  54 3.42  42 3.42
  32  0.383  0.500  0.340-   4 3.25  22 3.25  13 3.36  15 3.36  43 3.42  28 3.42
  33  0.383  0.500  0.660-  25 3.25  40 3.25  14 3.36  16 3.36  53 3.42  44 3.42
  34  0.383  0.383  0.500-
  35  0.617  0.617  0.500-
  36  0.617  0.383  0.500-  56 1.79
  37  0.383  0.617  0.500-
  38  0.500  0.500  0.335-
  39  0.500  0.500  0.665-
  40  0.328  0.446  0.583-  33 3.25  25 3.25  16 3.36   8 3.36  44 3.42  48 3.42
  41  0.554  0.672  0.583-  46 3.25  51 3.25  10 3.36  18 3.36  54 3.42  55 3.42
  42  0.558  0.442  0.582-  12 3.24   6 3.42  24 3.42  31 3.42  45 3.42
  43  0.442  0.558  0.418-  13 3.24   4 3.42  32 3.42  27 3.42  50 3.42
  44  0.442  0.442  0.582-  16 3.24   6 3.42  19 3.42  33 3.42  40 3.42
  45  0.672  0.446  0.583-  20 3.25  31 3.25   9 3.36  12 3.36  49 3.42  42 3.42
  46  0.446  0.672  0.583-  41 3.25  51 3.25  10 3.36  14 3.36  53 3.42  55 3.42
  47  0.558  0.558  0.418-  17 3.24   2 3.42  30 3.42  23 3.42  50 3.42
  48  0.384  0.500  0.500-   8 3.24   4 3.42  22 3.42  25 3.42  40 3.42
  49  0.616  0.500  0.500-   9 3.24   2 3.42  26 3.42  20 3.42  45 3.42
  50  0.500  0.617  0.340-  27 3.25  23 3.25  13 3.36  17 3.36  43 3.42  47 3.42
  51  0.500  0.617  0.660-  41 3.25  46 3.25  14 3.36  18 3.36  53 3.42  54 3.42
  52  0.500  0.500  0.500-
  53  0.442  0.558  0.582-  14 3.24  25 3.42  33 3.42  51 3.42  46 3.42
  54  0.558  0.558  0.582-  18 3.24  31 3.42  20 3.42  51 3.42  41 3.42
  55  0.500  0.616  0.500-  10 3.24  23 3.42  27 3.42  41 3.42  46 3.42
  56  0.642  0.358  0.452-  57 1.13  36 1.79
  57  0.668  0.332  0.443-  56 1.13
 
  LATTYP: Found a simple cubic cell.
 ALAT       =    30.0000000000
  
  Lattice vectors:
  
 A1 = (  30.0000000000,   0.0000000000,   0.0000000000)
 A2 = (   0.0000000000,  30.0000000000,   0.0000000000)
 A3 = (   0.0000000000,   0.0000000000,  30.0000000000)


Analysis of symmetry for initial positions (statically):
=====================================================================
 Subroutine PRICEL returns:
 Original cell was already a primitive cell.
 

 Routine SETGRP: Setting up the symmetry group for a 
 simple cubic supercell.


 Subroutine GETGRP returns: Found  2 space group operations
 (whereof  2 operations were pure point group operations)
 out of a pool of 48 trial point group operations.


The static configuration has the point symmetry C_1h.


Analysis of symmetry for dynamics (positions and initial velocities):
=====================================================================
 Subroutine PRICEL returns:
 Original cell was already a primitive cell.
 

 Routine SETGRP: Setting up the symmetry group for a 
 simple cubic supercell.


 Subroutine GETGRP returns: Found  2 space group operations
 (whereof  2 operations were pure point group operations)
 out of a pool of 48 trial point group operations.


The dynamic configuration has the point symmetry C_1h.


Analysis of constrained symmetry for selective dynamics:
=====================================================================
 Subroutine PRICEL returns:
 Original cell was already a primitive cell.
 

 Routine SETGRP: Setting up the symmetry group for a 
 simple cubic supercell.


 Subroutine GETGRP returns: Found  2 space group operations
 (whereof  2 operations were pure point group operations)
 out of a pool of 48 trial point group operations.


The constrained configuration has the point symmetry C_1h.


 Subroutine INISYM returns: Found  2 space group operations
 (whereof  2 operations are pure point group operations),
 and found     1 'primitive' translations

 
 
 KPOINTS: K-points                                

Automatic generation of k-mesh.
Space group operators:
 irot       det(A)        alpha          n_x          n_y          n_z        tau_x        tau_y        tau_z
    1     1.000000     0.000000     1.000000     0.000000     0.000000     0.000000     0.000000     0.000000
    2    -1.000000   180.000000     0.707107     0.707107     0.000000     0.000000     0.000000     0.000000
 
 Subroutine IBZKPT returns following result:
 ===========================================
 
 Found      1 irreducible k-points:
 
 Following reciprocal coordinates:
            Coordinates               Weight
  0.000000  0.000000  0.000000      1.000000
 
 Following cartesian coordinates:
            Coordinates               Weight
  0.000000  0.000000  0.000000      1.000000
 


--------------------------------------------------------------------------------------------------------




 Dimension of arrays:
   k-points           NKPTS =      1   k-points in BZ     NKDIM =      1   number of bands    NBANDS=    336
   number of dos      NEDOS =    301   number of ions     NIONS =     57
   non local maximal  LDIM  =      6   non local SUM 2l+1 LMDIM =     18
   total plane-waves  NPLWV = ******
   max r-space proj   IRMAX =   1847   max aug-charges    IRDMAX=   6262
   dimension x,y,z NGX =   150 NGY =  150 NGZ =  150
   dimension x,y,z NGXF=   300 NGYF=  300 NGZF=  300
   support grid    NGXF=   300 NGYF=  300 NGZF=  300
   ions per type =              55   1   1
   NGX,Y,Z   is equivalent  to a cutoff of   8.31,  8.31,  8.31 a.u.
   NGXF,Y,Z  is equivalent  to a cutoff of  16.62, 16.62, 16.62 a.u.

 SYSTEM =  6_Pd100_top_free_z(O)                   
 POSCAR =  Pd55PES                                 

 Startparameter for this run:
   NWRITE =      2    write-flag & timer
   PREC   = normal    normal or accurate (medium, high low for compatibility)
   ISTART =      0    job   : 0-new  1-cont  2-samecut
   ICHARG =      2    charge: 1-file 2-atom 10-const
   ISPIN  =      1    spin polarized calculation?
   LNONCOLLINEAR =      F non collinear calculations
   LSORBIT =      F    spin-orbit coupling
   INIWAV =      1    electr: 0-lowe 1-rand  2-diag
   LASPH  =      F    aspherical Exc in radial PAW
   METAGGA=      F    non-selfconsistent MetaGGA calc.

 Electronic Relaxation 1
   ENCUT  =  400.0 eV  29.40 Ry    5.42 a.u.  48.92 48.92 48.92*2*pi/ulx,y,z
   ENINI  =  400.0     initial cutoff
   ENAUG  =  644.9 eV  augmentation charge cutoff
   NELM   =    100;   NELMIN=  6; NELMDL= -5     # of ELM steps 
   EDIFF  = 0.1E-03   stopping-criterion for ELM
   LREAL  =      T    real-space projection
   NLSPLINE    = F    spline interpolate recip. space projectors
   LCOMPAT=      F    compatible to vasp.4.4
   GGA_COMPAT  = T    GGA compatible to vasp.4.4-vasp.4.6
   LMAXPAW     = -100 max onsite density
   LMAXMIX     =    2 max onsite mixed and CHGCAR
   VOSKOWN=      0    Vosko Wilk Nusair interpolation
   ROPT   =   -0.00050  -0.00050  -0.00050
 Ionic relaxation
   EDIFFG = -.5E-01   stopping-criterion for IOM
   NSW    =      0    number of steps for IOM
   NBLOCK =      1;   KBLOCK =      1    inner block; outer block 
   IBRION =     -1    ionic relax: 0-MD 1-quasi-New 2-CG
   NFREE  =      1    steps in history (QN), initial steepest desc. (CG)
   ISIF   =      2    stress and relaxation
   IWAVPR =     10    prediction:  0-non 1-charg 2-wave 3-comb
   ISYM   =      2    0-nonsym 1-usesym 2-fastsym
   LCORR  =      T    Harris-Foulkes like correction to forces

   POTIM  = 0.5000    time-step for ionic-motion
   TEIN   =    0.0    initial temperature
   TEBEG  =    0.0;   TEEND  =   0.0 temperature during run
   SMASS  =  -3.00    Nose mass-parameter (am)
   estimated Nose-frequenzy (Omega)   =  0.10E-29 period in steps =****** mass=  -0.206E-25a.u.
   SCALEE = 1.0000    scale energy and forces
   NPACO  =    256;   APACO  = 16.0  distance and # of slots for P.C.
   PSTRESS=    0.0 pullay stress

  Mass of Ions in am
   POMASS = 106.42 12.01 16.00
  Ionic Valenz
   ZVAL   =  10.00  4.00  6.00
  Atomic Wigner-Seitz radii
   RWIGS  =  -1.00 -1.00 -1.00
  virtual crystal weights 
   VCA    =   1.00  1.00  1.00
   NELECT =     560.0000    total number of electrons
   NUPDOWN=      -1.0000    fix difference up-down

 DOS related values:
   EMIN   =  10.00;   EMAX   =-10.00  energy-range for DOS
   EFERMI =   0.00
   ISMEAR =     2;   SIGMA  =   0.20  broadening in eV -4-tet -1-fermi 0-gaus

 Electronic relaxation 2 (details)
   IALGO  =     68    algorithm
   LDIAG  =      T    sub-space diagonalisation (order eigenvalues)
   LSUBROT=      F    optimize rotation matrix (better conditioning)
   TURBO    =      0    0=normal 1=particle mesh
   IRESTART =      0    0=no restart 2=restart with 2 vectors
   NREBOOT  =      0    no. of reboots
   NMIN     =      0    reboot dimension
   EREF     =   0.00    reference energy to select bands
   IMIX   =      4    mixing-type and parameters
     AMIX     =   0.40;   BMIX     =  1.00
     AMIX_MAG =   1.60;   BMIX_MAG =  1.00
     AMIN     =   0.10
     WC   =   100.;   INIMIX=   1;  MIXPRE=   1;  MAXMIX= -45

 Intra band minimization:
   WEIMIN = 0.0000     energy-eigenvalue tresh-hold
   EBREAK =  0.74E-07  absolut break condition
   DEPER  =   0.30     relativ break condition  

   TIME   =   0.40     timestep for ELM

  volume/ion in A,a.u.               =     473.68      3196.58
  Fermi-wavevector in a.u.,A,eV,Ry     =   0.449797  0.849992  2.752691  0.202317
  Thomas-Fermi vector in A             =   1.430086
 
 Write flags
   LWAVE        =      F    write WAVECAR
   LDOWNSAMPLE  =      F    k-point downsampling of WAVECAR
   LCHARG       =      F    write CHGCAR
   LVTOT        =      F    write LOCPOT, total local potential
   LVHAR        =      F    write LOCPOT, Hartree potential only
   LELF         =      F    write electronic localiz. function (ELF)
   LORBIT       =      0    0 simple, 1 ext, 2 COOP (PROOUT), +10 PAW based schemes


 Dipole corrections
   LMONO  =      F    monopole corrections only (constant potential shift)
   LDIPOL =      F    correct potential (dipole corrections)
   IDIPOL =      0    1-x, 2-y, 3-z, 4-all directions 
   EPSILON=  1.0000000 bulk dielectric constant

 Exchange correlation treatment:
   GGA     =    RP    GGA type
   LEXCH   =     9    internal setting for exchange type
   VOSKOWN=      0    Vosko Wilk Nusair interpolation
   LHFCALC =     F    Hartree Fock is set to
   LHFONE  =     F    Hartree Fock one center treatment
   AEXX    =    0.0000 exact exchange contribution

 Linear response parameters
   LEPSILON=     F    determine dielectric tensor
   LRPA    =     F    only Hartree local field effects (RPA)
   LNABLA  =     F    use nabla operator in PAW spheres
   LVEL    =     F    velocity operator in full k-point grid
   LINTERFAST=   F  fast interpolation
   KINTER  =     0    interpolate to denser k-point grid
   CSHIFT  =0.1000    complex shift for real part using Kramers Kronig
   OMEGAMAX=  -1.0    maximum frequency
   DEG_THRESHOLD= 0.2000000E-02 threshold for treating states as degnerate
   RTIME   =   -0.100 relaxation time in fs
  (WPLASMAI=    0.000 imaginary part of plasma frequency in eV, 0.658/RTIME)
   DFIELD  = 0.0000000 0.0000000 0.0000000 field for delta impulse in time
 
 Orbital magnetization related:
   ORBITALMAG=     F  switch on orbital magnetization
   LCHIMAG   =     F  perturbation theory with respect to B field
   DQ        =  0.001000  dq finite difference perturbation B field
   LLRAUG    =     F  two centre corrections for induced B field



--------------------------------------------------------------------------------------------------------


 Static calculation
 charge density and potential will be updated during run
 non-spin polarized calculation
 RMM-DIIS sequential band-by-band and
  variant of blocked Davidson during initial phase
 perform sub-space diagonalisation
    before iterative eigenvector-optimisation
 modified Broyden-mixing scheme, WC =      100.0
 initial mixing is a Kerker type mixing with AMIX =  0.4000 and BMIX =      1.0000
 Hartree-type preconditioning will be used
 using additional bands           56
 real space projection scheme for non local part
 use partial core corrections
 calculate Harris-corrections to forces 
   (improved forces if not selfconsistent)
 use gradient corrections 
 use of overlap-Matrix (Vanderbilt PP)
 Methfessel and Paxton  Order N= 2 SIGMA  =   0.20


--------------------------------------------------------------------------------------------------------


  energy-cutoff  :      400.00
  volume of cell :    27000.00
      direct lattice vectors                 reciprocal lattice vectors
    30.000000000  0.000000000  0.000000000     0.033333333  0.000000000  0.000000000
     0.000000000 30.000000000  0.000000000     0.000000000  0.033333333  0.000000000
     0.000000000  0.000000000 30.000000000     0.000000000  0.000000000  0.033333333

  length of vectors
    30.000000000 30.000000000 30.000000000     0.033333333  0.033333333  0.033333333


 
 k-points in units of 2pi/SCALE and weight: K-points                                
   0.00000000  0.00000000  0.00000000       1.000
 
 k-points in reciprocal lattice and weights: K-points                                
   0.00000000  0.00000000  0.00000000       1.000
 
 position of ions in fractional coordinates (direct lattice) 
   0.44576020  0.32826710  0.41691983
   0.67173288  0.55423978  0.41691983
   0.55423980  0.32826710  0.41691983
   0.32826712  0.55423978  0.41691983
   0.50000000  0.38250690  0.34021317
   0.50000000  0.38250690  0.65978680
   0.50000000  0.27609440  0.50000000
   0.27609443  0.49999998  0.50000000
   0.72390557  0.49999998  0.50000000
   0.50000000  0.72390555  0.50000000
   0.61195280  0.38804720  0.34167483
   0.61195280  0.38804720  0.65832513
   0.38804722  0.61195278  0.34167483
   0.38804722  0.61195278  0.65832513
   0.38804720  0.38804720  0.34167483
   0.38804720  0.38804720  0.65832513
   0.61195278  0.61195278  0.34167483
   0.61195278  0.61195278  0.65832513
   0.44576020  0.32826710  0.58308023
   0.67173288  0.55423978  0.58308023
   0.55791699  0.44208301  0.41809300
   0.32826705  0.44576024  0.41691983
   0.55423973  0.67173293  0.41691983
   0.55423980  0.32826710  0.58308023
   0.32826712  0.55423978  0.58308023
   0.67173295  0.44576024  0.41691983
   0.44576027  0.67173293  0.41691983
   0.44208301  0.44208301  0.41809300
   0.50000000  0.38416601  0.50000000
   0.61749315  0.50000005  0.34021317
   0.61749315  0.50000005  0.65978680
   0.38250685  0.50000005  0.34021317
   0.38250685  0.50000005  0.65978680
   0.38317830  0.38317830  0.50000000
   0.61682172  0.61682172  0.50000000
   0.61682170  0.38317830  0.50000000
   0.38317828  0.61682172  0.50000000
   0.50000000  0.50000000  0.33478917
   0.50000000  0.50000000  0.66521087
   0.32826705  0.44576024  0.58308023
   0.55423973  0.67173293  0.58308023
   0.55791699  0.44208301  0.58190703
   0.44208298  0.55791702  0.41809300
   0.44208301  0.44208301  0.58190703
   0.67173295  0.44576024  0.58308023
   0.44576027  0.67173293  0.58308023
   0.55791702  0.55791702  0.41809300
   0.38416599  0.50000002  0.50000000
   0.61583401  0.50000002  0.50000000
   0.50000000  0.61749319  0.34021317
   0.50000000  0.61749319  0.65978680
   0.50000000  0.50000000  0.50000000
   0.44208298  0.55791702  0.58190703
   0.55791702  0.55791702  0.58190703
   0.50000000  0.61583404  0.50000000
   0.64179870  0.35820130  0.45185613
   0.66765133  0.33234867  0.44307857
 
 position of ions in cartesian coordinates  (Angst):
  13.37280588  9.84801292 12.50759500
  20.15198637 16.62719342 12.50759500
  16.62719412  9.84801292 12.50759500
   9.84801363 16.62719342 12.50759500
  15.00000000 11.47520705 10.20639500
  15.00000000 11.47520705 19.79360400
  15.00000000  8.28283206 15.00000000
   8.28283277 14.99999929 15.00000000
  21.71716723 14.99999929 15.00000000
  15.00000000 21.71716652 14.99999999
  18.35858397 11.64141603 10.25024500
  18.35858397 11.64141603 19.74975399
  11.64141674 18.35858326 10.25024500
  11.64141674 18.35858326 19.74975400
  11.64141603 11.64141603 10.25024500
  11.64141603 11.64141603 19.74975400
  18.35858326 18.35858326 10.25024500
  18.35858326 18.35858326 19.74975400
  13.37280588  9.84801291 17.49240700
  20.15198638 16.62719341 17.49240700
  16.73750985 13.26249015 12.54279000
   9.84801151 13.37280729 12.50759500
  16.62719200 20.15198779 12.50759500
  16.62719412  9.84801292 17.49240700
   9.84801363 16.62719342 17.49240700
  20.15198849 13.37280729 12.50759500
  13.37280800 20.15198779 12.50759500
  13.26249015 13.26249015 12.54279000
  15.00000000 11.52498029 15.00000000
  18.52479437 15.00000140 10.20639500
  18.52479437 15.00000141 19.79360400
  11.47520562 15.00000141 10.20639501
  11.47520563 15.00000141 19.79360400
  11.49534898 11.49534898 15.00000000
  18.50465172 18.50465172 15.00000000
  18.50465102 11.49534898 15.00000000
  11.49534828 18.50465172 15.00000000
  15.00000000 15.00000000 10.04367500
  15.00000000 15.00000000 19.95632599
   9.84801151 13.37280729 17.49240700
  16.62719200 20.15198779 17.49240700
  16.73750985 13.26249015 17.45721100
  13.26248944 16.73751056 12.54279001
  13.26249015 13.26249015 17.45721100
  20.15198849 13.37280729 17.49240699
  13.37280800 20.15198779 17.49240700
  16.73751056 16.73751056 12.54279000
  11.52497959 15.00000071 15.00000000
  18.47502041 15.00000071 15.00000000
  14.99999999 18.52479579 10.20639500
  15.00000000 18.52479578 19.79360400
  15.00000000 15.00000000 15.00000000
  13.26248944 16.73751057 17.45721101
  16.73751056 16.73751057 17.45721100
  15.00000000 18.47502112 15.00000000
  19.25396100 10.74603900 13.55568400
  20.02954000  9.97046000 13.29235700
 


--------------------------------------------------------------------------------------------------------


 k-point  1 :   0.0000 0.0000 0.0000  plane waves:  490521

 maximum and minimum number of plane-waves per node :    490521   490521

 maximum number of plane-waves:    490521
 maximum index in each direction: 
   IXMAX=   48   IYMAX=   48   IZMAX=   48
   IXMIN=  -48   IYMIN=  -48   IZMIN=  -48


 serial   3D FFT for wavefunctions
 parallel 3D FFT for charge:
    minimum data exchange during FFTs selected (reduces bandwidth)


 total amount of memory used by VASP MPI-rank0  5486941. kBytes
=======================================================================

   base      :      30000. kBytes
   nonlr-proj:      17126. kBytes
   fftplans  :     924480. kBytes
   grid      :    1872000. kBytes
   one-center:        886. kBytes
   wavefun   :    2642449. kBytes
 
     INWAV:  cpu time    0.0001: real time    0.0005
 Broyden mixing: mesh for mixing (old mesh)
   NGX = 97   NGY = 97   NGZ = 97
  (NGX  =300   NGY  =300   NGZ  =300)
  gives a total of 912673 points

 initial charge density was supplied:
 charge density of overlapping atoms calculated
 number of electron     560.0000000 magnetization 
 keeping initial charge density in first step


--------------------------------------------------------------------------------------------------------


 Maximum index for non-local projection operator         1763
 Maximum index for augmentation-charges         5898 (set IRDMAX)


--------------------------------------------------------------------------------------------------------


 First call to EWALD:  gamma=   0.059
 Maximum number of real-space cells 3x 3x 3
 Maximum number of reciprocal cells 3x 3x 3

    FEWALD:  cpu time    0.0155: real time    0.0155


--------------------------------------- Iteration      1(   1)  ---------------------------------------


    POTLOK:  cpu time   14.3092: real time   14.3137
    SETDIJ:  cpu time    0.1142: real time    0.1142
     EDDAV:  cpu time  435.2121: real time  435.2924
       DOS:  cpu time    0.0015: real time    0.0015
    --------------------------------------------
      LOOP:  cpu time  449.6369: real time  449.7218

 eigenvalue-minimisations  :   688
 total energy-change (2. order) : 0.4393282E+04  (-0.1005399E+05)
 number of electron     560.0000000 magnetization 
 augmentation part      560.0000000 magnetization 

 Free energy of the ion-electron system (eV)
  ---------------------------------------------------
  alpha Z        PSCENC =        75.25431677
  Ewald energy   TEWEN  =    139391.92843501
  -Hartree energ DENC   =   -182747.06594258
  -exchange      EXHF   =         0.00000000
  -V(xc)+E(xc)   XCENC  =     -1702.45992333
  PAW double counting   =     44873.02882129   -41398.84523641
  entropy T*S    EENTRO =         0.00112019
  eigenvalues    EBANDS =       814.93473238
  atomic energy  EATOM  =     45086.50549395
  Solvation  Ediel_sol  =         0.00000000
  ---------------------------------------------------
  free energy    TOTEN  =      4393.28181728 eV

  energy without entropy =     4393.28069709  energy(sigma->0) =     4393.28153723


--------------------------------------------------------------------------------------------------------




--------------------------------------- Iteration      1(   2)  ---------------------------------------


     EDDAV:  cpu time  736.2843: real time  736.3170
       DOS:  cpu time    0.0015: real time    0.0015
    --------------------------------------------
      LOOP:  cpu time  736.2858: real time  736.3185

 eigenvalue-minimisations  :  1224
 total energy-change (2. order) :-0.2382580E+04  (-0.2142398E+04)
 number of electron     560.0000000 magnetization 
 augmentation part      560.0000000 magnetization 

 Free energy of the ion-electron system (eV)
  ---------------------------------------------------
  alpha Z        PSCENC =        75.25431677
  Ewald energy   TEWEN  =    139391.92843501
  -Hartree energ DENC   =   -182747.06594258
  -exchange      EXHF   =         0.00000000
  -V(xc)+E(xc)   XCENC  =     -1702.45992333
  PAW double counting   =     44873.02882129   -41398.84523641
  entropy T*S    EENTRO =        -0.00166297
  eigenvalues    EBANDS =     -1567.64216448
  atomic energy  EATOM  =     45086.50549395
  Solvation  Ediel_sol  =         0.00000000
  ---------------------------------------------------
  free energy    TOTEN  =      2010.70213725 eV

  energy without entropy =     2010.70380023  energy(sigma->0) =     2010.70255299


--------------------------------------------------------------------------------------------------------




--------------------------------------- Iteration      1(   3)  ---------------------------------------


     EDDAV:  cpu time  613.8301: real time  613.8614
       DOS:  cpu time    0.0011: real time    0.0011
    --------------------------------------------
      LOOP:  cpu time  613.8312: real time  613.8626

 eigenvalue-minimisations  :  1008
 total energy-change (2. order) :-0.1782888E+04  (-0.1677310E+04)
 number of electron     560.0000000 magnetization 
 augmentation part      560.0000000 magnetization 

 Free energy of the ion-electron system (eV)
  ---------------------------------------------------
  alpha Z        PSCENC =        75.25431677
  Ewald energy   TEWEN  =    139391.92843501
  -Hartree energ DENC   =   -182747.06594258
  -exchange      EXHF   =         0.00000000
  -V(xc)+E(xc)   XCENC  =     -1702.45992333
  PAW double counting   =     44873.02882129   -41398.84523641
  entropy T*S    EENTRO =        -0.01224137
  eigenvalues    EBANDS =     -3350.51922578
  atomic energy  EATOM  =     45086.50549395
  Solvation  Ediel_sol  =         0.00000000
  ---------------------------------------------------
  free energy    TOTEN  =       227.81449756 eV

  energy without entropy =      227.82673893  energy(sigma->0) =      227.81755790


--------------------------------------------------------------------------------------------------------




--------------------------------------- Iteration      1(   4)  ---------------------------------------


     EDDAV:  cpu time  475.4825: real time  475.5153
       DOS:  cpu time    0.0012: real time    0.0012
    --------------------------------------------
      LOOP:  cpu time  475.4837: real time  475.5165

 eigenvalue-minimisations  :   824
 total energy-change (2. order) :-0.3626571E+03  (-0.3066740E+03)
 number of electron     560.0000000 magnetization 
 augmentation part      560.0000000 magnetization 

 Free energy of the ion-electron system (eV)
  ---------------------------------------------------
  alpha Z        PSCENC =        75.25431677
  Ewald energy   TEWEN  =    139391.92843501
  -Hartree energ DENC   =   -182747.06594258
  -exchange      EXHF   =         0.00000000
  -V(xc)+E(xc)   XCENC  =     -1702.45992333
  PAW double counting   =     44873.02882129   -41398.84523641
  entropy T*S    EENTRO =        -0.04839742
  eigenvalues    EBANDS =     -3713.14012791
  atomic energy  EATOM  =     45086.50549395
  Solvation  Ediel_sol  =         0.00000000
  ---------------------------------------------------
  free energy    TOTEN  =      -134.84256063 eV

  energy without entropy =     -134.79416321  energy(sigma->0) =     -134.83046127


--------------------------------------------------------------------------------------------------------




--------------------------------------- Iteration      1(   5)  ---------------------------------------


     EDDAV:  cpu time  591.2543: real time  591.2806
       DOS:  cpu time    0.0015: real time    0.0015
    CHARGE:  cpu time   26.7340: real time   26.7354
    MIXING:  cpu time    0.4320: real time    0.4320
    --------------------------------------------
      LOOP:  cpu time  618.4218: real time  618.4496

 eigenvalue-minimisations  :  1064
 total energy-change (2. order) :-0.4510609E+02  (-0.3711661E+02)
 number of electron     559.9999868 magnetization 
 augmentation part      244.9387008 magnetization 

 Broyden mixing:
  rms(total) = 0.17005E+01    rms(broyden)= 0.16998E+01
  rms(prec ) = 0.17966E+01
  weight for this iteration     100.00

 Free energy of the ion-electron system (eV)
  ---------------------------------------------------
  alpha Z        PSCENC =        75.25431677
  Ewald energy   TEWEN  =    139391.92843501
  -Hartree energ DENC   =   -182747.06594258
  -exchange      EXHF   =         0.00000000
  -V(xc)+E(xc)   XCENC  =     -1702.45992333
  PAW double counting   =     44873.02882129   -41398.84523641
  entropy T*S    EENTRO =         0.46947764
  eigenvalues    EBANDS =     -3758.76409319
  atomic energy  EATOM  =     45086.50549395
  Solvation  Ediel_sol  =         0.00000000
  ---------------------------------------------------
  free energy    TOTEN  =      -179.94865084 eV

  energy without entropy =     -180.41812848  energy(sigma->0) =     -180.06602025


--------------------------------------------------------------------------------------------------------




--------------------------------------- Iteration      1(   6)  ---------------------------------------


    POTLOK:  cpu time   14.1552: real time   14.1593
    SETDIJ:  cpu time    0.1195: real time    0.1195
    EDDIAG:  cpu time   81.2132: real time   81.2181
  RMM-DIIS:  cpu time  186.3267: real time  186.3339
    ORTHCH:  cpu time   21.8106: real time   21.8110
       DOS:  cpu time    0.0015: real time    0.0015
    CHARGE:  cpu time   25.7974: real time   25.7979
    MIXING:  cpu time    0.4520: real time    0.4520
    --------------------------------------------
      LOOP:  cpu time  329.8760: real time  329.8932

 eigenvalue-minimisations  :   722
 total energy-change (2. order) : 0.9582251E+00  (-0.6081558E+01)
 number of electron     559.9999892 magnetization 
 augmentation part      240.7219075 magnetization 

 Broyden mixing:
  rms(total) = 0.18432E+01    rms(broyden)= 0.18430E+01
  rms(prec ) = 0.20715E+01
  weight for this iteration     100.00

 eigenvalues of (default mixing * dielectric matrix)
  average eigenvalue GAMMA=   0.4711
  0.4711

 Free energy of the ion-electron system (eV)
  ---------------------------------------------------
  alpha Z        PSCENC =        75.25431677
  Ewald energy   TEWEN  =    139391.92843501
  -Hartree energ DENC   =   -183143.37213747
  -exchange      EXHF   =         0.00000000
  -V(xc)+E(xc)   XCENC  =     -1696.11548339
  PAW double counting   =     45669.38418446   -42169.24947429
  entropy T*S    EENTRO =        -0.32018734
  eigenvalues    EBANDS =     -3393.00557344
  atomic energy  EATOM  =     45086.50549395
  Solvation  Ediel_sol  =         0.00000000
  ---------------------------------------------------
  free energy    TOTEN  =      -178.99042574 eV

  energy without entropy =     -178.67023840  energy(sigma->0) =     -178.91037890


--------------------------------------------------------------------------------------------------------




--------------------------------------- Iteration      1(   7)  ---------------------------------------


    POTLOK:  cpu time   13.2062: real time   13.2085
    SETDIJ:  cpu time    0.1188: real time    0.1188
    EDDIAG:  cpu time   80.3566: real time   80.3594
  RMM-DIIS:  cpu time  214.0600: real time  214.0683
    ORTHCH:  cpu time   21.9499: real time   21.9503
       DOS:  cpu time    0.0015: real time    0.0015
    CHARGE:  cpu time   26.3075: real time   26.3081
    MIXING:  cpu time    0.4772: real time    0.4772
    --------------------------------------------
      LOOP:  cpu time  356.4776: real time  356.4921

 eigenvalue-minimisations  :   814
 total energy-change (2. order) :-0.2996874E+01  (-0.1927333E+01)
 number of electron     559.9999843 magnetization 
 augmentation part      240.2679902 magnetization 

 Broyden mixing:
  rms(total) = 0.22305E+01    rms(broyden)= 0.22303E+01
  rms(prec ) = 0.25722E+01
  weight for this iteration     100.00

 eigenvalues of (default mixing * dielectric matrix)
  average eigenvalue GAMMA=   0.4637
  0.7402  0.1871

 Free energy of the ion-electron system (eV)
  ---------------------------------------------------
  alpha Z        PSCENC =        75.25431677
  Ewald energy   TEWEN  =    139391.92843501
  -Hartree energ DENC   =   -183270.24012065
  -exchange      EXHF   =         0.00000000
  -V(xc)+E(xc)   XCENC  =     -1696.36646248
  PAW double counting   =     45786.41009817   -42282.39521659
  entropy T*S    EENTRO =        -0.18651795
  eigenvalues    EBANDS =     -3272.89732588
  atomic energy  EATOM  =     45086.50549395
  Solvation  Ediel_sol  =         0.00000000
  ---------------------------------------------------
  free energy    TOTEN  =      -181.98729965 eV

  energy without entropy =     -181.80078170  energy(sigma->0) =     -181.94067016


--------------------------------------------------------------------------------------------------------




--------------------------------------- Iteration      1(   8)  ---------------------------------------


    POTLOK:  cpu time   13.1628: real time   13.1662
    SETDIJ:  cpu time    0.1356: real time    0.1356
    EDDIAG:  cpu time   80.4783: real time   80.4809
  RMM-DIIS:  cpu time  199.4052: real time  199.4137
    ORTHCH:  cpu time   21.9676: real time   21.9680
       DOS:  cpu time    0.0015: real time    0.0015
    CHARGE:  cpu time   26.2155: real time   26.2160
    MIXING:  cpu time    0.5028: real time    0.5028
    --------------------------------------------
      LOOP:  cpu time  341.8692: real time  341.8848

 eigenvalue-minimisations  :   756
 total energy-change (2. order) :-0.1007587E+01  (-0.9030159E+00)
 number of electron     559.9999849 magnetization 
 augmentation part      241.0561099 magnetization 

 Broyden mixing:
  rms(total) = 0.25316E+01    rms(broyden)= 0.25312E+01
  rms(prec ) = 0.29700E+01
  weight for this iteration     100.00

 eigenvalues of (default mixing * dielectric matrix)
  average eigenvalue GAMMA=   0.4156
  0.8874  0.2174  0.1421

 Free energy of the ion-electron system (eV)
  ---------------------------------------------------
  alpha Z        PSCENC =        75.25431677
  Ewald energy   TEWEN  =    139391.92843501
  -Hartree energ DENC   =   -183281.58518637
  -exchange      EXHF   =         0.00000000
  -V(xc)+E(xc)   XCENC  =     -1696.20230181
  PAW double counting   =     45894.67858475   -42387.03486414
  entropy T*S    EENTRO =        -0.19514865
  eigenvalues    EBANDS =     -3266.34421569
  atomic energy  EATOM  =     45086.50549395
  Solvation  Ediel_sol  =         0.00000000
  ---------------------------------------------------
  free energy    TOTEN  =      -182.99488618 eV

  energy without entropy =     -182.79973753  energy(sigma->0) =     -182.94609902


--------------------------------------------------------------------------------------------------------




--------------------------------------- Iteration      1(   9)  ---------------------------------------


    POTLOK:  cpu time   13.1739: real time   13.1768
    SETDIJ:  cpu time    0.1189: real time    0.1189
    EDDIAG:  cpu time   80.4655: real time   80.4682
  RMM-DIIS:  cpu time  194.8641: real time  194.8717
    ORTHCH:  cpu time   21.9568: real time   21.9573
       DOS:  cpu time    0.0015: real time    0.0015
    CHARGE:  cpu time   26.7185: real time   26.7191
    MIXING:  cpu time    0.5522: real time    0.5523
    --------------------------------------------
      LOOP:  cpu time  337.8515: real time  337.8657

 eigenvalue-minimisations  :   737
 total energy-change (2. order) : 0.2431526E+01  (-0.5460813E+00)
 number of electron     559.9999866 magnetization 
 augmentation part      241.4543228 magnetization 

 Broyden mixing:
  rms(total) = 0.21588E+01    rms(broyden)= 0.21583E+01
  rms(prec ) = 0.24999E+01
  weight for this iteration     100.00

 eigenvalues of (default mixing * dielectric matrix)
  average eigenvalue GAMMA=   0.3766
  0.9677  0.2726  0.1393  0.1268

 Free energy of the ion-electron system (eV)
  ---------------------------------------------------
  alpha Z        PSCENC =        75.25431677
  Ewald energy   TEWEN  =    139391.92843501
  -Hartree energ DENC   =   -183315.84319066
  -exchange      EXHF   =         0.00000000
  -V(xc)+E(xc)   XCENC  =     -1695.97817893
  PAW double counting   =     45969.25930415   -42459.15284791
  entropy T*S    EENTRO =        -0.21304549
  eigenvalues    EBANDS =     -3232.32364706
  atomic energy  EATOM  =     45086.50549395
  Solvation  Ediel_sol  =         0.00000000
  ---------------------------------------------------
  free energy    TOTEN  =      -180.56336017 eV

  energy without entropy =     -180.35031468  energy(sigma->0) =     -180.51009880


--------------------------------------------------------------------------------------------------------




--------------------------------------- Iteration      1(  10)  ---------------------------------------


    POTLOK:  cpu time   13.3905: real time   13.3916
    SETDIJ:  cpu time    0.1186: real time    0.1186
    EDDIAG:  cpu time   82.3342: real time   82.3372
  RMM-DIIS:  cpu time  196.6560: real time  196.6680
    ORTHCH:  cpu time   22.1949: real time   22.1962
       DOS:  cpu time    0.0016: real time    0.0016
    CHARGE:  cpu time   26.8064: real time   26.8080
    MIXING:  cpu time    0.5579: real time    0.5579
    --------------------------------------------
      LOOP:  cpu time  342.0601: real time  342.0791

 eigenvalue-minimisations  :   726
 total energy-change (2. order) : 0.2596680E+01  (-0.3176511E+00)
 number of electron     559.9999876 magnetization 
 augmentation part      241.5331802 magnetization 

 Broyden mixing:
  rms(total) = 0.16115E+01    rms(broyden)= 0.16111E+01
  rms(prec ) = 0.19021E+01
  weight for this iteration     100.00

 eigenvalues of (default mixing * dielectric matrix)
  average eigenvalue GAMMA=   0.3703
  1.0897  0.3417  0.1631  0.1631  0.0940

 Free energy of the ion-electron system (eV)
  ---------------------------------------------------
  alpha Z        PSCENC =        75.25431677
  Ewald energy   TEWEN  =    139391.92843501
  -Hartree energ DENC   =   -183354.57995084
  -exchange      EXHF   =         0.00000000
  -V(xc)+E(xc)   XCENC  =     -1695.76374531
  PAW double counting   =     46020.49719246   -42508.58607088
  entropy T*S    EENTRO =        -0.08009646
  eigenvalues    EBANDS =     -3193.14225521
  atomic energy  EATOM  =     45086.50549395
  Solvation  Ediel_sol  =         0.00000000
  ---------------------------------------------------
  free energy    TOTEN  =      -177.96668052 eV

  energy without entropy =     -177.88658405  energy(sigma->0) =     -177.94665640


--------------------------------------------------------------------------------------------------------




--------------------------------------- Iteration      1(  11)  ---------------------------------------


    POTLOK:  cpu time   13.2604: real time   13.2633
    SETDIJ:  cpu time    0.1188: real time    0.1188
    EDDIAG:  cpu time   82.3045: real time   82.3120
  RMM-DIIS:  cpu time  198.9877: real time  199.0037
    ORTHCH:  cpu time   22.0535: real time   22.0548
       DOS:  cpu time    0.0015: real time    0.0015
    CHARGE:  cpu time   26.9639: real time   26.9654
    MIXING:  cpu time    0.6065: real time    0.6065
    --------------------------------------------
      LOOP:  cpu time  344.2969: real time  344.3260

 eigenvalue-minimisations  :   724
 total energy-change (2. order) : 0.7231268E+00  (-0.2410128E+00)
 number of electron     559.9999861 magnetization 
 augmentation part      241.7394736 magnetization 

 Broyden mixing:
  rms(total) = 0.16168E+01    rms(broyden)= 0.16164E+01
  rms(prec ) = 0.19576E+01
  weight for this iteration     100.00

 eigenvalues of (default mixing * dielectric matrix)
  average eigenvalue GAMMA=   0.3691
  1.2092  0.4378  0.1814  0.1814  0.1241  0.0808

 Free energy of the ion-electron system (eV)
  ---------------------------------------------------
  alpha Z        PSCENC =        75.25431677
  Ewald energy   TEWEN  =    139391.92843501
  -Hartree energ DENC   =   -183377.09333691
  -exchange      EXHF   =         0.00000000
  -V(xc)+E(xc)   XCENC  =     -1695.40910009
  PAW double counting   =     46075.85204261   -42561.74134956
  entropy T*S    EENTRO =         0.04206626
  eigenvalues    EBANDS =     -3172.58212181
  atomic energy  EATOM  =     45086.50549395
  Solvation  Ediel_sol  =         0.00000000
  ---------------------------------------------------
  free energy    TOTEN  =      -177.24355376 eV

  energy without entropy =     -177.28562002  energy(sigma->0) =     -177.25407033


--------------------------------------------------------------------------------------------------------




--------------------------------------- Iteration      1(  12)  ---------------------------------------


    POTLOK:  cpu time   13.5280: real time   13.5318
    SETDIJ:  cpu time    0.1188: real time    0.1188
    EDDIAG:  cpu time   83.0154: real time   83.0217
  RMM-DIIS:  cpu time  211.3463: real time  211.3646
    ORTHCH:  cpu time   22.9414: real time   22.9428
       DOS:  cpu time    0.0016: real time    0.0016
    CHARGE:  cpu time   29.1615: real time   29.1632
    MIXING:  cpu time    0.6887: real time    0.6887
    --------------------------------------------
      LOOP:  cpu time  360.8018: real time  360.8331

 eigenvalue-minimisations  :   726
 total energy-change (2. order) :-0.6255131E+00  (-0.1751100E+00)
 number of electron     559.9999881 magnetization 
 augmentation part      241.5834372 magnetization 

 Broyden mixing:
  rms(total) = 0.20210E+01    rms(broyden)= 0.20206E+01
  rms(prec ) = 0.23566E+01
  weight for this iteration     100.00

 eigenvalues of (default mixing * dielectric matrix)
  average eigenvalue GAMMA=   0.3729
  1.3600  0.5718  0.1939  0.1939  0.1201  0.0854  0.0854

 Free energy of the ion-electron system (eV)
  ---------------------------------------------------
  alpha Z        PSCENC =        75.25431677
  Ewald energy   TEWEN  =    139391.92843501
  -Hartree energ DENC   =   -183408.93041669
  -exchange      EXHF   =         0.00000000
  -V(xc)+E(xc)   XCENC  =     -1695.01751303
  PAW double counting   =     46128.17973922   -42611.83606524
  entropy T*S    EENTRO =        -0.07313652
  eigenvalues    EBANDS =     -3143.87992030
  atomic energy  EATOM  =     45086.50549395
  Solvation  Ediel_sol  =         0.00000000
  ---------------------------------------------------
  free energy    TOTEN  =      -177.86906684 eV

  energy without entropy =     -177.79593031  energy(sigma->0) =     -177.85078270


--------------------------------------------------------------------------------------------------------




--------------------------------------- Iteration      1(  13)  ---------------------------------------


    POTLOK:  cpu time   14.2796: real time   14.2825
    SETDIJ:  cpu time    0.1195: real time    0.1195
    EDDIAG:  cpu time   88.4192: real time   88.4272
  RMM-DIIS:  cpu time  266.7771: real time  266.8143
    ORTHCH:  cpu time   26.4637: real time   26.4643
       DOS:  cpu time    0.0017: real time    0.0017
    CHARGE:  cpu time   34.8033: real time   34.8041
    MIXING:  cpu time    0.8157: real time    0.8157
    --------------------------------------------
      LOOP:  cpu time  431.6798: real time  431.7294

 eigenvalue-minimisations  :   715
 total energy-change (2. order) : 0.9221593E+00  (-0.1819985E+00)
 number of electron     559.9999844 magnetization 
 augmentation part      241.4607635 magnetization 

 Broyden mixing:
  rms(total) = 0.15313E+01    rms(broyden)= 0.15309E+01
  rms(prec ) = 0.17542E+01
  weight for this iteration     100.00

 eigenvalues of (default mixing * dielectric matrix)
  average eigenvalue GAMMA=   0.3705
  1.4765  0.6607  0.2069  0.2069  0.1286  0.1286  0.0781  0.0781

 Free energy of the ion-electron system (eV)
  ---------------------------------------------------
  alpha Z        PSCENC =        75.25431677
  Ewald energy   TEWEN  =    139391.92843501
  -Hartree energ DENC   =   -183449.63311943
  -exchange      EXHF   =         0.00000000
  -V(xc)+E(xc)   XCENC  =     -1694.57806442
  PAW double counting   =     46189.00318050   -42670.10553280
  entropy T*S    EENTRO =         0.07541308
  eigenvalues    EBANDS =     -3105.39703020
  atomic energy  EATOM  =     45086.50549395
  Solvation  Ediel_sol  =         0.00000000
  ---------------------------------------------------
  free energy    TOTEN  =      -176.94690753 eV

  energy without entropy =     -177.02232061  energy(sigma->0) =     -176.96576080


--------------------------------------------------------------------------------------------------------




--------------------------------------- Iteration      1(  14)  ---------------------------------------


    POTLOK:  cpu time   15.0503: real time   15.0527
    SETDIJ:  cpu time    0.1194: real time    0.1194
    EDDIAG:  cpu time   82.8185: real time   82.8215
  RMM-DIIS:  cpu time  222.6282: real time  222.6400
    ORTHCH:  cpu time   22.9368: real time   22.9387
       DOS:  cpu time    0.0016: real time    0.0016
    CHARGE:  cpu time   30.2872: real time   30.2894
    MIXING:  cpu time    0.8639: real time    0.8640
    --------------------------------------------
      LOOP:  cpu time  374.7059: real time  374.7273

 eigenvalue-minimisations  :   719
 total energy-change (2. order) : 0.7567454E+00  (-0.1158547E+00)
 number of electron     559.9999867 magnetization 
 augmentation part      241.3436204 magnetization 

 Broyden mixing:
  rms(total) = 0.13656E+01    rms(broyden)= 0.13653E+01
  rms(prec ) = 0.15857E+01
  weight for this iteration     100.00

 eigenvalues of (default mixing * dielectric matrix)
  average eigenvalue GAMMA=   0.3543
  1.5384  0.7046  0.2094  0.2094  0.1257  0.1257  0.1162  0.0827  0.0767

 Free energy of the ion-electron system (eV)
  ---------------------------------------------------
  alpha Z        PSCENC =        75.25431677
  Ewald energy   TEWEN  =    139391.92843501
  -Hartree energ DENC   =   -183483.17820388
  -exchange      EXHF   =         0.00000000
  -V(xc)+E(xc)   XCENC  =     -1694.22056659
  PAW double counting   =     46233.90327619   -42713.03520354
  entropy T*S    EENTRO =         0.05727879
  eigenvalues    EBANDS =     -3073.40498881
  atomic energy  EATOM  =     45086.50549395
  Solvation  Ediel_sol  =         0.00000000
  ---------------------------------------------------
  free energy    TOTEN  =      -176.19016211 eV

  energy without entropy =     -176.24744090  energy(sigma->0) =     -176.20448180


--------------------------------------------------------------------------------------------------------




--------------------------------------- Iteration      1(  15)  ---------------------------------------


    POTLOK:  cpu time   15.6594: real time   15.6611
    SETDIJ:  cpu time    0.1195: real time    0.1195
    EDDIAG:  cpu time   83.4593: real time   83.4683
  RMM-DIIS:  cpu time  220.8585: real time  220.8814
    ORTHCH:  cpu time   23.5979: real time   23.5996
       DOS:  cpu time    0.0017: real time    0.0017
    CHARGE:  cpu time   29.3951: real time   29.3970
    MIXING:  cpu time    0.7233: real time    0.7234
    --------------------------------------------
      LOOP:  cpu time  373.8147: real time  373.8520

 eigenvalue-minimisations  :   714
 total energy-change (2. order) : 0.3285397E+00  (-0.6175196E-01)
 number of electron     559.9999884 magnetization 
 augmentation part      241.2144721 magnetization 

 Broyden mixing:
  rms(total) = 0.89064E+00    rms(broyden)= 0.89030E+00
  rms(prec ) = 0.10277E+01
  weight for this iteration     100.00

 eigenvalues of (default mixing * dielectric matrix)
  average eigenvalue GAMMA=   0.3512
  1.6257  0.7370  0.2693  0.1874  0.1874  0.1339  0.1339  0.0866  0.0866  0.0646

 Free energy of the ion-electron system (eV)
  ---------------------------------------------------
  alpha Z        PSCENC =        75.25431677
  Ewald energy   TEWEN  =    139391.92843501
  -Hartree energ DENC   =   -183503.18904078
  -exchange      EXHF   =         0.00000000
  -V(xc)+E(xc)   XCENC  =     -1693.99192067
  PAW double counting   =     46257.59887589   -42735.50764582
  entropy T*S    EENTRO =        -0.04298671
  eigenvalues    EBANDS =     -3054.41715007
  atomic energy  EATOM  =     45086.50549395
  Solvation  Ediel_sol  =         0.00000000
  ---------------------------------------------------
  free energy    TOTEN  =      -175.86162243 eV

  energy without entropy =     -175.81863572  energy(sigma->0) =     -175.85087575


--------------------------------------------------------------------------------------------------------




--------------------------------------- Iteration      1(  16)  ---------------------------------------


    POTLOK:  cpu time   13.2035: real time   13.2049
    SETDIJ:  cpu time    0.1186: real time    0.1186
    EDDIAG:  cpu time   82.5189: real time   82.5247
  RMM-DIIS:  cpu time  219.5500: real time  219.5724
    ORTHCH:  cpu time   23.2493: real time   23.2508
       DOS:  cpu time    0.0016: real time    0.0016
    CHARGE:  cpu time   30.1602: real time   30.1624
    MIXING:  cpu time    0.7564: real time    0.7564
    --------------------------------------------
      LOOP:  cpu time  369.5584: real time  369.5917

 eigenvalue-minimisations  :   708
 total energy-change (2. order) : 0.4282085E+00  (-0.4767419E-01)
 number of electron     559.9999875 magnetization 
 augmentation part      241.2196641 magnetization 

 Broyden mixing:
  rms(total) = 0.74482E+00    rms(broyden)= 0.74458E+00
  rms(prec ) = 0.87372E+00
  weight for this iteration     100.00

 eigenvalues of (default mixing * dielectric matrix)
  average eigenvalue GAMMA=   0.3551
  1.7052  0.7890  0.3837  0.2042  0.2042  0.1444  0.1444  0.0947  0.0947  0.0760
  0.0656

 Free energy of the ion-electron system (eV)
  ---------------------------------------------------
  alpha Z        PSCENC =        75.25431677
  Ewald energy   TEWEN  =    139391.92843501
  -Hartree energ DENC   =   -183519.92607440
  -exchange      EXHF   =         0.00000000
  -V(xc)+E(xc)   XCENC  =     -1693.72645640
  PAW double counting   =     46279.41145196   -42756.04570565
  entropy T*S    EENTRO =        -0.03435144
  eigenvalues    EBANDS =     -3038.80052373
  atomic energy  EATOM  =     45086.50549395
  Solvation  Ediel_sol  =         0.00000000
  ---------------------------------------------------
  free energy    TOTEN  =      -175.43341392 eV

  energy without entropy =     -175.39906248  energy(sigma->0) =     -175.42482606


--------------------------------------------------------------------------------------------------------




--------------------------------------- Iteration      1(  17)  ---------------------------------------


    POTLOK:  cpu time   13.2239: real time   13.2257
    SETDIJ:  cpu time    0.1186: real time    0.1186
    EDDIAG:  cpu time   81.7505: real time   81.7565
  RMM-DIIS:  cpu time  201.8235: real time  201.8423
    ORTHCH:  cpu time   23.3750: real time   23.3767
       DOS:  cpu time    0.0016: real time    0.0016
    CHARGE:  cpu time   29.2862: real time   29.2880
    MIXING:  cpu time    0.9274: real time    0.9275
    --------------------------------------------
      LOOP:  cpu time  350.5067: real time  350.5368

 eigenvalue-minimisations  :   702
 total energy-change (2. order) : 0.1430079E+00  (-0.3867438E-01)
 number of electron     559.9999861 magnetization 
 augmentation part      241.1404024 magnetization 

 Broyden mixing:
  rms(total) = 0.59122E+00    rms(broyden)= 0.59097E+00
  rms(prec ) = 0.70278E+00
  weight for this iteration     100.00

 eigenvalues of (default mixing * dielectric matrix)
  average eigenvalue GAMMA=   0.3906
  1.9254  0.9887  0.5412  0.2126  0.2020  0.2020  0.1485  0.1485  0.0892  0.0892
  0.0774  0.0625

 Free energy of the ion-electron system (eV)
  ---------------------------------------------------
  alpha Z        PSCENC =        75.25431677
  Ewald energy   TEWEN  =    139391.92843501
  -Hartree energ DENC   =   -183540.19269777
  -exchange      EXHF   =         0.00000000
  -V(xc)+E(xc)   XCENC  =     -1693.43593233
  PAW double counting   =     46297.95194232   -42773.30713572
  entropy T*S    EENTRO =        -0.04314307
  eigenvalues    EBANDS =     -3019.95168519
  atomic energy  EATOM  =     45086.50549395
  Solvation  Ediel_sol  =         0.00000000
  ---------------------------------------------------
  free energy    TOTEN  =      -175.29040603 eV

  energy without entropy =     -175.24726296  energy(sigma->0) =     -175.27962027


--------------------------------------------------------------------------------------------------------




--------------------------------------- Iteration      1(  18)  ---------------------------------------


    POTLOK:  cpu time   14.0699: real time   14.0724
    SETDIJ:  cpu time    0.1196: real time    0.1196
    EDDIAG:  cpu time   88.9994: real time   89.0086
  RMM-DIIS:  cpu time  189.8402: real time  189.8539
    ORTHCH:  cpu time   22.1634: real time   22.1638
       DOS:  cpu time    0.0016: real time    0.0016
    CHARGE:  cpu time   27.5806: real time   27.5811
    MIXING:  cpu time    0.9122: real time    0.9122
    --------------------------------------------
      LOOP:  cpu time  343.6870: real time  343.7134

 eigenvalue-minimisations  :   695
 total energy-change (2. order) :-0.1983624E+00  (-0.3820233E-01)
 number of electron     559.9999871 magnetization 
 augmentation part      241.0439667 magnetization 

 Broyden mixing:
  rms(total) = 0.91138E+00    rms(broyden)= 0.91117E+00
  rms(prec ) = 0.10531E+01
  weight for this iteration     100.00

 eigenvalues of (default mixing * dielectric matrix)
  average eigenvalue GAMMA=   0.3958
  2.0697  1.1253  0.5400  0.3262  0.1873  0.1873  0.1461  0.1461  0.1043  0.0874
  0.0874  0.0753  0.0623

 Free energy of the ion-electron system (eV)
  ---------------------------------------------------
  alpha Z        PSCENC =        75.25431677
  Ewald energy   TEWEN  =    139391.92843501
  -Hartree energ DENC   =   -183571.62091757
  -exchange      EXHF   =         0.00000000
  -V(xc)+E(xc)   XCENC  =     -1692.92456360
  PAW double counting   =     46323.02096121   -42796.20376676
  entropy T*S    EENTRO =        -0.00902333
  eigenvalues    EBANDS =     -2991.43970408
  atomic energy  EATOM  =     45086.50549395
  Solvation  Ediel_sol  =         0.00000000
  ---------------------------------------------------
  free energy    TOTEN  =      -175.48876839 eV

  energy without entropy =     -175.47974506  energy(sigma->0) =     -175.48651256


--------------------------------------------------------------------------------------------------------




--------------------------------------- Iteration      1(  19)  ---------------------------------------


    POTLOK:  cpu time   13.4964: real time   13.5003
    SETDIJ:  cpu time    0.1189: real time    0.1189
    EDDIAG:  cpu time   83.2326: real time   83.2358
  RMM-DIIS:  cpu time  212.1311: real time  212.1405
    ORTHCH:  cpu time   23.3795: real time   23.3800
       DOS:  cpu time    0.0016: real time    0.0016
    CHARGE:  cpu time   29.6702: real time   29.6709
    MIXING:  cpu time    1.1542: real time    1.1542
    --------------------------------------------
      LOOP:  cpu time  363.1845: real time  363.2023

 eigenvalue-minimisations  :   701
 total energy-change (2. order) : 0.1424558E+00  (-0.2512773E-01)
 number of electron     559.9999867 magnetization 
 augmentation part      240.9899958 magnetization 

 Broyden mixing:
  rms(total) = 0.78895E+00    rms(broyden)= 0.78875E+00
  rms(prec ) = 0.89885E+00
  weight for this iteration     100.00

 eigenvalues of (default mixing * dielectric matrix)
  average eigenvalue GAMMA=   0.3923
  2.1134  1.1835  0.4951  0.4951  0.1998  0.1998  0.1429  0.1429  0.1195  0.0895
  0.0895  0.0624  0.0845  0.0748

 Free energy of the ion-electron system (eV)
  ---------------------------------------------------
  alpha Z        PSCENC =        75.25431677
  Ewald energy   TEWEN  =    139391.92843501
  -Hartree energ DENC   =   -183590.72088212
  -exchange      EXHF   =         0.00000000
  -V(xc)+E(xc)   XCENC  =     -1692.64377504
  PAW double counting   =     46332.47512963   -42804.58600519
  entropy T*S    EENTRO =         0.04186815
  eigenvalues    EBANDS =     -2973.60089370
  atomic energy  EATOM  =     45086.50549395
  Solvation  Ediel_sol  =         0.00000000
  ---------------------------------------------------
  free energy    TOTEN  =      -175.34631255 eV

  energy without entropy =     -175.38818070  energy(sigma->0) =     -175.35677958


--------------------------------------------------------------------------------------------------------




--------------------------------------- Iteration      1(  20)  ---------------------------------------


    POTLOK:  cpu time   15.0039: real time   15.0071
    SETDIJ:  cpu time    0.1201: real time    0.1201
    EDDIAG:  cpu time   86.9371: real time   86.9448
  RMM-DIIS:  cpu time  189.7491: real time  189.7588
    ORTHCH:  cpu time   22.0376: real time   22.0381
       DOS:  cpu time    0.0016: real time    0.0016
    CHARGE:  cpu time   27.0173: real time   27.0179
    MIXING:  cpu time    1.0108: real time    1.0108
    --------------------------------------------
      LOOP:  cpu time  341.8774: real time  341.8991

 eigenvalue-minimisations  :   694
 total energy-change (2. order) : 0.2169280E+00  (-0.1846278E-01)
 number of electron     559.9999876 magnetization 
 augmentation part      241.0276988 magnetization 

 Broyden mixing:
  rms(total) = 0.50662E+00    rms(broyden)= 0.50649E+00
  rms(prec ) = 0.56837E+00
  weight for this iteration     100.00

 eigenvalues of (default mixing * dielectric matrix)
  average eigenvalue GAMMA=   0.4041
  2.1793  1.3329  0.5788  0.5788  0.2181  0.2181  0.1490  0.1490  0.1323  0.1231
  0.0900  0.0900  0.0623  0.0825  0.0770

 Free energy of the ion-electron system (eV)
  ---------------------------------------------------
  alpha Z        PSCENC =        75.25431677
  Ewald energy   TEWEN  =    139391.92843501
  -Hartree energ DENC   =   -183598.87302005
  -exchange      EXHF   =         0.00000000
  -V(xc)+E(xc)   XCENC  =     -1692.57561984
  PAW double counting   =     46331.27149958   -42803.07670502
  entropy T*S    EENTRO =         0.03140857
  eigenvalues    EBANDS =     -2965.59519354
  atomic energy  EATOM  =     45086.50549395
  Solvation  Ediel_sol  =         0.00000000
  ---------------------------------------------------
  free energy    TOTEN  =      -175.12938458 eV

  energy without entropy =     -175.16079314  energy(sigma->0) =     -175.13723672


--------------------------------------------------------------------------------------------------------




--------------------------------------- Iteration      1(  21)  ---------------------------------------


    POTLOK:  cpu time   13.5023: real time   13.5043
    SETDIJ:  cpu time    0.1190: real time    0.1190
    EDDIAG:  cpu time   83.9758: real time   83.9788
  RMM-DIIS:  cpu time  197.3851: real time  197.3935
    ORTHCH:  cpu time   23.3746: real time   23.3751
       DOS:  cpu time    0.0016: real time    0.0016
    CHARGE:  cpu time   28.5064: real time   28.5070
    MIXING:  cpu time    1.1651: real time    1.1652
    --------------------------------------------
      LOOP:  cpu time  348.0299: real time  348.0444

 eigenvalue-minimisations  :   697
 total energy-change (2. order) : 0.3426845E-01  (-0.1708737E-01)
 number of electron     559.9999879 magnetization 
 augmentation part      241.0803459 magnetization 

 Broyden mixing:
  rms(total) = 0.48267E+00    rms(broyden)= 0.48250E+00
  rms(prec ) = 0.54589E+00
  weight for this iteration     100.00

 eigenvalues of (default mixing * dielectric matrix)
  average eigenvalue GAMMA=   0.4188
  2.1932  1.5319  0.6696  0.6696  0.3017  0.2032  0.2032  0.1458  0.1458  0.1219
  0.1219  0.0889  0.0889  0.0625  0.0762  0.0762

 Free energy of the ion-electron system (eV)
  ---------------------------------------------------
  alpha Z        PSCENC =        75.25431677
  Ewald energy   TEWEN  =    139391.92843501
  -Hartree energ DENC   =   -183612.51119318
  -exchange      EXHF   =         0.00000000
  -V(xc)+E(xc)   XCENC  =     -1692.47961125
  PAW double counting   =     46325.65263847   -42797.08838451
  entropy T*S    EENTRO =        -0.00312317
  eigenvalues    EBANDS =     -2952.35368821
  atomic energy  EATOM  =     45086.50549395
  Solvation  Ediel_sol  =         0.00000000
  ---------------------------------------------------
  free energy    TOTEN  =      -175.09511613 eV

  energy without entropy =     -175.09199296  energy(sigma->0) =     -175.09433534


--------------------------------------------------------------------------------------------------------




--------------------------------------- Iteration      1(  22)  ---------------------------------------


    POTLOK:  cpu time   14.9778: real time   14.9798
    SETDIJ:  cpu time    0.1216: real time    0.1216
    EDDIAG:  cpu time   87.5589: real time   87.5623
  RMM-DIIS:  cpu time  213.6732: real time  213.6837
    ORTHCH:  cpu time   22.3374: real time   22.3379
       DOS:  cpu time    0.0016: real time    0.0016
    CHARGE:  cpu time   26.6676: real time   26.6682
    MIXING:  cpu time    1.0496: real time    1.0497
    --------------------------------------------
      LOOP:  cpu time  366.3877: real time  366.4047

 eigenvalue-minimisations  :   699
 total energy-change (2. order) : 0.5689746E-01  (-0.1418898E-01)
 number of electron     559.9999875 magnetization 
 augmentation part      241.1508569 magnetization 

 Broyden mixing:
  rms(total) = 0.40497E+00    rms(broyden)= 0.40481E+00
  rms(prec ) = 0.45826E+00
  weight for this iteration     100.00

 eigenvalues of (default mixing * dielectric matrix)
  average eigenvalue GAMMA=   0.4165
  2.2245  1.6175  0.6878  0.6878  0.3964  0.2023  0.2023  0.1468  0.1468  0.1355
  0.1355  0.1004  0.0897  0.0897  0.0625  0.0772  0.0772

 Free energy of the ion-electron system (eV)
  ---------------------------------------------------
  alpha Z        PSCENC =        75.25431677
  Ewald energy   TEWEN  =    139391.92843501
  -Hartree energ DENC   =   -183627.86295024
  -exchange      EXHF   =         0.00000000
  -V(xc)+E(xc)   XCENC  =     -1692.39419952
  PAW double counting   =     46315.71816474   -42786.95198370
  entropy T*S    EENTRO =        -0.06587643
  eigenvalues    EBANDS =     -2937.16961925
  atomic energy  EATOM  =     45086.50549395
  Solvation  Ediel_sol  =         0.00000000
  ---------------------------------------------------
  free energy    TOTEN  =      -175.03821867 eV

  energy without entropy =     -174.97234224  energy(sigma->0) =     -175.02174957


--------------------------------------------------------------------------------------------------------




--------------------------------------- Iteration      1(  23)  ---------------------------------------


    POTLOK:  cpu time   13.2305: real time   13.2333
    SETDIJ:  cpu time    0.1186: real time    0.1186
    EDDIAG:  cpu time   82.3597: real time   82.3627
  RMM-DIIS:  cpu time  187.1473: real time  187.1549
    ORTHCH:  cpu time   22.1894: real time   22.1898
       DOS:  cpu time    0.0016: real time    0.0016
    CHARGE:  cpu time   27.5260: real time   27.5265
    MIXING:  cpu time    1.1692: real time    1.1692
    --------------------------------------------
      LOOP:  cpu time  333.7424: real time  333.7566

 eigenvalue-minimisations  :   696
 total energy-change (2. order) : 0.4953855E-01  (-0.7358257E-02)
 number of electron     559.9999871 magnetization 
 augmentation part      241.1366741 magnetization 

 Broyden mixing:
  rms(total) = 0.28381E+00    rms(broyden)= 0.28370E+00
  rms(prec ) = 0.32426E+00
  weight for this iteration     100.00

 eigenvalues of (default mixing * dielectric matrix)
[...]
 -0.007  -0.012   0.005   0.004   0.004  -0.006  -0.011   0.005
 -0.011  -0.020   0.008   0.006   0.007  -0.011  -0.019   0.008
 -0.014  -0.005   0.013   0.000   0.022  -0.013  -0.005   0.012
  0.000  -0.023  -0.006  -0.015  -0.000   0.000  -0.022  -0.006
 -0.022   0.000   0.008  -0.005  -0.015  -0.021   0.000   0.008
 -0.017  -0.006   0.015   0.000   0.027  -0.016  -0.006   0.015
  0.000  -0.027  -0.007  -0.017   0.000   0.000  -0.027  -0.007
 -0.027   0.000   0.010  -0.006  -0.018  -0.026   0.000   0.010
 total augmentation occupancy for first ion, spin component:           1
  1.531  -0.033   0.003   0.027   0.027   0.079  -0.007  -0.001   0.033  -0.010   0.098  -0.033   0.012   0.001   0.003  -0.019
 -0.033   1.401   0.026   0.071   0.010  -0.007   0.070   0.011  -0.015  -0.009   0.218  -0.064   0.019   0.002   0.003  -0.006
  0.003   0.026   1.539  -0.013   0.007  -0.002   0.012   0.078  -0.009   0.010  -0.077   0.026  -0.001  -0.007  -0.010   0.016
  0.027   0.071  -0.013   1.325   0.059   0.032  -0.015  -0.009   0.094  -0.026  -0.069   0.018   0.000  -0.009  -0.007   0.001
  0.027   0.010   0.007   0.059   1.427  -0.010  -0.009   0.009  -0.025   0.078  -0.061   0.021  -0.006  -0.009  -0.002   0.027
  0.079  -0.007  -0.002   0.032  -0.010   0.217   0.019  -0.002  -0.044   0.004  -0.049   0.002   0.017  -0.010   0.034  -0.004
 -0.007   0.070   0.012  -0.015  -0.009   0.019   0.262  -0.023  -0.003   0.006  -0.111   0.008  -0.001   0.051  -0.010  -0.000
 -0.001   0.011   0.078  -0.009   0.009  -0.002  -0.023   0.213   0.012  -0.018   0.028  -0.000  -0.013   0.009  -0.016   0.003
  0.033  -0.015  -0.009   0.094  -0.025  -0.044  -0.003   0.012   0.260   0.009   0.040  -0.004  -0.009   0.036   0.005   0.000
 -0.010  -0.009   0.010  -0.026   0.078   0.004   0.006  -0.018   0.009   0.256   0.046  -0.004  -0.037   0.002   0.047   0.007
  0.098   0.218  -0.077  -0.069  -0.061  -0.049  -0.111   0.028   0.040   0.046   0.959  -0.142   0.084   0.013   0.064  -0.012
 -0.033  -0.064   0.026   0.018   0.021   0.002   0.008  -0.000  -0.004  -0.004  -0.142   0.023  -0.014  -0.003  -0.010   0.003
  0.012   0.019  -0.001   0.000  -0.006   0.017  -0.001  -0.013  -0.009  -0.037   0.084  -0.014   0.029  -0.008  -0.004  -0.003
  0.001   0.002  -0.007  -0.009  -0.009  -0.010   0.051   0.009   0.036   0.002   0.013  -0.003  -0.008   0.036   0.004   0.000
  0.003   0.003  -0.010  -0.007  -0.002   0.034  -0.010  -0.016   0.005   0.047   0.064  -0.010  -0.004   0.004   0.033  -0.000
 -0.019  -0.006   0.016   0.001   0.027  -0.004  -0.000   0.003   0.000   0.007  -0.012   0.003  -0.003   0.000  -0.000   0.001
  0.001  -0.028  -0.006  -0.018   0.000   0.001  -0.008  -0.001  -0.006   0.000  -0.003   0.001   0.000  -0.003  -0.000   0.000
 -0.028   0.001   0.012  -0.005  -0.020  -0.006   0.001   0.003  -0.001  -0.007  -0.009   0.002  -0.000  -0.000  -0.003   0.000


------------------------ aborting loop because EDIFF is reached ----------------------------------------


    CHARGE:  cpu time   27.1979: real time   27.1996
    FORLOC:  cpu time    6.6226: real time    6.6230
    FORNL :  cpu time   69.7125: real time   69.7166
    STRESS:  cpu time  211.5699: real time  211.5807
    FORCOR:  cpu time   22.1544: real time   22.1559
    FORHAR:  cpu time    9.6792: real time    9.6797
    MIXING:  cpu time    3.2948: real time    3.2950
    OFIELD:  cpu time    0.0001: real time    0.0001

  FORCE on cell =-STRESS in cart. coord.  units (eV):
  Direction    XX          YY          ZZ          XY          YZ          ZX
  --------------------------------------------------------------------------------------
  Alpha Z    75.25432    75.25432    75.25432
  Ewald   47129.97695 47129.97722 45131.86833 -1682.38611   641.67898  -641.67881
  Hartree 61895.17985 61895.17999 59958.75791 -1525.28867   547.14703  -547.14696
  E(xc)   -2905.60819 -2905.60819 -2905.72692    -0.82350     0.62640    -0.62640
  Local  ************************************  3186.77819 -1175.26583  1175.26560
  n-local  -883.71238  -883.71220  -878.76734     2.49194     1.85554    -1.82498
  augment  4104.32639  4104.32639  4101.36393     1.87511    -3.35060     3.31996
  Kinetic  7808.01559  7808.01471  7808.94712    13.20930   -10.05747    10.05725
  Fock        0.00000     0.00000     0.00000     0.00000     0.00000     0.00000
  -------------------------------------------------------------------------------------
  Total    -109.59550  -109.59550  -110.60727    -4.14373     2.63420    -2.63420
  in kB      -6.50339    -6.50339    -6.56342    -0.24589     0.15631    -0.15631
  external pressure =       -6.52 kB  Pullay stress =        0.00 kB


 VOLUME and BASIS-vectors are now :
 -----------------------------------------------------------------------------
  energy-cutoff  :      400.00
  volume of cell :    27000.00
      direct lattice vectors                 reciprocal lattice vectors
    30.000000000  0.000000000  0.000000000     0.033333333  0.000000000  0.000000000
     0.000000000 30.000000000  0.000000000     0.000000000  0.033333333  0.000000000
     0.000000000  0.000000000 30.000000000     0.000000000  0.000000000  0.033333333

  length of vectors
    30.000000000 30.000000000 30.000000000     0.033333333  0.033333333  0.033333333


 FORCES acting on ions
    electron-ion (+dipol)            ewald-force                    non-local-force                 convergence-correction
 -----------------------------------------------------------------------------------------------
   0.426E+03 0.973E+03 0.420E+03   -.424E+03 -.970E+03 -.420E+03   -.155E+01 -.186E+01 -.185E+00   0.329E-02 0.938E-03 -.300E-02
   -.973E+03 -.426E+03 0.420E+03   0.970E+03 0.424E+03 -.420E+03   0.186E+01 0.155E+01 -.185E+00   -.938E-03 -.329E-02 -.300E-02
   -.267E+03 0.992E+03 0.454E+03   0.265E+03 -.989E+03 -.454E+03   0.150E+01 -.158E+01 -.775E-01   0.342E-03 0.268E-02 -.445E-02
   0.976E+03 -.398E+03 0.416E+03   -.973E+03 0.396E+03 -.416E+03   -.183E+01 0.150E+01 -.224E+00   0.162E-02 -.319E-03 -.143E-02
   0.331E+02 0.577E+03 0.986E+03   -.332E+02 -.577E+03 -.983E+03   0.775E-01 -.330E+00 -.237E+01   0.400E-02 -.147E-02 0.301E-03
   0.122E+02 0.583E+03 -.980E+03   -.122E+02 -.582E+03 0.976E+03   -.709E-02 -.295E+00 0.238E+01   0.518E-03 -.302E-02 -.125E-02
   0.422E+02 0.115E+04 -.144E+02   -.422E+02 -.115E+04 0.144E+02   0.291E-01 -.314E+01 -.618E-02   0.123E-02 0.134E-02 -.283E-02
   0.114E+04 -.314E+01 -.111E+01   -.113E+04 0.313E+01 0.110E+01   -.311E+01 0.717E-02 0.752E-02   -.490E-03 -.933E-03 0.434E-03
   -.115E+04 -.422E+02 -.144E+02   0.115E+04 0.422E+02 0.144E+02   0.314E+01 -.291E-01 -.618E-02   -.134E-02 -.123E-02 -.283E-02
   0.314E+01 -.114E+04 -.111E+01   -.313E+01 0.113E+04 0.110E+01   -.717E-02 0.311E+01 0.752E-02   0.933E-03 0.489E-03 0.434E-03
   -.541E+03 0.541E+03 0.899E+03   0.538E+03 -.538E+03 -.896E+03   0.158E+01 -.158E+01 -.206E+01   -.142E-02 0.142E-02 0.175E-04
   -.571E+03 0.571E+03 -.841E+03   0.569E+03 -.569E+03 0.838E+03   0.157E+01 -.157E+01 0.225E+01   0.225E-02 -.225E-02 -.258E-02
   0.583E+03 -.583E+03 0.814E+03   -.581E+03 0.581E+03 -.811E+03   -.156E+01 0.156E+01 -.220E+01   0.101E-02 -.101E-02 -.167E-02
   0.581E+03 -.581E+03 -.815E+03   -.579E+03 0.579E+03 0.812E+03   -.157E+01 0.157E+01 0.220E+01   -.721E-03 0.721E-03 0.825E-03
   0.593E+03 0.575E+03 0.818E+03   -.590E+03 -.572E+03 -.815E+03   -.160E+01 -.152E+01 -.219E+01   0.477E-02 -.272E-02 -.565E-03
   0.586E+03 0.576E+03 -.819E+03   -.584E+03 -.574E+03 0.815E+03   -.156E+01 -.155E+01 0.220E+01   -.139E-02 -.155E-02 0.621E-04
   -.575E+03 -.593E+03 0.818E+03   0.572E+03 0.590E+03 -.815E+03   0.152E+01 0.160E+01 -.219E+01   0.272E-02 -.477E-02 -.565E-03
   -.576E+03 -.586E+03 -.819E+03   0.574E+03 0.584E+03 0.815E+03   0.155E+01 0.156E+01 0.220E+01   0.155E-02 0.139E-02 0.618E-04
   0.413E+03 0.972E+03 -.429E+03   -.411E+03 -.969E+03 0.428E+03   -.149E+01 -.183E+01 0.223E+00   0.132E-02 -.299E-02 -.392E-02
   -.972E+03 -.413E+03 -.429E+03   0.969E+03 0.411E+03 0.428E+03   0.183E+01 0.149E+01 0.223E+00   0.299E-02 -.132E-02 -.392E-02
   -.266E+03 0.266E+03 0.470E+03   0.266E+03 -.266E+03 -.471E+03   -.245E-01 0.245E-01 0.707E+00   0.301E-02 -.301E-02 -.571E-02
   0.980E+03 0.390E+03 0.417E+03   -.977E+03 -.388E+03 -.416E+03   -.180E+01 -.152E+01 -.241E+00   0.263E-02 -.363E-02 -.170E-02
   -.390E+03 -.980E+03 0.417E+03   0.388E+03 0.977E+03 -.416E+03   0.152E+01 0.180E+01 -.241E+00   0.363E-02 -.263E-02 -.170E-02
   -.362E+03 0.975E+03 -.458E+03   0.360E+03 -.972E+03 0.457E+03   0.153E+01 -.196E+01 0.242E+00   0.107E-02 -.269E-02 -.458E-02
   0.975E+03 -.398E+03 -.418E+03   -.972E+03 0.395E+03 0.418E+03   -.183E+01 0.153E+01 0.213E+00   0.747E-03 0.140E-02 0.225E-02
   -.992E+03 0.267E+03 0.454E+03   0.989E+03 -.265E+03 -.454E+03   0.158E+01 -.150E+01 -.775E-01   -.268E-02 -.342E-03 -.445E-02
   0.398E+03 -.976E+03 0.416E+03   -.396E+03 0.973E+03 -.416E+03   -.150E+01 0.183E+01 -.224E+00   0.320E-03 -.162E-02 -.143E-02
   0.345E+03 0.309E+03 0.456E+03   -.345E+03 -.310E+03 -.456E+03   0.301E+00 0.401E+00 0.510E+00   0.418E-02 -.316E-02 -.242E-02
   0.502E+02 0.625E+03 -.170E+02   -.504E+02 -.626E+03 0.172E+02   0.872E-01 0.693E+00 -.879E-01   0.184E-02 -.212E-02 -.504E-02
   -.577E+03 -.331E+02 0.986E+03   0.577E+03 0.332E+02 -.983E+03   0.330E+00 -.775E-01 -.237E+01   0.147E-02 -.400E-02 0.301E-03
   -.583E+03 -.122E+02 -.980E+03   0.582E+03 0.122E+02 0.976E+03   0.295E+00 0.709E-02 0.238E+01   0.302E-02 -.518E-03 -.125E-02
   0.595E+03 -.598E+01 0.968E+03   -.595E+03 0.602E+01 -.964E+03   -.297E+00 -.314E-01 -.234E+01   0.326E-02 -.268E-02 -.116E-02
   0.592E+03 -.388E+01 -.969E+03   -.591E+03 0.390E+01 0.965E+03   -.320E+00 -.174E-01 0.236E+01   -.118E-02 0.294E-02 0.815E-03
   0.777E+03 0.757E+03 -.356E+01   -.775E+03 -.755E+03 0.358E+01   -.117E+01 -.113E+01 -.705E-02   0.190E-02 -.275E-02 -.307E-02
   -.757E+03 -.777E+03 -.356E+01   0.755E+03 0.775E+03 0.358E+01   0.113E+01 0.117E+01 -.705E-02   0.275E-02 -.190E-02 -.307E-02
   -.618E+03 0.618E+03 -.222E+03   0.619E+03 -.619E+03 0.215E+03   -.330E+01 0.330E+01 0.775E+01   0.900E-03 -.900E-03 -.430E-02
   0.765E+03 -.765E+03 -.132E+01   -.763E+03 0.763E+03 0.127E+01   -.115E+01 0.115E+01 0.310E-01   0.101E-02 -.101E-02 0.699E-03
   0.154E+02 -.154E+02 0.108E+04   -.154E+02 0.154E+02 -.108E+04   -.517E-01 0.517E-01 -.164E+01   0.441E-02 -.441E-02 0.660E-03
   0.746E+01 -.746E+01 -.108E+04   -.750E+01 0.750E+01 0.108E+04   0.234E-01 -.234E-01 0.159E+01   -.133E-02 0.133E-02 0.401E-03
   0.978E+03 0.391E+03 -.419E+03   -.975E+03 -.388E+03 0.419E+03   -.182E+01 -.152E+01 0.233E+00   -.518E-03 -.988E-03 -.645E-03
   -.391E+03 -.978E+03 -.419E+03   0.388E+03 0.975E+03 0.419E+03   0.152E+01 0.182E+01 0.233E+00   0.988E-03 0.517E-03 -.645E-03
   -.299E+03 0.299E+03 -.482E+03   0.300E+03 -.300E+03 0.482E+03   -.547E+00 0.547E+00 -.335E+00   0.177E-02 -.176E-02 -.607E-02
   0.331E+03 -.331E+03 0.454E+03   -.332E+03 0.332E+03 -.455E+03   0.389E+00 -.389E+00 0.501E+00   0.365E-02 -.365E-02 -.175E-03
   0.336E+03 0.313E+03 -.462E+03   -.336E+03 -.314E+03 0.463E+03   0.348E+00 0.366E+00 -.503E+00   0.544E-03 -.199E-04 -.441E-02
   -.975E+03 0.362E+03 -.458E+03   0.972E+03 -.360E+03 0.457E+03   0.196E+01 -.153E+01 0.242E+00   0.269E-02 -.107E-02 -.458E-02
   0.398E+03 -.975E+03 -.418E+03   -.395E+03 0.972E+03 0.418E+03   -.153E+01 0.183E+01 0.213E+00   -.140E-02 -.746E-03 0.225E-02
   -.309E+03 -.345E+03 0.456E+03   0.310E+03 0.345E+03 -.456E+03   -.401E+00 -.301E+00 0.510E+00   0.316E-02 -.418E-02 -.242E-02
   0.649E+03 -.698E+01 -.241E+01   -.650E+03 0.699E+01 0.242E+01   0.731E+00 -.856E-02 -.302E-02   0.417E-02 -.123E-02 -.146E-02
   -.625E+03 -.502E+02 -.170E+02   0.626E+03 0.504E+02 0.172E+02   -.693E+00 -.872E-01 -.879E-01   0.212E-02 -.184E-02 -.504E-02
   0.598E+01 -.595E+03 0.968E+03   -.602E+01 0.595E+03 -.964E+03   0.314E-01 0.297E+00 -.234E+01   0.268E-02 -.326E-02 -.116E-02
   0.388E+01 -.592E+03 -.969E+03   -.390E+01 0.591E+03 0.965E+03   0.174E-01 0.320E+00 0.236E+01   -.294E-02 0.118E-02 0.815E-03
   0.205E+02 -.205E+02 -.700E+01   -.204E+02 0.204E+02 0.700E+01   -.232E-01 0.232E-01 0.275E-02   0.934E-03 -.933E-03 -.447E-02
   0.329E+03 -.329E+03 -.458E+03   -.329E+03 0.329E+03 0.458E+03   0.352E+00 -.352E+00 -.533E+00   -.585E-03 0.585E-03 -.805E-03
   -.313E+03 -.336E+03 -.462E+03   0.314E+03 0.336E+03 0.463E+03   -.366E+00 -.348E+00 -.503E+00   0.204E-04 -.543E-03 -.441E-02
   0.698E+01 -.649E+03 -.241E+01   -.699E+01 0.650E+03 0.242E+01   0.856E-02 -.731E+00 -.302E-02   0.123E-02 -.417E-02 -.146E-02
   -.209E+03 0.209E+03 0.104E+03   0.196E+03 -.196E+03 -.998E+02   0.105E+02 -.105E+02 -.342E+01   -.665E-03 0.665E-03 -.167E-02
   -.618E+03 0.618E+03 0.179E+03   0.664E+03 -.664E+03 -.194E+03   -.412E+02 0.412E+02 0.132E+02   -.153E-02 0.153E-02 -.167E-02
 -----------------------------------------------------------------------------------------------
   0.350E+02 -.350E+02 -.182E+02   0.227E-12 -.227E-12 -.909E-12   -.350E+02 0.350E+02 0.183E+02   0.695E-01 -.695E-01 -.103E+00
 
 
 POSITION                                       TOTAL-FORCE (eV/Angst)
 -----------------------------------------------------------------------------------
     13.37281      9.84801     12.50759         0.686733      1.105660      0.282744
     20.15199     16.62719     12.50759        -1.105660     -0.686733      0.282744
     16.62719      9.84801     12.50759        -0.551171      1.188155      0.375463
      9.84801     16.62719     12.50759         1.106647     -0.701421      0.289916
     15.00000     11.47521     10.20639        -0.038501      0.423530      1.265268
     15.00000     11.47521     19.79360         0.007737      0.416264     -1.282596
     15.00000      8.28283     15.00000        -0.016885      1.496291      0.001125
      8.28283     15.00000     15.00000         1.513227     -0.005116     -0.003279
     21.71717     15.00000     15.00000        -1.496291      0.016885      0.001125
     15.00000     21.71717     15.00000         0.005116     -1.513227     -0.003279
     18.35858     11.64142     10.25025        -0.751171      0.751171      1.000714
     18.35858     11.64142     19.74975        -0.750471      0.750471     -1.075719
     11.64142     18.35858     10.25025         0.755810     -0.755810      1.069597
     11.64142     18.35858     19.74975         0.758893     -0.758893     -1.063417
     11.64142     11.64142     10.25025         0.771708      0.738993      1.055878
     11.64142     11.64142     19.74975         0.753943      0.745320     -1.072222
     18.35858     18.35858     10.25025        -0.738993     -0.771708      1.055878
     18.35858     18.35858     19.74975        -0.745320     -0.753943     -1.072222
     13.37281      9.84801     17.49241         0.697158      1.109271     -0.295137
     20.15199     16.62719     17.49241        -1.109271     -0.697158     -0.295137
     16.73751     13.26249     12.54279         0.025182     -0.025182     -0.236310
      9.84801     13.37281     12.50759         1.100646      0.709695      0.301807
     16.62719     20.15199     12.50759        -0.709695     -1.100646      0.301807
     16.62719      9.84801     17.49241        -0.735020      1.116238     -0.241609
      9.84801     16.62719     17.49241         1.100524     -0.710624     -0.287909
     20.15199     13.37281     12.50759        -1.188155      0.551171      0.375463
     13.37281     20.15199     12.50759         0.701421     -1.106647      0.289916
     13.26249     13.26249     12.54279        -0.105828     -0.109401     -0.155708
     15.00000     11.52498     15.00000        -0.088597     -0.241720      0.030161
     18.52479     15.00000     10.20639        -0.423530      0.038501      1.265268
     18.52479     15.00000     19.79360        -0.416264     -0.007737     -1.282596
     11.47521     15.00000     10.20640         0.417105      0.007274      1.281481
     11.47521     15.00000     19.79360         0.416223      0.006840     -1.275732
     11.49535     11.49535     15.00000         0.829395      0.827317      0.004193
     18.50465     18.50465     15.00000        -0.827317     -0.829395      0.004193
     18.50465     11.49535     15.00000        -1.788479      1.788479      1.318881
     11.49535     18.50465     15.00000         0.832129     -0.832129     -0.015063
     15.00000     15.00000     10.04368         0.011044     -0.011044      1.191201
     15.00000     15.00000     19.95633        -0.016763      0.016763     -1.158855
      9.84801     13.37281     17.49241         1.102072      0.703745     -0.296390
     16.62719     20.15199     17.49241        -0.703745     -1.102072     -0.296390
     16.73751     13.26249     17.45721         0.123000     -0.123000      0.157730
     13.26249     16.73751     12.54279        -0.110057      0.110057     -0.158930
     13.26249     13.26249     17.45721        -0.105602     -0.103386      0.151651
     20.15199     13.37281     17.49241        -1.116238      0.735020     -0.241609
     13.37281     20.15199     17.49241         0.710624     -1.100524     -0.287909
     16.73751     16.73751     12.54279         0.109401      0.105828     -0.155708
     11.52498     15.00000     15.00000        -0.227317     -0.003543      0.001537
     18.47502     15.00000     15.00000         0.241720      0.088597      0.030161
     15.00000     18.52480     10.20639        -0.007274     -0.417105      1.281481
     15.00000     18.52480     19.79360        -0.006840     -0.416223     -1.275732
     15.00000     15.00000     15.00000        -0.000252      0.000252     -0.004202
     13.26249     16.73751     17.45721        -0.105047      0.105047      0.161258
     16.73751     16.73751     17.45721         0.103386      0.105602      0.151651
     15.00000     18.47502     15.00000         0.003543      0.227317      0.001537
     19.25396     10.74604     13.55568        -2.892551      2.892551      0.596326
     20.02954      9.97046     13.29236         3.993914     -3.993914     -2.044495
 -----------------------------------------------------------------------------------
    total drift:                               -0.002856     -0.005283      0.003356


--------------------------------------------------------------------------------------------------------



  FREE ENERGIE OF THE ION-ELECTRON SYSTEM (eV)
  ---------------------------------------------------
  free  energy   TOTEN  =      -174.93296052 eV

  energy  without entropy=     -174.90059966  energy(sigma->0) =     -174.92487031
 


--------------------------------------------------------------------------------------------------------


    POTLOK:  cpu time   14.1389: real time   14.1398


--------------------------------------------------------------------------------------------------------


     LOOP+:  cpu time18404.7695: real time18406.2351
    4ORBIT:  cpu time    0.0000: real time    0.0000

 total amount of memory used by VASP MPI-rank0  5486941. kBytes
=======================================================================

   base      :      30000. kBytes
   nonlr-proj:      17126. kBytes
   fftplans  :     924480. kBytes
   grid      :    1872000. kBytes
   one-center:        886. kBytes
   wavefun   :    2642449. kBytes
 
  
  
 General timing and accounting informations for this job:
 ========================================================
  
                  Total CPU time used (sec):    18488.270
                            User time (sec):    17344.469
                          System time (sec):     1143.800
                         Elapsed time (sec):    18489.791
  
                   Maximum memory used (kb):     7241236.
                   Average memory used (kb):           0.
  
                          Minor page faults:    710133791
                          Major page faults:            1
                 Voluntary context switches:          662
