<?xml version="1.0" encoding="ISO-8859-1"?>
<modeling>
 <generator>
  <i name="program" type="string">vasp </i>
  <i name="version" type="string">5.4.4.18Apr17-6-g9f103f2a35  </i>
  <i name="subversion" type="string">(build Sep 03 2018 23:53:05) complex            parallel </i>
  <i name="platform" type="string">LinuxIFC </i>
  <i name="date" type="string">2021 11 25 </i>
  <i name="time" type="string">16:48:01 </i>
 </generator>
 <incar>
  <i type="string" name="SYSTEM"> 6_Pd100_top_free_z(O)</i>
  <i type="int" name="ISTART">     0</i>
  <i type="string" name="PREC">normal   			! encut=max(enmax), ngx,y,z</i>
  <i type="string" name="ALGO"> Fast     			! Mix RMM-DIIS and Dav</i>
  <i type="logical" name="ADDGRID"> F  </i>
  <i type="int" name="ISPIN">     1</i>
  <i type="int" name="ICHARG">     2</i>
  <i type="int" name="NELM">   100</i>
  <i type="int" name="NELMIN">     6</i>
  <i type="int" name="IBRION">     2</i>
  <i name="EDIFF">      0.00010000</i>
  <i name="EDIFFG">     -0.05000000</i>
  <i type="int" name="NSW">     0</i>
  <i type="int" name="ISIF">     2</i>
  <i type="int" name="ISYM">     2</i>
  <i name="ENCUT">    400.00000000</i>
  <i type="string" name="LREAL"> Auto     			! Auto or A projection done</i>
  <i type="int" name="ISMEAR">     2</i>
  <i name="SIGMA">      0.20000000</i>
  <i type="logical" name="LWAVE"> F  </i>
  <i type="logical" name="LCHARG"> F  </i>
  <v type="int" name="KPOINT_BSE">    -1     0     0     0</v>
  <i type="int" name="MAXMEM"> 10000</i>
  <i type="int" name="NELM">   100</i>
  <i type="string" name="GGA"> RP         			! Revised PBE</i>
 </incar>
 <structure name="primitive_cell" >
  <crystal>
   <varray name="basis" >
    <v>      30.00000000       0.00000000       0.00000000 </v>
    <v>       0.00000000      30.00000000       0.00000000 </v>
    <v>       0.00000000       0.00000000      30.00000000 </v>
   </varray>
   <i name="volume">  27000.00000000 </i>
   <varray name="rec_basis" >
    <v>       0.03333333       0.00000000       0.00000000 </v>
    <v>       0.00000000       0.03333333       0.00000000 </v>
    <v>       0.00000000       0.00000000       0.03333333 </v>
   </varray>
  </crystal>
  <varray name="positions" >
   <v>       0.44576020       0.32826710       0.41691983 </v>
   <v>      -0.44576020       0.32826710       0.41691983 </v>
   <v>      -0.50000000       0.38250690       0.34021317 </v>
   <v>      -0.50000000       0.27609440      -0.50000000 </v>
   <v>       0.38804720       0.38804720       0.34167483 </v>
   <v>      -0.50000000       0.38416601      -0.50000000 </v>
   <v>       0.44208300       0.44208300       0.41809300 </v>
   <v>       0.38317830       0.38317830      -0.50000000 </v>
   <v>      -0.44208300       0.44208300       0.41809300 </v>
   <v>       0.44576020       0.32826710      -0.41691977 </v>
   <v>       0.32826705       0.44576024       0.41691983 </v>
   <v>      -0.38804720       0.38804720       0.34167483 </v>
   <v>      -0.38317830       0.38317830      -0.50000000 </v>
   <v>      -0.50000000      -0.50000000       0.33478917 </v>
   <v>      -0.50000000      -0.50000000      -0.50000000 </v>
   <v>      -0.44576020       0.32826710      -0.41691977 </v>
   <v>       0.38250685      -0.49999995       0.34021317 </v>
   <v>       0.44208300       0.44208300      -0.41809297 </v>
   <v>       0.38416599      -0.49999998      -0.50000000 </v>
   <v>      -0.44208300       0.44208300      -0.41809297 </v>
   <v>       0.44208298      -0.44208298       0.41809300 </v>
   <v>       0.32826705       0.44576024      -0.41691977 </v>
   <v>       0.49654240       0.48051030       0.24311307 </v>
   <v>      -0.50000000       0.38250690      -0.34021320 </v>
   <v>       0.32826712      -0.44576022       0.41691983 </v>
   <v>      -0.38250685      -0.49999995       0.34021317 </v>
   <v>      -0.32826705       0.44576024       0.41691983 </v>
   <v>       0.27609443       0.49999998      -0.50000000 </v>
   <v>       0.38804720       0.38804720      -0.34167487 </v>
   <v>      -0.38416599      -0.49999998      -0.50000000 </v>
   <v>      -0.44208298      -0.44208298       0.41809300 </v>
   <v>       0.49603780       0.47766607       0.20562420 </v>
   <v>       0.44208298      -0.44208298      -0.41809297 </v>
   <v>      -0.38804720       0.38804720      -0.34167487 </v>
   <v>       0.38804722      -0.38804722       0.34167483 </v>
   <v>       0.38250685      -0.49999995      -0.34021320 </v>
   <v>       0.32826712      -0.44576022      -0.41691977 </v>
   <v>      -0.32826705       0.44576024      -0.41691977 </v>
   <v>       0.50000000      -0.38250681       0.34021317 </v>
   <v>      -0.50000000      -0.38416596      -0.50000000 </v>
   <v>      -0.44208298      -0.44208298      -0.41809297 </v>
   <v>      -0.50000000      -0.50000000      -0.33478913 </v>
   <v>       0.38317828      -0.38317828      -0.50000000 </v>
   <v>      -0.32826712      -0.44576022       0.41691983 </v>
   <v>      -0.27609443       0.49999998      -0.50000000 </v>
   <v>      -0.38804722      -0.38804722       0.34167483 </v>
   <v>      -0.38250685      -0.49999995      -0.34021320 </v>
   <v>       0.44576027      -0.32826707       0.41691983 </v>
   <v>      -0.38317828      -0.38317828      -0.50000000 </v>
   <v>      -0.32826712      -0.44576022      -0.41691977 </v>
   <v>      -0.44576027      -0.32826707       0.41691983 </v>
   <v>       0.38804722      -0.38804722      -0.34167487 </v>
   <v>      -0.50000000      -0.38250681      -0.34021320 </v>
   <v>       0.44576027      -0.32826707      -0.41691977 </v>
   <v>      -0.44576027      -0.32826707      -0.41691977 </v>
   <v>      -0.50000000      -0.27609445       0.50000000 </v>
   <v>      -0.38804722      -0.38804722      -0.34167487 </v>
  </varray>
 </structure>
 <varray name="primitive_index" >
  <v type="int" >        1 </v>
  <v type="int" >        3 </v>
  <v type="int" >        5 </v>
  <v type="int" >        7 </v>
  <v type="int" >       15 </v>
  <v type="int" >       29 </v>
  <v type="int" >       28 </v>
  <v type="int" >       34 </v>
  <v type="int" >       21 </v>
  <v type="int" >       19 </v>
  <v type="int" >       22 </v>
  <v type="int" >       11 </v>
  <v type="int" >       36 </v>
  <v type="int" >       38 </v>
  <v type="int" >       52 </v>
  <v type="int" >       24 </v>
  <v type="int" >       32 </v>
  <v type="int" >       44 </v>
  <v type="int" >       48 </v>
  <v type="int" >       42 </v>
  <v type="int" >       43 </v>
  <v type="int" >       40 </v>
  <v type="int" >       56 </v>
  <v type="int" >        6 </v>
  <v type="int" >        4 </v>
  <v type="int" >       30 </v>
  <v type="int" >       26 </v>
  <v type="int" >        8 </v>
  <v type="int" >       16 </v>
  <v type="int" >       49 </v>
  <v type="int" >       47 </v>
  <v type="int" >       57 </v>
  <v type="int" >       53 </v>
  <v type="int" >       12 </v>
  <v type="int" >       13 </v>
  <v type="int" >       33 </v>
  <v type="int" >       25 </v>
  <v type="int" >       45 </v>
  <v type="int" >       50 </v>
  <v type="int" >       55 </v>
  <v type="int" >       54 </v>
  <v type="int" >       39 </v>
  <v type="int" >       37 </v>
  <v type="int" >        2 </v>
  <v type="int" >        9 </v>
  <v type="int" >       17 </v>
  <v type="int" >       31 </v>
  <v type="int" >       27 </v>
  <v type="int" >       35 </v>
  <v type="int" >       20 </v>
  <v type="int" >       23 </v>
  <v type="int" >       14 </v>
  <v type="int" >       51 </v>
  <v type="int" >       46 </v>
  <v type="int" >       41 </v>
  <v type="int" >       10 </v>
  <v type="int" >       18 </v>
 </varray>
 <kpoints>
  <generation param="Monkhorst-Pack">
   <v type="int" name="divisions">       1        1        1 </v>
   <v name="usershift">      0.00000000       0.00000000       0.00000000 </v>
   <v name="genvec1">      1.00000000       0.00000000       0.00000000 </v>
   <v name="genvec2">      0.00000000       1.00000000       0.00000000 </v>
   <v name="genvec3">      0.00000000       0.00000000       1.00000000 </v>
   <v name="shift">      0.00000000       0.00000000       0.00000000 </v>
  </generation>
  <varray name="kpointlist" >
   <v>       0.00000000       0.00000000       0.00000000 </v>
  </varray>
  <varray name="weights" >
   <v>       1.00000000 </v>
  </varray>
 </kpoints>
 <parameters>
  <separator name="general" >
   <i type="string" name="SYSTEM">6_Pd100_top_free_z(O)</i>
   <i type="logical" name="LCOMPAT"> F  </i>
  </separator>
  <separator name="electronic" >
   <i type="string" name="PREC">normal</i>
   <i name="ENMAX">    400.00000000</i>
   <i name="ENAUG">    644.87300000</i>
   <i name="EDIFF">      0.00010000</i>
   <i type="int" name="IALGO">    68</i>
   <i type="int" name="IWAVPR">    10</i>
   <i type="int" name="NBANDS">   336</i>
   <i name="NELECT">    560.00000000</i>
   <i type="int" name="TURBO">     0</i>
   <i type="int" name="IRESTART">     0</i>
   <i type="int" name="NREBOOT">     0</i>
   <i type="int" name="NMIN">     0</i>
   <i name="EREF">      0.00000000</i>
   <separator name="electronic smearing" >
    <i type="int" name="ISMEAR">     2</i>
    <i name="SIGMA">      0.20000000</i>
    <i name="KSPACING">      0.50000000</i>
    <i type="logical" name="KGAMMA"> T  </i>
   </separator>
   <separator name="electronic projectors" >
    <i type="logical" name="LREAL"> T  </i>
    <v name="ROPT">     -0.00050000     -0.00050000     -0.00050000</v>
    <i type="int" name="LMAXPAW">  -100</i>
    <i type="int" name="LMAXMIX">     2</i>
    <i type="logical" name="NLSPLINE"> F  </i>
   </separator>
   <separator name="electronic startup" >
    <i type="int" name="ISTART">     0</i>
    <i type="int" name="ICHARG">     2</i>
    <i type="int" name="INIWAV">     1</i>
   </separator>
   <separator name="electronic spin" >
    <i type="int" name="ISPIN">     1</i>
    <i type="logical" name="LNONCOLLINEAR"> F  </i>
    <v name="MAGMOM">      1.00000000      1.00000000      1.00000000      1.00000000      1.00000000      1.00000000      1.00000000      1.00000000      1.00000000      1.00000000      1.00000000      1.00000000      1.00000000      1.00000000      1.00000000      1.00000000      1.00000000      1.00000000      1.00000000      1.00000000
      1.00000000      1.00000000      1.00000000      1.00000000      1.00000000      1.00000000      1.00000000      1.00000000      1.00000000      1.00000000      1.00000000      1.00000000      1.00000000      1.00000000      1.00000000      1.00000000      1.00000000      1.00000000      1.00000000      1.00000000
      1.00000000      1.00000000      1.00000000      1.00000000      1.00000000      1.00000000      1.00000000      1.00000000      1.00000000      1.00000000      1.00000000      1.00000000      1.00000000      1.00000000      1.00000000      1.00000000      1.00000000</v>
    <i name="NUPDOWN">     -1.00000000</i>
    <i type="logical" name="LSORBIT"> F  </i>
    <v name="SAXIS">      0.00000000      0.00000000      1.00000000</v>
    <i type="logical" name="LSPIRAL"> F  </i>
    <v name="QSPIRAL">      0.00000000      0.00000000      0.00000000</v>
    <i type="logical" name="LZEROZ"> F  </i>
   </separator>
   <separator name="electronic exchange-correlation" >
    <i type="logical" name="LASPH"> F  </i>
    <i type="logical" name="LMETAGGA"> F  </i>
   </separator>
   <separator name="electronic convergence" >
    <i type="int" name="NELM">   100</i>
    <i type="int" name="NELMDL">    -5</i>
    <i type="int" name="NELMIN">     6</i>
    <i name="ENINI">    400.00000000</i>
    <separator name="electronic convergence detail" >
     <i type="logical" name="LDIAG"> T  </i>
     <i type="logical" name="LSUBROT"> F  </i>
     <i name="WEIMIN">      0.00000000</i>
     <i name="EBREAK">      0.00000007</i>
     <i name="DEPER">      0.30000000</i>
     <i type="int" name="NRMM">     4</i>
     <i name="TIME">      0.40000000</i>
    </separator>
   </separator>
   <separator name="electronic mixer" >
    <i name="AMIX">      0.40000000</i>
    <i name="BMIX">      1.00000000</i>
    <i name="AMIN">      0.10000000</i>
    <i name="AMIX_MAG">      1.60000000</i>
    <i name="BMIX_MAG">      1.00000000</i>
    <separator name="electronic mixer details" >
     <i type="int" name="IMIX">     4</i>
     <i type="logical" name="MIXFIRST"> F  </i>
     <i type="int" name="MAXMIX">   -45</i>
     <i name="WC">    100.00000000</i>
     <i type="int" name="INIMIX">     1</i>
     <i type="int" name="MIXPRE">     1</i>
     <i type="int" name="MREMOVE">     5</i>
    </separator>
   </separator>
   <separator name="electronic dipolcorrection" >
    <i type="logical" name="LDIPOL"> F  </i>
    <i type="logical" name="LMONO"> F  </i>
    <i type="int" name="IDIPOL">     0</i>
    <i name="EPSILON">      1.00000000</i>
    <v name="DIPOL">   -100.00000000   -100.00000000   -100.00000000</v>
    <i name="EFIELD">      0.00000000</i>
   </separator>
  </separator>
  <separator name="grids" >
   <i type="int" name="NGX">   150</i>
   <i type="int" name="NGY">   150</i>
   <i type="int" name="NGZ">   150</i>
   <i type="int" name="NGXF">   300</i>
   <i type="int" name="NGYF">   300</i>
   <i type="int" name="NGZF">   300</i>
   <i type="logical" name="ADDGRID"> F  </i>
  </separator>
  <separator name="ionic" >
   <i type="int" name="NSW">     0</i>
   <i type="int" name="IBRION">    -1</i>
   <i type="int" name="MDALGO">     0</i>
   <i type="int" name="ISIF">     2</i>
   <i name="PSTRESS">      0.00000000</i>
   <i name="EDIFFG">     -0.05000000</i>
   <i type="int" name="NFREE">     1</i>
   <i name="POTIM">      0.50000000</i>
   <i name="SMASS">     -3.00000000</i>
   <i name="SCALEE">      1.00000000</i>
  </separator>
  <separator name="ionic md" >
   <i name="TEBEG">      0.00010000</i>
   <i name="TEEND">      0.00010000</i>
   <i type="int" name="NBLOCK">     1</i>
   <i type="int" name="KBLOCK">     1</i>
   <i type="int" name="NPACO">   256</i>
   <i name="APACO">     16.00000000</i>
  </separator>
  <separator name="symmetry" >
   <i type="int" name="ISYM">     2</i>
   <i name="SYMPREC">      0.00001000</i>
  </separator>
  <separator name="dos" >
   <i type="int" name="LORBIT">     0</i>
   <v name="RWIGS">     -1.00000000     -1.00000000     -1.00000000</v>
   <i type="int" name="NEDOS">   301</i>
   <i name="EMIN">     10.00000000</i>
   <i name="EMAX">    -10.00000000</i>
   <i name="EFERMI">      0.00000000</i>
  </separator>
  <separator name="writing" >
   <i type="int" name="NWRITE">     2</i>
   <i type="logical" name="LWAVE"> F  </i>
   <i type="logical" name="LDOWNSAMPLE"> F  </i>
   <i type="logical" name="LCHARG"> F  </i>
   <i type="logical" name="LPARD"> F  </i>
   <i type="logical" name="LVTOT"> F  </i>
   <i type="logical" name="LVHAR"> F  </i>
   <i type="logical" name="LELF"> F  </i>
   <i type="logical" name="LOPTICS"> F  </i>
   <v name="STM">      0.00000000      0.00000000      0.00000000      0.00000000      0.00000000      0.00000000      0.00000000</v>
  </separator>
  <separator name="performance" >
   <i type="int" name="NPAR">     1</i>
   <i type="int" name="NSIM">     4</i>
   <i type="int" name="NBLK">    -1</i>
   <i type="logical" name="LPLANE"> T  </i>
   <i type="logical" name="LSCALAPACK"> T  </i>
   <i type="logical" name="LSCAAWARE"> F  </i>
   <i type="logical" name="LSCALU"> F  </i>
   <i type="logical" name="LASYNC"> F  </i>
   <i type="logical" name="LORBITALREAL"> F  </i>
  </separator>
  <separator name="miscellaneous" >
   <i type="int" name="IDIOT">     3</i>
   <i type="int" name="ISPECIAL">     0</i>
   <i type="logical" name="LMUSIC"> F  </i>
   <v name="POMASS">    106.42000000     12.01100000     16.00000000</v>
   <v name="DARWINR">      0.00000000      0.00000000      0.00000000</v>
   <v name="DARWINV">      1.00000000      1.00000000      1.00000000</v>
   <i type="logical" name="LCORR"> T  </i>
  </separator>
  <i type="logical" name="GGA_COMPAT"> T  </i>
  <i type="logical" name="LBERRY"> F  </i>
  <i type="int" name="ICORELEVEL">     0</i>
  <i type="logical" name="LDAU"> F  </i>
  <i type="int" name="I_CONSTRAINED_M">     0</i>
  <separator name="electronic exchange-correlation" >
   <i type="string" name="GGA">RP</i>
   <i type="int" name="VOSKOWN">     0</i>
   <i type="logical" name="LHFCALC"> F  </i>
   <i type="string" name="PRECFOCK"></i>
   <i type="logical" name="LSYMGRAD"> F  </i>
   <i type="logical" name="LHFONE"> F  </i>
   <i type="logical" name="LRHFCALC"> F  </i>
   <i type="logical" name="LTHOMAS"> F  </i>
   <i type="logical" name="LMODELHF"> F  </i>
   <i name="ENCUT4O">     -1.00000000</i>
   <i type="int" name="EXXOEP">     0</i>
   <i type="int" name="FOURORBIT">     0</i>
   <i name="AEXX">      0.00000000</i>
   <i name="HFALPHA">      0.00000000</i>
   <i name="MCALPHA">      0.00000000</i>
   <i name="ALDAX">      1.00000000</i>
   <i name="AGGAX">      1.00000000</i>
   <i name="ALDAC">      1.00000000</i>
   <i name="AGGAC">      1.00000000</i>
   <i type="int" name="NKREDX">     1</i>
   <i type="int" name="NKREDY">     1</i>
   <i type="int" name="NKREDZ">     1</i>
   <i type="logical" name="SHIFTRED"> F  </i>
   <i type="logical" name="ODDONLY"> F  </i>
   <i type="logical" name="EVENONLY"> F  </i>
   <i type="int" name="LMAXFOCK">     0</i>
   <i type="int" name="NMAXFOCKAE">     0</i>
   <i type="logical" name="LFOCKAEDFT"> F  </i>
   <i name="HFSCREEN">      0.00000000</i>
   <i name="HFSCREENC">      0.00000000</i>
   <i type="int" name="NBANDSGWLOW">     0</i>
  </separator>
  <separator name="vdW DFT" >
   <i type="logical" name="LUSE_VDW"> F  </i>
   <i name="Zab_VDW">     -0.84910000</i>
   <i name="PARAM1">      0.12340000</i>
   <i name="PARAM2">      1.00000000</i>
   <i name="PARAM3">      0.00000000</i>
  </separator>
  <separator name="model GW" >
   <i type="int" name="MODEL_GW">     0</i>
   <i name="MODEL_EPS0">    284.21052632</i>
   <i name="MODEL_ALPHA">      1.00000000</i>
  </separator>
  <separator name="linear response parameters" >
   <i type="logical" name="LEPSILON"> F  </i>
   <i type="logical" name="LRPA"> F  </i>
   <i type="logical" name="LNABLA"> F  </i>
   <i type="logical" name="LVEL"> F  </i>
   <i type="int" name="KINTER">     0</i>
   <i name="CSHIFT">      0.10000000</i>
   <i name="OMEGAMAX">     -1.00000000</i>
   <i name="DEG_THRESHOLD">      0.00200000</i>
   <i name="RTIME">     -0.10000000</i>
   <i name="WPLASMAI">      0.00000000</i>
   <v name="DFIELD">      0.00000000      0.00000000      0.00000000</v>
   <v name="WPLASMA">      0.00000000      0.00000000      0.00000000      0.00000000      0.00000000      0.00000000      0.00000000      0.00000000      0.00000000</v>
  </separator>
  <separator name="orbital magnetization" >
   <i type="logical" name="NUCIND"> F  </i>
   <v name="MAGPOS">      0.00000000      0.00000000      0.00000000</v>
   <i type="logical" name="LNICSALL"> T  </i>
   <i type="logical" name="ORBITALMAG"> F  </i>
   <i type="logical" name="LMAGBLOCH"> F  </i>
   <i type="logical" name="LCHIMAG"> F  </i>
   <i type="logical" name="LGAUGE"> T  </i>
   <i type="int" name="MAGATOM">     0</i>
   <v name="MAGDIPOL">      0.00000000      0.00000000      0.00000000</v>
   <v name="AVECCONST">      0.00000000      0.00000000      0.00000000</v>
  </separator>
  <separator name="response functions" >
   <i type="logical" name="LADDER"> F  </i>
   <i type="logical" name="LRPAFORCE"> F  </i>
   <i type="logical" name="LFXC"> F  </i>
   <i type="logical" name="LHARTREE"> T  </i>
   <i type="int" name="IBSE">     0</i>
   <v type="int" name="KPOINT">    -1     0     0     0</v>
   <i type="logical" name="LTCTE"> F  </i>
   <i type="logical" name="LTETE"> F  </i>
   <i type="logical" name="LTRIPLET"> F  </i>
   <i type="logical" name="LFXCEPS"> F  </i>
   <i type="logical" name="LFXHEG"> F  </i>
   <i type="int" name="NATURALO">     2</i>
   <i type="logical" name="L2ORDER"> F  </i>
   <i type="logical" name="LMP2LT"> F  </i>
   <i type="logical" name="LUSEW"> F  </i>
   <i name="ENCUTGW">     -2.00000000</i>
   <i name="ENCUTGWSOFT">     -2.00000000</i>
   <i name="ENCUTLF">     -1.00000000</i>
   <i type="int" name="LMAXMP2">    -1</i>
   <i name="SCISSOR">      0.00000000</i>
   <i type="int" name="NOMEGA">     0</i>
   <i type="int" name="NOMEGAR">     0</i>
   <i type="int" name="NBANDSGW">    -1</i>
   <i type="int" name="NBANDSO">    -1</i>
   <i type="int" name="NBANDSV">    -1</i>
   <i type="int" name="NELM">   100</i>
   <i type="int" name="NELMHF">     1</i>
   <i type="int" name="DIM">     3</i>
   <i type="int" name="ANTIRES">     0</i>
   <i name="OMEGAMAX">    -30.00000000</i>
   <i name="OMEGAMIN">    -30.00000000</i>
   <i name="OMEGATL">   -200.00000000</i>
   <i type="int" name="OMEGAGRID">   140</i>
   <i name="CSHIFT">     -0.10000000</i>
   <i type="logical" name="SELFENERGY"> F  </i>
   <i type="logical" name="LSPECTRAL"> F  </i>
   <i type="logical" name="LSPECTRALGW"> F  </i>
   <i type="logical" name="LSINGLES"> F  </i>
   <i type="logical" name="LFERMIGW"> F  </i>
   <i type="logical" name="ODDONLYGW"> F  </i>
   <i type="logical" name="EVENONLYGW"> F  </i>
   <i type="int" name="NKREDLFX">     1</i>
   <i type="int" name="NKREDLFY">     1</i>
   <i type="int" name="NKREDLFZ">     1</i>
   <i type="int" name="MAXMEM"> 10000</i>
   <i type="int" name="TELESCOPE">     0</i>
   <i type="int" name="TAUPAR">     1</i>
   <i type="int" name="OMEGAPAR">    -1</i>
   <i name="LAMBDA">      1.00000000</i>
  </separator>
  <separator name="External order field" >
   <i name="OFIELD_KAPPA">      0.00000000</i>
   <v name="OFIELD_K">      0.00000000      0.00000000      0.00000000</v>
   <i name="OFIELD_Q6_NEAR">      0.00000000</i>
   <i name="OFIELD_Q6_FAR">      0.00000000</i>
   <i name="OFIELD_A">      0.00000000</i>
  </separator>
 </parameters>
 <atominfo>
  <atoms>      57 </atoms>
  <types>       3 </types>
  <array name="atoms" >
   <dimension dim="1">ion</dimension>
   <field type="string">element</field>
   <field type="int">atomtype</field>
   <set>
    <rc><c>Pd</c><c>   1</c></rc>
    <rc><c>Pd</c><c>   1</c></rc>
    <rc><c>Pd</c><c>   1</c></rc>
    <rc><c>Pd</c><c>   1</c></rc>
    <rc><c>Pd</c><c>   1</c></rc>
    <rc><c>Pd</c><c>   1</c></rc>
    <rc><c>Pd</c><c>   1</c></rc>
    <rc><c>Pd</c><c>   1</c></rc>
    <rc><c>Pd</c><c>   1</c></rc>
    <rc><c>Pd</c><c>   1</c></rc>
    <rc><c>Pd</c><c>   1</c></rc>
    <rc><c>Pd</c><c>   1</c></rc>
    <rc><c>Pd</c><c>   1</c></rc>
    <rc><c>Pd</c><c>   1</c></rc>
    <rc><c>Pd</c><c>   1</c></rc>
    <rc><c>Pd</c><c>   1</c></rc>
    <rc><c>Pd</c><c>   1</c></rc>
    <rc><c>Pd</c><c>   1</c></rc>
    <rc><c>Pd</c><c>   1</c></rc>
    <rc><c>Pd</c><c>   1</c></rc>
    <rc><c>Pd</c><c>   1</c></rc>
    <rc><c>Pd</c><c>   1</c></rc>
    <rc><c>Pd</c><c>   1</c></rc>
    <rc><c>Pd</c><c>   1</c></rc>
    <rc><c>Pd</c><c>   1</c></rc>
    <rc><c>Pd</c><c>   1</c></rc>
    <rc><c>Pd</c><c>   1</c></rc>
    <rc><c>Pd</c><c>   1</c></rc>
    <rc><c>Pd</c><c>   1</c></rc>
    <rc><c>Pd</c><c>   1</c></rc>
    <rc><c>Pd</c><c>   1</c></rc>
    <rc><c>Pd</c><c>   1</c></rc>
    <rc><c>Pd</c><c>   1</c></rc>
    <rc><c>Pd</c><c>   1</c></rc>
    <rc><c>Pd</c><c>   1</c></rc>
    <rc><c>Pd</c><c>   1</c></rc>
    <rc><c>Pd</c><c>   1</c></rc>
    <rc><c>Pd</c><c>   1</c></rc>
    <rc><c>Pd</c><c>   1</c></rc>
    <rc><c>Pd</c><c>   1</c></rc>
    <rc><c>Pd</c><c>   1</c></rc>
    <rc><c>Pd</c><c>   1</c></rc>
    <rc><c>Pd</c><c>   1</c></rc>
    <rc><c>Pd</c><c>   1</c></rc>
    <rc><c>Pd</c><c>   1</c></rc>
    <rc><c>Pd</c><c>   1</c></rc>
    <rc><c>Pd</c><c>   1</c></rc>
    <rc><c>Pd</c><c>   1</c></rc>
    <rc><c>Pd</c><c>   1</c></rc>
    <rc><c>Pd</c><c>   1</c></rc>
    <rc><c>Pd</c><c>   1</c></rc>
    <rc><c>Pd</c><c>   1</c></rc>
    <rc><c>Pd</c><c>   1</c></rc>
    <rc><c>Pd</c><c>   1</c></rc>
    <rc><c>Pd</c><c>   1</c></rc>
    <rc><c>C </c><c>   2</c></rc>
    <rc><c>O </c><c>   3</c></rc>
   </set>
  </array>
  <array name="atomtypes" >
   <dimension dim="1">type</dimension>
   <field type="int">atomspertype</field>
   <field type="string">element</field>
   <field>mass</field>
   <field>valence</field>
   <field type="string">pseudopotential</field>
   <set>
    <rc><c>  55</c><c>Pd</c><c>    106.42000000</c><c>     10.00000000</c><c>  PAW_PBE Pd 04Jan2005                  </c></rc>
    <rc><c>   1</c><c>C </c><c>     12.01100000</c><c>      4.00000000</c><c>  PAW_PBE C 08Apr2002                   </c></rc>
    <rc><c>   1</c><c>O </c><c>     16.00000000</c><c>      6.00000000</c><c>  PAW_PBE O 08Apr2002                   </c></rc>
   </set>
  </array>
 </atominfo>
 <structure name="initialpos" >
  <crystal>
   <varray name="basis" >
    <v>      30.00000000       0.00000000       0.00000000 </v>
    <v>       0.00000000      30.00000000       0.00000000 </v>
    <v>       0.00000000       0.00000000      30.00000000 </v>
   </varray>
   <i name="volume">  27000.00000000 </i>
   <varray name="rec_basis" >
    <v>       0.03333333       0.00000000       0.00000000 </v>
    <v>       0.00000000       0.03333333       0.00000000 </v>
    <v>       0.00000000       0.00000000       0.03333333 </v>
   </varray>
  </crystal>
  <varray name="positions" >
   <v>       0.44576020       0.32826710       0.41691983 </v>
   <v>       0.67173288       0.55423978       0.41691983 </v>
   <v>       0.55423980       0.32826710       0.41691983 </v>
   <v>       0.32826712       0.55423978       0.41691983 </v>
   <v>       0.50000000       0.38250690       0.34021317 </v>
   <v>       0.50000000       0.38250690       0.65978680 </v>
   <v>       0.50000000       0.27609440       0.50000000 </v>
   <v>       0.27609443       0.49999998       0.50000000 </v>
   <v>       0.72390557       0.49999998       0.50000000 </v>
   <v>       0.50000000       0.72390555       0.50000000 </v>
   <v>       0.61195280       0.38804720       0.34167483 </v>
   <v>       0.61195280       0.38804720       0.65832513 </v>
   <v>       0.38804722       0.61195278       0.34167483 </v>
   <v>       0.38804722       0.61195278       0.65832513 </v>
   <v>       0.38804720       0.38804720       0.34167483 </v>
   <v>       0.38804720       0.38804720       0.65832513 </v>
   <v>       0.61195278       0.61195278       0.34167483 </v>
   <v>       0.61195278       0.61195278       0.65832513 </v>
   <v>       0.44576020       0.32826710       0.58308023 </v>
   <v>       0.67173288       0.55423978       0.58308023 </v>
   <v>       0.55791699       0.44208301       0.41809300 </v>
   <v>       0.32826705       0.44576024       0.41691983 </v>
   <v>       0.55423973       0.67173293       0.41691983 </v>
   <v>       0.55423980       0.32826710       0.58308023 </v>
   <v>       0.32826712       0.55423978       0.58308023 </v>
   <v>       0.67173295       0.44576024       0.41691983 </v>
   <v>       0.44576027       0.67173293       0.41691983 </v>
   <v>       0.44208301       0.44208301       0.41809300 </v>
   <v>       0.50000000       0.38416601       0.50000000 </v>
   <v>       0.61749315       0.50000005       0.34021317 </v>
   <v>       0.61749315       0.50000005       0.65978680 </v>
   <v>       0.38250685       0.50000005       0.34021317 </v>
   <v>       0.38250685       0.50000005       0.65978680 </v>
   <v>       0.38317830       0.38317830       0.50000000 </v>
   <v>       0.61682172       0.61682172       0.50000000 </v>
   <v>       0.61682170       0.38317830       0.50000000 </v>
   <v>       0.38317828       0.61682172       0.50000000 </v>
   <v>       0.50000000       0.50000000       0.33478917 </v>
   <v>       0.50000000       0.50000000       0.66521087 </v>
   <v>       0.32826705       0.44576024       0.58308023 </v>
   <v>       0.55423973       0.67173293       0.58308023 </v>
   <v>       0.55791699       0.44208301       0.58190703 </v>
   <v>       0.44208298       0.55791702       0.41809300 </v>
   <v>       0.44208301       0.44208301       0.58190703 </v>
   <v>       0.67173295       0.44576024       0.58308023 </v>
   <v>       0.44576027       0.67173293       0.58308023 </v>
   <v>       0.55791702       0.55791702       0.41809300 </v>
   <v>       0.38416599       0.50000002       0.50000000 </v>
   <v>       0.61583401       0.50000002       0.50000000 </v>
   <v>       0.50000000       0.61749319       0.34021317 </v>
   <v>       0.50000000       0.61749319       0.65978680 </v>
   <v>       0.50000000       0.50000000       0.50000000 </v>
   <v>       0.44208298       0.55791702       0.58190703 </v>
   <v>       0.55791702       0.55791702       0.58190703 </v>
   <v>       0.50000000       0.61583404       0.50000000 </v>
   <v>       0.49654240       0.48051030       0.24311307 </v>
   <v>       0.49603780       0.47766607       0.20562420 </v>
  </varray>
  <varray name="selective"  type="logical" >
   <v type="logical" >  F  F  F </v>
   <v type="logical" >  F  F  F </v>
   <v type="logical" >  F  F  F </v>
   <v type="logical" >  F  F  F </v>
   <v type="logical" >  F  F  F </v>
   <v type="logical" >  F  F  F </v>
   <v type="logical" >  F  F  F </v>
   <v type="logical" >  F  F  F </v>
   <v type="logical" >  F  F  F </v>
   <v type="logical" >  F  F  F </v>
   <v type="logical" >  F  F  F </v>
   <v type="logical" >  F  F  F </v>
   <v type="logical" >  F  F  F </v>
   <v type="logical" >  F  F  F </v>
   <v type="logical" >  F  F  F </v>
   <v type="logical" >  F  F  F </v>
   <v type="logical" >  F  F  F </v>
   <v type="logical" >  F  F  F </v>
   <v type="logical" >  F  F  F </v>
   <v type="logical" >  F  F  F </v>
   <v type="logical" >  F  F  F </v>
   <v type="logical" >  F  F  F </v>
   <v type="logical" >  F  F  F </v>
   <v type="logical" >  F  F  F </v>
   <v type="logical" >  F  F  F </v>
   <v type="logical" >  F  F  F </v>
   <v type="logical" >  F  F  F </v>
   <v type="logical" >  F  F  F </v>
   <v type="logical" >  F  F  F </v>
   <v type="logical" >  F  F  F </v>
   <v type="logical" >  F  F  F </v>
   <v type="logical" >  F  F  F </v>
   <v type="logical" >  F  F  F </v>
   <v type="logical" >  F  F  F </v>
   <v type="logical" >  F  F  F </v>
   <v type="logical" >  F  F  F </v>
   <v type="logical" >  F  F  F </v>
   <v type="logical" >  F  F  F </v>
   <v type="logical" >  F  F  F </v>
   <v type="logical" >  F  F  F </v>
   <v type="logical" >  F  F  F </v>
   <v type="logical" >  F  F  F </v>
   <v type="logical" >  F  F  F </v>
   <v type="logical" >  F  F  F </v>
   <v type="logical" >  F  F  F </v>
   <v type="logical" >  F  F  F </v>
   <v type="logical" >  F  F  F </v>
   <v type="logical" >  F  F  F </v>
   <v type="logical" >  F  F  F </v>
   <v type="logical" >  F  F  F </v>
   <v type="logical" >  F  F  F </v>
   <v type="logical" >  F  F  F </v>
   <v type="logical" >  F  F  F </v>
   <v type="logical" >  F  F  F </v>
   <v type="logical" >  F  F  F </v>
   <v type="logical" >  F  F  F </v>
   <v type="logical" >  F  F  F </v>
  </varray>
  <nose>
   <v>      -3.00000000       0.00000000       0.00010000       0.00010000 </v>
  </nose>
 </structure>
 <calculation>
  <scstep>
   <time name="dav">  307.71  307.79</time>
   <time name="total">  320.02  320.10</time>
   <energy>
    <i name="alphaZ">     75.25431677 </i>
    <i name="ewald"> 137762.78685757 </i>
    <i name="hartreedc">-181131.16717104 </i>
    <i name="XCdc">  -1704.08988778 </i>
    <i name="pawpsdc">  44873.02882129 </i>
    <i name="pawaedc"> -41398.84523641 </i>
    <i name="eentropy">      0.00741699 </i>
    <i name="bandstr">    818.42570543 </i>
    <i name="atom">  45086.50549395 </i>
    <i name="e_fr_energy">   4381.90631677 </i>
    <i name="e_wo_entrp">   4381.89889979 </i>
    <i name="e_0_energy">   4381.90446253 </i>
   </energy>
  </scstep>
  <scstep>
   <time name="dav">  499.22  499.23</time>
   <time name="total">  499.22  499.23</time>
   <energy>
    <i name="e_fr_energy">   2012.33776110 </i>
    <i name="e_wo_entrp">   2012.37880443 </i>
    <i name="e_0_energy">   2012.34802193 </i>
   </energy>
  </scstep>
  <scstep>
   <time name="dav">  415.15  415.16</time>
   <time name="total">  415.15  415.16</time>
   <energy>
    <i name="e_fr_energy">    232.51024954 </i>
    <i name="e_wo_entrp">    232.56027838 </i>
    <i name="e_0_energy">    232.52275675 </i>
   </energy>
  </scstep>
  <scstep>
   <time name="dav">  355.44  355.47</time>
   <time name="total">  355.44  355.47</time>
   <energy>
    <i name="e_fr_energy">   -134.17910968 </i>
    <i name="e_wo_entrp">   -134.19717139 </i>
    <i name="e_0_energy">   -134.18362511 </i>
   </energy>
  </scstep>
  <scstep>
   <time name="dav">  435.79  435.83</time>
   <time name="total">  457.72  457.77</time>
   <energy>
    <i name="e_fr_energy">   -178.45318974 </i>
    <i name="e_wo_entrp">   -178.97449478 </i>
    <i name="e_0_energy">   -178.58351600 </i>
   </energy>
  </scstep>
  <scstep>
   <time name="diag">   56.68   56.68</time>
   <time name="diis">  158.50  158.52</time>
   <time name="orth">   11.11   11.11</time>
   <time name="total">  258.69  258.72</time>
   <energy>
    <i name="e_fr_energy">   -178.85441486 </i>
    <i name="e_wo_entrp">   -178.70479764 </i>
    <i name="e_0_energy">   -178.81701056 </i>
   </energy>
  </scstep>
  <scstep>
   <time name="diag">   56.73   56.74</time>
   <time name="diis">  187.36  187.38</time>
   <time name="orth">   11.19   11.19</time>
   <time name="total">  287.53  287.56</time>
   <energy>
    <i name="e_fr_energy">   -180.02124911 </i>
    <i name="e_wo_entrp">   -180.19643311 </i>
    <i name="e_0_energy">   -180.06504511 </i>
   </energy>
  </scstep>
  <scstep>
   <time name="diag">   56.84   56.84</time>
   <time name="diis">  173.04  173.06</time>
   <time name="orth">   11.04   11.04</time>
   <time name="total">  273.51  273.54</time>
   <energy>
    <i name="e_fr_energy">   -181.89752836 </i>
    <i name="e_wo_entrp">   -181.78839349 </i>
    <i name="e_0_energy">   -181.87024464 </i>
   </energy>
  </scstep>
  <scstep>
   <time name="diag">   56.82   56.82</time>
   <time name="diis">  162.48  162.48</time>
   <time name="orth">   11.46   11.47</time>
   <time name="total">  263.55  263.56</time>
   <energy>
    <i name="e_fr_energy">   -182.57064802 </i>
    <i name="e_wo_entrp">   -182.42762044 </i>
    <i name="e_0_energy">   -182.53489113 </i>
   </energy>
  </scstep>
  <scstep>
   <time name="diag">   57.78   57.78</time>
   <time name="diis">  163.72  163.72</time>
   <time name="orth">   11.60   11.60</time>
   <time name="total">  266.55  266.55</time>
   <energy>
    <i name="e_fr_energy">   -179.78640512 </i>
    <i name="e_wo_entrp">   -179.65188507 </i>
    <i name="e_0_energy">   -179.75277511 </i>
   </energy>
  </scstep>
  <scstep>
   <time name="diag">   58.46   58.46</time>
   <time name="diis">  161.49  161.49</time>
   <time name="orth">   11.26   11.26</time>
   <time name="total">  264.65  264.66</time>
   <energy>
    <i name="e_fr_energy">   -178.30518177 </i>
    <i name="e_wo_entrp">   -178.20905112 </i>
    <i name="e_0_energy">   -178.28114911 </i>
   </energy>
  </scstep>
  <scstep>
   <time name="diag">   57.07   57.07</time>
   <time name="diis">  160.36  160.36</time>
   <time name="orth">   11.24   11.24</time>
   <time name="total">  261.29  261.29</time>
   <energy>
    <i name="e_fr_energy">   -176.75662905 </i>
    <i name="e_wo_entrp">   -176.63891873 </i>
    <i name="e_0_energy">   -176.72720147 </i>
   </energy>
  </scstep>
  <scstep>
   <time name="diag">   57.21   57.21</time>
   <time name="diis">  158.19  158.19</time>
   <time name="orth">   11.30   11.30</time>
   <time name="total">  259.35  259.35</time>
   <energy>
    <i name="e_fr_energy">   -175.93416244 </i>
    <i name="e_wo_entrp">   -175.79012736 </i>
    <i name="e_0_energy">   -175.89815367 </i>
   </energy>
  </scstep>
  <scstep>
   <time name="diag">   57.10   57.10</time>
   <time name="diis">  159.35  159.35</time>
   <time name="orth">   11.25   11.25</time>
   <time name="total">  260.38  260.38</time>
   <energy>
    <i name="e_fr_energy">   -175.99524112 </i>
    <i name="e_wo_entrp">   -176.06547235 </i>
    <i name="e_0_energy">   -176.01279893 </i>
   </energy>
  </scstep>
  <scstep>
   <time name="diag">   57.40   57.40</time>
   <time name="diis">  158.09  158.09</time>
   <time name="orth">   11.27   11.27</time>
   <time name="total">  259.44  259.44</time>
   <energy>
    <i name="e_fr_energy">   -176.23020215 </i>
    <i name="e_wo_entrp">   -176.29422359 </i>
    <i name="e_0_energy">   -176.24620751 </i>
   </energy>
  </scstep>
  <scstep>
   <time name="diag">   57.43   57.43</time>
   <time name="diis">  157.98  157.99</time>
   <time name="orth">   11.42   11.42</time>
   <time name="total">  259.97  259.97</time>
   <energy>
    <i name="e_fr_energy">   -175.70052429 </i>
    <i name="e_wo_entrp">   -175.62514145 </i>
    <i name="e_0_energy">   -175.68167858 </i>
   </energy>
  </scstep>
  <scstep>
   <time name="diag">   57.68   57.68</time>
   <time name="diis">  159.51  159.51</time>
   <time name="orth">   11.48   11.48</time>
   <time name="total">  262.41  262.41</time>
   <energy>
    <i name="e_fr_energy">   -175.18940501 </i>
    <i name="e_wo_entrp">   -175.26016124 </i>
    <i name="e_0_energy">   -175.20709407 </i>
   </energy>
  </scstep>
  <scstep>
   <time name="diag">   58.00   58.00</time>
   <time name="diis">  160.83  160.83</time>
   <time name="orth">   11.45   11.45</time>
   <time name="total">  263.91  263.91</time>
   <energy>
    <i name="e_fr_energy">   -174.80941173 </i>
    <i name="e_wo_entrp">   -174.82404423 </i>
    <i name="e_0_energy">   -174.81306985 </i>
   </energy>
  </scstep>
  <scstep>
   <time name="diag">   57.23   57.23</time>
   <time name="diis">  156.39  156.39</time>
   <time name="orth">   11.20   11.20</time>
   <time name="total">  257.52  257.52</time>
   <energy>
    <i name="e_fr_energy">   -174.56558355 </i>
    <i name="e_wo_entrp">   -174.50952440 </i>
    <i name="e_0_energy">   -174.55156876 </i>
   </energy>
  </scstep>
  <scstep>
   <time name="diag">   57.14   57.14</time>
   <time name="diis">  155.15  155.15</time>
   <time name="orth">   11.19   11.19</time>
   <time name="total">  256.37  256.37</time>
   <energy>
    <i name="e_fr_energy">   -174.41240619 </i>
    <i name="e_wo_entrp">   -174.37591374 </i>
    <i name="e_0_energy">   -174.40328308 </i>
   </energy>
  </scstep>
  <scstep>
   <time name="diag">   57.10   57.09</time>
   <time name="diis">  156.14  156.14</time>
   <time name="orth">   11.23   11.23</time>
   <time name="total">  257.44  257.45</time>
   <energy>
    <i name="e_fr_energy">   -174.27728532 </i>
    <i name="e_wo_entrp">   -174.24914192 </i>
    <i name="e_0_energy">   -174.27024947 </i>
   </energy>
  </scstep>
  <scstep>
   <time name="diag">   57.63   57.63</time>
   <time name="diis">  157.16  157.16</time>
   <time name="orth">   11.24   11.24</time>
   <time name="total">  259.22  259.23</time>
   <energy>
    <i name="e_fr_energy">   -174.14659864 </i>
    <i name="e_wo_entrp">   -174.06394677 </i>
    <i name="e_0_energy">   -174.12593568 </i>
   </energy>
  </scstep>
  <scstep>
   <time name="diag">   57.21   57.21</time>
   <time name="diis">  155.28  155.28</time>
   <time name="orth">   11.25   11.25</time>
   <time name="total">  256.75  256.76</time>
   <energy>
    <i name="e_fr_energy">   -174.05525031 </i>
    <i name="e_wo_entrp">   -173.98739909 </i>
    <i name="e_0_energy">   -174.03828751 </i>
   </energy>
  </scstep>
  <scstep>
   <time name="diag">   57.17   57.17</time>
   <time name="diis">  154.99  154.99</time>
   <time name="orth">   11.24   11.24</time>
   <time name="total">  256.56  256.57</time>
   <energy>
    <i name="e_fr_energy">   -174.04152525 </i>
    <i name="e_wo_entrp">   -173.97755851 </i>
    <i name="e_0_energy">   -174.02553357 </i>
   </energy>
  </scstep>
  <scstep>
   <time name="diag">   57.15   57.16</time>
   <time name="diis">  156.18  156.19</time>
   <time name="orth">   11.58   11.58</time>
   <time name="total">  258.65  258.66</time>
   <energy>
    <i name="e_fr_energy">   -173.95918337 </i>
    <i name="e_wo_entrp">   -173.87488053 </i>
    <i name="e_0_energy">   -173.93810766 </i>
   </energy>
  </scstep>
  <scstep>
   <time name="diag">   57.93   57.94</time>
   <time name="diis">  159.92  159.93</time>
   <time name="orth">   11.48   11.48</time>
   <time name="total">  263.57  263.60</time>
   <energy>
    <i name="e_fr_energy">   -173.86824325 </i>
    <i name="e_wo_entrp">   -173.78332807 </i>
    <i name="e_0_energy">   -173.84701446 </i>
   </energy>
  </scstep>
  <scstep>
   <time name="diag">   57.96   57.96</time>
   <time name="diis">  160.91  160.93</time>
   <time name="orth">   11.54   11.54</time>
   <time name="total">  264.96  264.99</time>
   <energy>
    <i name="e_fr_energy">   -173.84000631 </i>
    <i name="e_wo_entrp">   -173.76749654 </i>
    <i name="e_0_energy">   -173.82187887 </i>
   </energy>
  </scstep>
  <scstep>
   <time name="diag">   58.43   58.44</time>
   <time name="diis">  154.28  154.30</time>
   <time name="orth">   11.06   11.06</time>
   <time name="total">  257.96  258.00</time>
   <energy>
    <i name="e_fr_energy">   -173.82732112 </i>
    <i name="e_wo_entrp">   -173.73954620 </i>
    <i name="e_0_energy">   -173.80537739 </i>
   </energy>
  </scstep>
  <scstep>
   <time name="diag">   57.13   57.14</time>
   <time name="diis">  154.59  154.60</time>
   <time name="orth">   10.94   10.94</time>
   <time name="total">  255.89  255.92</time>
   <energy>
    <i name="e_fr_energy">   -173.78156322 </i>
    <i name="e_wo_entrp">   -173.70089986 </i>
    <i name="e_0_energy">   -173.76139738 </i>
   </energy>
  </scstep>
  <scstep>
   <time name="diag">   57.40   57.40</time>
   <time name="diis">  155.70  155.72</time>
   <time name="orth">   10.85   10.85</time>
   <time name="total">  257.61  257.65</time>
   <energy>
    <i name="e_fr_energy">   -173.78246681 </i>
    <i name="e_wo_entrp">   -173.69815989 </i>
    <i name="e_0_energy">   -173.76139008 </i>
   </energy>
  </scstep>
  <scstep>
   <time name="diag">   57.28   57.28</time>
   <time name="diis">  155.54  155.56</time>
   <time name="orth">   10.93   10.93</time>
   <time name="total">  257.11  257.14</time>
   <energy>
    <i name="e_fr_energy">   -173.77376605 </i>
    <i name="e_wo_entrp">   -173.68572948 </i>
    <i name="e_0_energy">   -173.75175691 </i>
   </energy>
  </scstep>
  <scstep>
   <time name="diag">   57.29   57.30</time>
   <time name="diis">  154.13  154.14</time>
   <time name="orth">   11.01   11.01</time>
   <time name="total">  255.75  255.77</time>
   <energy>
    <i name="e_fr_energy">   -173.75808294 </i>
    <i name="e_wo_entrp">   -173.66945866 </i>
    <i name="e_0_energy">   -173.73592687 </i>
   </energy>
  </scstep>
  <scstep>
   <time name="diag">   57.39   57.39</time>
   <time name="diis">  154.05  154.07</time>
   <time name="orth">   10.99   11.00</time>
   <time name="total">  256.02  256.04</time>
   <energy>
    <i name="e_fr_energy">   -173.75438875 </i>
    <i name="e_wo_entrp">   -173.66640426 </i>
    <i name="e_0_energy">   -173.73239263 </i>
   </energy>
  </scstep>
  <scstep>
   <time name="diag">   57.29   57.29</time>
   <time name="diis">  154.47  154.49</time>
   <time name="orth">   11.04   11.04</time>
   <time name="total">  256.44  256.46</time>
   <energy>
    <i name="e_fr_energy">   -173.75341002 </i>
    <i name="e_wo_entrp">   -173.66570392 </i>
    <i name="e_0_energy">   -173.73148350 </i>
   </energy>
  </scstep>
  <scstep>
   <time name="diag">   57.50   57.51</time>
   <time name="diis">  154.78  154.80</time>
   <time name="orth">   11.08   11.08</time>
   <time name="total">  257.15  257.18</time>
   <energy>
    <i name="e_fr_energy">   -173.74918425 </i>
    <i name="e_wo_entrp">   -173.65884225 </i>
    <i name="e_0_energy">   -173.72659875 </i>
   </energy>
  </scstep>
  <scstep>
   <time name="diag">   57.44   57.45</time>
   <time name="diis">  153.82  153.84</time>
   <time name="orth">   11.07   11.07</time>
   <time name="total">  256.23  256.26</time>
   <energy>
    <i name="e_fr_energy">   -173.75037386 </i>
    <i name="e_wo_entrp">   -173.66471057 </i>
    <i name="e_0_energy">   -173.72895803 </i>
   </energy>
  </scstep>
  <scstep>
   <time name="diag">   57.36   57.37</time>
   <time name="diis">  153.38  153.40</time>
   <time name="orth">   11.06   11.06</time>
   <time name="total">  255.78  255.81</time>
   <energy>
    <i name="e_fr_energy">   -173.75136331 </i>
    <i name="e_wo_entrp">   -173.66392207 </i>
    <i name="e_0_energy">   -173.72950300 </i>
   </energy>
  </scstep>
  <scstep>
   <time name="diag">   57.20   57.20</time>
   <time name="diis">  153.00  153.00</time>
   <time name="orth">   11.02   11.02</time>
   <time name="total">  255.29  255.29</time>
   <energy>
    <i name="e_fr_energy">   -173.75294793 </i>
    <i name="e_wo_entrp">   -173.66473182 </i>
    <i name="e_0_energy">   -173.73089390 </i>
   </energy>
  </scstep>
  <scstep>
   <time name="diag">   57.27   57.27</time>
   <time name="diis">  153.27  153.27</time>
   <time name="orth">   11.21   11.21</time>
   <time name="total">  256.65  256.65</time>
   <energy>
    <i name="e_fr_energy">   -173.75656969 </i>
    <i name="e_wo_entrp">   -173.66875224 </i>
    <i name="e_0_energy">   -173.73461533 </i>
   </energy>
  </scstep>
  <scstep>
   <time name="diag">   59.88   59.88</time>
   <time name="diis">  154.51  154.51</time>
   <time name="orth">   11.38   11.38</time>
   <time name="total">  261.42  261.42</time>
   <energy>
    <i name="e_fr_energy">   -173.75850469 </i>
    <i name="e_wo_entrp">   -173.67003826 </i>
    <i name="e_0_energy">   -173.73638808 </i>
   </energy>
  </scstep>
  <scstep>
   <time name="diag">   57.73   57.73</time>
   <time name="diis">  115.12  115.12</time>
   <time name="orth">   11.14   11.14</time>
   <time name="total">  218.56  218.56</time>
   <energy>
    <i name="e_fr_energy">   -173.75979181 </i>
    <i name="e_wo_entrp">   -173.67138353 </i>
    <i name="e_0_energy">   -173.73768974 </i>
   </energy>
  </scstep>
  <scstep>
   <time name="diag">   58.29   58.29</time>
   <time name="diis">  108.31  108.31</time>
   <time name="orth">   11.10   11.10</time>
   <time name="total">  212.32  212.33</time>
   <energy>
    <i name="e_fr_energy">   -173.76180024 </i>
    <i name="e_wo_entrp">   -173.67330710 </i>
    <i name="e_0_energy">   -173.73967695 </i>
   </energy>
  </scstep>
  <scstep>
   <time name="diag">   57.56   57.56</time>
   <time name="diis">  102.10  102.10</time>
   <time name="orth">   11.38   11.38</time>
   <time name="total">  206.25  206.25</time>
   <energy>
    <i name="e_fr_energy">   -173.76302224 </i>
    <i name="e_wo_entrp">   -173.67562469 </i>
    <i name="e_0_energy">   -173.74117285 </i>
   </energy>
  </scstep>
  <scstep>
   <time name="diag">   57.34   57.34</time>
   <time name="diis">  108.12  108.12</time>
   <time name="orth">   11.07   11.07</time>
   <time name="total">  212.12  212.12</time>
   <energy>
    <i name="e_fr_energy">   -173.76566332 </i>
    <i name="e_wo_entrp">   -173.67910783 </i>
    <i name="e_0_energy">   -173.74402445 </i>
   </energy>
  </scstep>
  <scstep>
   <time name="diag">   58.46   58.46</time>
   <time name="diis">  104.99  104.99</time>
   <time name="orth">   11.31   11.31</time>
   <time name="total">  210.03  210.04</time>
   <energy>
    <i name="e_fr_energy">   -173.76725607 </i>
    <i name="e_wo_entrp">   -173.68016557 </i>
    <i name="e_0_energy">   -173.74548345 </i>
   </energy>
  </scstep>
  <scstep>
   <time name="diag">   57.27   57.27</time>
   <time name="diis">  100.85  100.86</time>
   <time name="orth">   11.08   11.08</time>
   <time name="total">  204.30  204.30</time>
   <energy>
    <i name="e_fr_energy">   -173.76906914 </i>
    <i name="e_wo_entrp">   -173.68173512 </i>
    <i name="e_0_energy">   -173.74723563 </i>
   </energy>
  </scstep>
  <scstep>
   <time name="diag">   57.05   57.05</time>
   <time name="diis">  102.08  102.08</time>
   <time name="orth">   11.27   11.27</time>
   <time name="total">  206.18  206.18</time>
   <energy>
    <i name="e_fr_energy">   -173.77110344 </i>
    <i name="e_wo_entrp">   -173.68324495 </i>
    <i name="e_0_energy">   -173.74913881 </i>
   </energy>
  </scstep>
  <scstep>
   <time name="diag">   57.87   57.87</time>
   <time name="diis">  100.14  100.14</time>
   <time name="orth">   11.07   11.07</time>
   <time name="total">  205.11  205.11</time>
   <energy>
    <i name="e_fr_energy">   -173.77191050 </i>
    <i name="e_wo_entrp">   -173.68411548 </i>
    <i name="e_0_energy">   -173.74996174 </i>
   </energy>
  </scstep>
  <scstep>
   <time name="diag">   56.83   56.83</time>
   <time name="diis">   97.24   97.24</time>
   <time name="orth">   11.05   11.05</time>
   <time name="total">  200.70  200.70</time>
   <energy>
    <i name="e_fr_energy">   -173.77349842 </i>
    <i name="e_wo_entrp">   -173.68537899 </i>
    <i name="e_0_energy">   -173.75146856 </i>
   </energy>
  </scstep>
  <scstep>
   <time name="diag">   57.05   57.05</time>
   <time name="diis">   99.33   99.34</time>
   <time name="orth">   11.25   11.25</time>
   <time name="total">  203.66  203.66</time>
   <energy>
    <i name="e_fr_energy">   -173.77416021 </i>
    <i name="e_wo_entrp">   -173.68654298 </i>
    <i name="e_0_energy">   -173.75225590 </i>
   </energy>
  </scstep>
  <scstep>
   <time name="diag">   58.12   58.13</time>
   <time name="diis">   99.48   99.49</time>
   <time name="orth">   11.36   11.36</time>
   <time name="total">  205.51  205.52</time>
   <energy>
    <i name="e_fr_energy">   -173.77516302 </i>
    <i name="e_wo_entrp">   -173.68803441 </i>
    <i name="e_0_energy">   -173.75338087 </i>
   </energy>
  </scstep>
  <scstep>
   <time name="diag">   57.71   57.72</time>
   <time name="diis">   98.23   98.24</time>
   <time name="orth">   11.06   11.06</time>
   <time name="total">  203.27  203.27</time>
   <energy>
    <i name="e_fr_energy">   -173.77556045 </i>
    <i name="e_wo_entrp">   -173.68817788 </i>
    <i name="e_0_energy">   -173.75371481 </i>
   </energy>
  </scstep>
  <scstep>
   <time name="diag">   57.38   57.38</time>
   <time name="diis">   94.78   94.78</time>
   <time name="orth">   11.13   11.13</time>
   <time name="total">  198.92  198.92</time>
   <energy>
    <i name="e_fr_energy">   -173.77598928 </i>
    <i name="e_wo_entrp">   -173.68846995 </i>
    <i name="e_0_energy">   -173.75410945 </i>
   </energy>
  </scstep>
  <scstep>
   <time name="diag">   57.98   57.98</time>
   <time name="diis">   87.86   87.86</time>
   <time name="orth">   11.06   11.06</time>
   <time name="total">  192.69  192.70</time>
   <energy>
    <i name="e_fr_energy">   -173.77651823 </i>
    <i name="e_wo_entrp">   -173.68912658 </i>
    <i name="e_0_energy">   -173.75467032 </i>
   </energy>
  </scstep>
  <scstep>
   <time name="diag">   57.84   57.84</time>
   <time name="diis">   70.69   70.70</time>
   <time name="orth">   11.19   11.19</time>
   <time name="total">  175.86  175.86</time>
   <energy>
    <i name="e_fr_energy">   -173.77667890 </i>
    <i name="e_wo_entrp">   -173.68934289 </i>
    <i name="e_0_energy">   -173.75484490 </i>
   </energy>
  </scstep>
  <scstep>
   <time name="diag">   58.09   58.09</time>
   <time name="diis">   76.39   76.39</time>
   <time name="orth">   11.37   11.37</time>
   <time name="total">  182.47  182.47</time>
   <energy>
    <i name="e_fr_energy">   -173.77701714 </i>
    <i name="e_wo_entrp">   -173.68960384 </i>
    <i name="e_0_energy">   -173.75516381 </i>
   </energy>
  </scstep>
  <scstep>
   <time name="diag">   58.03   58.03</time>
   <time name="diis">   69.46   69.46</time>
   <time name="orth">   11.28   11.28</time>
   <time name="total">  175.07  175.08</time>
   <energy>
    <i name="e_fr_energy">   -173.77715952 </i>
    <i name="e_wo_entrp">   -173.68976163 </i>
    <i name="e_0_energy">   -173.75531005 </i>
   </energy>
  </scstep>
  <scstep>
   <time name="diag">   56.45   56.45</time>
   <time name="diis">   72.43   72.43</time>
   <time name="orth">   11.12   11.12</time>
   <time name="total">  175.67  175.67</time>
   <energy>
    <i name="e_fr_energy">   -173.77739755 </i>
    <i name="e_wo_entrp">   -173.69012800 </i>
    <i name="e_0_energy">   -173.75558016 </i>
   </energy>
  </scstep>
  <scstep>
   <time name="diag">   57.51   57.51</time>
   <time name="diis">   70.34   70.35</time>
   <time name="orth">   11.11   11.11</time>
   <time name="total">  175.19  175.20</time>
   <energy>
    <i name="e_fr_energy">   -173.77760034 </i>
    <i name="e_wo_entrp">   -173.69027136 </i>
    <i name="e_0_energy">   -173.75576809 </i>
   </energy>
  </scstep>
  <scstep>
   <time name="diag">   57.44   57.44</time>
   <time name="diis">   68.13   68.13</time>
   <time name="orth">   11.11   11.11</time>
   <time name="total">  172.53  172.53</time>
   <energy>
    <i name="e_fr_energy">   -173.77774362 </i>
    <i name="e_wo_entrp">   -173.69033191 </i>
    <i name="e_0_energy">   -173.75589069 </i>
   </energy>
  </scstep>
  <scstep>
   <time name="diag">   57.41   57.41</time>
   <time name="diis">   63.83   63.83</time>
   <time name="orth">   11.11   11.11</time>
   <time name="total">  143.64  143.65</time>
   <energy>
    <i name="alphaZ">     75.25431677 </i>
    <i name="ewald"> 137762.78685757 </i>
    <i name="hartreedc">-182140.01976985 </i>
    <i name="XCdc">  -1693.39091020 </i>
    <i name="pawpsdc">  46033.82794401 </i>
    <i name="pawaedc"> -42503.15941105 </i>
    <i name="eentropy">     -0.08738398 </i>
    <i name="bandstr">  -2795.49495579 </i>
    <i name="atom">  45086.50549395 </i>
    <i name="e_fr_energy">   -173.77781856 </i>
    <i name="e_wo_entrp">   -173.69043458 </i>
    <i name="e_0_energy">   -173.75597257 </i>
   </energy>
  </scstep>
  <structure>
   <crystal>
    <varray name="basis" >
     <v>      30.00000000       0.00000000       0.00000000 </v>
     <v>       0.00000000      30.00000000       0.00000000 </v>
     <v>       0.00000000       0.00000000      30.00000000 </v>
    </varray>
    <i name="volume">  27000.00000000 </i>
    <varray name="rec_basis" >
     <v>       0.03333333       0.00000000       0.00000000 </v>
     <v>       0.00000000       0.03333333       0.00000000 </v>
     <v>       0.00000000       0.00000000       0.03333333 </v>
    </varray>
   </crystal>
   <varray name="positions" >
    <v>       0.44576020       0.32826710       0.41691983 </v>
    <v>       0.67173288       0.55423978       0.41691983 </v>
    <v>       0.55423980       0.32826710       0.41691983 </v>
    <v>       0.32826712       0.55423978       0.41691983 </v>
    <v>       0.50000000       0.38250690       0.34021317 </v>
    <v>       0.50000000       0.38250690       0.65978680 </v>
    <v>       0.50000000       0.27609440       0.50000000 </v>
    <v>       0.27609443       0.49999998       0.50000000 </v>
    <v>       0.72390557       0.49999998       0.50000000 </v>
    <v>       0.50000000       0.72390555       0.50000000 </v>
    <v>       0.61195280       0.38804720       0.34167483 </v>
    <v>       0.61195280       0.38804720       0.65832513 </v>
    <v>       0.38804722       0.61195278       0.34167483 </v>
    <v>       0.38804722       0.61195278       0.65832513 </v>
    <v>       0.38804720       0.38804720       0.34167483 </v>
    <v>       0.38804720       0.38804720       0.65832513 </v>
    <v>       0.61195278       0.61195278       0.34167483 </v>
    <v>       0.61195278       0.61195278       0.65832513 </v>
    <v>       0.44576020       0.32826710       0.58308023 </v>
    <v>       0.67173288       0.55423978       0.58308023 </v>
    <v>       0.55791699       0.44208301       0.41809300 </v>
    <v>       0.32826705       0.44576024       0.41691983 </v>
    <v>       0.55423973       0.67173293       0.41691983 </v>
    <v>       0.55423980       0.32826710       0.58308023 </v>
    <v>       0.32826712       0.55423978       0.58308023 </v>
    <v>       0.67173295       0.44576024       0.41691983 </v>
    <v>       0.44576027       0.67173293       0.41691983 </v>
    <v>       0.44208301       0.44208301       0.41809300 </v>
    <v>       0.50000000       0.38416601       0.50000000 </v>
    <v>       0.61749315       0.50000005       0.34021317 </v>
    <v>       0.61749315       0.50000005       0.65978680 </v>
    <v>       0.38250685       0.50000005       0.34021317 </v>
    <v>       0.38250685       0.50000005       0.65978680 </v>
    <v>       0.38317830       0.38317830       0.50000000 </v>
    <v>       0.61682172       0.61682172       0.50000000 </v>
    <v>       0.61682170       0.38317830       0.50000000 </v>
    <v>       0.38317828       0.61682172       0.50000000 </v>
    <v>       0.50000000       0.50000000       0.33478917 </v>
    <v>       0.50000000       0.50000000       0.66521087 </v>
    <v>       0.32826705       0.44576024       0.58308023 </v>
    <v>       0.55423973       0.67173293       0.58308023 </v>
    <v>       0.55791699       0.44208301       0.58190703 </v>
    <v>       0.44208298       0.55791702       0.41809300 </v>
    <v>       0.44208301       0.44208301       0.58190703 </v>
    <v>       0.67173295       0.44576024       0.58308023 </v>
    <v>       0.44576027       0.67173293       0.58308023 </v>
    <v>       0.55791702       0.55791702       0.41809300 </v>
    <v>       0.38416599       0.50000002       0.50000000 </v>
    <v>       0.61583401       0.50000002       0.50000000 </v>
    <v>       0.50000000       0.61749319       0.34021317 </v>
    <v>       0.50000000       0.61749319       0.65978680 </v>
    <v>       0.50000000       0.50000000       0.50000000 </v>
    <v>       0.44208298       0.55791702       0.58190703 </v>
    <v>       0.55791702       0.55791702       0.58190703 </v>
    <v>       0.50000000       0.61583404       0.50000000 </v>
    <v>       0.49654240       0.48051030       0.24311307 </v>
    <v>       0.49603780       0.47766607       0.20562420 </v>
   </varray>
  </structure>
  <varray name="forces" >
   <v>       0.70298345       1.10715933       0.29103636 </v>
   <v>      -1.10789495      -0.70331273       0.29056565 </v>
   <v>      -0.70308163       1.10771464       0.29058817 </v>
   <v>       1.10847462      -0.70340592       0.29051184 </v>
   <v>       0.00046113       0.37913763       1.30729785 </v>
   <v>       0.00012219       0.41056655      -1.28171527 </v>
   <v>       0.00018026       1.51428644      -0.00097122 </v>
   <v>       1.51538473      -0.00009333      -0.00044714 </v>
   <v>      -1.51492233      -0.00009755      -0.00037459 </v>
   <v>       0.00017054      -1.51585802       0.00006729 </v>
   <v>      -0.75484902       0.75646773       1.07396785 </v>
   <v>      -0.75565378       0.75483088      -1.07303222 </v>
   <v>       0.75716260      -0.75659543       1.07218691 </v>
   <v>       0.75548208      -0.75603189      -1.07331850 </v>
   <v>       0.75480135       0.75577199       1.07431153 </v>
   <v>       0.75590646       0.75493031      -1.07298709 </v>
   <v>      -0.75661901      -0.75676270       1.07180262 </v>
   <v>      -0.75501955      -0.75572098      -1.07292086 </v>
   <v>       0.70272102       1.10788684      -0.29159688 </v>
   <v>      -1.10747695      -0.70263047      -0.29326257 </v>
   <v>       0.12147895      -0.11546009      -0.15090834 </v>
   <v>       1.10693499       0.70121500       0.29215926 </v>
   <v>      -0.70168676      -1.10720148       0.29111736 </v>
   <v>      -0.70227034       1.10789422      -0.29169454 </v>
   <v>       1.10818549      -0.70267891      -0.29300595 </v>
   <v>      -1.10674792       0.70113071       0.29197714 </v>
   <v>       0.70172497      -1.10726093       0.29130374 </v>
   <v>      -0.12230783      -0.11846478      -0.14959312 </v>
   <v>       0.00030972      -0.22399502       0.00196448 </v>
   <v>      -0.39198355       0.00070691       1.30555371 </v>
   <v>      -0.41050659      -0.00049001      -1.28108856 </v>
   <v>       0.38841214       0.00107947       1.30672423 </v>
   <v>       0.41092234      -0.00038376      -1.28129793 </v>
   <v>       0.82500144       0.82520518       0.00565821 </v>
   <v>      -0.82340396      -0.82302697       0.00884077 </v>
   <v>      -0.82390218       0.82469984       0.00645914 </v>
   <v>       0.82399945      -0.82300482       0.00877038 </v>
   <v>      -0.01777074      -0.10098216       0.42115451 </v>
   <v>      -0.00007113      -0.00152808      -1.18171607 </v>
   <v>       1.10756319       0.70234284      -0.29192616 </v>
   <v>      -0.70269663      -1.10761311      -0.29320129 </v>
   <v>       0.11294591      -0.11288456       0.15654059 </v>
   <v>      -0.09978058       0.10603063      -0.16111445 </v>
   <v>      -0.11262571      -0.11290044       0.15652616 </v>
   <v>      -1.10693172       0.70213521      -0.29198666 </v>
   <v>       0.70295563      -1.10766562      -0.29291687 </v>
   <v>       0.09645978       0.10051779      -0.16477136 </v>
   <v>      -0.22396402       0.00076389       0.00101973 </v>
   <v>       0.22435395       0.00080814       0.00061361 </v>
   <v>       0.00014878      -0.39985572       1.30173088 </v>
   <v>       0.00002331      -0.41052608      -1.28133599 </v>
   <v>       0.00005696      -0.00043787      -0.00674942 </v>
   <v>      -0.11245161       0.11241554       0.15649349 </v>
   <v>       0.11264471       0.11226437       0.15643806 </v>
   <v>       0.00031677       0.22424545      -0.00047776 </v>
   <v>       0.06204356       0.34480961       3.22679839 </v>
   <v>      -0.04571397      -0.19014774      -2.57576910 </v>
  </varray>
  <varray name="stress" >
   <v>      -6.74473775      -0.00096558      -0.00277329 </v>
   <v>      -0.00096558      -6.74857256      -0.01397128 </v>
   <v>      -0.00277327      -0.01397129      -6.69457464 </v>
  </varray>
  <energy>
   <i name="e_fr_energy">   -173.77781856 </i>
   <i name="e_wo_entrp">   -173.75597257 </i>
   <i name="e_0_energy">     -0.08738398 </i>
  </energy>
  <time name="totalsc">15534.7415535.57</time>
  <eigenvalues>
   <array>
    <dimension dim="1">band</dimension>
    <dimension dim="2">kpoint</dimension>
    <dimension dim="3">spin</dimension>
    <field>eigene</field>
    <field>occ</field>
    <set>
     <set comment="spin 1">
      <set comment="kpoint 1">
       <r>  -29.2472    1.0000 </r>
       <r>  -13.7592    1.0000 </r>
       <r>  -11.5443    1.0000 </r>
       <r>  -11.5435    1.0000 </r>
       <r>   -9.1818    1.0000 </r>
       <r>   -6.6190    1.0000 </r>
       <r>   -6.1010    1.0000 </r>
       <r>   -6.1009    1.0000 </r>
       <r>   -6.0949    1.0000 </r>
       <r>   -5.7865    1.0000 </r>
       <r>   -5.7864    1.0000 </r>
       <r>   -5.7854    1.0000 </r>
       <r>   -5.7187    1.0000 </r>
       <r>   -5.6667    1.0000 </r>
       <r>   -5.6583    1.0000 </r>
       <r>   -5.6583    1.0000 </r>
       <r>   -5.6581    1.0000 </r>
       <r>   -5.5953    1.0000 </r>
       <r>   -5.5943    1.0000 </r>
       <r>   -5.5810    1.0000 </r>
       <r>   -5.5697    1.0000 </r>
       <r>   -5.5697    1.0000 </r>
       <r>   -5.5692    1.0000 </r>
       <r>   -5.5245    1.0000 </r>
       <r>   -5.5228    1.0000 </r>
       <r>   -5.5225    1.0000 </r>
       <r>   -5.5206    1.0000 </r>
       <r>   -5.4940    1.0000 </r>
       <r>   -5.4939    1.0000 </r>
       <r>   -5.4926    1.0000 </r>
       <r>   -5.4874    1.0000 </r>
       <r>   -5.4874    1.0000 </r>
       <r>   -5.4872    1.0000 </r>
       <r>   -5.4867    1.0000 </r>
       <r>   -5.4855    1.0000 </r>
       <r>   -5.4515    1.0000 </r>
       <r>   -5.4514    1.0000 </r>
       <r>   -5.4428    1.0000 </r>
       <r>   -5.4428    1.0000 </r>
       <r>   -5.4408    1.0000 </r>
       <r>   -5.4406    1.0000 </r>
       <r>   -5.4405    1.0000 </r>
       <r>   -5.4404    1.0000 </r>
       <r>   -5.4039    1.0000 </r>
       <r>   -5.4027    1.0000 </r>
       <r>   -5.4025    1.0000 </r>
       <r>   -5.4019    1.0000 </r>
       <r>   -5.4004    1.0000 </r>
       <r>   -5.3965    1.0000 </r>
       <r>   -5.3958    1.0000 </r>
       <r>   -5.3949    1.0000 </r>
       <r>   -5.3806    1.0000 </r>
       <r>   -5.3795    1.0000 </r>
       <r>   -5.3793    1.0000 </r>
       <r>   -5.3641    1.0000 </r>
       <r>   -5.3025    1.0000 </r>
       <r>   -5.3011    1.0000 </r>
       <r>   -5.3007    1.0000 </r>
       <r>   -5.3000    1.0000 </r>
       <r>   -5.2898    1.0000 </r>
       <r>   -5.2896    1.0000 </r>
       <r>   -5.2895    1.0000 </r>
       <r>   -5.2753    1.0000 </r>
       <r>   -5.2749    1.0000 </r>
       <r>   -5.2732    1.0000 </r>
       <r>   -5.2608    1.0000 </r>
       <r>   -5.2606    1.0000 </r>
       <r>   -5.1892    1.0000 </r>
       <r>   -5.1803    1.0000 </r>
       <r>   -5.1789    1.0000 </r>
       <r>   -5.1784    1.0000 </r>
       <r>   -5.1540    1.0000 </r>
       <r>   -5.1530    1.0000 </r>
       <r>   -5.1529    1.0000 </r>
       <r>   -5.1510    1.0000 </r>
       <r>   -5.1477    1.0000 </r>
       <r>   -5.1360    1.0000 </r>
       <r>   -5.1357    1.0000 </r>
       <r>   -5.1354    1.0000 </r>
       <r>   -5.1205    1.0000 </r>
       <r>   -5.0982    1.0000 </r>
       <r>   -5.0971    1.0000 </r>
       <r>   -5.0969    1.0000 </r>
       <r>   -5.0862    1.0000 </r>
       <r>   -5.0764    1.0000 </r>
       <r>   -5.0763    1.0000 </r>
       <r>   -5.0757    1.0000 </r>
       <r>   -5.0332    1.0000 </r>
       <r>   -5.0318    1.0000 </r>
       <r>   -5.0285    1.0000 </r>
       <r>   -5.0284    1.0000 </r>
       <r>   -5.0280    1.0000 </r>
       <r>   -5.0242    1.0000 </r>
       <r>   -5.0214    1.0000 </r>
       <r>   -5.0214    1.0000 </r>
       <r>   -5.0094    1.0000 </r>
       <r>   -5.0084    1.0000 </r>
       <r>   -5.0011    1.0000 </r>
       <r>   -4.9911    1.0000 </r>
       <r>   -4.9907    1.0000 </r>
       <r>   -4.9783    1.0000 </r>
       <r>   -4.9782    1.0000 </r>
       <r>   -4.9781    1.0000 </r>
       <r>   -4.9663    1.0000 </r>
       <r>   -4.9659    1.0000 </r>
       <r>   -4.9642    1.0000 </r>
       <r>   -4.9530    1.0000 </r>
       <r>   -4.9528    1.0000 </r>
       <r>   -4.9527    1.0000 </r>
       <r>   -4.9430    1.0000 </r>
       <r>   -4.9417    1.0000 </r>
       <r>   -4.9336    1.0000 </r>
       <r>   -4.9328    1.0000 </r>
       <r>   -4.9274    1.0000 </r>
       <r>   -4.9259    1.0000 </r>
       <r>   -4.9257    1.0000 </r>
       <r>   -4.9109    1.0000 </r>
       <r>   -4.8909    1.0000 </r>
       <r>   -4.8907    1.0000 </r>
       <r>   -4.8904    1.0000 </r>
       <r>   -4.8786    1.0000 </r>
       <r>   -4.8771    1.0000 </r>
       <r>   -4.8766    1.0000 </r>
       <r>   -4.8747    1.0000 </r>
       <r>   -4.8747    1.0000 </r>
       <r>   -4.8743    1.0000 </r>
       <r>   -4.8208    1.0000 </r>
       <r>   -4.8176    1.0000 </r>
       <r>   -4.8163    1.0000 </r>
       <r>   -4.8161    1.0000 </r>
       <r>   -4.8146    1.0000 </r>
       <r>   -4.8144    1.0000 </r>
       <r>   -4.8039    1.0000 </r>
       <r>   -4.8038    1.0000 </r>
       <r>   -4.8030    1.0000 </r>
       <r>   -4.7678    0.9999 </r>
       <r>   -4.7662    0.9999 </r>
       <r>   -4.7642    0.9999 </r>
       <r>   -4.7641    0.9999 </r>
       <r>   -4.7495    0.9999 </r>
       <r>   -4.7463    0.9998 </r>
       <r>   -4.7346    0.9998 </r>
       <r>   -4.7102    0.9996 </r>
       <r>   -4.7102    0.9996 </r>
       <r>   -4.7099    0.9996 </r>
       <r>   -4.6991    0.9995 </r>
       <r>   -4.6979    0.9995 </r>
       <r>   -4.6796    0.9993 </r>
       <r>   -4.6679    0.9991 </r>
       <r>   -4.6665    0.9991 </r>
       <r>   -4.6618    0.9990 </r>
       <r>   -4.6557    0.9988 </r>
       <r>   -4.6478    0.9987 </r>
       <r>   -4.6470    0.9986 </r>
       <r>   -4.6464    0.9986 </r>
       <r>   -4.6461    0.9986 </r>
       <r>   -4.6453    0.9986 </r>
       <r>   -4.6453    0.9986 </r>
       <r>   -4.6294    0.9982 </r>
       <r>   -4.6240    0.9980 </r>
       <r>   -4.6238    0.9980 </r>
       <r>   -4.6226    0.9980 </r>
       <r>   -4.6208    0.9979 </r>
       <r>   -4.6202    0.9979 </r>
       <r>   -4.6185    0.9979 </r>
       <r>   -4.6184    0.9978 </r>
       <r>   -4.6149    0.9977 </r>
       <r>   -4.6141    0.9977 </r>
       <r>   -4.6028    0.9973 </r>
       <r>   -4.6009    0.9972 </r>
       <r>   -4.5794    0.9964 </r>
       <r>   -4.5760    0.9963 </r>
       <r>   -4.5703    0.9961 </r>
       <r>   -4.5702    0.9961 </r>
       <r>   -4.5684    0.9960 </r>
       <r>   -4.5677    0.9960 </r>
       <r>   -4.5662    0.9960 </r>
       <r>   -4.5617    0.9958 </r>
       <r>   -4.5559    0.9956 </r>
       <r>   -4.5554    0.9956 </r>
       <r>   -4.5462    0.9954 </r>
       <r>   -4.5255    0.9951 </r>
       <r>   -4.5252    0.9951 </r>
       <r>   -4.5248    0.9951 </r>
       <r>   -4.5243    0.9951 </r>
       <r>   -4.5243    0.9951 </r>
       <r>   -4.5239    0.9951 </r>
       <r>   -4.5233    0.9951 </r>
       <r>   -4.5215    0.9951 </r>
       <r>   -4.5214    0.9951 </r>
       <r>   -4.4801    0.9972 </r>
       <r>   -4.4782    0.9974 </r>
       <r>   -4.4779    0.9974 </r>
       <r>   -4.4767    0.9976 </r>
       <r>   -4.4762    0.9977 </r>
       <r>   -4.4638    0.9995 </r>
       <r>   -4.4536    1.0015 </r>
       <r>   -4.4535    1.0015 </r>
       <r>   -4.4513    1.0020 </r>
       <r>   -4.4410    1.0045 </r>
       <r>   -4.4406    1.0046 </r>
       <r>   -4.4313    1.0073 </r>
       <r>   -4.4291    1.0081 </r>
       <r>   -4.4291    1.0081 </r>
       <r>   -4.4204    1.0110 </r>
       <r>   -4.4201    1.0112 </r>
       <r>   -4.4201    1.0112 </r>
       <r>   -4.4170    1.0123 </r>
       <r>   -4.4169    1.0124 </r>
       <r>   -4.4124    1.0141 </r>
       <r>   -4.3960    1.0211 </r>
       <r>   -4.3823    1.0275 </r>
       <r>   -4.3815    1.0279 </r>
       <r>   -4.3813    1.0280 </r>
       <r>   -4.3809    1.0282 </r>
       <r>   -4.3772    1.0300 </r>
       <r>   -4.3737    1.0316 </r>
       <r>   -4.3736    1.0317 </r>
       <r>   -4.3726    1.0322 </r>
       <r>   -4.3429    1.0453 </r>
       <r>   -4.3422    1.0455 </r>
       <r>   -4.3335    1.0484 </r>
       <r>   -4.3132    1.0516 </r>
       <r>   -4.3124    1.0516 </r>
       <r>   -4.3104    1.0516 </r>
       <r>   -4.3101    1.0516 </r>
       <r>   -4.3091    1.0515 </r>
       <r>   -4.3083    1.0515 </r>
       <r>   -4.3082    1.0515 </r>
       <r>   -4.3062    1.0513 </r>
       <r>   -4.3016    1.0505 </r>
       <r>   -4.3007    1.0503 </r>
       <r>   -4.2981    1.0497 </r>
       <r>   -4.2959    1.0490 </r>
       <r>   -4.2939    1.0483 </r>
       <r>   -4.2937    1.0482 </r>
       <r>   -4.2935    1.0482 </r>
       <r>   -4.2904    1.0469 </r>
       <r>   -4.2894    1.0464 </r>
       <r>   -4.2893    1.0463 </r>
       <r>   -4.2744    1.0361 </r>
       <r>   -4.2723    1.0342 </r>
       <r>   -4.2612    1.0215 </r>
       <r>   -4.2607    1.0209 </r>
       <r>   -4.2561    1.0144 </r>
       <r>   -4.2560    1.0143 </r>
       <r>   -4.2560    1.0142 </r>
       <r>   -4.2555    1.0135 </r>
       <r>   -4.2498    1.0042 </r>
       <r>   -4.2380    0.9816 </r>
       <r>   -4.2347    0.9743 </r>
       <r>   -4.2283    0.9590 </r>
       <r>   -4.2272    0.9560 </r>
       <r>   -4.2264    0.9540 </r>
       <r>   -4.2215    0.9409 </r>
       <r>   -4.2211    0.9397 </r>
       <r>   -4.2204    0.9378 </r>
       <r>   -4.2165    0.9263 </r>
       <r>   -4.2154    0.9230 </r>
       <r>   -4.2153    0.9229 </r>
       <r>   -4.2097    0.9052 </r>
       <r>   -4.2086    0.9018 </r>
       <r>   -4.2086    0.9017 </r>
       <r>   -4.2084    0.9011 </r>
       <r>   -4.2053    0.8906 </r>
       <r>   -4.1936    0.8481 </r>
       <r>   -4.1932    0.8466 </r>
       <r>   -4.1898    0.8334 </r>
       <r>   -4.1896    0.8325 </r>
       <r>   -4.1894    0.8319 </r>
       <r>   -4.1870    0.8223 </r>
       <r>   -4.1864    0.8199 </r>
       <r>   -4.1642    0.7217 </r>
       <r>   -4.1635    0.7180 </r>
       <r>   -4.1632    0.7168 </r>
       <r>   -4.1518    0.6609 </r>
       <r>   -4.1517    0.6606 </r>
       <r>   -4.1479    0.6416 </r>
       <r>   -4.1410    0.6063 </r>
       <r>   -4.1409    0.6057 </r>
       <r>   -4.1404    0.6032 </r>
       <r>   -4.1267    0.5313 </r>
       <r>   -4.1002    0.3923 </r>
       <r>   -4.1002    0.3919 </r>
       <r>   -4.0996    0.3888 </r>
       <r>   -4.0967    0.3739 </r>
       <r>   -4.0840    0.3104 </r>
       <r>   -4.0822    0.3016 </r>
       <r>   -4.0780    0.2814 </r>
       <r>   -3.9412   -0.0503 </r>
       <r>   -3.8697   -0.0326 </r>
       <r>   -3.7909   -0.0021 </r>
       <r>   -3.7900   -0.0019 </r>
       <r>   -3.7893   -0.0018 </r>
       <r>   -3.4635    0.0001 </r>
       <r>   -3.4630    0.0001 </r>
       <r>   -3.4244    0.0000 </r>
       <r>   -3.0273    0.0000 </r>
       <r>   -3.0272    0.0000 </r>
       <r>   -2.9998    0.0000 </r>
       <r>   -2.9863    0.0000 </r>
       <r>   -2.9857    0.0000 </r>
       <r>   -2.9849    0.0000 </r>
       <r>   -2.9025    0.0000 </r>
       <r>   -2.8676    0.0000 </r>
       <r>   -2.5244    0.0000 </r>
       <r>   -2.5208    0.0000 </r>
       <r>   -2.4909    0.0000 </r>
       <r>   -2.2739    0.0000 </r>
       <r>   -2.0933    0.0000 </r>
       <r>   -2.0928    0.0000 </r>
       <r>   -2.0902    0.0000 </r>
       <r>   -1.9256    0.0000 </r>
       <r>   -1.9237    0.0000 </r>
       <r>   -1.8846    0.0000 </r>
       <r>   -1.8436    0.0000 </r>
       <r>   -1.8221    0.0000 </r>
       <r>   -1.7722    0.0000 </r>
       <r>   -1.7638    0.0000 </r>
       <r>   -1.7052    0.0000 </r>
       <r>   -1.6167    0.0000 </r>
       <r>   -1.5284    0.0000 </r>
       <r>   -1.5246    0.0000 </r>
       <r>   -1.5164    0.0000 </r>
       <r>   -1.4893    0.0000 </r>
       <r>   -1.1600    0.0000 </r>
       <r>   -1.1484    0.0000 </r>
       <r>   -1.0774    0.0000 </r>
       <r>   -0.9636    0.0000 </r>
       <r>   -0.9623    0.0000 </r>
       <r>   -0.9599    0.0000 </r>
       <r>   -0.9135    0.0000 </r>
       <r>   -0.9054    0.0000 </r>
       <r>   -0.8396    0.0000 </r>
       <r>   -0.7957    0.0000 </r>
       <r>   -0.6270    0.0000 </r>
      </set>
     </set>
    </set>
   </array>
  </eigenvalues>
  <separator name="orbital magnetization" >
   <v name="MAGDIPOLOUT">      0.00000000      0.00000000      0.00000000</v>
  </separator>
  <dos>
   <i name="efermi">     -4.12076231 </i>
   <total>
    <array>
     <dimension dim="1">gridpoints</dimension>
     <dimension dim="2">spin</dimension>
     <field>energy</field>
     <field>total</field>
     <field>integrated</field>
     <set>
      <set comment="spin 1">
       <r>   -31.2472     0.0000     0.0000 </r>
       <r>   -31.1385     0.0000     0.0000 </r>
       <r>   -31.0297     0.0000     0.0000 </r>
       <r>   -30.9210     0.0000     0.0000 </r>
       <r>   -30.8123     0.0000     0.0000 </r>
       <r>   -30.7035     0.0000     0.0000 </r>
       <r>   -30.5948     0.0000     0.0000 </r>
       <r>   -30.4861     0.0000     0.0000 </r>
       <r>   -30.3773     0.0000     0.0000 </r>
       <r>   -30.2686     0.0000     0.0000 </r>
       <r>   -30.1599     0.0000     0.0000 </r>
       <r>   -30.0511     0.0000     0.0000 </r>
       <r>   -29.9424     0.0004     0.0000 </r>
       <r>   -29.8337     0.0070     0.0008 </r>
       <r>   -29.7249     0.0447     0.0057 </r>
       <r>   -29.6162     0.0160     0.0074 </r>
       <r>   -29.5075    -0.5854    -0.0562 </r>
       <r>   -29.3987    -0.1106    -0.0683 </r>
       <r>   -29.2900     5.8063     0.5631 </r>
       <r>   -29.1813     9.9221     1.6419 </r>
       <r>   -29.0725     4.1919     2.0977 </r>
       <r>   -28.9638    -0.5769     2.0350 </r>
       <r>   -28.8551    -0.4105     1.9904 </r>
       <r>   -28.7463     0.0509     1.9959 </r>
       <r>   -28.6376     0.0333     1.9995 </r>
       <r>   -28.5289     0.0042     2.0000 </r>
       <r>   -28.4201     0.0002     2.0000 </r>
       <r>   -28.3114     0.0000     2.0000 </r>
       <r>   -28.2027     0.0000     2.0000 </r>
       <r>   -28.0939     0.0000     2.0000 </r>
       <r>   -27.9852     0.0000     2.0000 </r>
       <r>   -27.8765     0.0000     2.0000 </r>
       <r>   -27.7677     0.0000     2.0000 </r>
       <r>   -27.6590     0.0000     2.0000 </r>
       <r>   -27.5503     0.0000     2.0000 </r>
       <r>   -27.4415     0.0000     2.0000 </r>
       <r>   -27.3328     0.0000     2.0000 </r>
       <r>   -27.2240     0.0000     2.0000 </r>
       <r>   -27.1153     0.0000     2.0000 </r>
       <r>   -27.0066     0.0000     2.0000 </r>
       <r>   -26.8978     0.0000     2.0000 </r>
       <r>   -26.7891     0.0000     2.0000 </r>
       <r>   -26.6804     0.0000     2.0000 </r>
       <r>   -26.5716     0.0000     2.0000 </r>
       <r>   -26.4629     0.0000     2.0000 </r>
       <r>   -26.3542     0.0000     2.0000 </r>
       <r>   -26.2454     0.0000     2.0000 </r>
       <r>   -26.1367     0.0000     2.0000 </r>
       <r>   -26.0280     0.0000     2.0000 </r>
       <r>   -25.9192     0.0000     2.0000 </r>
       <r>   -25.8105     0.0000     2.0000 </r>
       <r>   -25.7018     0.0000     2.0000 </r>
       <r>   -25.5930     0.0000     2.0000 </r>
       <r>   -25.4843     0.0000     2.0000 </r>
       <r>   -25.3756     0.0000     2.0000 </r>
       <r>   -25.2668     0.0000     2.0000 </r>
       <r>   -25.1581     0.0000     2.0000 </r>
       <r>   -25.0494     0.0000     2.0000 </r>
       <r>   -24.9406     0.0000     2.0000 </r>
       <r>   -24.8319     0.0000     2.0000 </r>
       <r>   -24.7232     0.0000     2.0000 </r>
       <r>   -24.6144     0.0000     2.0000 </r>
       <r>   -24.5057     0.0000     2.0000 </r>
       <r>   -24.3970     0.0000     2.0000 </r>
       <r>   -24.2882     0.0000     2.0000 </r>
       <r>   -24.1795     0.0000     2.0000 </r>
       <r>   -24.0708     0.0000     2.0000 </r>
       <r>   -23.9620     0.0000     2.0000 </r>
       <r>   -23.8533     0.0000     2.0000 </r>
       <r>   -23.7446     0.0000     2.0000 </r>
       <r>   -23.6358     0.0000     2.0000 </r>
       <r>   -23.5271     0.0000     2.0000 </r>
       <r>   -23.4184     0.0000     2.0000 </r>
       <r>   -23.3096     0.0000     2.0000 </r>
       <r>   -23.2009     0.0000     2.0000 </r>
       <r>   -23.0922     0.0000     2.0000 </r>
       <r>   -22.9834     0.0000     2.0000 </r>
       <r>   -22.8747     0.0000     2.0000 </r>
       <r>   -22.7660     0.0000     2.0000 </r>
       <r>   -22.6572     0.0000     2.0000 </r>
       <r>   -22.5485     0.0000     2.0000 </r>
       <r>   -22.4398     0.0000     2.0000 </r>
       <r>   -22.3310     0.0000     2.0000 </r>
       <r>   -22.2223     0.0000     2.0000 </r>
       <r>   -22.1136     0.0000     2.0000 </r>
       <r>   -22.0048     0.0000     2.0000 </r>
       <r>   -21.8961     0.0000     2.0000 </r>
       <r>   -21.7874     0.0000     2.0000 </r>
       <r>   -21.6786     0.0000     2.0000 </r>
       <r>   -21.5699     0.0000     2.0000 </r>
       <r>   -21.4612     0.0000     2.0000 </r>
       <r>   -21.3524     0.0000     2.0000 </r>
       <r>   -21.2437     0.0000     2.0000 </r>
       <r>   -21.1350     0.0000     2.0000 </r>
       <r>   -21.0262     0.0000     2.0000 </r>
       <r>   -20.9175     0.0000     2.0000 </r>
       <r>   -20.8088     0.0000     2.0000 </r>
       <r>   -20.7000     0.0000     2.0000 </r>
       <r>   -20.5913     0.0000     2.0000 </r>
       <r>   -20.4825     0.0000     2.0000 </r>
       <r>   -20.3738     0.0000     2.0000 </r>
       <r>   -20.2651     0.0000     2.0000 </r>
       <r>   -20.1563     0.0000     2.0000 </r>
       <r>   -20.0476     0.0000     2.0000 </r>
       <r>   -19.9389     0.0000     2.0000 </r>
       <r>   -19.8301     0.0000     2.0000 </r>
       <r>   -19.7214     0.0000     2.0000 </r>
       <r>   -19.6127     0.0000     2.0000 </r>
       <r>   -19.5039     0.0000     2.0000 </r>
       <r>   -19.3952     0.0000     2.0000 </r>
       <r>   -19.2865     0.0000     2.0000 </r>
       <r>   -19.1777     0.0000     2.0000 </r>
       <r>   -19.0690     0.0000     2.0000 </r>
       <r>   -18.9603     0.0000     2.0000 </r>
       <r>   -18.8515     0.0000     2.0000 </r>
       <r>   -18.7428     0.0000     2.0000 </r>
       <r>   -18.6341     0.0000     2.0000 </r>
       <r>   -18.5253     0.0000     2.0000 </r>
       <r>   -18.4166     0.0000     2.0000 </r>
       <r>   -18.3079     0.0000     2.0000 </r>
       <r>   -18.1991     0.0000     2.0000 </r>
       <r>   -18.0904     0.0000     2.0000 </r>
       <r>   -17.9817     0.0000     2.0000 </r>
       <r>   -17.8729     0.0000     2.0000 </r>
       <r>   -17.7642     0.0000     2.0000 </r>
       <r>   -17.6555     0.0000     2.0000 </r>
       <r>   -17.5467     0.0000     2.0000 </r>
       <r>   -17.4380     0.0000     2.0000 </r>
       <r>   -17.3293     0.0000     2.0000 </r>
       <r>   -17.2205     0.0000     2.0000 </r>
       <r>   -17.1118     0.0000     2.0000 </r>
       <r>   -17.0031     0.0000     2.0000 </r>
       <r>   -16.8943     0.0000     2.0000 </r>
       <r>   -16.7856     0.0000     2.0000 </r>
       <r>   -16.6769     0.0000     2.0000 </r>
       <r>   -16.5681     0.0000     2.0000 </r>
       <r>   -16.4594     0.0000     2.0000 </r>
       <r>   -16.3507     0.0000     2.0000 </r>
       <r>   -16.2419     0.0000     2.0000 </r>
       <r>   -16.1332     0.0000     2.0000 </r>
       <r>   -16.0245     0.0000     2.0000 </r>
       <r>   -15.9157     0.0000     2.0000 </r>
       <r>   -15.8070     0.0000     2.0000 </r>
       <r>   -15.6983     0.0000     2.0000 </r>
       <r>   -15.5895     0.0000     2.0000 </r>
       <r>   -15.4808     0.0000     2.0000 </r>
       <r>   -15.3721     0.0000     2.0000 </r>
       <r>   -15.2633     0.0000     2.0000 </r>
       <r>   -15.1546     0.0000     2.0000 </r>
       <r>   -15.0459     0.0000     2.0000 </r>
       <r>   -14.9371     0.0000     2.0000 </r>
       <r>   -14.8284     0.0000     2.0000 </r>
       <r>   -14.7197     0.0000     2.0000 </r>
       <r>   -14.6109     0.0000     2.0000 </r>
       <r>   -14.5022     0.0001     2.0000 </r>
       <r>   -14.3935     0.0023     2.0003 </r>
       <r>   -14.2847     0.0228     2.0027 </r>
       <r>   -14.1760     0.0636     2.0096 </r>
       <r>   -14.0672    -0.2385     1.9837 </r>
       <r>   -13.9585    -0.7911     1.8977 </r>
       <r>   -13.8498     2.5852     2.1788 </r>
       <r>   -13.7410     9.3048     3.1905 </r>
       <r>   -13.6323     7.4534     4.0010 </r>
       <r>   -13.5236     0.7224     4.0795 </r>
       <r>   -13.4148    -0.7448     3.9985 </r>
       <r>   -13.3061    -0.0556     3.9925 </r>
       <r>   -13.1974     0.0565     3.9986 </r>
       <r>   -13.0886     0.0117     3.9999 </r>
       <r>   -12.9799     0.0009     4.0000 </r>
       <r>   -12.8712     0.0000     4.0000 </r>
       <r>   -12.7624     0.0000     4.0000 </r>
       <r>   -12.6537     0.0000     4.0000 </r>
       <r>   -12.5450     0.0000     4.0000 </r>
       <r>   -12.4362     0.0000     4.0000 </r>
       <r>   -12.3275     0.0001     4.0000 </r>
       <r>   -12.2188     0.0015     4.0002 </r>
       <r>   -12.1100     0.0215     4.0025 </r>
       <r>   -12.0013     0.1092     4.0144 </r>
       <r>   -11.8926    -0.0798     4.0057 </r>
       <r>   -11.7838    -1.4420     3.8489 </r>
       <r>   -11.6751     1.0952     3.9680 </r>
       <r>   -11.5664    14.3499     5.5283 </r>
       <r>   -11.4576    18.9164     7.5852 </r>
       <r>   -11.3489     5.7109     8.2061 </r>
       <r>   -11.2402    -1.5419     8.0385 </r>
       <r>   -11.1314    -0.5336     7.9805 </r>
       <r>   -11.0227     0.1255     7.9941 </r>
       <r>   -10.9140     0.0489     7.9994 </r>
       <r>   -10.8052     0.0051     8.0000 </r>
       <r>   -10.6965     0.0002     8.0000 </r>
       <r>   -10.5878     0.0000     8.0000 </r>
       <r>   -10.4790     0.0000     8.0000 </r>
       <r>   -10.3703     0.0000     8.0000 </r>
       <r>   -10.2616     0.0000     8.0000 </r>
       <r>   -10.1528     0.0000     8.0000 </r>
       <r>   -10.0441     0.0000     8.0000 </r>
       <r>    -9.9354     0.0001     8.0000 </r>
       <r>    -9.8266     0.0017     8.0002 </r>
       <r>    -9.7179     0.0190     8.0023 </r>
       <r>    -9.6092     0.0638     8.0092 </r>
       <r>    -9.5004    -0.1759     7.9901 </r>
       <r>    -9.3917    -0.8128     7.9017 </r>
       <r>    -9.2830     1.9734     8.1163 </r>
       <r>    -9.1742     8.8679     9.0805 </r>
       <r>    -9.0655     8.0813     9.9592 </r>
       <r>    -8.9568     1.1874    10.0883 </r>
       <r>    -8.8480    -0.7895    10.0025 </r>
       <r>    -8.7393    -0.0989     9.9917 </r>
       <r>    -8.6306     0.0604     9.9983 </r>
       <r>    -8.5218     0.0144     9.9999 </r>
       <r>    -8.4131     0.0012    10.0000 </r>
       <r>    -8.3044     0.0000    10.0000 </r>
       <r>    -8.1956     0.0000    10.0000 </r>
       <r>    -8.0869     0.0000    10.0000 </r>
       <r>    -7.9782     0.0000    10.0000 </r>
       <r>    -7.8694     0.0000    10.0000 </r>
       <r>    -7.7607     0.0000    10.0000 </r>
       <r>    -7.6520     0.0000    10.0000 </r>
       <r>    -7.5432     0.0000    10.0000 </r>
       <r>    -7.4345     0.0000    10.0000 </r>
       <r>    -7.3257     0.0003    10.0000 </r>
       <r>    -7.2170     0.0054    10.0006 </r>
       <r>    -7.1083     0.0389    10.0049 </r>
       <r>    -6.9995     0.0369    10.0089 </r>
       <r>    -6.8908    -0.4980     9.9547 </r>
       <r>    -6.7821    -0.3782     9.9136 </r>
       <r>    -6.6733     5.0221    10.4597 </r>
       <r>    -6.5646    10.1464    11.5629 </r>
       <r>    -6.4559     4.9574    12.1020 </r>
       <r>    -6.3471    -2.3475    11.8467 </r>
       <r>    -6.2384     0.4993    11.9010 </r>
       <r>    -6.1297    20.1414    14.0911 </r>
       <r>    -6.0209    27.3424    17.0641 </r>
       <r>    -5.9122     9.8536    18.1355 </r>
       <r>    -5.8035    16.8553    19.9683 </r>
       <r>    -5.6947    53.5207    25.7878 </r>
       <r>    -5.5860   128.1964    39.7271 </r>
       <r>    -5.4773   254.9886    67.4530 </r>
       <r>    -5.3685   308.4139   100.9880 </r>
       <r>    -5.2598   236.7564   126.7314 </r>
       <r>    -5.1511   206.8680   149.2250 </r>
       <r>    -5.0423   292.1798   180.9949 </r>
       <r>    -4.9336   368.9803   221.1155 </r>
       <r>    -4.8249   328.9884   256.8877 </r>
       <r>    -4.7161   295.8998   289.0620 </r>
       <r>    -4.6074   380.2513   330.4082 </r>
       <r>    -4.4987   428.5390   377.0049 </r>
       <r>    -4.3899   424.4049   423.1521 </r>
       <r>    -4.2812   516.8037   479.3462 </r>
       <r>    -4.1725   549.7496   539.1226 </r>
       <r>    -4.0637   320.9604   574.0219 </r>
       <r>    -3.9550    67.2865   581.3382 </r>
       <r>    -3.8463    12.8822   582.7389 </r>
       <r>    -3.7375    32.6008   586.2838 </r>
       <r>    -3.6288    15.4060   587.9589 </r>
       <r>    -3.5201    10.9851   589.1534 </r>
       <r>    -3.4113    28.0713   592.2057 </r>
       <r>    -3.3026    16.6318   594.0141 </r>
       <r>    -3.1939    -4.1670   593.5610 </r>
       <r>    -3.0851    15.3663   595.2318 </r>
       <r>    -2.9764    61.6501   601.9353 </r>
       <r>    -2.8677    59.9222   608.4509 </r>
       <r>    -2.7589    16.1450   610.2064 </r>
       <r>    -2.6502    -1.2732   610.0679 </r>
       <r>    -2.5415    18.0348   612.0289 </r>
       <r>    -2.4327    28.4104   615.1181 </r>
       <r>    -2.3240    13.4524   616.5808 </r>
       <r>    -2.2153    10.0227   617.6706 </r>
       <r>    -2.1065    23.6501   620.2422 </r>
       <r>    -1.9978    33.4947   623.8842 </r>
       <r>    -1.8891    45.1747   628.7963 </r>
       <r>    -1.7803    55.4394   634.8244 </r>
       <r>    -1.6716    43.8225   639.5894 </r>
       <r>    -1.5629    40.3257   643.9742 </r>
       <r>    -1.4541    41.4485   648.4810 </r>
       <r>    -1.3454    15.3697   650.1522 </r>
       <r>    -1.2367     2.3360   650.4062 </r>
       <r>    -1.1279    19.3597   652.5113 </r>
       <r>    -1.0192    40.0806   656.8694 </r>
       <r>    -0.9104    57.2691   663.0965 </r>
       <r>    -0.8017    48.2936   668.3476 </r>
       <r>    -0.6930    20.8855   670.6186 </r>
       <r>    -0.5842     8.8024   671.5757 </r>
       <r>    -0.4755     4.2444   672.0372 </r>
       <r>    -0.3668    -0.0199   672.0350 </r>
       <r>    -0.2580    -0.4231   671.9890 </r>
       <r>    -0.1493     0.0462   671.9941 </r>
       <r>    -0.0406     0.0470   671.9992 </r>
       <r>     0.0682     0.0071   672.0000 </r>
       <r>     0.1769     0.0004   672.0000 </r>
       <r>     0.2856     0.0000   672.0000 </r>
       <r>     0.3944     0.0000   672.0000 </r>
       <r>     0.5031     0.0000   672.0000 </r>
       <r>     0.6118     0.0000   672.0000 </r>
       <r>     0.7206     0.0000   672.0000 </r>
       <r>     0.8293     0.0000   672.0000 </r>
       <r>     0.9380     0.0000   672.0000 </r>
       <r>     1.0468     0.0000   672.0000 </r>
       <r>     1.1555     0.0000   672.0000 </r>
       <r>     1.2642     0.0000   672.0000 </r>
       <r>     1.3730     0.0000   672.0000 </r>
      </set>
     </set>
    </array>
   </total>
  </dos>
 </calculation>
 <structure name="finalpos" >
  <crystal>
   <varray name="basis" >
    <v>      30.00000000       0.00000000       0.00000000 </v>
    <v>       0.00000000      30.00000000       0.00000000 </v>
    <v>       0.00000000       0.00000000      30.00000000 </v>
   </varray>
   <i name="volume">  27000.00000000 </i>
   <varray name="rec_basis" >
    <v>       0.03333333       0.00000000       0.00000000 </v>
    <v>       0.00000000       0.03333333       0.00000000 </v>
    <v>       0.00000000       0.00000000       0.03333333 </v>
   </varray>
  </crystal>
  <varray name="positions" >
   <v>       0.44576020       0.32826710       0.41691983 </v>
   <v>       0.67173288       0.55423978       0.41691983 </v>
   <v>       0.55423980       0.32826710       0.41691983 </v>
   <v>       0.32826712       0.55423978       0.41691983 </v>
   <v>       0.50000000       0.38250690       0.34021317 </v>
   <v>       0.50000000       0.38250690       0.65978680 </v>
   <v>       0.50000000       0.27609440       0.50000000 </v>
   <v>       0.27609443       0.49999998       0.50000000 </v>
   <v>       0.72390557       0.49999998       0.50000000 </v>
   <v>       0.50000000       0.72390555       0.50000000 </v>
   <v>       0.61195280       0.38804720       0.34167483 </v>
   <v>       0.61195280       0.38804720       0.65832513 </v>
   <v>       0.38804722       0.61195278       0.34167483 </v>
   <v>       0.38804722       0.61195278       0.65832513 </v>
   <v>       0.38804720       0.38804720       0.34167483 </v>
   <v>       0.38804720       0.38804720       0.65832513 </v>
   <v>       0.61195278       0.61195278       0.34167483 </v>
   <v>       0.61195278       0.61195278       0.65832513 </v>
   <v>       0.44576020       0.32826710       0.58308023 </v>
   <v>       0.67173288       0.55423978       0.58308023 </v>
   <v>       0.55791699       0.44208301       0.41809300 </v>
   <v>       0.32826705       0.44576024       0.41691983 </v>
   <v>       0.55423973       0.67173293       0.41691983 </v>
   <v>       0.55423980       0.32826710       0.58308023 </v>
   <v>       0.32826712       0.55423978       0.58308023 </v>
   <v>       0.67173295       0.44576024       0.41691983 </v>
   <v>       0.44576027       0.67173293       0.41691983 </v>
   <v>       0.44208301       0.44208301       0.41809300 </v>
   <v>       0.50000000       0.38416601       0.50000000 </v>
   <v>       0.61749315       0.50000005       0.34021317 </v>
   <v>       0.61749315       0.50000005       0.65978680 </v>
   <v>       0.38250685       0.50000005       0.34021317 </v>
   <v>       0.38250685       0.50000005       0.65978680 </v>
   <v>       0.38317830       0.38317830       0.50000000 </v>
   <v>       0.61682172       0.61682172       0.50000000 </v>
   <v>       0.61682170       0.38317830       0.50000000 </v>
   <v>       0.38317828       0.61682172       0.50000000 </v>
   <v>       0.50000000       0.50000000       0.33478917 </v>
   <v>       0.50000000       0.50000000       0.66521087 </v>
   <v>       0.32826705       0.44576024       0.58308023 </v>
   <v>       0.55423973       0.67173293       0.58308023 </v>
   <v>       0.55791699       0.44208301       0.58190703 </v>
   <v>       0.44208298       0.55791702       0.41809300 </v>
   <v>       0.44208301       0.44208301       0.58190703 </v>
   <v>       0.67173295       0.44576024       0.58308023 </v>
   <v>       0.44576027       0.67173293       0.58308023 </v>
   <v>       0.55791702       0.55791702       0.41809300 </v>
   <v>       0.38416599       0.50000002       0.50000000 </v>
   <v>       0.61583401       0.50000002       0.50000000 </v>
   <v>       0.50000000       0.61749319       0.34021317 </v>
   <v>       0.50000000       0.61749319       0.65978680 </v>
   <v>       0.50000000       0.50000000       0.50000000 </v>
   <v>       0.44208298       0.55791702       0.58190703 </v>
   <v>       0.55791702       0.55791702       0.58190703 </v>
   <v>       0.50000000       0.61583404       0.50000000 </v>
   <v>       0.49654240       0.48051030       0.24311307 </v>
   <v>       0.49603780       0.47766607       0.20562420 </v>
  </varray>
  <varray name="selective"  type="logical" >
   <v type="logical" >  F  F  F </v>
   <v type="logical" >  F  F  F </v>
   <v type="logical" >  F  F  F </v>
   <v type="logical" >  F  F  F </v>
   <v type="logical" >  F  F  F </v>
   <v type="logical" >  F  F  F </v>
   <v type="logical" >  F  F  F </v>
   <v type="logical" >  F  F  F </v>
   <v type="logical" >  F  F  F </v>
   <v type="logical" >  F  F  F </v>
   <v type="logical" >  F  F  F </v>
   <v type="logical" >  F  F  F </v>
   <v type="logical" >  F  F  F </v>
   <v type="logical" >  F  F  F </v>
   <v type="logical" >  F  F  F </v>
   <v type="logical" >  F  F  F </v>
   <v type="logical" >  F  F  F </v>
   <v type="logical" >  F  F  F </v>
   <v type="logical" >  F  F  F </v>
   <v type="logical" >  F  F  F </v>
   <v type="logical" >  F  F  F </v>
   <v type="logical" >  F  F  F </v>
   <v type="logical" >  F  F  F </v>
   <v type="logical" >  F  F  F </v>
   <v type="logical" >  F  F  F </v>
   <v type="logical" >  F  F  F </v>
   <v type="logical" >  F  F  F </v>
   <v type="logical" >  F  F  F </v>
   <v type="logical" >  F  F  F </v>
   <v type="logical" >  F  F  F </v>
   <v type="logical" >  F  F  F </v>
   <v type="logical" >  F  F  F </v>
   <v type="logical" >  F  F  F </v>
   <v type="logical" >  F  F  F </v>
   <v type="logical" >  F  F  F </v>
   <v type="logical" >  F  F  F </v>
   <v type="logical" >  F  F  F </v>
   <v type="logical" >  F  F  F </v>
   <v type="logical" >  F  F  F </v>
   <v type="logical" >  F  F  F </v>
   <v type="logical" >  F  F  F </v>
   <v type="logical" >  F  F  F </v>
   <v type="logical" >  F  F  F </v>
   <v type="logical" >  F  F  F </v>
   <v type="logical" >  F  F  F </v>
   <v type="logical" >  F  F  F </v>
   <v type="logical" >  F  F  F </v>
   <v type="logical" >  F  F  F </v>
   <v type="logical" >  F  F  F </v>
   <v type="logical" >  F  F  F </v>
   <v type="logical" >  F  F  F </v>
   <v type="logical" >  F  F  F </v>
   <v type="logical" >  F  F  F </v>
   <v type="logical" >  F  F  F </v>
   <v type="logical" >  F  F  F </v>
   <v type="logical" >  F  F  F </v>
   <v type="logical" >  F  F  F </v>
  </varray>
  <nose>
   <v>      -3.00000000       0.00000000       0.00010000       0.00010000 </v>
  </nose>
 </structure>
</modeling>
