   57   57    1    1
  0.4736842E+03  0.3000000E-08  0.3000000E-08  0.3000000E-08  0.5000000E-15
  1.000000000000000E-004
  CAR 
 6_Pd100_top_free_z(O)                   
    560      1    336
 
  0.0000000E+00  0.0000000E+00  0.0000000E+00  0.1000000E+01
    1      -28.049944   1.000000
    2      -13.802411   1.000000
    3      -11.408964   1.000000
    4      -10.898672   1.000000
    5      -10.873580   1.000000
    6       -7.206591   1.000000
    7       -7.185489   1.000000
    8       -6.683696   1.000000
    9       -6.233093   1.000000
   10       -6.161926   1.000000
   11       -6.140735   1.000000
   12       -6.115557   1.000000
   13       -6.068024   1.000000
   14       -5.849079   1.000000
   15       -5.816164   1.000000
   16       -5.813334   1.000000
   17       -5.787038   1.000000
   18       -5.732213   1.000000
   19       -5.696880   1.000000
   20       -5.689854   1.000000
   21       -5.689676   1.000000
   22       -5.689215   1.000000
   23       -5.624901   1.000000
   24       -5.605860   1.000000
   25       -5.603737   1.000000
   26       -5.600424   1.000000
   27       -5.600132   1.000000
   28       -5.598521   1.000000
   29       -5.552236   1.000000
   30       -5.541656   1.000000
   31       -5.540562   1.000000
   32       -5.536155   1.000000
   33       -5.525564   1.000000
   34       -5.523504   1.000000
   35       -5.522595   1.000000
   36       -5.516716   1.000000
   37       -5.513975   1.000000
   38       -5.513223   1.000000
   39       -5.510306   1.000000
   40       -5.490556   1.000000
   41       -5.482707   1.000000
   42       -5.479679   1.000000
   43       -5.475507   1.000000
   44       -5.472465   1.000000
   45       -5.471926   1.000000
   46       -5.471185   1.000000
   47       -5.465198   1.000000
   48       -5.458600   1.000000
   49       -5.433917   1.000000
   50       -5.433579   1.000000
   51       -5.431067   1.000000
   52       -5.421363   1.000000
   53       -5.414931   1.000000
   54       -5.414544   1.000000
   55       -5.403106   1.000000
   56       -5.402754   1.000000
   57       -5.399478   1.000000
   58       -5.395198   1.000000
   59       -5.356630   1.000000
   60       -5.338124   1.000000
   61       -5.328137   1.000000
   62       -5.323042   1.000000
   63       -5.321729   1.000000
   64       -5.319680   1.000000
   65       -5.319189   1.000000
   66       -5.317118   1.000000
   67       -5.315395   1.000000
   68       -5.305069   1.000000
   69       -5.295840   1.000000
   70       -5.294320   1.000000
   71       -5.263527   1.000000
   72       -5.202335   1.000000
   73       -5.195385   1.000000
   74       -5.192056   1.000000
   75       -5.186402   1.000000
   76       -5.185127   1.000000
   77       -5.184913   1.000000
   78       -5.182622   1.000000
   79       -5.182145   1.000000
   80       -5.164901   1.000000
   81       -5.157527   1.000000
   82       -5.155036   1.000000
   83       -5.152215   1.000000
   84       -5.147552   1.000000
   85       -5.127307   1.000000
   86       -5.126944   1.000000
   87       -5.119618   1.000000
   88       -5.107039   1.000000
   89       -5.105565   1.000000
   90       -5.104707   1.000000
   91       -5.085885   1.000000
   92       -5.063049   1.000000
   93       -5.061529   1.000000
   94       -5.056811   1.000000
   95       -5.056421   1.000000
   96       -5.051934   1.000000
   97       -5.051533   1.000000
   98       -5.038841   1.000000
   99       -5.032744   1.000000
  100       -5.028772   1.000000
  101       -5.025705   1.000000
  102       -5.020902   1.000000
  103       -5.018502   1.000000
  104       -5.015361   1.000000
  105       -5.010530   1.000000
  106       -5.009199   1.000000
  107       -5.008902   1.000000
  108       -4.993956   1.000000
  109       -4.989390   1.000000
  110       -4.984567   1.000000
  111       -4.984248   1.000000
  112       -4.981981   1.000000
  113       -4.979040   1.000000
  114       -4.970847   1.000000
  115       -4.969802   1.000000
  116       -4.963786   1.000000
  117       -4.953585   0.999999
  118       -4.953572   0.999999
  119       -4.934768   0.999999
  120       -4.930639   0.999998
  121       -4.921847   0.999998
  122       -4.920764   0.999998
  123       -4.918388   0.999998
  124       -4.915976   0.999997
  125       -4.914285   0.999997
  126       -4.905264   0.999996
  127       -4.904785   0.999996
  128       -4.886666   0.999993
  129       -4.885680   0.999993
  130       -4.874976   0.999990
  131       -4.847225   0.999977
  132       -4.841307   0.999972
  133       -4.838281   0.999970
  134       -4.836840   0.999969
  135       -4.834307   0.999966
  136       -4.832275   0.999964
  137       -4.826634   0.999958
  138       -4.805355   0.999924
  139       -4.800692   0.999914
  140       -4.796346   0.999904
  141       -4.793502   0.999896
  142       -4.780768   0.999856
  143       -4.772232   0.999822
  144       -4.755852   0.999736
  145       -4.743493   0.999649
  146       -4.741099   0.999629
  147       -4.738955   0.999611
  148       -4.737952   0.999602
  149       -4.726600   0.999490
  150       -4.714383   0.999340
  151       -4.710117   0.999280
  152       -4.707177   0.999237
  153       -4.686485   0.998864
  154       -4.685753   0.998849
  155       -4.683163   0.998793
  156       -4.681612   0.998759
  157       -4.676572   0.998643
  158       -4.676184   0.998634
  159       -4.669236   0.998460
  160       -4.665682   0.998366
  161       -4.662703   0.998284
  162       -4.657788   0.998143
  163       -4.656345   0.998100
  164       -4.655607   0.998078
  165       -4.652330   0.997978
  166       -4.647836   0.997836
  167       -4.647493   0.997825
  168       -4.638920   0.997538
  169       -4.638185   0.997513
  170       -4.633886   0.997362
  171       -4.633610   0.997352
  172       -4.627674   0.997138
  173       -4.627167   0.997119
  174       -4.599933   0.996105
  175       -4.599558   0.996092
  176       -4.594840   0.995924
  177       -4.594582   0.995915
  178       -4.591367   0.995806
  179       -4.590548   0.995778
  180       -4.585289   0.995610
  181       -4.578104   0.995406
  182       -4.570953   0.995241
  183       -4.557854   0.995073
  184       -4.557641   0.995072
  185       -4.554651   0.995065
  186       -4.554508   0.995065
  187       -4.553723   0.995066
  188       -4.553209   0.995067
  189       -4.549875   0.995083
  190       -4.549133   0.995089
  191       -4.519241   0.996323
  192       -4.516989   0.996511
  193       -4.514614   0.996726
  194       -4.511024   0.997087
  195       -4.505634   0.997711
  196       -4.493381   0.999532
  197       -4.485264   1.001070
  198       -4.484732   1.001181
  199       -4.479372   1.002365
  200       -4.476840   1.002968
  201       -4.470268   1.004669
  202       -4.469127   1.004985
  203       -4.467460   1.005456
  204       -4.463119   1.006744
  205       -4.462676   1.006880
  206       -4.459263   1.007959
  207       -4.455686   1.009147
  208       -4.447722   1.011995
  209       -4.447179   1.012199
  210       -4.442248   1.014108
  211       -4.433288   1.017818
  212       -4.424337   1.021792
  213       -4.412300   1.027438
  214       -4.411205   1.027962
  215       -4.408914   1.029063
  216       -4.407113   1.029930
  217       -4.406170   1.030384
  218       -4.403083   1.031870
  219       -4.401554   1.032605
  220       -4.400218   1.033246
  221       -4.397274   1.034650
  222       -4.396585   1.034977
  223       -4.364412   1.048067
  224       -4.357759   1.049802
  225       -4.355062   1.050359
  226       -4.345002   1.051565
  227       -4.340238   1.051587
  228       -4.339274   1.051543
  229       -4.338608   1.051503
  230       -4.336166   1.051287
  231       -4.331775   1.050606
  232       -4.331757   1.050603
  233       -4.328652   1.049881
  234       -4.327238   1.049484
  235       -4.325801   1.049034
  236       -4.323781   1.048323
  237       -4.323165   1.048086
  238       -4.317740   1.045612
  239       -4.316994   1.045214
  240       -4.314404   1.043721
  241       -4.311247   1.041659
  242       -4.302777   1.034737
  243       -4.301985   1.033982
  244       -4.301096   1.033111
  245       -4.294269   1.025600
  246       -4.292224   1.023057
  247       -4.286317   1.014924
  248       -4.285639   1.013914
  249       -4.284667   1.012438
  250       -4.284463   1.012125
  251       -4.271379   0.988867
  252       -4.261856   0.967934
  253       -4.261455   0.966977
  254       -4.257772   0.957892
  255       -4.253465   0.946603
  256       -4.252927   0.945143
  257       -4.251969   0.942515
  258       -4.251785   0.942005
  259       -4.245322   0.923295
  260       -4.245135   0.922731
  261       -4.239831   0.906132
  262       -4.238977   0.903361
  263       -4.238132   0.900591
  264       -4.237245   0.897652
  265       -4.235032   0.890192
  266       -4.222972   0.846359
  267       -4.221358   0.840099
  268       -4.220096   0.835139
  269       -4.219694   0.833546
  270       -4.216602   0.821123
  271       -4.216555   0.820932
  272       -4.200926   0.753427
  273       -4.197942   0.739722
  274       -4.197322   0.736846
  275       -4.189869   0.701509
  276       -4.185995   0.682632
  277       -4.184775   0.676624
  278       -4.182129   0.663486
  279       -4.171037   0.607123
  280       -4.170550   0.604604
  281       -4.170200   0.602795
  282       -4.156801   0.532672
  283       -4.152745   0.511237
  284       -4.133974   0.412428
  285       -4.133808   0.411566
  286       -4.127694   0.379968
  287       -4.121909   0.350548
  288       -4.111846   0.300789
  289       -4.020418  -0.006274
  290       -3.954612  -0.051472
  291       -3.908841  -0.036944
  292       -3.830179  -0.004454
  293       -3.823614  -0.002778
  294       -3.816543  -0.001189
  295       -3.499709   0.000084
  296       -3.496645   0.000077
  297       -3.358392   0.000001
  298       -3.070371   0.000000
  299       -3.069651   0.000000
  300       -3.031049   0.000000
  301       -3.025442   0.000000
  302       -3.015654   0.000000
  303       -3.015273   0.000000
  304       -2.936056   0.000000
  305       -2.782479   0.000000
  306       -2.560330   0.000000
  307       -2.554114   0.000000
  308       -2.522218   0.000000
  309       -2.209793   0.000000
  310       -2.154232   0.000000
  311       -2.133172   0.000000
  312       -2.120521   0.000000
  313       -1.954730   0.000000
  314       -1.952818   0.000000
  315       -1.867392   0.000000
  316       -1.851168   0.000000
  317       -1.845533   0.000000
  318       -1.731021   0.000000
  319       -1.703083   0.000000
  320       -1.679452   0.000000
  321       -1.640796   0.000000
  322       -1.556400   0.000000
  323       -1.502902   0.000000
  324       -1.314479   0.000000
  325       -1.288548   0.000000
  326       -1.036462   0.000000
  327       -1.024369   0.000000
  328       -1.020983   0.000000
  329       -0.948164   0.000000
  330       -0.943339   0.000000
  331       -0.941554   0.000000
  332       -0.938075   0.000000
  333       -0.910383   0.000000
  334       -0.829690   0.000000
  335       -0.819284   0.000000
  336       -0.797136   0.000000
