<?xml version="1.0" encoding="ISO-8859-1"?>
<modeling>
 <generator>
  <i name="program" type="string">vasp </i>
  <i name="version" type="string">5.4.4.18Apr17-6-g9f103f2a35  </i>
  <i name="subversion" type="string">(build Sep 03 2018 23:53:05) complex            parallel </i>
  <i name="platform" type="string">LinuxIFC </i>
  <i name="date" type="string">2021 12 01 </i>
  <i name="time" type="string">10:26:52 </i>
 </generator>
 <incar>
  <i type="string" name="SYSTEM"> 6_Pd100_top_free_z(O)</i>
  <i type="int" name="ISTART">     0</i>
  <i type="string" name="PREC">normal   			! encut=max(enmax), ngx,y,z</i>
  <i type="string" name="ALGO"> Fast     			! Mix RMM-DIIS and Dav</i>
  <i type="logical" name="ADDGRID"> F  </i>
  <i type="int" name="ISPIN">     1</i>
  <i type="int" name="ICHARG">     2</i>
  <i type="int" name="NELM">   100</i>
  <i type="int" name="NELMIN">     6</i>
  <i type="int" name="IBRION">     2</i>
  <i name="EDIFF">      0.00010000</i>
  <i name="EDIFFG">     -0.05000000</i>
  <i type="int" name="NSW">     0</i>
  <i type="int" name="ISIF">     2</i>
  <i type="int" name="ISYM">     2</i>
  <i name="ENCUT">    400.00000000</i>
  <i type="string" name="LREAL"> Auto     			! Auto or A projection done</i>
  <i type="int" name="ISMEAR">     2</i>
  <i name="SIGMA">      0.20000000</i>
  <i type="logical" name="LWAVE"> F  </i>
  <i type="logical" name="LCHARG"> F  </i>
  <v type="int" name="KPOINT_BSE">    -1     0     0     0</v>
  <i type="int" name="MAXMEM"> 10000</i>
  <i type="int" name="NELM">   100</i>
  <i type="string" name="GGA"> RP         			! Revised PBE</i>
 </incar>
 <structure name="primitive_cell" >
  <crystal>
   <varray name="basis" >
    <v>      30.00000000       0.00000000       0.00000000 </v>
    <v>       0.00000000      30.00000000       0.00000000 </v>
    <v>       0.00000000       0.00000000      30.00000000 </v>
   </varray>
   <i name="volume">  27000.00000000 </i>
   <varray name="rec_basis" >
    <v>       0.03333333       0.00000000       0.00000000 </v>
    <v>       0.00000000       0.03333333       0.00000000 </v>
    <v>       0.00000000       0.00000000       0.03333333 </v>
   </varray>
  </crystal>
  <varray name="positions" >
   <v>       0.44576020       0.32826710       0.41691983 </v>
   <v>      -0.44576020       0.32826710       0.41691983 </v>
   <v>      -0.50000000       0.38250690       0.34021317 </v>
   <v>      -0.50000000       0.27609440      -0.50000000 </v>
   <v>       0.38804720       0.38804720       0.34167483 </v>
   <v>      -0.50000000       0.38416601      -0.50000000 </v>
   <v>       0.44208300       0.44208300       0.41809300 </v>
   <v>       0.38317830       0.38317830      -0.50000000 </v>
   <v>      -0.44208300       0.44208300       0.41809300 </v>
   <v>       0.44576020       0.32826710      -0.41691977 </v>
   <v>       0.32826705       0.44576024       0.41691983 </v>
   <v>      -0.38804720       0.38804720       0.34167483 </v>
   <v>      -0.38317830       0.38317830      -0.50000000 </v>
   <v>      -0.50000000      -0.50000000       0.33478917 </v>
   <v>      -0.50000000      -0.50000000      -0.50000000 </v>
   <v>      -0.44576020       0.32826710      -0.41691977 </v>
   <v>       0.38250685      -0.49999995       0.34021317 </v>
   <v>       0.44208300       0.44208300      -0.41809297 </v>
   <v>       0.38416599      -0.49999998      -0.50000000 </v>
   <v>       0.48850633       0.49445453       0.27158193 </v>
   <v>      -0.44208300       0.44208300      -0.41809297 </v>
   <v>       0.44208298      -0.44208298       0.41809300 </v>
   <v>       0.32826705       0.44576024      -0.41691977 </v>
   <v>       0.48661730       0.49354310       0.23404047 </v>
   <v>      -0.50000000       0.38250690      -0.34021320 </v>
   <v>       0.32826712      -0.44576022       0.41691983 </v>
   <v>      -0.38250685      -0.49999995       0.34021317 </v>
   <v>      -0.32826705       0.44576024       0.41691983 </v>
   <v>       0.27609443       0.49999998      -0.50000000 </v>
   <v>       0.38804720       0.38804720      -0.34167487 </v>
   <v>      -0.38416599      -0.49999998      -0.50000000 </v>
   <v>      -0.44208298      -0.44208298       0.41809300 </v>
   <v>       0.44208298      -0.44208298      -0.41809297 </v>
   <v>      -0.38804720       0.38804720      -0.34167487 </v>
   <v>       0.38804722      -0.38804722       0.34167483 </v>
   <v>       0.38250685      -0.49999995      -0.34021320 </v>
   <v>       0.32826712      -0.44576022      -0.41691977 </v>
   <v>      -0.32826705       0.44576024      -0.41691977 </v>
   <v>       0.50000000      -0.38250681       0.34021317 </v>
   <v>      -0.50000000      -0.38416596      -0.50000000 </v>
   <v>      -0.44208298      -0.44208298      -0.41809297 </v>
   <v>      -0.50000000      -0.50000000      -0.33478913 </v>
   <v>       0.38317828      -0.38317828      -0.50000000 </v>
   <v>      -0.32826712      -0.44576022       0.41691983 </v>
   <v>      -0.27609443       0.49999998      -0.50000000 </v>
   <v>      -0.38804722      -0.38804722       0.34167483 </v>
   <v>      -0.38250685      -0.49999995      -0.34021320 </v>
   <v>       0.44576027      -0.32826707       0.41691983 </v>
   <v>      -0.38317828      -0.38317828      -0.50000000 </v>
   <v>      -0.32826712      -0.44576022      -0.41691977 </v>
   <v>      -0.44576027      -0.32826707       0.41691983 </v>
   <v>       0.38804722      -0.38804722      -0.34167487 </v>
   <v>      -0.50000000      -0.38250681      -0.34021320 </v>
   <v>       0.44576027      -0.32826707      -0.41691977 </v>
   <v>      -0.44576027      -0.32826707      -0.41691977 </v>
   <v>      -0.50000000      -0.27609445       0.50000000 </v>
   <v>      -0.38804722      -0.38804722      -0.34167487 </v>
  </varray>
 </structure>
 <varray name="primitive_index" >
  <v type="int" >        1 </v>
  <v type="int" >        3 </v>
  <v type="int" >        5 </v>
  <v type="int" >        7 </v>
  <v type="int" >       15 </v>
  <v type="int" >       29 </v>
  <v type="int" >       28 </v>
  <v type="int" >       34 </v>
  <v type="int" >       21 </v>
  <v type="int" >       19 </v>
  <v type="int" >       22 </v>
  <v type="int" >       11 </v>
  <v type="int" >       36 </v>
  <v type="int" >       38 </v>
  <v type="int" >       52 </v>
  <v type="int" >       24 </v>
  <v type="int" >       32 </v>
  <v type="int" >       44 </v>
  <v type="int" >       48 </v>
  <v type="int" >       56 </v>
  <v type="int" >       42 </v>
  <v type="int" >       43 </v>
  <v type="int" >       40 </v>
  <v type="int" >       57 </v>
  <v type="int" >        6 </v>
  <v type="int" >        4 </v>
  <v type="int" >       30 </v>
  <v type="int" >       26 </v>
  <v type="int" >        8 </v>
  <v type="int" >       16 </v>
  <v type="int" >       49 </v>
  <v type="int" >       47 </v>
  <v type="int" >       53 </v>
  <v type="int" >       12 </v>
  <v type="int" >       13 </v>
  <v type="int" >       33 </v>
  <v type="int" >       25 </v>
  <v type="int" >       45 </v>
  <v type="int" >       50 </v>
  <v type="int" >       55 </v>
  <v type="int" >       54 </v>
  <v type="int" >       39 </v>
  <v type="int" >       37 </v>
  <v type="int" >        2 </v>
  <v type="int" >        9 </v>
  <v type="int" >       17 </v>
  <v type="int" >       31 </v>
  <v type="int" >       27 </v>
  <v type="int" >       35 </v>
  <v type="int" >       20 </v>
  <v type="int" >       23 </v>
  <v type="int" >       14 </v>
  <v type="int" >       51 </v>
  <v type="int" >       46 </v>
  <v type="int" >       41 </v>
  <v type="int" >       10 </v>
  <v type="int" >       18 </v>
 </varray>
 <kpoints>
  <generation param="Monkhorst-Pack">
   <v type="int" name="divisions">       1        1        1 </v>
   <v name="usershift">      0.00000000       0.00000000       0.00000000 </v>
   <v name="genvec1">      1.00000000       0.00000000       0.00000000 </v>
   <v name="genvec2">      0.00000000       1.00000000       0.00000000 </v>
   <v name="genvec3">      0.00000000       0.00000000       1.00000000 </v>
   <v name="shift">      0.00000000       0.00000000       0.00000000 </v>
  </generation>
  <varray name="kpointlist" >
   <v>       0.00000000       0.00000000       0.00000000 </v>
  </varray>
  <varray name="weights" >
   <v>       1.00000000 </v>
  </varray>
 </kpoints>
 <parameters>
  <separator name="general" >
   <i type="string" name="SYSTEM">6_Pd100_top_free_z(O)</i>
   <i type="logical" name="LCOMPAT"> F  </i>
  </separator>
  <separator name="electronic" >
   <i type="string" name="PREC">normal</i>
   <i name="ENMAX">    400.00000000</i>
   <i name="ENAUG">    644.87300000</i>
   <i name="EDIFF">      0.00010000</i>
   <i type="int" name="IALGO">    68</i>
   <i type="int" name="IWAVPR">    10</i>
   <i type="int" name="NBANDS">   336</i>
   <i name="NELECT">    560.00000000</i>
   <i type="int" name="TURBO">     0</i>
   <i type="int" name="IRESTART">     0</i>
   <i type="int" name="NREBOOT">     0</i>
   <i type="int" name="NMIN">     0</i>
   <i name="EREF">      0.00000000</i>
   <separator name="electronic smearing" >
    <i type="int" name="ISMEAR">     2</i>
    <i name="SIGMA">      0.20000000</i>
    <i name="KSPACING">      0.50000000</i>
    <i type="logical" name="KGAMMA"> T  </i>
   </separator>
   <separator name="electronic projectors" >
    <i type="logical" name="LREAL"> T  </i>
    <v name="ROPT">     -0.00050000     -0.00050000     -0.00050000</v>
    <i type="int" name="LMAXPAW">  -100</i>
    <i type="int" name="LMAXMIX">     2</i>
    <i type="logical" name="NLSPLINE"> F  </i>
   </separator>
   <separator name="electronic startup" >
    <i type="int" name="ISTART">     0</i>
    <i type="int" name="ICHARG">     2</i>
    <i type="int" name="INIWAV">     1</i>
   </separator>
   <separator name="electronic spin" >
    <i type="int" name="ISPIN">     1</i>
    <i type="logical" name="LNONCOLLINEAR"> F  </i>
    <v name="MAGMOM">      1.00000000      1.00000000      1.00000000      1.00000000      1.00000000      1.00000000      1.00000000      1.00000000      1.00000000      1.00000000      1.00000000      1.00000000      1.00000000      1.00000000      1.00000000      1.00000000      1.00000000      1.00000000      1.00000000      1.00000000
      1.00000000      1.00000000      1.00000000      1.00000000      1.00000000      1.00000000      1.00000000      1.00000000      1.00000000      1.00000000      1.00000000      1.00000000      1.00000000      1.00000000      1.00000000      1.00000000      1.00000000      1.00000000      1.00000000      1.00000000
      1.00000000      1.00000000      1.00000000      1.00000000      1.00000000      1.00000000      1.00000000      1.00000000      1.00000000      1.00000000      1.00000000      1.00000000      1.00000000      1.00000000      1.00000000      1.00000000      1.00000000</v>
    <i name="NUPDOWN">     -1.00000000</i>
    <i type="logical" name="LSORBIT"> F  </i>
    <v name="SAXIS">      0.00000000      0.00000000      1.00000000</v>
    <i type="logical" name="LSPIRAL"> F  </i>
    <v name="QSPIRAL">      0.00000000      0.00000000      0.00000000</v>
    <i type="logical" name="LZEROZ"> F  </i>
   </separator>
   <separator name="electronic exchange-correlation" >
    <i type="logical" name="LASPH"> F  </i>
    <i type="logical" name="LMETAGGA"> F  </i>
   </separator>
   <separator name="electronic convergence" >
    <i type="int" name="NELM">   100</i>
    <i type="int" name="NELMDL">    -5</i>
    <i type="int" name="NELMIN">     6</i>
    <i name="ENINI">    400.00000000</i>
    <separator name="electronic convergence detail" >
     <i type="logical" name="LDIAG"> T  </i>
     <i type="logical" name="LSUBROT"> F  </i>
     <i name="WEIMIN">      0.00000000</i>
     <i name="EBREAK">      0.00000007</i>
     <i name="DEPER">      0.30000000</i>
     <i type="int" name="NRMM">     4</i>
     <i name="TIME">      0.40000000</i>
    </separator>
   </separator>
   <separator name="electronic mixer" >
    <i name="AMIX">      0.40000000</i>
    <i name="BMIX">      1.00000000</i>
    <i name="AMIN">      0.10000000</i>
    <i name="AMIX_MAG">      1.60000000</i>
    <i name="BMIX_MAG">      1.00000000</i>
    <separator name="electronic mixer details" >
     <i type="int" name="IMIX">     4</i>
     <i type="logical" name="MIXFIRST"> F  </i>
     <i type="int" name="MAXMIX">   -45</i>
     <i name="WC">    100.00000000</i>
     <i type="int" name="INIMIX">     1</i>
     <i type="int" name="MIXPRE">     1</i>
     <i type="int" name="MREMOVE">     5</i>
    </separator>
   </separator>
   <separator name="electronic dipolcorrection" >
    <i type="logical" name="LDIPOL"> F  </i>
    <i type="logical" name="LMONO"> F  </i>
    <i type="int" name="IDIPOL">     0</i>
    <i name="EPSILON">      1.00000000</i>
    <v name="DIPOL">   -100.00000000   -100.00000000   -100.00000000</v>
    <i name="EFIELD">      0.00000000</i>
   </separator>
  </separator>
  <separator name="grids" >
   <i type="int" name="NGX">   150</i>
   <i type="int" name="NGY">   150</i>
   <i type="int" name="NGZ">   150</i>
   <i type="int" name="NGXF">   300</i>
   <i type="int" name="NGYF">   300</i>
   <i type="int" name="NGZF">   300</i>
   <i type="logical" name="ADDGRID"> F  </i>
  </separator>
  <separator name="ionic" >
   <i type="int" name="NSW">     0</i>
   <i type="int" name="IBRION">    -1</i>
   <i type="int" name="MDALGO">     0</i>
   <i type="int" name="ISIF">     2</i>
   <i name="PSTRESS">      0.00000000</i>
   <i name="EDIFFG">     -0.05000000</i>
   <i type="int" name="NFREE">     1</i>
   <i name="POTIM">      0.50000000</i>
   <i name="SMASS">     -3.00000000</i>
   <i name="SCALEE">      1.00000000</i>
  </separator>
  <separator name="ionic md" >
   <i name="TEBEG">      0.00010000</i>
   <i name="TEEND">      0.00010000</i>
   <i type="int" name="NBLOCK">     1</i>
   <i type="int" name="KBLOCK">     1</i>
   <i type="int" name="NPACO">   256</i>
   <i name="APACO">     16.00000000</i>
  </separator>
  <separator name="symmetry" >
   <i type="int" name="ISYM">     2</i>
   <i name="SYMPREC">      0.00001000</i>
  </separator>
  <separator name="dos" >
   <i type="int" name="LORBIT">     0</i>
   <v name="RWIGS">     -1.00000000     -1.00000000     -1.00000000</v>
   <i type="int" name="NEDOS">   301</i>
   <i name="EMIN">     10.00000000</i>
   <i name="EMAX">    -10.00000000</i>
   <i name="EFERMI">      0.00000000</i>
  </separator>
  <separator name="writing" >
   <i type="int" name="NWRITE">     2</i>
   <i type="logical" name="LWAVE"> F  </i>
   <i type="logical" name="LDOWNSAMPLE"> F  </i>
   <i type="logical" name="LCHARG"> F  </i>
   <i type="logical" name="LPARD"> F  </i>
   <i type="logical" name="LVTOT"> F  </i>
   <i type="logical" name="LVHAR"> F  </i>
   <i type="logical" name="LELF"> F  </i>
   <i type="logical" name="LOPTICS"> F  </i>
   <v name="STM">      0.00000000      0.00000000      0.00000000      0.00000000      0.00000000      0.00000000      0.00000000</v>
  </separator>
  <separator name="performance" >
   <i type="int" name="NPAR">     1</i>
   <i type="int" name="NSIM">     4</i>
   <i type="int" name="NBLK">    -1</i>
   <i type="logical" name="LPLANE"> T  </i>
   <i type="logical" name="LSCALAPACK"> T  </i>
   <i type="logical" name="LSCAAWARE"> F  </i>
   <i type="logical" name="LSCALU"> F  </i>
   <i type="logical" name="LASYNC"> F  </i>
   <i type="logical" name="LORBITALREAL"> F  </i>
  </separator>
  <separator name="miscellaneous" >
   <i type="int" name="IDIOT">     3</i>
   <i type="int" name="ISPECIAL">     0</i>
   <i type="logical" name="LMUSIC"> F  </i>
   <v name="POMASS">    106.42000000     12.01100000     16.00000000</v>
   <v name="DARWINR">      0.00000000      0.00000000      0.00000000</v>
   <v name="DARWINV">      1.00000000      1.00000000      1.00000000</v>
   <i type="logical" name="LCORR"> T  </i>
  </separator>
  <i type="logical" name="GGA_COMPAT"> T  </i>
  <i type="logical" name="LBERRY"> F  </i>
  <i type="int" name="ICORELEVEL">     0</i>
  <i type="logical" name="LDAU"> F  </i>
  <i type="int" name="I_CONSTRAINED_M">     0</i>
  <separator name="electronic exchange-correlation" >
   <i type="string" name="GGA">RP</i>
   <i type="int" name="VOSKOWN">     0</i>
   <i type="logical" name="LHFCALC"> F  </i>
   <i type="string" name="PRECFOCK"></i>
   <i type="logical" name="LSYMGRAD"> F  </i>
   <i type="logical" name="LHFONE"> F  </i>
   <i type="logical" name="LRHFCALC"> F  </i>
   <i type="logical" name="LTHOMAS"> F  </i>
   <i type="logical" name="LMODELHF"> F  </i>
   <i name="ENCUT4O">     -1.00000000</i>
   <i type="int" name="EXXOEP">     0</i>
   <i type="int" name="FOURORBIT">     0</i>
   <i name="AEXX">      0.00000000</i>
   <i name="HFALPHA">      0.00000000</i>
   <i name="MCALPHA">      0.00000000</i>
   <i name="ALDAX">      1.00000000</i>
   <i name="AGGAX">      1.00000000</i>
   <i name="ALDAC">      1.00000000</i>
   <i name="AGGAC">      1.00000000</i>
   <i type="int" name="NKREDX">     1</i>
   <i type="int" name="NKREDY">     1</i>
   <i type="int" name="NKREDZ">     1</i>
   <i type="logical" name="SHIFTRED"> F  </i>
   <i type="logical" name="ODDONLY"> F  </i>
   <i type="logical" name="EVENONLY"> F  </i>
   <i type="int" name="LMAXFOCK">     0</i>
   <i type="int" name="NMAXFOCKAE">     0</i>
   <i type="logical" name="LFOCKAEDFT"> F  </i>
   <i name="HFSCREEN">      0.00000000</i>
   <i name="HFSCREENC">      0.00000000</i>
   <i type="int" name="NBANDSGWLOW">     0</i>
  </separator>
  <separator name="vdW DFT" >
   <i type="logical" name="LUSE_VDW"> F  </i>
   <i name="Zab_VDW">     -0.84910000</i>
   <i name="PARAM1">      0.12340000</i>
   <i name="PARAM2">      1.00000000</i>
   <i name="PARAM3">      0.00000000</i>
  </separator>
  <separator name="model GW" >
   <i type="int" name="MODEL_GW">     0</i>
   <i name="MODEL_EPS0">    284.21052632</i>
   <i name="MODEL_ALPHA">      1.00000000</i>
  </separator>
  <separator name="linear response parameters" >
   <i type="logical" name="LEPSILON"> F  </i>
   <i type="logical" name="LRPA"> F  </i>
   <i type="logical" name="LNABLA"> F  </i>
   <i type="logical" name="LVEL"> F  </i>
   <i type="int" name="KINTER">     0</i>
   <i name="CSHIFT">      0.10000000</i>
   <i name="OMEGAMAX">     -1.00000000</i>
   <i name="DEG_THRESHOLD">      0.00200000</i>
   <i name="RTIME">     -0.10000000</i>
   <i name="WPLASMAI">      0.00000000</i>
   <v name="DFIELD">      0.00000000      0.00000000      0.00000000</v>
   <v name="WPLASMA">      0.00000000      0.00000000      0.00000000      0.00000000      0.00000000      0.00000000      0.00000000      0.00000000      0.00000000</v>
  </separator>
  <separator name="orbital magnetization" >
   <i type="logical" name="NUCIND"> F  </i>
   <v name="MAGPOS">      0.00000000      0.00000000      0.00000000</v>
   <i type="logical" name="LNICSALL"> T  </i>
   <i type="logical" name="ORBITALMAG"> F  </i>
   <i type="logical" name="LMAGBLOCH"> F  </i>
   <i type="logical" name="LCHIMAG"> F  </i>
   <i type="logical" name="LGAUGE"> T  </i>
   <i type="int" name="MAGATOM">     0</i>
   <v name="MAGDIPOL">      0.00000000      0.00000000      0.00000000</v>
   <v name="AVECCONST">      0.00000000      0.00000000      0.00000000</v>
  </separator>
  <separator name="response functions" >
   <i type="logical" name="LADDER"> F  </i>
   <i type="logical" name="LRPAFORCE"> F  </i>
   <i type="logical" name="LFXC"> F  </i>
   <i type="logical" name="LHARTREE"> T  </i>
   <i type="int" name="IBSE">     0</i>
   <v type="int" name="KPOINT">    -1     0     0     0</v>
   <i type="logical" name="LTCTE"> F  </i>
   <i type="logical" name="LTETE"> F  </i>
   <i type="logical" name="LTRIPLET"> F  </i>
   <i type="logical" name="LFXCEPS"> F  </i>
   <i type="logical" name="LFXHEG"> F  </i>
   <i type="int" name="NATURALO">     2</i>
   <i type="logical" name="L2ORDER"> F  </i>
   <i type="logical" name="LMP2LT"> F  </i>
   <i type="logical" name="LUSEW"> F  </i>
   <i name="ENCUTGW">     -2.00000000</i>
   <i name="ENCUTGWSOFT">     -2.00000000</i>
   <i name="ENCUTLF">     -1.00000000</i>
   <i type="int" name="LMAXMP2">    -1</i>
   <i name="SCISSOR">      0.00000000</i>
   <i type="int" name="NOMEGA">     0</i>
   <i type="int" name="NOMEGAR">     0</i>
   <i type="int" name="NBANDSGW">    -1</i>
   <i type="int" name="NBANDSO">    -1</i>
   <i type="int" name="NBANDSV">    -1</i>
   <i type="int" name="NELM">   100</i>
   <i type="int" name="NELMHF">     1</i>
   <i type="int" name="DIM">     3</i>
   <i type="int" name="ANTIRES">     0</i>
   <i name="OMEGAMAX">    -30.00000000</i>
   <i name="OMEGAMIN">    -30.00000000</i>
   <i name="OMEGATL">   -200.00000000</i>
   <i type="int" name="OMEGAGRID">   140</i>
   <i name="CSHIFT">     -0.10000000</i>
   <i type="logical" name="SELFENERGY"> F  </i>
   <i type="logical" name="LSPECTRAL"> F  </i>
   <i type="logical" name="LSPECTRALGW"> F  </i>
   <i type="logical" name="LSINGLES"> F  </i>
   <i type="logical" name="LFERMIGW"> F  </i>
   <i type="logical" name="ODDONLYGW"> F  </i>
   <i type="logical" name="EVENONLYGW"> F  </i>
   <i type="int" name="NKREDLFX">     1</i>
   <i type="int" name="NKREDLFY">     1</i>
   <i type="int" name="NKREDLFZ">     1</i>
   <i type="int" name="MAXMEM"> 10000</i>
   <i type="int" name="TELESCOPE">     0</i>
   <i type="int" name="TAUPAR">     1</i>
   <i type="int" name="OMEGAPAR">    -1</i>
   <i name="LAMBDA">      1.00000000</i>
  </separator>
  <separator name="External order field" >
   <i name="OFIELD_KAPPA">      0.00000000</i>
   <v name="OFIELD_K">      0.00000000      0.00000000      0.00000000</v>
   <i name="OFIELD_Q6_NEAR">      0.00000000</i>
   <i name="OFIELD_Q6_FAR">      0.00000000</i>
   <i name="OFIELD_A">      0.00000000</i>
  </separator>
 </parameters>
 <atominfo>
  <atoms>      57 </atoms>
  <types>       3 </types>
  <array name="atoms" >
   <dimension dim="1">ion</dimension>
   <field type="string">element</field>
   <field type="int">atomtype</field>
   <set>
    <rc><c>Pd</c><c>   1</c></rc>
    <rc><c>Pd</c><c>   1</c></rc>
    <rc><c>Pd</c><c>   1</c></rc>
    <rc><c>Pd</c><c>   1</c></rc>
    <rc><c>Pd</c><c>   1</c></rc>
    <rc><c>Pd</c><c>   1</c></rc>
    <rc><c>Pd</c><c>   1</c></rc>
    <rc><c>Pd</c><c>   1</c></rc>
    <rc><c>Pd</c><c>   1</c></rc>
    <rc><c>Pd</c><c>   1</c></rc>
    <rc><c>Pd</c><c>   1</c></rc>
    <rc><c>Pd</c><c>   1</c></rc>
    <rc><c>Pd</c><c>   1</c></rc>
    <rc><c>Pd</c><c>   1</c></rc>
    <rc><c>Pd</c><c>   1</c></rc>
    <rc><c>Pd</c><c>   1</c></rc>
    <rc><c>Pd</c><c>   1</c></rc>
    <rc><c>Pd</c><c>   1</c></rc>
    <rc><c>Pd</c><c>   1</c></rc>
    <rc><c>Pd</c><c>   1</c></rc>
    <rc><c>Pd</c><c>   1</c></rc>
    <rc><c>Pd</c><c>   1</c></rc>
    <rc><c>Pd</c><c>   1</c></rc>
    <rc><c>Pd</c><c>   1</c></rc>
    <rc><c>Pd</c><c>   1</c></rc>
    <rc><c>Pd</c><c>   1</c></rc>
    <rc><c>Pd</c><c>   1</c></rc>
    <rc><c>Pd</c><c>   1</c></rc>
    <rc><c>Pd</c><c>   1</c></rc>
    <rc><c>Pd</c><c>   1</c></rc>
    <rc><c>Pd</c><c>   1</c></rc>
    <rc><c>Pd</c><c>   1</c></rc>
    <rc><c>Pd</c><c>   1</c></rc>
    <rc><c>Pd</c><c>   1</c></rc>
    <rc><c>Pd</c><c>   1</c></rc>
    <rc><c>Pd</c><c>   1</c></rc>
    <rc><c>Pd</c><c>   1</c></rc>
    <rc><c>Pd</c><c>   1</c></rc>
    <rc><c>Pd</c><c>   1</c></rc>
    <rc><c>Pd</c><c>   1</c></rc>
    <rc><c>Pd</c><c>   1</c></rc>
    <rc><c>Pd</c><c>   1</c></rc>
    <rc><c>Pd</c><c>   1</c></rc>
    <rc><c>Pd</c><c>   1</c></rc>
    <rc><c>Pd</c><c>   1</c></rc>
    <rc><c>Pd</c><c>   1</c></rc>
    <rc><c>Pd</c><c>   1</c></rc>
    <rc><c>Pd</c><c>   1</c></rc>
    <rc><c>Pd</c><c>   1</c></rc>
    <rc><c>Pd</c><c>   1</c></rc>
    <rc><c>Pd</c><c>   1</c></rc>
    <rc><c>Pd</c><c>   1</c></rc>
    <rc><c>Pd</c><c>   1</c></rc>
    <rc><c>Pd</c><c>   1</c></rc>
    <rc><c>Pd</c><c>   1</c></rc>
    <rc><c>C </c><c>   2</c></rc>
    <rc><c>O </c><c>   3</c></rc>
   </set>
  </array>
  <array name="atomtypes" >
   <dimension dim="1">type</dimension>
   <field type="int">atomspertype</field>
   <field type="string">element</field>
   <field>mass</field>
   <field>valence</field>
   <field type="string">pseudopotential</field>
   <set>
    <rc><c>  55</c><c>Pd</c><c>    106.42000000</c><c>     10.00000000</c><c>  PAW_PBE Pd 04Jan2005                  </c></rc>
    <rc><c>   1</c><c>C </c><c>     12.01100000</c><c>      4.00000000</c><c>  PAW_PBE C 08Apr2002                   </c></rc>
    <rc><c>   1</c><c>O </c><c>     16.00000000</c><c>      6.00000000</c><c>  PAW_PBE O 08Apr2002                   </c></rc>
   </set>
  </array>
 </atominfo>
 <structure name="initialpos" >
  <crystal>
   <varray name="basis" >
    <v>      30.00000000       0.00000000       0.00000000 </v>
    <v>       0.00000000      30.00000000       0.00000000 </v>
    <v>       0.00000000       0.00000000      30.00000000 </v>
   </varray>
   <i name="volume">  27000.00000000 </i>
   <varray name="rec_basis" >
    <v>       0.03333333       0.00000000       0.00000000 </v>
    <v>       0.00000000       0.03333333       0.00000000 </v>
    <v>       0.00000000       0.00000000       0.03333333 </v>
   </varray>
  </crystal>
  <varray name="positions" >
   <v>       0.44576020       0.32826710       0.41691983 </v>
   <v>       0.67173288       0.55423978       0.41691983 </v>
   <v>       0.55423980       0.32826710       0.41691983 </v>
   <v>       0.32826712       0.55423978       0.41691983 </v>
   <v>       0.50000000       0.38250690       0.34021317 </v>
   <v>       0.50000000       0.38250690       0.65978680 </v>
   <v>       0.50000000       0.27609440       0.50000000 </v>
   <v>       0.27609443       0.49999998       0.50000000 </v>
   <v>       0.72390557       0.49999998       0.50000000 </v>
   <v>       0.50000000       0.72390555       0.50000000 </v>
   <v>       0.61195280       0.38804720       0.34167483 </v>
   <v>       0.61195280       0.38804720       0.65832513 </v>
   <v>       0.38804722       0.61195278       0.34167483 </v>
   <v>       0.38804722       0.61195278       0.65832513 </v>
   <v>       0.38804720       0.38804720       0.34167483 </v>
   <v>       0.38804720       0.38804720       0.65832513 </v>
   <v>       0.61195278       0.61195278       0.34167483 </v>
   <v>       0.61195278       0.61195278       0.65832513 </v>
   <v>       0.44576020       0.32826710       0.58308023 </v>
   <v>       0.67173288       0.55423978       0.58308023 </v>
   <v>       0.55791699       0.44208301       0.41809300 </v>
   <v>       0.32826705       0.44576024       0.41691983 </v>
   <v>       0.55423973       0.67173293       0.41691983 </v>
   <v>       0.55423980       0.32826710       0.58308023 </v>
   <v>       0.32826712       0.55423978       0.58308023 </v>
   <v>       0.67173295       0.44576024       0.41691983 </v>
   <v>       0.44576027       0.67173293       0.41691983 </v>
   <v>       0.44208301       0.44208301       0.41809300 </v>
   <v>       0.50000000       0.38416601       0.50000000 </v>
   <v>       0.61749315       0.50000005       0.34021317 </v>
   <v>       0.61749315       0.50000005       0.65978680 </v>
   <v>       0.38250685       0.50000005       0.34021317 </v>
   <v>       0.38250685       0.50000005       0.65978680 </v>
   <v>       0.38317830       0.38317830       0.50000000 </v>
   <v>       0.61682172       0.61682172       0.50000000 </v>
   <v>       0.61682170       0.38317830       0.50000000 </v>
   <v>       0.38317828       0.61682172       0.50000000 </v>
   <v>       0.50000000       0.50000000       0.33478917 </v>
   <v>       0.50000000       0.50000000       0.66521087 </v>
   <v>       0.32826705       0.44576024       0.58308023 </v>
   <v>       0.55423973       0.67173293       0.58308023 </v>
   <v>       0.55791699       0.44208301       0.58190703 </v>
   <v>       0.44208298       0.55791702       0.41809300 </v>
   <v>       0.44208301       0.44208301       0.58190703 </v>
   <v>       0.67173295       0.44576024       0.58308023 </v>
   <v>       0.44576027       0.67173293       0.58308023 </v>
   <v>       0.55791702       0.55791702       0.41809300 </v>
   <v>       0.38416599       0.50000002       0.50000000 </v>
   <v>       0.61583401       0.50000002       0.50000000 </v>
   <v>       0.50000000       0.61749319       0.34021317 </v>
   <v>       0.50000000       0.61749319       0.65978680 </v>
   <v>       0.50000000       0.50000000       0.50000000 </v>
   <v>       0.44208298       0.55791702       0.58190703 </v>
   <v>       0.55791702       0.55791702       0.58190703 </v>
   <v>       0.50000000       0.61583404       0.50000000 </v>
   <v>       0.48850633       0.49445453       0.27158193 </v>
   <v>       0.48661730       0.49354310       0.23404047 </v>
  </varray>
  <varray name="selective"  type="logical" >
   <v type="logical" >  F  F  F </v>
   <v type="logical" >  F  F  F </v>
   <v type="logical" >  F  F  F </v>
   <v type="logical" >  F  F  F </v>
   <v type="logical" >  F  F  F </v>
   <v type="logical" >  F  F  F </v>
   <v type="logical" >  F  F  F </v>
   <v type="logical" >  F  F  F </v>
   <v type="logical" >  F  F  F </v>
   <v type="logical" >  F  F  F </v>
   <v type="logical" >  F  F  F </v>
   <v type="logical" >  F  F  F </v>
   <v type="logical" >  F  F  F </v>
   <v type="logical" >  F  F  F </v>
   <v type="logical" >  F  F  F </v>
   <v type="logical" >  F  F  F </v>
   <v type="logical" >  F  F  F </v>
   <v type="logical" >  F  F  F </v>
   <v type="logical" >  F  F  F </v>
   <v type="logical" >  F  F  F </v>
   <v type="logical" >  F  F  F </v>
   <v type="logical" >  F  F  F </v>
   <v type="logical" >  F  F  F </v>
   <v type="logical" >  F  F  F </v>
   <v type="logical" >  F  F  F </v>
   <v type="logical" >  F  F  F </v>
   <v type="logical" >  F  F  F </v>
   <v type="logical" >  F  F  F </v>
   <v type="logical" >  F  F  F </v>
   <v type="logical" >  F  F  F </v>
   <v type="logical" >  F  F  F </v>
   <v type="logical" >  F  F  F </v>
   <v type="logical" >  F  F  F </v>
   <v type="logical" >  F  F  F </v>
   <v type="logical" >  F  F  F </v>
   <v type="logical" >  F  F  F </v>
   <v type="logical" >  F  F  F </v>
   <v type="logical" >  F  F  F </v>
   <v type="logical" >  F  F  F </v>
   <v type="logical" >  F  F  F </v>
   <v type="logical" >  F  F  F </v>
   <v type="logical" >  F  F  F </v>
   <v type="logical" >  F  F  F </v>
   <v type="logical" >  F  F  F </v>
   <v type="logical" >  F  F  F </v>
   <v type="logical" >  F  F  F </v>
   <v type="logical" >  F  F  F </v>
   <v type="logical" >  F  F  F </v>
   <v type="logical" >  F  F  F </v>
   <v type="logical" >  F  F  F </v>
   <v type="logical" >  F  F  F </v>
   <v type="logical" >  F  F  F </v>
   <v type="logical" >  F  F  F </v>
   <v type="logical" >  F  F  F </v>
   <v type="logical" >  F  F  F </v>
   <v type="logical" >  F  F  F </v>
   <v type="logical" >  F  F  F </v>
  </varray>
  <nose>
   <v>      -3.00000000       0.00000000       0.00010000       0.00010000 </v>
  </nose>
 </structure>
 <calculation>
  <scstep>
   <time name="dav">  367.27  367.38</time>
   <time name="total">  381.72  381.84</time>
   <energy>
    <i name="alphaZ">     75.25431677 </i>
    <i name="ewald"> 138620.98313850 </i>
    <i name="hartreedc">-181981.75552109 </i>
    <i name="XCdc">  -1703.13127711 </i>
    <i name="pawpsdc">  44873.02882129 </i>
    <i name="pawaedc"> -41398.84523641 </i>
    <i name="eentropy">      0.00797944 </i>
    <i name="bandstr">    817.60339485 </i>
    <i name="atom">  45086.50549395 </i>
    <i name="e_fr_energy">   4389.65111021 </i>
    <i name="e_wo_entrp">   4389.64313077 </i>
    <i name="e_0_energy">   4389.64911535 </i>
   </energy>
  </scstep>
  <scstep>
   <time name="dav">  583.95  583.97</time>
   <time name="total">  583.95  583.97</time>
   <energy>
    <i name="e_fr_energy">   2029.30737482 </i>
    <i name="e_wo_entrp">   2029.35865221 </i>
    <i name="e_0_energy">   2029.32019417 </i>
   </energy>
  </scstep>
  <scstep>
   <time name="dav">  496.87  496.87</time>
   <time name="total">  496.87  496.87</time>
   <energy>
    <i name="e_fr_energy">    241.08356123 </i>
    <i name="e_wo_entrp">    241.08962884 </i>
    <i name="e_0_energy">    241.08507813 </i>
   </energy>
  </scstep>
  <scstep>
   <time name="dav">  431.77  431.77</time>
   <time name="total">  431.77  431.77</time>
   <energy>
    <i name="e_fr_energy">   -135.53722262 </i>
    <i name="e_wo_entrp">   -135.60108177 </i>
    <i name="e_0_energy">   -135.55318741 </i>
   </energy>
  </scstep>
  <scstep>
   <time name="dav">  518.92  518.91</time>
   <time name="total">  544.89  544.88</time>
   <energy>
    <i name="e_fr_energy">   -180.33786789 </i>
    <i name="e_wo_entrp">   -180.83741216 </i>
    <i name="e_0_energy">   -180.46275396 </i>
   </energy>
  </scstep>
  <scstep>
   <time name="diag">   70.66   70.66</time>
   <time name="diis">  205.65  205.66</time>
   <time name="orth">   13.68   13.68</time>
   <time name="total">  329.40  329.40</time>
   <energy>
    <i name="e_fr_energy">   -182.03386073 </i>
    <i name="e_wo_entrp">   -181.75502536 </i>
    <i name="e_0_energy">   -181.96415188 </i>
   </energy>
  </scstep>
  <scstep>
   <time name="diag">   70.40   70.40</time>
   <time name="diis">  245.72  245.72</time>
   <time name="orth">   13.74   13.74</time>
   <time name="total">  369.44  369.44</time>
   <energy>
    <i name="e_fr_energy">   -182.86652916 </i>
    <i name="e_wo_entrp">   -182.95096054 </i>
    <i name="e_0_energy">   -182.88763701 </i>
   </energy>
  </scstep>
  <scstep>
   <time name="diag">   70.77   70.77</time>
   <time name="diis">  224.87  224.87</time>
   <time name="orth">   13.57   13.57</time>
   <time name="total">  348.82  348.82</time>
   <energy>
    <i name="e_fr_energy">   -184.70965835 </i>
    <i name="e_wo_entrp">   -184.57880362 </i>
    <i name="e_0_energy">   -184.67694466 </i>
   </energy>
  </scstep>
  <scstep>
   <time name="diag">   70.38   70.38</time>
   <time name="diis">  209.81  209.81</time>
   <time name="orth">   13.65   13.65</time>
   <time name="total">  333.44  333.44</time>
   <energy>
    <i name="e_fr_energy">   -183.05464174 </i>
    <i name="e_wo_entrp">   -183.00661053 </i>
    <i name="e_0_energy">   -183.04263394 </i>
   </energy>
  </scstep>
  <scstep>
   <time name="diag">   70.92   70.92</time>
   <time name="diis">  211.05  211.05</time>
   <time name="orth">   13.54   13.53</time>
   <time name="total">  335.19  335.19</time>
   <energy>
    <i name="e_fr_energy">   -181.46066738 </i>
    <i name="e_wo_entrp">   -181.38332155 </i>
    <i name="e_0_energy">   -181.44133092 </i>
   </energy>
  </scstep>
  <scstep>
   <time name="diag">   70.49   70.49</time>
   <time name="diis">  204.58  204.58</time>
   <time name="orth">   13.55   13.55</time>
   <time name="total">  328.32  328.32</time>
   <energy>
    <i name="e_fr_energy">   -180.26142153 </i>
    <i name="e_wo_entrp">   -180.09056275 </i>
    <i name="e_0_energy">   -180.21870684 </i>
   </energy>
  </scstep>
  <scstep>
   <time name="diag">   70.78   70.78</time>
   <time name="diis">  203.82  203.83</time>
   <time name="orth">   13.60   13.60</time>
   <time name="total">  327.94  327.94</time>
   <energy>
    <i name="e_fr_energy">   -178.03547679 </i>
    <i name="e_wo_entrp">   -177.94570484 </i>
    <i name="e_0_energy">   -178.01303380 </i>
   </energy>
  </scstep>
  <scstep>
   <time name="diag">   70.45   70.45</time>
   <time name="diis">  201.41  201.41</time>
   <time name="orth">   13.69   13.69</time>
   <time name="total">  325.44  325.44</time>
   <energy>
    <i name="e_fr_energy">   -177.15036602 </i>
    <i name="e_wo_entrp">   -177.08926968 </i>
    <i name="e_0_energy">   -177.13509194 </i>
   </energy>
  </scstep>
  <scstep>
   <time name="diag">   70.32   70.32</time>
   <time name="diis">  200.33  200.33</time>
   <time name="orth">   13.70   13.70</time>
   <time name="total">  324.23  324.23</time>
   <energy>
    <i name="e_fr_energy">   -177.00822591 </i>
    <i name="e_wo_entrp">   -176.94558910 </i>
    <i name="e_0_energy">   -176.99256671 </i>
   </energy>
  </scstep>
  <scstep>
   <time name="diag">   69.93   69.93</time>
   <time name="diis">  199.23  199.23</time>
   <time name="orth">   13.66   13.66</time>
   <time name="total">  322.77  322.77</time>
   <energy>
    <i name="e_fr_energy">   -176.80168109 </i>
    <i name="e_wo_entrp">   -176.75071574 </i>
    <i name="e_0_energy">   -176.78893976 </i>
   </energy>
  </scstep>
  <scstep>
   <time name="diag">   69.91   69.91</time>
   <time name="diis">  203.81  203.81</time>
   <time name="orth">   13.65   13.65</time>
   <time name="total">  327.43  327.42</time>
   <energy>
    <i name="e_fr_energy">   -176.42779310 </i>
    <i name="e_wo_entrp">   -176.41506080 </i>
    <i name="e_0_energy">   -176.42461002 </i>
   </energy>
  </scstep>
  <scstep>
   <time name="diag">   69.76   69.76</time>
   <time name="diis">  198.46  198.45</time>
   <time name="orth">   13.68   13.68</time>
   <time name="total">  322.13  322.13</time>
   <energy>
    <i name="e_fr_energy">   -175.88384601 </i>
    <i name="e_wo_entrp">   -175.84206953 </i>
    <i name="e_0_energy">   -175.87340189 </i>
   </energy>
  </scstep>
  <scstep>
   <time name="diag">   69.96   69.96</time>
   <time name="diis">  201.30  201.29</time>
   <time name="orth">   13.62   13.62</time>
   <time name="total">  325.05  325.05</time>
   <energy>
    <i name="e_fr_energy">   -176.02180171 </i>
    <i name="e_wo_entrp">   -176.04050573 </i>
    <i name="e_0_energy">   -176.02647772 </i>
   </energy>
  </scstep>
  <scstep>
   <time name="diag">   69.76   69.76</time>
   <time name="diis">  203.06  203.06</time>
   <time name="orth">   13.51   13.51</time>
   <time name="total">  326.69  326.68</time>
   <energy>
    <i name="e_fr_energy">   -175.88661165 </i>
    <i name="e_wo_entrp">   -175.91734882 </i>
    <i name="e_0_energy">   -175.89429594 </i>
   </energy>
  </scstep>
  <scstep>
   <time name="diag">   70.37   70.37</time>
   <time name="diis">  197.79  197.79</time>
   <time name="orth">   13.65   13.65</time>
   <time name="total">  322.30  322.30</time>
   <energy>
    <i name="e_fr_energy">   -175.67019565 </i>
    <i name="e_wo_entrp">   -175.66366796 </i>
    <i name="e_0_energy">   -175.66856373 </i>
   </energy>
  </scstep>
  <scstep>
   <time name="diag">   69.82   69.81</time>
   <time name="diis">  197.85  197.84</time>
   <time name="orth">   13.68   13.68</time>
   <time name="total">  321.80  321.80</time>
   <energy>
    <i name="e_fr_energy">   -175.55943044 </i>
    <i name="e_wo_entrp">   -175.54798653 </i>
    <i name="e_0_energy">   -175.55656946 </i>
   </energy>
  </scstep>
  <scstep>
   <time name="diag">   69.91   69.91</time>
   <time name="diis">  196.89  196.89</time>
   <time name="orth">   13.62   13.62</time>
   <time name="total">  321.01  321.00</time>
   <energy>
    <i name="e_fr_energy">   -175.44800116 </i>
    <i name="e_wo_entrp">   -175.43938902 </i>
    <i name="e_0_energy">   -175.44584812 </i>
   </energy>
  </scstep>
  <scstep>
   <time name="diag">   69.61   69.61</time>
   <time name="diis">  199.23  199.23</time>
   <time name="orth">   13.57   13.57</time>
   <time name="total">  323.17  323.17</time>
   <energy>
    <i name="e_fr_energy">   -175.49599466 </i>
    <i name="e_wo_entrp">   -175.45386563 </i>
    <i name="e_0_energy">   -175.48546240 </i>
   </energy>
  </scstep>
  <scstep>
   <time name="diag">   70.24   70.23</time>
   <time name="diis">  198.15  198.15</time>
   <time name="orth">   13.68   13.68</time>
   <time name="total">  322.90  322.90</time>
   <energy>
    <i name="e_fr_energy">   -175.35431649 </i>
    <i name="e_wo_entrp">   -175.31263049 </i>
    <i name="e_0_energy">   -175.34389499 </i>
   </energy>
  </scstep>
  <scstep>
   <time name="diag">   69.94   69.94</time>
   <time name="diis">  196.97  196.97</time>
   <time name="orth">   13.63   13.63</time>
   <time name="total">  321.50  321.49</time>
   <energy>
    <i name="e_fr_energy">   -175.25547304 </i>
    <i name="e_wo_entrp">   -175.21379519 </i>
    <i name="e_0_energy">   -175.24505358 </i>
   </energy>
  </scstep>
  <scstep>
   <time name="diag">   69.95   69.95</time>
   <time name="diis">  197.61  197.61</time>
   <time name="orth">   13.67   13.67</time>
   <time name="total">  322.26  322.26</time>
   <energy>
    <i name="e_fr_energy">   -175.20970006 </i>
    <i name="e_wo_entrp">   -175.17855768 </i>
    <i name="e_0_energy">   -175.20191446 </i>
   </energy>
  </scstep>
  <scstep>
   <time name="diag">   69.76   69.76</time>
   <time name="diis">  196.67  196.66</time>
   <time name="orth">   13.81   13.81</time>
   <time name="total">  321.35  321.34</time>
   <energy>
    <i name="e_fr_energy">   -175.18067867 </i>
    <i name="e_wo_entrp">   -175.14615169 </i>
    <i name="e_0_energy">   -175.17204692 </i>
   </energy>
  </scstep>
  <scstep>
   <time name="diag">   70.02   70.02</time>
   <time name="diis">  197.12  197.12</time>
   <time name="orth">   13.80   13.80</time>
   <time name="total">  322.12  322.11</time>
   <energy>
    <i name="e_fr_energy">   -175.16395722 </i>
    <i name="e_wo_entrp">   -175.12430603 </i>
    <i name="e_0_energy">   -175.15404442 </i>
   </energy>
  </scstep>
  <scstep>
   <time name="diag">   70.09   70.09</time>
   <time name="diis">  196.54  196.54</time>
   <time name="orth">   13.82   13.82</time>
   <time name="total">  321.93  321.92</time>
   <energy>
    <i name="e_fr_energy">   -175.15467911 </i>
    <i name="e_wo_entrp">   -175.10150849 </i>
    <i name="e_0_energy">   -175.14138646 </i>
   </energy>
  </scstep>
  <scstep>
   <time name="diag">   70.39   70.39</time>
   <time name="diis">  197.64  197.64</time>
   <time name="orth">   13.64   13.64</time>
   <time name="total">  322.99  322.99</time>
   <energy>
    <i name="e_fr_energy">   -175.14494204 </i>
    <i name="e_wo_entrp">   -175.09148680 </i>
    <i name="e_0_energy">   -175.13157823 </i>
   </energy>
  </scstep>
  <scstep>
   <time name="diag">   70.13   70.13</time>
   <time name="diis">  197.21  197.20</time>
   <time name="orth">   13.62   13.62</time>
   <time name="total">  322.51  322.51</time>
   <energy>
    <i name="e_fr_energy">   -175.14050395 </i>
    <i name="e_wo_entrp">   -175.08762504 </i>
    <i name="e_0_energy">   -175.12728422 </i>
   </energy>
  </scstep>
  <scstep>
   <time name="diag">   70.17   70.17</time>
   <time name="diis">  200.14  200.14</time>
   <time name="orth">   13.47   13.47</time>
   <time name="total">  325.50  325.50</time>
   <energy>
    <i name="e_fr_energy">   -175.13702391 </i>
    <i name="e_wo_entrp">   -175.09011410 </i>
    <i name="e_0_energy">   -175.12529646 </i>
   </energy>
  </scstep>
  <scstep>
   <time name="diag">   69.73   69.73</time>
   <time name="diis">  196.01  196.01</time>
   <time name="orth">   13.45   13.45</time>
   <time name="total">  321.22  321.22</time>
   <energy>
    <i name="e_fr_energy">   -175.13265161 </i>
    <i name="e_wo_entrp">   -175.08460584 </i>
    <i name="e_0_energy">   -175.12064017 </i>
   </energy>
  </scstep>
  <scstep>
   <time name="diag">   69.91   69.91</time>
   <time name="diis">  197.37  197.37</time>
   <time name="orth">   13.42   13.42</time>
   <time name="total">  323.28  323.28</time>
   <energy>
    <i name="e_fr_energy">   -175.13230336 </i>
    <i name="e_wo_entrp">   -175.08231647 </i>
    <i name="e_0_energy">   -175.11980664 </i>
   </energy>
  </scstep>
  <scstep>
   <time name="diag">   69.69   69.69</time>
   <time name="diis">  196.48  196.48</time>
   <time name="orth">   13.42   13.42</time>
   <time name="total">  322.42  322.41</time>
   <energy>
    <i name="e_fr_energy">   -175.13289898 </i>
    <i name="e_wo_entrp">   -175.08099318 </i>
    <i name="e_0_energy">   -175.11992253 </i>
   </energy>
  </scstep>
  <scstep>
   <time name="diag">   69.89   69.89</time>
   <time name="diis">  196.68  196.68</time>
   <time name="orth">   13.36   13.36</time>
   <time name="total">  322.81  322.81</time>
   <energy>
    <i name="e_fr_energy">   -175.13153525 </i>
    <i name="e_wo_entrp">   -175.07928699 </i>
    <i name="e_0_energy">   -175.11847319 </i>
   </energy>
  </scstep>
  <scstep>
   <time name="diag">   69.48   69.48</time>
   <time name="diis">  195.65  195.65</time>
   <time name="orth">   13.36   13.36</time>
   <time name="total">  321.51  321.51</time>
   <energy>
    <i name="e_fr_energy">   -175.13291137 </i>
    <i name="e_wo_entrp">   -175.08311289 </i>
    <i name="e_0_energy">   -175.12046175 </i>
   </energy>
  </scstep>
  <scstep>
   <time name="diag">   69.97   69.97</time>
   <time name="diis">  195.68  195.68</time>
   <time name="orth">   13.39   13.39</time>
   <time name="total">  322.37  322.37</time>
   <energy>
    <i name="e_fr_energy">   -175.13553922 </i>
    <i name="e_wo_entrp">   -175.08535619 </i>
    <i name="e_0_energy">   -175.12299346 </i>
   </energy>
  </scstep>
  <scstep>
   <time name="diag">   69.68   69.68</time>
   <time name="diis">  191.69  191.69</time>
   <time name="orth">   13.66   13.66</time>
   <time name="total">  317.88  317.88</time>
   <energy>
    <i name="e_fr_energy">   -175.13803525 </i>
    <i name="e_wo_entrp">   -175.08818625 </i>
    <i name="e_0_energy">   -175.12557300 </i>
   </energy>
  </scstep>
  <scstep>
   <time name="diag">   70.87   70.87</time>
   <time name="diis">  183.87  183.87</time>
   <time name="orth">   13.76   13.76</time>
   <time name="total">  311.32  311.32</time>
   <energy>
    <i name="e_fr_energy">   -175.14119865 </i>
    <i name="e_wo_entrp">   -175.08982738 </i>
    <i name="e_0_energy">   -175.12835584 </i>
   </energy>
  </scstep>
  <scstep>
   <time name="diag">   70.83   70.83</time>
   <time name="diis">  160.66  160.66</time>
   <time name="orth">   13.63   13.62</time>
   <time name="total">  288.98  288.98</time>
   <energy>
    <i name="e_fr_energy">   -175.14344289 </i>
    <i name="e_wo_entrp">   -175.09325840 </i>
    <i name="e_0_energy">   -175.13089677 </i>
   </energy>
  </scstep>
  <scstep>
   <time name="diag">   71.57   71.57</time>
   <time name="diis">  139.01  139.01</time>
   <time name="orth">   13.63   13.63</time>
   <time name="total">  268.36  268.36</time>
   <energy>
    <i name="e_fr_energy">   -175.14586313 </i>
    <i name="e_wo_entrp">   -175.09601460 </i>
    <i name="e_0_energy">   -175.13340100 </i>
   </energy>
  </scstep>
  <scstep>
   <time name="diag">   71.55   71.55</time>
   <time name="diis">  138.40  138.40</time>
   <time name="orth">   13.67   13.67</time>
   <time name="total">  268.12  268.12</time>
   <energy>
    <i name="e_fr_energy">   -175.14828604 </i>
    <i name="e_wo_entrp">   -175.09882713 </i>
    <i name="e_0_energy">   -175.13592131 </i>
   </energy>
  </scstep>
  <scstep>
   <time name="diag">   71.11   71.11</time>
   <time name="diis">  125.47  125.47</time>
   <time name="orth">   13.76   13.76</time>
   <time name="total">  254.97  254.97</time>
   <energy>
    <i name="e_fr_energy">   -175.14991028 </i>
    <i name="e_wo_entrp">   -175.10018269 </i>
    <i name="e_0_energy">   -175.13747838 </i>
   </energy>
  </scstep>
  <scstep>
   <time name="diag">   70.56   70.56</time>
   <time name="diis">  133.31  133.30</time>
   <time name="orth">   13.74   13.74</time>
   <time name="total">  263.02  263.02</time>
   <energy>
    <i name="e_fr_energy">   -175.15234193 </i>
    <i name="e_wo_entrp">   -175.10303619 </i>
    <i name="e_0_energy">   -175.14001549 </i>
   </energy>
  </scstep>
  <scstep>
   <time name="diag">   71.52   71.52</time>
   <time name="diis">  122.86  122.86</time>
   <time name="orth">   13.76   13.76</time>
   <time name="total">  253.55  253.56</time>
   <energy>
    <i name="e_fr_energy">   -175.15339091 </i>
    <i name="e_wo_entrp">   -175.10429299 </i>
    <i name="e_0_energy">   -175.14111643 </i>
   </energy>
  </scstep>
  <scstep>
   <time name="diag">   70.93   70.93</time>
   <time name="diis">  117.88  117.88</time>
   <time name="orth">   13.71   13.71</time>
   <time name="total">  247.77  247.77</time>
   <energy>
    <i name="e_fr_energy">   -175.15455075 </i>
    <i name="e_wo_entrp">   -175.10491977 </i>
    <i name="e_0_energy">   -175.14214301 </i>
   </energy>
  </scstep>
  <scstep>
   <time name="diag">   71.29   71.29</time>
   <time name="diis">  119.18  119.19</time>
   <time name="orth">   13.63   13.63</time>
   <time name="total">  249.68  249.69</time>
   <energy>
    <i name="e_fr_energy">   -175.15523397 </i>
    <i name="e_wo_entrp">   -175.10577022 </i>
    <i name="e_0_energy">   -175.14286803 </i>
   </energy>
  </scstep>
  <scstep>
   <time name="diag">   71.06   71.06</time>
   <time name="diis">  116.98  116.99</time>
   <time name="orth">   13.70   13.70</time>
   <time name="total">  247.44  247.44</time>
   <energy>
    <i name="e_fr_energy">   -175.15598464 </i>
    <i name="e_wo_entrp">   -175.10682355 </i>
    <i name="e_0_energy">   -175.14369437 </i>
   </energy>
  </scstep>
  <scstep>
   <time name="diag">   70.91   70.91</time>
   <time name="diis">  117.40  117.41</time>
   <time name="orth">   13.68   13.68</time>
   <time name="total">  247.42  247.43</time>
   <energy>
    <i name="e_fr_energy">   -175.15684540 </i>
    <i name="e_wo_entrp">   -175.10760402 </i>
    <i name="e_0_energy">   -175.14453505 </i>
   </energy>
  </scstep>
  <scstep>
   <time name="diag">   70.49   70.50</time>
   <time name="diis">  106.87  106.87</time>
   <time name="orth">   13.55   13.55</time>
   <time name="total">  235.67  235.68</time>
   <energy>
    <i name="e_fr_energy">   -175.15717637 </i>
    <i name="e_wo_entrp">   -175.10758986 </i>
    <i name="e_0_energy">   -175.14477975 </i>
   </energy>
  </scstep>
  <scstep>
   <time name="diag">   70.71   70.72</time>
   <time name="diis">  116.37  116.38</time>
   <time name="orth">   13.72   13.72</time>
   <time name="total">  245.81  245.82</time>
   <energy>
    <i name="e_fr_energy">   -175.15804982 </i>
    <i name="e_wo_entrp">   -175.10847930 </i>
    <i name="e_0_energy">   -175.14565719 </i>
   </energy>
  </scstep>
  <scstep>
   <time name="diag">   70.78   70.78</time>
   <time name="diis">   91.87   91.87</time>
   <time name="orth">   13.67   13.67</time>
   <time name="total">  220.92  220.93</time>
   <energy>
    <i name="e_fr_energy">   -175.15834227 </i>
    <i name="e_wo_entrp">   -175.10893448 </i>
    <i name="e_0_energy">   -175.14599032 </i>
   </energy>
  </scstep>
  <scstep>
   <time name="diag">   70.40   70.40</time>
   <time name="diis">   90.42   90.42</time>
   <time name="orth">   13.51   13.51</time>
   <time name="total">  219.24  219.24</time>
   <energy>
    <i name="e_fr_energy">   -175.15875131 </i>
    <i name="e_wo_entrp">   -175.10940938 </i>
    <i name="e_0_energy">   -175.14641583 </i>
   </energy>
  </scstep>
  <scstep>
   <time name="diag">   70.15   70.15</time>
   <time name="diis">   94.27   94.27</time>
   <time name="orth">   13.60   13.60</time>
   <time name="total">  222.40  222.40</time>
   <energy>
    <i name="e_fr_energy">   -175.15908906 </i>
    <i name="e_wo_entrp">   -175.10967828 </i>
    <i name="e_0_energy">   -175.14673636 </i>
   </energy>
  </scstep>
  <scstep>
   <time name="diag">   69.73   69.72</time>
   <time name="diis">   93.01   93.01</time>
   <time name="orth">   13.61   13.61</time>
   <time name="total">  220.17  220.17</time>
   <energy>
    <i name="e_fr_energy">   -175.15935450 </i>
    <i name="e_wo_entrp">   -175.11003106 </i>
    <i name="e_0_energy">   -175.14702364 </i>
   </energy>
  </scstep>
  <scstep>
   <time name="diag">   69.45   69.45</time>
   <time name="diis">   92.46   92.47</time>
   <time name="orth">   13.21   13.21</time>
   <time name="total">  217.82  217.83</time>
   <energy>
    <i name="e_fr_energy">   -175.15965867 </i>
    <i name="e_wo_entrp">   -175.11024471 </i>
    <i name="e_0_energy">   -175.14730518 </i>
   </energy>
  </scstep>
  <scstep>
   <time name="diag">   65.84   65.84</time>
   <time name="diis">   73.60   73.60</time>
   <time name="orth">   12.89   12.89</time>
   <time name="total">  166.38  166.39</time>
   <energy>
    <i name="alphaZ">     75.25431677 </i>
    <i name="ewald"> 138620.98313850 </i>
    <i name="hartreedc">-182981.69535321 </i>
    <i name="XCdc">  -1692.38459538 </i>
    <i name="pawpsdc">  46188.31010139 </i>
    <i name="pawaedc"> -42659.20640417 </i>
    <i name="eentropy">     -0.04937878 </i>
    <i name="bandstr">  -2812.87705194 </i>
    <i name="atom">  45086.50549395 </i>
    <i name="e_fr_energy">   -175.15973286 </i>
    <i name="e_wo_entrp">   -175.11035408 </i>
    <i name="e_0_energy">   -175.14738817 </i>
   </energy>
  </scstep>
  <structure>
   <crystal>
    <varray name="basis" >
     <v>      30.00000000       0.00000000       0.00000000 </v>
     <v>       0.00000000      30.00000000       0.00000000 </v>
     <v>       0.00000000       0.00000000      30.00000000 </v>
    </varray>
    <i name="volume">  27000.00000000 </i>
    <varray name="rec_basis" >
     <v>       0.03333333       0.00000000       0.00000000 </v>
     <v>       0.00000000       0.03333333       0.00000000 </v>
     <v>       0.00000000       0.00000000       0.03333333 </v>
    </varray>
   </crystal>
   <varray name="positions" >
    <v>       0.44576020       0.32826710       0.41691983 </v>
    <v>       0.67173288       0.55423978       0.41691983 </v>
    <v>       0.55423980       0.32826710       0.41691983 </v>
    <v>       0.32826712       0.55423978       0.41691983 </v>
    <v>       0.50000000       0.38250690       0.34021317 </v>
    <v>       0.50000000       0.38250690       0.65978680 </v>
    <v>       0.50000000       0.27609440       0.50000000 </v>
    <v>       0.27609443       0.49999998       0.50000000 </v>
    <v>       0.72390557       0.49999998       0.50000000 </v>
    <v>       0.50000000       0.72390555       0.50000000 </v>
    <v>       0.61195280       0.38804720       0.34167483 </v>
    <v>       0.61195280       0.38804720       0.65832513 </v>
    <v>       0.38804722       0.61195278       0.34167483 </v>
    <v>       0.38804722       0.61195278       0.65832513 </v>
    <v>       0.38804720       0.38804720       0.34167483 </v>
    <v>       0.38804720       0.38804720       0.65832513 </v>
    <v>       0.61195278       0.61195278       0.34167483 </v>
    <v>       0.61195278       0.61195278       0.65832513 </v>
    <v>       0.44576020       0.32826710       0.58308023 </v>
    <v>       0.67173288       0.55423978       0.58308023 </v>
    <v>       0.55791699       0.44208301       0.41809300 </v>
    <v>       0.32826705       0.44576024       0.41691983 </v>
    <v>       0.55423973       0.67173293       0.41691983 </v>
    <v>       0.55423980       0.32826710       0.58308023 </v>
    <v>       0.32826712       0.55423978       0.58308023 </v>
    <v>       0.67173295       0.44576024       0.41691983 </v>
    <v>       0.44576027       0.67173293       0.41691983 </v>
    <v>       0.44208301       0.44208301       0.41809300 </v>
    <v>       0.50000000       0.38416601       0.50000000 </v>
    <v>       0.61749315       0.50000005       0.34021317 </v>
    <v>       0.61749315       0.50000005       0.65978680 </v>
    <v>       0.38250685       0.50000005       0.34021317 </v>
    <v>       0.38250685       0.50000005       0.65978680 </v>
    <v>       0.38317830       0.38317830       0.50000000 </v>
    <v>       0.61682172       0.61682172       0.50000000 </v>
    <v>       0.61682170       0.38317830       0.50000000 </v>
    <v>       0.38317828       0.61682172       0.50000000 </v>
    <v>       0.50000000       0.50000000       0.33478917 </v>
    <v>       0.50000000       0.50000000       0.66521087 </v>
    <v>       0.32826705       0.44576024       0.58308023 </v>
    <v>       0.55423973       0.67173293       0.58308023 </v>
    <v>       0.55791699       0.44208301       0.58190703 </v>
    <v>       0.44208298       0.55791702       0.41809300 </v>
    <v>       0.44208301       0.44208301       0.58190703 </v>
    <v>       0.67173295       0.44576024       0.58308023 </v>
    <v>       0.44576027       0.67173293       0.58308023 </v>
    <v>       0.55791702       0.55791702       0.41809300 </v>
    <v>       0.38416599       0.50000002       0.50000000 </v>
    <v>       0.61583401       0.50000002       0.50000000 </v>
    <v>       0.50000000       0.61749319       0.34021317 </v>
    <v>       0.50000000       0.61749319       0.65978680 </v>
    <v>       0.50000000       0.50000000       0.50000000 </v>
    <v>       0.44208298       0.55791702       0.58190703 </v>
    <v>       0.55791702       0.55791702       0.58190703 </v>
    <v>       0.50000000       0.61583404       0.50000000 </v>
    <v>       0.48850633       0.49445453       0.27158193 </v>
    <v>       0.48661730       0.49354310       0.23404047 </v>
   </varray>
  </structure>
  <varray name="forces" >
   <v>       0.70136299       1.10008333       0.29608614 </v>
   <v>      -1.10441373      -0.70090741       0.28913004 </v>
   <v>      -0.70328288       1.10359684       0.29032665 </v>
   <v>       1.10168219      -0.70319379       0.29278106 </v>
   <v>       0.00603873       0.38711128       1.33519957 </v>
   <v>      -0.00093358       0.40405093      -1.28052088 </v>
   <v>      -0.00179062       1.50731601      -0.01184097 </v>
   <v>       1.50634740      -0.00076049      -0.01310019 </v>
   <v>      -1.50919629      -0.00068631      -0.00817591 </v>
   <v>      -0.00167516      -1.50815664      -0.00946545 </v>
   <v>      -0.74237203       0.74383377       1.07420502 </v>
   <v>      -0.75356367       0.75172660      -1.07421344 </v>
   <v>       0.74046186      -0.73861295       1.07478194 </v>
   <v>       0.75193015      -0.75381693      -1.07409431 </v>
   <v>       0.73635053       0.73559589       1.07545410 </v>
   <v>       0.75269930       0.75346819      -1.07356107 </v>
   <v>      -0.74559869      -0.74581173       1.07326130 </v>
   <v>      -0.75280579      -0.75205107      -1.07450373 </v>
   <v>       0.69847915       1.10963226      -0.28680159 </v>
   <v>      -1.10871105      -0.69774702      -0.28853373 </v>
   <v>       0.12166625      -0.10394958      -0.14079539 </v>
   <v>       1.09937385       0.70223176       0.29564216 </v>
   <v>      -0.70220066      -1.10446715       0.28868283 </v>
   <v>      -0.69712660       1.11027175      -0.28692796 </v>
   <v>       1.11061517      -0.69744307      -0.28616008 </v>
   <v>      -1.10334347       0.70002950       0.29138765 </v>
   <v>       0.70018409      -1.10174199       0.29380313 </v>
   <v>      -0.14019735      -0.14520227      -0.11625376 </v>
   <v>      -0.00007027      -0.21175408       0.00122811 </v>
   <v>      -0.38527536       0.00240642       1.33488823 </v>
   <v>      -0.40166552      -0.00035405      -1.28099284 </v>
   <v>       0.39343438       0.00271661       1.33114126 </v>
   <v>       0.40453595      -0.00029079      -1.28045266 </v>
   <v>       0.82262009       0.82192284       0.00942350 </v>
   <v>      -0.81340137      -0.81412904       0.02443945 </v>
   <v>      -0.81524706       0.81754621       0.02023963 </v>
   <v>       0.82031093      -0.81809209       0.01486287 </v>
   <v>      -0.22488346      -0.10913496      -0.29012433 </v>
   <v>      -0.00408769      -0.00187617      -1.18667222 </v>
   <v>       1.11019445       0.69828430      -0.28624160 </v>
   <v>      -0.69734477      -1.10926757      -0.28810706 </v>
   <v>       0.11391858      -0.11358697       0.15144407 </v>
   <v>      -0.12315951       0.13898697      -0.12594863 </v>
   <v>      -0.11344837      -0.11365909       0.15245499 </v>
   <v>      -1.10819472       0.69829242      -0.28815708 </v>
   <v>       0.69837353      -1.10846658      -0.28752263 </v>
   <v>       0.09315872       0.08632109      -0.16164512 </v>
   <v>      -0.21217581      -0.00001465       0.00153335 </v>
   <v>       0.21019287       0.00015588       0.00018135 </v>
   <v>       0.00552593      -0.38451394       1.33604086 </v>
   <v>      -0.00097468      -0.40249589      -1.28072053 </v>
   <v>       0.00063456       0.00035983      -0.01457681 </v>
   <v>      -0.11344121       0.11409848       0.15215036 </v>
   <v>       0.11391166       0.11401849       0.15087271 </v>
   <v>       0.00014532       0.21093676       0.00064142 </v>
   <v>       0.58303659       0.28459999       5.31864190 </v>
   <v>      -0.31660386      -0.15741012      -4.17481567 </v>
  </varray>
  <varray name="stress" >
   <v>      -6.71547753      -0.00333397      -0.01500831 </v>
   <v>      -0.00333400      -6.71088501      -0.00755737 </v>
   <v>      -0.01500827      -0.00755735      -6.60043933 </v>
  </varray>
  <energy>
   <i name="e_fr_energy">   -175.15973286 </i>
   <i name="e_wo_entrp">   -175.14738817 </i>
   <i name="e_0_energy">     -0.04937878 </i>
  </energy>
  <time name="totalsc">18521.6118521.77</time>
  <eigenvalues>
   <array>
    <dimension dim="1">band</dimension>
    <dimension dim="2">kpoint</dimension>
    <dimension dim="3">spin</dimension>
    <field>eigene</field>
    <field>occ</field>
    <set>
     <set comment="spin 1">
      <set comment="kpoint 1">
       <r>  -28.5975    1.0000 </r>
       <r>  -13.4167    1.0000 </r>
       <r>  -11.0371    1.0000 </r>
       <r>  -11.0133    1.0000 </r>
       <r>  -10.7004    1.0000 </r>
       <r>   -6.6482    1.0000 </r>
       <r>   -6.1783    1.0000 </r>
       <r>   -6.1727    1.0000 </r>
       <r>   -6.1421    1.0000 </r>
       <r>   -6.0849    1.0000 </r>
       <r>   -6.0812    1.0000 </r>
       <r>   -5.8071    1.0000 </r>
       <r>   -5.8020    1.0000 </r>
       <r>   -5.7963    1.0000 </r>
       <r>   -5.7435    1.0000 </r>
       <r>   -5.6914    1.0000 </r>
       <r>   -5.6800    1.0000 </r>
       <r>   -5.6792    1.0000 </r>
       <r>   -5.6786    1.0000 </r>
       <r>   -5.6431    1.0000 </r>
       <r>   -5.6315    1.0000 </r>
       <r>   -5.6209    1.0000 </r>
       <r>   -5.6141    1.0000 </r>
       <r>   -5.5937    1.0000 </r>
       <r>   -5.5889    1.0000 </r>
       <r>   -5.5883    1.0000 </r>
       <r>   -5.5854    1.0000 </r>
       <r>   -5.5377    1.0000 </r>
       <r>   -5.5301    1.0000 </r>
       <r>   -5.5268    1.0000 </r>
       <r>   -5.5236    1.0000 </r>
       <r>   -5.5129    1.0000 </r>
       <r>   -5.5120    1.0000 </r>
       <r>   -5.5114    1.0000 </r>
       <r>   -5.5075    1.0000 </r>
       <r>   -5.5056    1.0000 </r>
       <r>   -5.4979    1.0000 </r>
       <r>   -5.4954    1.0000 </r>
       <r>   -5.4716    1.0000 </r>
       <r>   -5.4696    1.0000 </r>
       <r>   -5.4676    1.0000 </r>
       <r>   -5.4662    1.0000 </r>
       <r>   -5.4639    1.0000 </r>
       <r>   -5.4612    1.0000 </r>
       <r>   -5.4609    1.0000 </r>
       <r>   -5.4608    1.0000 </r>
       <r>   -5.4504    1.0000 </r>
       <r>   -5.4477    1.0000 </r>
       <r>   -5.4225    1.0000 </r>
       <r>   -5.4223    1.0000 </r>
       <r>   -5.4205    1.0000 </r>
       <r>   -5.4069    1.0000 </r>
       <r>   -5.4025    1.0000 </r>
       <r>   -5.4023    1.0000 </r>
       <r>   -5.3884    1.0000 </r>
       <r>   -5.3826    1.0000 </r>
       <r>   -5.3807    1.0000 </r>
       <r>   -5.3578    1.0000 </r>
       <r>   -5.3370    1.0000 </r>
       <r>   -5.3133    1.0000 </r>
       <r>   -5.3104    1.0000 </r>
       <r>   -5.3096    1.0000 </r>
       <r>   -5.3092    1.0000 </r>
       <r>   -5.3077    1.0000 </r>
       <r>   -5.3061    1.0000 </r>
       <r>   -5.2977    1.0000 </r>
       <r>   -5.2930    1.0000 </r>
       <r>   -5.2823    1.0000 </r>
       <r>   -5.2772    1.0000 </r>
       <r>   -5.2705    1.0000 </r>
       <r>   -5.2368    1.0000 </r>
       <r>   -5.1819    1.0000 </r>
       <r>   -5.1800    1.0000 </r>
       <r>   -5.1744    1.0000 </r>
       <r>   -5.1736    1.0000 </r>
       <r>   -5.1720    1.0000 </r>
       <r>   -5.1705    1.0000 </r>
       <r>   -5.1695    1.0000 </r>
       <r>   -5.1680    1.0000 </r>
       <r>   -5.1427    1.0000 </r>
       <r>   -5.1413    1.0000 </r>
       <r>   -5.1403    1.0000 </r>
       <r>   -5.1274    1.0000 </r>
       <r>   -5.1165    1.0000 </r>
       <r>   -5.1156    1.0000 </r>
       <r>   -5.1135    1.0000 </r>
       <r>   -5.1113    1.0000 </r>
       <r>   -5.0933    1.0000 </r>
       <r>   -5.0915    1.0000 </r>
       <r>   -5.0906    1.0000 </r>
       <r>   -5.0682    1.0000 </r>
       <r>   -5.0516    1.0000 </r>
       <r>   -5.0500    1.0000 </r>
       <r>   -5.0457    1.0000 </r>
       <r>   -5.0455    1.0000 </r>
       <r>   -5.0407    1.0000 </r>
       <r>   -5.0406    1.0000 </r>
       <r>   -5.0201    1.0000 </r>
       <r>   -5.0187    1.0000 </r>
       <r>   -5.0122    1.0000 </r>
       <r>   -5.0077    1.0000 </r>
       <r>   -5.0050    1.0000 </r>
       <r>   -5.0009    1.0000 </r>
       <r>   -4.9996    1.0000 </r>
       <r>   -4.9973    1.0000 </r>
       <r>   -4.9972    1.0000 </r>
       <r>   -4.9919    1.0000 </r>
       <r>   -4.9828    1.0000 </r>
       <r>   -4.9762    1.0000 </r>
       <r>   -4.9728    1.0000 </r>
       <r>   -4.9727    1.0000 </r>
       <r>   -4.9715    1.0000 </r>
       <r>   -4.9632    1.0000 </r>
       <r>   -4.9604    1.0000 </r>
       <r>   -4.9580    1.0000 </r>
       <r>   -4.9530    1.0000 </r>
       <r>   -4.9409    1.0000 </r>
       <r>   -4.9408    1.0000 </r>
       <r>   -4.9284    1.0000 </r>
       <r>   -4.9148    1.0000 </r>
       <r>   -4.9101    1.0000 </r>
       <r>   -4.9099    1.0000 </r>
       <r>   -4.9088    1.0000 </r>
       <r>   -4.9054    1.0000 </r>
       <r>   -4.8947    1.0000 </r>
       <r>   -4.8946    1.0000 </r>
       <r>   -4.8829    1.0000 </r>
       <r>   -4.8728    1.0000 </r>
       <r>   -4.8721    1.0000 </r>
       <r>   -4.8609    1.0000 </r>
       <r>   -4.8358    1.0000 </r>
       <r>   -4.8318    1.0000 </r>
       <r>   -4.8253    1.0000 </r>
       <r>   -4.8250    1.0000 </r>
       <r>   -4.8233    1.0000 </r>
       <r>   -4.8163    1.0000 </r>
       <r>   -4.8129    1.0000 </r>
       <r>   -4.7914    0.9999 </r>
       <r>   -4.7856    0.9999 </r>
       <r>   -4.7819    0.9999 </r>
       <r>   -4.7774    0.9999 </r>
       <r>   -4.7637    0.9998 </r>
       <r>   -4.7559    0.9998 </r>
       <r>   -4.7382    0.9997 </r>
       <r>   -4.7313    0.9996 </r>
       <r>   -4.7305    0.9996 </r>
       <r>   -4.7277    0.9996 </r>
       <r>   -4.7251    0.9996 </r>
       <r>   -4.7190    0.9995 </r>
       <r>   -4.7020    0.9993 </r>
       <r>   -4.6945    0.9992 </r>
       <r>   -4.6941    0.9992 </r>
       <r>   -4.6749    0.9988 </r>
       <r>   -4.6709    0.9988 </r>
       <r>   -4.6704    0.9987 </r>
       <r>   -4.6683    0.9987 </r>
       <r>   -4.6652    0.9986 </r>
       <r>   -4.6651    0.9986 </r>
       <r>   -4.6574    0.9984 </r>
       <r>   -4.6523    0.9983 </r>
       <r>   -4.6499    0.9982 </r>
       <r>   -4.6469    0.9981 </r>
       <r>   -4.6445    0.9981 </r>
       <r>   -4.6431    0.9980 </r>
       <r>   -4.6420    0.9980 </r>
       <r>   -4.6372    0.9978 </r>
       <r>   -4.6372    0.9978 </r>
       <r>   -4.6318    0.9977 </r>
       <r>   -4.6246    0.9974 </r>
       <r>   -4.6218    0.9973 </r>
       <r>   -4.6209    0.9973 </r>
       <r>   -4.6193    0.9972 </r>
       <r>   -4.6159    0.9971 </r>
       <r>   -4.5892    0.9961 </r>
       <r>   -4.5891    0.9961 </r>
       <r>   -4.5855    0.9960 </r>
       <r>   -4.5849    0.9959 </r>
       <r>   -4.5792    0.9958 </r>
       <r>   -4.5790    0.9957 </r>
       <r>   -4.5756    0.9956 </r>
       <r>   -4.5660    0.9954 </r>
       <r>   -4.5579    0.9952 </r>
       <r>   -4.5465    0.9951 </r>
       <r>   -4.5464    0.9951 </r>
       <r>   -4.5439    0.9951 </r>
       <r>   -4.5432    0.9951 </r>
       <r>   -4.5428    0.9951 </r>
       <r>   -4.5428    0.9951 </r>
       <r>   -4.5391    0.9951 </r>
       <r>   -4.5389    0.9951 </r>
       <r>   -4.5071    0.9965 </r>
       <r>   -4.5026    0.9969 </r>
       <r>   -4.5022    0.9969 </r>
       <r>   -4.4979    0.9974 </r>
       <r>   -4.4951    0.9977 </r>
       <r>   -4.4827    0.9995 </r>
       <r>   -4.4738    1.0013 </r>
       <r>   -4.4736    1.0013 </r>
       <r>   -4.4671    1.0028 </r>
       <r>   -4.4619    1.0041 </r>
       <r>   -4.4597    1.0047 </r>
       <r>   -4.4570    1.0054 </r>
       <r>   -4.4512    1.0072 </r>
       <r>   -4.4509    1.0073 </r>
       <r>   -4.4485    1.0080 </r>
       <r>   -4.4429    1.0099 </r>
       <r>   -4.4424    1.0101 </r>
       <r>   -4.4373    1.0120 </r>
       <r>   -4.4370    1.0121 </r>
       <r>   -4.4311    1.0143 </r>
       <r>   -4.4206    1.0187 </r>
       <r>   -4.4107    1.0232 </r>
       <r>   -4.4004    1.0281 </r>
       <r>   -4.4002    1.0282 </r>
       <r>   -4.3988    1.0289 </r>
       <r>   -4.3939    1.0312 </r>
       <r>   -4.3935    1.0314 </r>
       <r>   -4.3924    1.0319 </r>
       <r>   -4.3895    1.0333 </r>
       <r>   -4.3832    1.0363 </r>
       <r>   -4.3829    1.0365 </r>
       <r>   -4.3641    1.0446 </r>
       <r>   -4.3528    1.0484 </r>
       <r>   -4.3450    1.0503 </r>
       <r>   -4.3438    1.0505 </r>
       <r>   -4.3323    1.0516 </r>
       <r>   -4.3296    1.0516 </r>
       <r>   -4.3284    1.0515 </r>
       <r>   -4.3283    1.0515 </r>
       <r>   -4.3243    1.0511 </r>
       <r>   -4.3211    1.0506 </r>
       <r>   -4.3211    1.0506 </r>
       <r>   -4.3164    1.0494 </r>
       <r>   -4.3155    1.0491 </r>
       <r>   -4.3139    1.0486 </r>
       <r>   -4.3135    1.0484 </r>
       <r>   -4.3125    1.0481 </r>
       <r>   -4.3099    1.0469 </r>
       <r>   -4.3075    1.0458 </r>
       <r>   -4.3073    1.0456 </r>
       <r>   -4.2995    1.0408 </r>
       <r>   -4.2916    1.0341 </r>
       <r>   -4.2890    1.0316 </r>
       <r>   -4.2885    1.0310 </r>
       <r>   -4.2817    1.0231 </r>
       <r>   -4.2759    1.0151 </r>
       <r>   -4.2748    1.0135 </r>
       <r>   -4.2745    1.0130 </r>
       <r>   -4.2741    1.0125 </r>
       <r>   -4.2730    1.0107 </r>
       <r>   -4.2585    0.9840 </r>
       <r>   -4.2499    0.9646 </r>
       <r>   -4.2497    0.9641 </r>
       <r>   -4.2475    0.9586 </r>
       <r>   -4.2425    0.9454 </r>
       <r>   -4.2411    0.9417 </r>
       <r>   -4.2411    0.9416 </r>
       <r>   -4.2405    0.9401 </r>
       <r>   -4.2347    0.9232 </r>
       <r>   -4.2347    0.9231 </r>
       <r>   -4.2291    0.9055 </r>
       <r>   -4.2276    0.9006 </r>
       <r>   -4.2275    0.9002 </r>
       <r>   -4.2271    0.8990 </r>
       <r>   -4.2243    0.8896 </r>
       <r>   -4.2124    0.8463 </r>
       <r>   -4.2099    0.8367 </r>
       <r>   -4.2097    0.8359 </r>
       <r>   -4.2094    0.8344 </r>
       <r>   -4.2062    0.8218 </r>
       <r>   -4.2052    0.8175 </r>
       <r>   -4.1911    0.7568 </r>
       <r>   -4.1866    0.7358 </r>
       <r>   -4.1850    0.7285 </r>
       <r>   -4.1833    0.7205 </r>
       <r>   -4.1752    0.6815 </r>
       <r>   -4.1751    0.6811 </r>
       <r>   -4.1697    0.6543 </r>
       <r>   -4.1602    0.6055 </r>
       <r>   -4.1598    0.6035 </r>
       <r>   -4.1595    0.6022 </r>
       <r>   -4.1460    0.5311 </r>
       <r>   -4.1341    0.4687 </r>
       <r>   -4.1226    0.4079 </r>
       <r>   -4.1224    0.4072 </r>
       <r>   -4.1168    0.3782 </r>
       <r>   -4.1103    0.3450 </r>
       <r>   -4.1016    0.3024 </r>
       <r>   -4.0406    0.0628 </r>
       <r>   -3.9509   -0.0516 </r>
       <r>   -3.8950   -0.0354 </r>
       <r>   -3.8160   -0.0035 </r>
       <r>   -3.8120   -0.0025 </r>
       <r>   -3.8101   -0.0021 </r>
       <r>   -3.4859    0.0001 </r>
       <r>   -3.4854    0.0001 </r>
       <r>   -3.3881    0.0000 </r>
       <r>   -3.0556    0.0000 </r>
       <r>   -3.0552    0.0000 </r>
       <r>   -3.0119    0.0000 </r>
       <r>   -3.0097    0.0000 </r>
       <r>   -3.0049    0.0000 </r>
       <r>   -3.0046    0.0000 </r>
       <r>   -2.9231    0.0000 </r>
       <r>   -2.8070    0.0000 </r>
       <r>   -2.5522    0.0000 </r>
       <r>   -2.5489    0.0000 </r>
       <r>   -2.5116    0.0000 </r>
       <r>   -2.2191    0.0000 </r>
       <r>   -2.1337    0.0000 </r>
       <r>   -2.1297    0.0000 </r>
       <r>   -2.1097    0.0000 </r>
       <r>   -1.9441    0.0000 </r>
       <r>   -1.9428    0.0000 </r>
       <r>   -1.8519    0.0000 </r>
       <r>   -1.8480    0.0000 </r>
       <r>   -1.8410    0.0000 </r>
       <r>   -1.7208    0.0000 </r>
       <r>   -1.7122    0.0000 </r>
       <r>   -1.6966    0.0000 </r>
       <r>   -1.6325    0.0000 </r>
       <r>   -1.5445    0.0000 </r>
       <r>   -1.4959    0.0000 </r>
       <r>   -1.3355    0.0000 </r>
       <r>   -1.3236    0.0000 </r>
       <r>   -1.0395    0.0000 </r>
       <r>   -1.0286    0.0000 </r>
       <r>   -1.0214    0.0000 </r>
       <r>   -0.9469    0.0000 </r>
       <r>   -0.9377    0.0000 </r>
       <r>   -0.9328    0.0000 </r>
       <r>   -0.9267    0.0000 </r>
       <r>   -0.9237    0.0000 </r>
       <r>   -0.8804    0.0000 </r>
       <r>   -0.8377    0.0000 </r>
       <r>   -0.7471    0.0000 </r>
      </set>
     </set>
    </set>
   </array>
  </eigenvalues>
  <separator name="orbital magnetization" >
   <v name="MAGDIPOLOUT">      0.00000000      0.00000000      0.00000000</v>
  </separator>
  <dos>
   <i name="efermi">     -4.14006782 </i>
   <total>
    <array>
     <dimension dim="1">gridpoints</dimension>
     <dimension dim="2">spin</dimension>
     <field>energy</field>
     <field>total</field>
     <field>integrated</field>
     <set>
      <set comment="spin 1">
       <r>   -30.5975     0.0000     0.0000 </r>
       <r>   -30.4913     0.0000     0.0000 </r>
       <r>   -30.3851     0.0000     0.0000 </r>
       <r>   -30.2790     0.0000     0.0000 </r>
       <r>   -30.1728     0.0000     0.0000 </r>
       <r>   -30.0666     0.0000     0.0000 </r>
       <r>   -29.9605     0.0000     0.0000 </r>
       <r>   -29.8543     0.0000     0.0000 </r>
       <r>   -29.7481     0.0000     0.0000 </r>
       <r>   -29.6419     0.0000     0.0000 </r>
       <r>   -29.5358     0.0000     0.0000 </r>
       <r>   -29.4296     0.0000     0.0000 </r>
       <r>   -29.3234     0.0002     0.0000 </r>
       <r>   -29.2173     0.0033     0.0004 </r>
       <r>   -29.1111     0.0280     0.0033 </r>
       <r>   -29.0049     0.0613     0.0099 </r>
       <r>   -28.8988    -0.2897    -0.0209 </r>
       <r>   -28.7926    -0.7737    -0.1031 </r>
       <r>   -28.6864     2.7530     0.1892 </r>
       <r>   -28.5803     9.3395     1.1808 </r>
       <r>   -28.4741     7.6028     1.9880 </r>
       <r>   -28.3679     0.9117     2.0848 </r>
       <r>   -28.2618    -0.7822     2.0017 </r>
       <r>   -28.1556    -0.0944     1.9917 </r>
       <r>   -28.0494     0.0613     1.9982 </r>
       <r>   -27.9433     0.0156     1.9998 </r>
       <r>   -27.8371     0.0014     2.0000 </r>
       <r>   -27.7309     0.0001     2.0000 </r>
       <r>   -27.6248     0.0000     2.0000 </r>
       <r>   -27.5186     0.0000     2.0000 </r>
       <r>   -27.4124     0.0000     2.0000 </r>
       <r>   -27.3063     0.0000     2.0000 </r>
       <r>   -27.2001     0.0000     2.0000 </r>
       <r>   -27.0939     0.0000     2.0000 </r>
       <r>   -26.9878     0.0000     2.0000 </r>
       <r>   -26.8816     0.0000     2.0000 </r>
       <r>   -26.7754     0.0000     2.0000 </r>
       <r>   -26.6692     0.0000     2.0000 </r>
       <r>   -26.5631     0.0000     2.0000 </r>
       <r>   -26.4569     0.0000     2.0000 </r>
       <r>   -26.3507     0.0000     2.0000 </r>
       <r>   -26.2446     0.0000     2.0000 </r>
       <r>   -26.1384     0.0000     2.0000 </r>
       <r>   -26.0322     0.0000     2.0000 </r>
       <r>   -25.9261     0.0000     2.0000 </r>
       <r>   -25.8199     0.0000     2.0000 </r>
       <r>   -25.7137     0.0000     2.0000 </r>
       <r>   -25.6076     0.0000     2.0000 </r>
       <r>   -25.5014     0.0000     2.0000 </r>
       <r>   -25.3952     0.0000     2.0000 </r>
       <r>   -25.2891     0.0000     2.0000 </r>
       <r>   -25.1829     0.0000     2.0000 </r>
       <r>   -25.0767     0.0000     2.0000 </r>
       <r>   -24.9706     0.0000     2.0000 </r>
       <r>   -24.8644     0.0000     2.0000 </r>
       <r>   -24.7582     0.0000     2.0000 </r>
       <r>   -24.6521     0.0000     2.0000 </r>
       <r>   -24.5459     0.0000     2.0000 </r>
       <r>   -24.4397     0.0000     2.0000 </r>
       <r>   -24.3336     0.0000     2.0000 </r>
       <r>   -24.2274     0.0000     2.0000 </r>
       <r>   -24.1212     0.0000     2.0000 </r>
       <r>   -24.0151     0.0000     2.0000 </r>
       <r>   -23.9089     0.0000     2.0000 </r>
       <r>   -23.8027     0.0000     2.0000 </r>
       <r>   -23.6965     0.0000     2.0000 </r>
       <r>   -23.5904     0.0000     2.0000 </r>
       <r>   -23.4842     0.0000     2.0000 </r>
       <r>   -23.3780     0.0000     2.0000 </r>
       <r>   -23.2719     0.0000     2.0000 </r>
       <r>   -23.1657     0.0000     2.0000 </r>
       <r>   -23.0595     0.0000     2.0000 </r>
       <r>   -22.9534     0.0000     2.0000 </r>
       <r>   -22.8472     0.0000     2.0000 </r>
       <r>   -22.7410     0.0000     2.0000 </r>
       <r>   -22.6349     0.0000     2.0000 </r>
       <r>   -22.5287     0.0000     2.0000 </r>
       <r>   -22.4225     0.0000     2.0000 </r>
       <r>   -22.3164     0.0000     2.0000 </r>
       <r>   -22.2102     0.0000     2.0000 </r>
       <r>   -22.1040     0.0000     2.0000 </r>
       <r>   -21.9979     0.0000     2.0000 </r>
       <r>   -21.8917     0.0000     2.0000 </r>
       <r>   -21.7855     0.0000     2.0000 </r>
       <r>   -21.6794     0.0000     2.0000 </r>
       <r>   -21.5732     0.0000     2.0000 </r>
       <r>   -21.4670     0.0000     2.0000 </r>
       <r>   -21.3609     0.0000     2.0000 </r>
       <r>   -21.2547     0.0000     2.0000 </r>
       <r>   -21.1485     0.0000     2.0000 </r>
       <r>   -21.0424     0.0000     2.0000 </r>
       <r>   -20.9362     0.0000     2.0000 </r>
       <r>   -20.8300     0.0000     2.0000 </r>
       <r>   -20.7239     0.0000     2.0000 </r>
       <r>   -20.6177     0.0000     2.0000 </r>
       <r>   -20.5115     0.0000     2.0000 </r>
       <r>   -20.4053     0.0000     2.0000 </r>
       <r>   -20.2992     0.0000     2.0000 </r>
       <r>   -20.1930     0.0000     2.0000 </r>
       <r>   -20.0868     0.0000     2.0000 </r>
       <r>   -19.9807     0.0000     2.0000 </r>
       <r>   -19.8745     0.0000     2.0000 </r>
       <r>   -19.7683     0.0000     2.0000 </r>
       <r>   -19.6622     0.0000     2.0000 </r>
       <r>   -19.5560     0.0000     2.0000 </r>
       <r>   -19.4498     0.0000     2.0000 </r>
       <r>   -19.3437     0.0000     2.0000 </r>
       <r>   -19.2375     0.0000     2.0000 </r>
       <r>   -19.1313     0.0000     2.0000 </r>
       <r>   -19.0252     0.0000     2.0000 </r>
       <r>   -18.9190     0.0000     2.0000 </r>
       <r>   -18.8128     0.0000     2.0000 </r>
       <r>   -18.7067     0.0000     2.0000 </r>
       <r>   -18.6005     0.0000     2.0000 </r>
       <r>   -18.4943     0.0000     2.0000 </r>
       <r>   -18.3882     0.0000     2.0000 </r>
       <r>   -18.2820     0.0000     2.0000 </r>
       <r>   -18.1758     0.0000     2.0000 </r>
       <r>   -18.0697     0.0000     2.0000 </r>
       <r>   -17.9635     0.0000     2.0000 </r>
       <r>   -17.8573     0.0000     2.0000 </r>
       <r>   -17.7512     0.0000     2.0000 </r>
       <r>   -17.6450     0.0000     2.0000 </r>
       <r>   -17.5388     0.0000     2.0000 </r>
       <r>   -17.4326     0.0000     2.0000 </r>
       <r>   -17.3265     0.0000     2.0000 </r>
       <r>   -17.2203     0.0000     2.0000 </r>
       <r>   -17.1141     0.0000     2.0000 </r>
       <r>   -17.0080     0.0000     2.0000 </r>
       <r>   -16.9018     0.0000     2.0000 </r>
       <r>   -16.7956     0.0000     2.0000 </r>
       <r>   -16.6895     0.0000     2.0000 </r>
       <r>   -16.5833     0.0000     2.0000 </r>
       <r>   -16.4771     0.0000     2.0000 </r>
       <r>   -16.3710     0.0000     2.0000 </r>
       <r>   -16.2648     0.0000     2.0000 </r>
       <r>   -16.1586     0.0000     2.0000 </r>
       <r>   -16.0525     0.0000     2.0000 </r>
       <r>   -15.9463     0.0000     2.0000 </r>
       <r>   -15.8401     0.0000     2.0000 </r>
       <r>   -15.7340     0.0000     2.0000 </r>
       <r>   -15.6278     0.0000     2.0000 </r>
       <r>   -15.5216     0.0000     2.0000 </r>
       <r>   -15.4155     0.0000     2.0000 </r>
       <r>   -15.3093     0.0000     2.0000 </r>
       <r>   -15.2031     0.0000     2.0000 </r>
       <r>   -15.0970     0.0000     2.0000 </r>
       <r>   -14.9908     0.0000     2.0000 </r>
       <r>   -14.8846     0.0000     2.0000 </r>
       <r>   -14.7785     0.0000     2.0000 </r>
       <r>   -14.6723     0.0000     2.0000 </r>
       <r>   -14.5661     0.0000     2.0000 </r>
       <r>   -14.4599     0.0000     2.0000 </r>
       <r>   -14.3538     0.0000     2.0000 </r>
       <r>   -14.2476     0.0000     2.0000 </r>
       <r>   -14.1414     0.0002     2.0000 </r>
       <r>   -14.0353     0.0034     2.0004 </r>
       <r>   -13.9291     0.0286     2.0034 </r>
       <r>   -13.8229     0.0607     2.0099 </r>
       <r>   -13.7168    -0.2984     1.9782 </r>
       <r>   -13.6106    -0.7662     1.8968 </r>
       <r>   -13.5044     2.8324     2.1975 </r>
       <r>   -13.3983     9.3857     3.1940 </r>
       <r>   -13.2921     7.5239     3.9928 </r>
       <r>   -13.1859     0.8562     4.0837 </r>
       <r>   -13.0798    -0.7769     4.0012 </r>
       <r>   -12.9736    -0.0888     3.9918 </r>
       <r>   -12.8674     0.0609     3.9982 </r>
       <r>   -12.7613     0.0152     3.9999 </r>
       <r>   -12.6551     0.0013     4.0000 </r>
       <r>   -12.5489     0.0001     4.0000 </r>
       <r>   -12.4428     0.0000     4.0000 </r>
       <r>   -12.3366     0.0000     4.0000 </r>
       <r>   -12.2304     0.0000     4.0000 </r>
       <r>   -12.1243     0.0000     4.0000 </r>
       <r>   -12.0181     0.0000     4.0000 </r>
       <r>   -11.9119     0.0000     4.0000 </r>
       <r>   -11.8058     0.0001     4.0000 </r>
       <r>   -11.6996     0.0017     4.0002 </r>
       <r>   -11.5934     0.0215     4.0025 </r>
       <r>   -11.4873     0.1057     4.0137 </r>
       <r>   -11.3811    -0.0476     4.0086 </r>
       <r>   -11.2749    -1.3195     3.8685 </r>
       <r>   -11.1687     0.4267     3.9138 </r>
       <r>   -11.0626    12.5197     5.2430 </r>
       <r>   -10.9564    18.9985     7.2601 </r>
       <r>   -10.8502     8.1415     8.1244 </r>
       <r>   -10.7441     4.7561     8.6294 </r>
       <r>   -10.6379     9.0971     9.5952 </r>
       <r>   -10.5317     4.5999    10.0835 </r>
       <r>   -10.4256    -0.3975    10.0413 </r>
       <r>   -10.3194    -0.4739     9.9910 </r>
       <r>   -10.2132     0.0374     9.9950 </r>
       <r>   -10.1071     0.0406     9.9993 </r>
       <r>   -10.0009     0.0061    10.0000 </r>
       <r>    -9.8947     0.0004    10.0000 </r>
       <r>    -9.7886     0.0000    10.0000 </r>
       <r>    -9.6824     0.0000    10.0000 </r>
       <r>    -9.5762     0.0000    10.0000 </r>
       <r>    -9.4701     0.0000    10.0000 </r>
       <r>    -9.3639     0.0000    10.0000 </r>
       <r>    -9.2577     0.0000    10.0000 </r>
       <r>    -9.1516     0.0000    10.0000 </r>
       <r>    -9.0454     0.0000    10.0000 </r>
       <r>    -8.9392     0.0000    10.0000 </r>
       <r>    -8.8331     0.0000    10.0000 </r>
       <r>    -8.7269     0.0000    10.0000 </r>
       <r>    -8.6207     0.0000    10.0000 </r>
       <r>    -8.5146     0.0000    10.0000 </r>
       <r>    -8.4084     0.0000    10.0000 </r>
       <r>    -8.3022     0.0000    10.0000 </r>
       <r>    -8.1960     0.0000    10.0000 </r>
       <r>    -8.0899     0.0000    10.0000 </r>
       <r>    -7.9837     0.0000    10.0000 </r>
       <r>    -7.8775     0.0000    10.0000 </r>
       <r>    -7.7714     0.0000    10.0000 </r>
       <r>    -7.6652     0.0000    10.0000 </r>
       <r>    -7.5590     0.0000    10.0000 </r>
       <r>    -7.4529     0.0000    10.0000 </r>
       <r>    -7.3467     0.0004    10.0000 </r>
       <r>    -7.2405     0.0063    10.0007 </r>
       <r>    -7.1344     0.0411    10.0051 </r>
       <r>    -7.0282     0.0351    10.0088 </r>
       <r>    -6.9220    -0.4926     9.9565 </r>
       <r>    -6.8159    -0.4491     9.9088 </r>
       <r>    -6.7097     4.6437    10.4018 </r>
       <r>    -6.6035    10.2145    11.4863 </r>
       <r>    -6.4974     5.5441    12.0749 </r>
       <r>    -6.3912    -2.8470    11.7726 </r>
       <r>    -6.2850     1.2699    11.9075 </r>
       <r>    -6.1789    28.1971    14.9011 </r>
       <r>    -6.0727    44.6698    19.6436 </r>
       <r>    -5.9665    21.1685    21.8910 </r>
       <r>    -5.8604     8.9008    22.8360 </r>
       <r>    -5.7542    41.5617    27.2485 </r>
       <r>    -5.6480   105.9808    38.5002 </r>
       <r>    -5.5419   210.6834    60.8680 </r>
       <r>    -5.4357   297.6943    92.4736 </r>
       <r>    -5.3295   269.0532   121.0384 </r>
       <r>    -5.2234   203.7176   142.6666 </r>
       <r>    -5.1172   239.0596   168.0471 </r>
       <r>    -5.0110   340.1986   204.1652 </r>
       <r>    -4.9048   360.3244   242.4201 </r>
       <r>    -4.7987   296.5289   273.9019 </r>
       <r>    -4.6925   315.1883   307.3647 </r>
       <r>    -4.5863   399.3204   349.7597 </r>
       <r>    -4.4802   415.6325   393.8865 </r>
       <r>    -4.3740   447.9242   441.4416 </r>
       <r>    -4.2678   547.6384   499.5832 </r>
       <r>    -4.1617   497.5612   552.4082 </r>
       <r>    -4.0555   233.5913   577.2081 </r>
       <r>    -3.9493    38.1340   581.2567 </r>
       <r>    -3.8432    21.4223   583.5310 </r>
       <r>    -3.7370    32.1144   586.9405 </r>
       <r>    -3.6308    10.9866   588.1070 </r>
       <r>    -3.5247    10.8427   589.2581 </r>
       <r>    -3.4185    25.8906   592.0068 </r>
       <r>    -3.3123    16.1234   593.7186 </r>
       <r>    -3.2062    -1.0365   593.6086 </r>
       <r>    -3.1000    19.3127   595.6590 </r>
       <r>    -2.9938    59.9088   602.0194 </r>
       <r>    -2.8877    53.4612   607.6952 </r>
       <r>    -2.7815    17.3325   609.5354 </r>
       <r>    -2.6753     4.5553   610.0190 </r>
       <r>    -2.5692    19.5556   612.0952 </r>
       <r>    -2.4630    27.4494   615.0094 </r>
       <r>    -2.3568     9.5247   616.0206 </r>
       <r>    -2.2507     7.2286   616.7881 </r>
       <r>    -2.1445    28.4536   619.8089 </r>
       <r>    -2.0383    34.2659   623.4469 </r>
       <r>    -1.9321    32.9628   626.9465 </r>
       <r>    -1.8260    44.3026   631.6500 </r>
       <r>    -1.7198    49.1482   636.8679 </r>
       <r>    -1.6136    41.7082   641.2960 </r>
       <r>    -1.5075    28.8668   644.3607 </r>
       <r>    -1.4013    21.8952   646.6853 </r>
       <r>    -1.2951    19.3369   648.7382 </r>
       <r>    -1.1890     7.4753   649.5319 </r>
       <r>    -1.0828    14.2976   651.0498 </r>
       <r>    -0.9766    59.9297   657.4124 </r>
       <r>    -0.8705    81.6720   666.0834 </r>
       <r>    -0.7643    47.1338   671.0874 </r>
       <r>    -0.6581    10.3821   672.1897 </r>
       <r>    -0.5520    -1.0329   672.0800 </r>
       <r>    -0.4458    -0.9890   671.9750 </r>
       <r>    -0.3396     0.0482   671.9801 </r>
       <r>    -0.2335     0.1466   671.9957 </r>
       <r>    -0.1273     0.0365   671.9996 </r>
       <r>    -0.0211     0.0037   672.0000 </r>
       <r>     0.0850     0.0002   672.0000 </r>
       <r>     0.1912     0.0000   672.0000 </r>
       <r>     0.2974     0.0000   672.0000 </r>
       <r>     0.4035     0.0000   672.0000 </r>
       <r>     0.5097     0.0000   672.0000 </r>
       <r>     0.6159     0.0000   672.0000 </r>
       <r>     0.7220     0.0000   672.0000 </r>
       <r>     0.8282     0.0000   672.0000 </r>
       <r>     0.9344     0.0000   672.0000 </r>
       <r>     1.0406     0.0000   672.0000 </r>
       <r>     1.1467     0.0000   672.0000 </r>
       <r>     1.2529     0.0000   672.0000 </r>
      </set>
     </set>
    </array>
   </total>
  </dos>
 </calculation>
 <structure name="finalpos" >
  <crystal>
   <varray name="basis" >
    <v>      30.00000000       0.00000000       0.00000000 </v>
    <v>       0.00000000      30.00000000       0.00000000 </v>
    <v>       0.00000000       0.00000000      30.00000000 </v>
   </varray>
   <i name="volume">  27000.00000000 </i>
   <varray name="rec_basis" >
    <v>       0.03333333       0.00000000       0.00000000 </v>
    <v>       0.00000000       0.03333333       0.00000000 </v>
    <v>       0.00000000       0.00000000       0.03333333 </v>
   </varray>
  </crystal>
  <varray name="positions" >
   <v>       0.44576020       0.32826710       0.41691983 </v>
   <v>       0.67173288       0.55423978       0.41691983 </v>
   <v>       0.55423980       0.32826710       0.41691983 </v>
   <v>       0.32826712       0.55423978       0.41691983 </v>
   <v>       0.50000000       0.38250690       0.34021317 </v>
   <v>       0.50000000       0.38250690       0.65978680 </v>
   <v>       0.50000000       0.27609440       0.50000000 </v>
   <v>       0.27609443       0.49999998       0.50000000 </v>
   <v>       0.72390557       0.49999998       0.50000000 </v>
   <v>       0.50000000       0.72390555       0.50000000 </v>
   <v>       0.61195280       0.38804720       0.34167483 </v>
   <v>       0.61195280       0.38804720       0.65832513 </v>
   <v>       0.38804722       0.61195278       0.34167483 </v>
   <v>       0.38804722       0.61195278       0.65832513 </v>
   <v>       0.38804720       0.38804720       0.34167483 </v>
   <v>       0.38804720       0.38804720       0.65832513 </v>
   <v>       0.61195278       0.61195278       0.34167483 </v>
   <v>       0.61195278       0.61195278       0.65832513 </v>
   <v>       0.44576020       0.32826710       0.58308023 </v>
   <v>       0.67173288       0.55423978       0.58308023 </v>
   <v>       0.55791699       0.44208301       0.41809300 </v>
   <v>       0.32826705       0.44576024       0.41691983 </v>
   <v>       0.55423973       0.67173293       0.41691983 </v>
   <v>       0.55423980       0.32826710       0.58308023 </v>
   <v>       0.32826712       0.55423978       0.58308023 </v>
   <v>       0.67173295       0.44576024       0.41691983 </v>
   <v>       0.44576027       0.67173293       0.41691983 </v>
   <v>       0.44208301       0.44208301       0.41809300 </v>
   <v>       0.50000000       0.38416601       0.50000000 </v>
   <v>       0.61749315       0.50000005       0.34021317 </v>
   <v>       0.61749315       0.50000005       0.65978680 </v>
   <v>       0.38250685       0.50000005       0.34021317 </v>
   <v>       0.38250685       0.50000005       0.65978680 </v>
   <v>       0.38317830       0.38317830       0.50000000 </v>
   <v>       0.61682172       0.61682172       0.50000000 </v>
   <v>       0.61682170       0.38317830       0.50000000 </v>
   <v>       0.38317828       0.61682172       0.50000000 </v>
   <v>       0.50000000       0.50000000       0.33478917 </v>
   <v>       0.50000000       0.50000000       0.66521087 </v>
   <v>       0.32826705       0.44576024       0.58308023 </v>
   <v>       0.55423973       0.67173293       0.58308023 </v>
   <v>       0.55791699       0.44208301       0.58190703 </v>
   <v>       0.44208298       0.55791702       0.41809300 </v>
   <v>       0.44208301       0.44208301       0.58190703 </v>
   <v>       0.67173295       0.44576024       0.58308023 </v>
   <v>       0.44576027       0.67173293       0.58308023 </v>
   <v>       0.55791702       0.55791702       0.41809300 </v>
   <v>       0.38416599       0.50000002       0.50000000 </v>
   <v>       0.61583401       0.50000002       0.50000000 </v>
   <v>       0.50000000       0.61749319       0.34021317 </v>
   <v>       0.50000000       0.61749319       0.65978680 </v>
   <v>       0.50000000       0.50000000       0.50000000 </v>
   <v>       0.44208298       0.55791702       0.58190703 </v>
   <v>       0.55791702       0.55791702       0.58190703 </v>
   <v>       0.50000000       0.61583404       0.50000000 </v>
   <v>       0.48850633       0.49445453       0.27158193 </v>
   <v>       0.48661730       0.49354310       0.23404047 </v>
  </varray>
  <varray name="selective"  type="logical" >
   <v type="logical" >  F  F  F </v>
   <v type="logical" >  F  F  F </v>
   <v type="logical" >  F  F  F </v>
   <v type="logical" >  F  F  F </v>
   <v type="logical" >  F  F  F </v>
   <v type="logical" >  F  F  F </v>
   <v type="logical" >  F  F  F </v>
   <v type="logical" >  F  F  F </v>
   <v type="logical" >  F  F  F </v>
   <v type="logical" >  F  F  F </v>
   <v type="logical" >  F  F  F </v>
   <v type="logical" >  F  F  F </v>
   <v type="logical" >  F  F  F </v>
   <v type="logical" >  F  F  F </v>
   <v type="logical" >  F  F  F </v>
   <v type="logical" >  F  F  F </v>
   <v type="logical" >  F  F  F </v>
   <v type="logical" >  F  F  F </v>
   <v type="logical" >  F  F  F </v>
   <v type="logical" >  F  F  F </v>
   <v type="logical" >  F  F  F </v>
   <v type="logical" >  F  F  F </v>
   <v type="logical" >  F  F  F </v>
   <v type="logical" >  F  F  F </v>
   <v type="logical" >  F  F  F </v>
   <v type="logical" >  F  F  F </v>
   <v type="logical" >  F  F  F </v>
   <v type="logical" >  F  F  F </v>
   <v type="logical" >  F  F  F </v>
   <v type="logical" >  F  F  F </v>
   <v type="logical" >  F  F  F </v>
   <v type="logical" >  F  F  F </v>
   <v type="logical" >  F  F  F </v>
   <v type="logical" >  F  F  F </v>
   <v type="logical" >  F  F  F </v>
   <v type="logical" >  F  F  F </v>
   <v type="logical" >  F  F  F </v>
   <v type="logical" >  F  F  F </v>
   <v type="logical" >  F  F  F </v>
   <v type="logical" >  F  F  F </v>
   <v type="logical" >  F  F  F </v>
   <v type="logical" >  F  F  F </v>
   <v type="logical" >  F  F  F </v>
   <v type="logical" >  F  F  F </v>
   <v type="logical" >  F  F  F </v>
   <v type="logical" >  F  F  F </v>
   <v type="logical" >  F  F  F </v>
   <v type="logical" >  F  F  F </v>
   <v type="logical" >  F  F  F </v>
   <v type="logical" >  F  F  F </v>
   <v type="logical" >  F  F  F </v>
   <v type="logical" >  F  F  F </v>
   <v type="logical" >  F  F  F </v>
   <v type="logical" >  F  F  F </v>
   <v type="logical" >  F  F  F </v>
   <v type="logical" >  F  F  F </v>
   <v type="logical" >  F  F  F </v>
  </varray>
  <nose>
   <v>      -3.00000000       0.00000000       0.00010000       0.00010000 </v>
  </nose>
 </structure>
</modeling>
