       N       E                     dE             d eps       ncg     rms          rms(c)
DAV:   1     0.438477198338E+04    0.43848E+04   -0.10051E+05   688   0.815E+02
DAV:   2     0.202723714386E+04   -0.23575E+04   -0.21186E+04  1208   0.105E+02
DAV:   3     0.241724569975E+03   -0.17855E+04   -0.16766E+04  1000   0.918E+01
DAV:   4    -0.133465829185E+03   -0.37519E+03   -0.32052E+03   832   0.437E+01
DAV:   5    -0.179261357949E+03   -0.45796E+02   -0.37810E+02  1056   0.146E+01    0.139E+01
RMM:   6    -0.179006072267E+03    0.25529E+00   -0.52322E+01   727   0.866E+00    0.216E+01
RMM:   7    -0.182083955449E+03   -0.30779E+01   -0.19164E+01   867   0.455E+00    0.232E+01
RMM:   8    -0.183311530393E+03   -0.12276E+01   -0.64558E+00   803   0.329E+00    0.250E+01
RMM:   9    -0.181523871139E+03    0.17877E+01   -0.50893E+00   729   0.313E+00    0.239E+01
RMM:  10    -0.179750189609E+03    0.17737E+01   -0.29238E+00   738   0.251E+00    0.227E+01
RMM:  11    -0.177895912556E+03    0.18543E+01   -0.18109E+00   728   0.194E+00    0.155E+01
RMM:  12    -0.177095338894E+03    0.80057E+00   -0.12796E+00   723   0.169E+00    0.160E+01
RMM:  13    -0.176457045332E+03    0.63829E+00   -0.72564E-01   730   0.126E+00    0.139E+01
RMM:  14    -0.176225475794E+03    0.23157E+00   -0.10346E+00   720   0.150E+00    0.133E+01
RMM:  15    -0.176451621436E+03   -0.22615E+00   -0.83704E-01   718   0.134E+00    0.156E+01
RMM:  16    -0.175722910901E+03    0.72871E+00   -0.94897E-01   711   0.144E+00    0.119E+01
RMM:  17    -0.175600586402E+03    0.12232E+00   -0.56454E-01   712   0.115E+00    0.151E+01
RMM:  18    -0.175383164431E+03    0.21742E+00   -0.37173E-01   715   0.911E-01    0.113E+01
RMM:  19    -0.175248857666E+03    0.13431E+00   -0.36925E-01   707   0.912E-01    0.888E+00
RMM:  20    -0.175199318670E+03    0.49539E-01   -0.35695E-01   710   0.913E-01    0.852E+00
RMM:  21    -0.175035131819E+03    0.16419E+00   -0.29272E-01   702   0.835E-01    0.675E+00
RMM:  22    -0.174967273176E+03    0.67859E-01   -0.17196E-01   697   0.645E-01    0.648E+00
RMM:  23    -0.174826028684E+03    0.14124E+00   -0.13956E-01   698   0.588E-01    0.428E+00
RMM:  24    -0.174742069863E+03    0.83959E-01   -0.10526E-01   696   0.513E-01    0.302E+00
RMM:  25    -0.174749074007E+03   -0.70041E-02   -0.55845E-02   700   0.371E-01    0.378E+00
RMM:  26    -0.174697431136E+03    0.51643E-01   -0.35248E-02   702   0.308E-01    0.225E+00
RMM:  27    -0.174684450947E+03    0.12980E-01   -0.19933E-02   696   0.236E-01    0.181E+00
RMM:  28    -0.174678631174E+03    0.58198E-02   -0.18356E-02   697   0.212E-01    0.173E+00
RMM:  29    -0.174667615080E+03    0.11016E-01   -0.12784E-02   697   0.192E-01    0.149E+00
RMM:  30    -0.174661294857E+03    0.63202E-02   -0.78492E-03   697   0.145E-01    0.129E+00
RMM:  31    -0.174655135365E+03    0.61595E-02   -0.43724E-03   701   0.110E-01    0.771E-01
RMM:  32    -0.174653288236E+03    0.18471E-02   -0.36896E-03   696   0.957E-02    0.601E-01
RMM:  33    -0.174655330085E+03   -0.20418E-02   -0.39487E-03   697   0.966E-02    0.863E-01
RMM:  34    -0.174654501817E+03    0.82827E-03   -0.26822E-03   696   0.860E-02    0.520E-01
RMM:  35    -0.174654719024E+03   -0.21721E-03   -0.14137E-03   694   0.627E-02    0.290E-01
RMM:  36    -0.174656934450E+03   -0.22154E-02   -0.10626E-03   694   0.504E-02    0.357E-01
RMM:  37    -0.174660622109E+03   -0.36877E-02   -0.11858E-03   694   0.515E-02    0.295E-01
RMM:  38    -0.174662190398E+03   -0.15683E-02   -0.54998E-04   600   0.367E-02    0.215E-01
RMM:  39    -0.174664069598E+03   -0.18792E-02   -0.34054E-04   452   0.295E-02    0.208E-01
RMM:  40    -0.174666255704E+03   -0.21861E-02   -0.29225E-04   429   0.278E-02    0.184E-01
RMM:  41    -0.174667619364E+03   -0.13637E-02   -0.19285E-04   413   0.222E-02    0.164E-01
RMM:  42    -0.174669921982E+03   -0.23026E-02   -0.26918E-04   432   0.234E-02    0.159E-01
RMM:  43    -0.174672278545E+03   -0.23566E-02   -0.29221E-04   446   0.230E-02    0.146E-01
RMM:  44    -0.174673574512E+03   -0.12960E-02   -0.16366E-04   413   0.177E-02    0.112E-01
RMM:  45    -0.174675674647E+03   -0.21001E-02   -0.19332E-04   419   0.175E-02    0.115E-01
RMM:  46    -0.174676573949E+03   -0.89930E-03   -0.12474E-04   412   0.142E-02    0.863E-02
RMM:  47    -0.174677921913E+03   -0.13480E-02   -0.14848E-04   414   0.148E-02    0.921E-02
RMM:  48    -0.174678587220E+03   -0.66531E-03   -0.11229E-04   409   0.128E-02    0.463E-02
RMM:  49    -0.174678935978E+03   -0.34876E-03   -0.59562E-05   413   0.897E-03    0.462E-02
RMM:  50    -0.174679347778E+03   -0.41180E-03   -0.37634E-05   403   0.701E-03    0.271E-02
RMM:  51    -0.174679645441E+03   -0.29766E-03   -0.18877E-05   317   0.539E-03    0.265E-02
RMM:  52    -0.174680413496E+03   -0.76805E-03   -0.21711E-05   339   0.540E-03    0.217E-02
RMM:  53    -0.174680662286E+03   -0.24879E-03   -0.60834E-06   179   0.418E-03    0.155E-02
RMM:  54    -0.174681142659E+03   -0.48037E-03   -0.14615E-05   292   0.479E-03    0.193E-02
RMM:  55    -0.174681428377E+03   -0.28572E-03   -0.47360E-06   156   0.399E-03    0.967E-03
RMM:  56    -0.174681630384E+03   -0.20201E-03   -0.11013E-05   231   0.423E-03    0.113E-02
RMM:  57    -0.174681854288E+03   -0.22390E-03   -0.57015E-06   160   0.372E-03    0.775E-03
RMM:  58    -0.174681969109E+03   -0.11482E-03   -0.35103E-06   128   0.367E-03    0.101E-02
RMM:  59    -0.174682092692E+03   -0.12358E-03   -0.10177E-05   186   0.394E-03    0.102E-02
RMM:  60    -0.174682174852E+03   -0.82160E-04   -0.42453E-06   131   0.350E-03
   1 F= -.17468217E+03 E0= -.17465852E+03  d E =-.946249E-01
