 running on    1 total cores
 distrk:  each k-point on    1 cores,    1 groups
 distr:  one band on    1 cores,    1 groups
 using from now: INCAR     
 vasp.5.4.4.18Apr17-6-g9f103f2a35 (build Sep 03 2018 23:53:05) complex          
  
 POSCAR found type information on POSCAR  Pd C  O 
 POSCAR found :  3 types and      57 ions
 scaLAPACK will be used

 ----------------------------------------------------------------------------- 
|                                                                             |
|  ADVICE TO THIS USER RUNNING 'VASP/VAMP'   (HEAR YOUR MASTER'S VOICE ...):  |
|                                                                             |
|      You enforced a specific xc-type in the INCAR file,                     |
|      a different type was found on the POTCAR file                          |
|          I HOPE YOU KNOW, WHAT YOU ARE  DOING                               |
|                                                                             |
 ----------------------------------------------------------------------------- 

 LDA part: xc-table for Pade appr. of Perdew
 POSCAR, INCAR and KPOINTS ok, starting setup
 FFT: planning ...
 WAVECAR not read
 entering main loop
       N       E                     dE             d eps       ncg     rms          rms(c)
DAV:   1     0.439219225820E+04    0.43922E+04   -0.10051E+05   688   0.815E+02
DAV:   2     0.203058606098E+04   -0.23616E+04   -0.21230E+04  1208   0.105E+02
DAV:   3     0.241557244043E+03   -0.17890E+04   -0.16811E+04  1000   0.922E+01
DAV:   4    -0.134736412594E+03   -0.37629E+03   -0.31993E+03   832   0.439E+01
DAV:   5    -0.180462727957E+03   -0.45726E+02   -0.38062E+02  1032   0.147E+01    0.169E+01
RMM:   6    -0.181819844933E+03   -0.13571E+01   -0.70042E+01   724   0.943E+00    0.278E+01
RMM:   7    -0.183378846314E+03   -0.15590E+01   -0.21205E+01   859   0.457E+00    0.266E+01
RMM:   8    -0.184785316325E+03   -0.14065E+01   -0.82253E+00   803   0.347E+00    0.256E+01
RMM:   9    -0.184070237593E+03    0.71508E+00   -0.67890E+00   729   0.353E+00    0.283E+01
RMM:  10    -0.183097825899E+03    0.97241E+00   -0.43951E+00   747   0.292E+00    0.266E+01
RMM:  11    -0.180754738905E+03    0.23431E+01   -0.34542E+00   728   0.265E+00    0.233E+01
RMM:  12    -0.179039137867E+03    0.17156E+01   -0.26632E+00   727   0.234E+00    0.169E+01
RMM:  13    -0.178736477114E+03    0.30266E+00   -0.24535E+00   722   0.230E+00    0.184E+01
RMM:  14    -0.178149107601E+03    0.58737E+00   -0.19899E+00   718   0.211E+00    0.261E+01
RMM:  15    -0.177196187233E+03    0.95292E+00   -0.18435E+00   706   0.193E+00    0.146E+01
RMM:  16    -0.176455284241E+03    0.74090E+00   -0.12537E+00   706   0.168E+00    0.126E+01
RMM:  17    -0.176221420947E+03    0.23386E+00   -0.61181E-01   715   0.117E+00    0.102E+01
RMM:  18    -0.176101158421E+03    0.12026E+00   -0.52986E-01   705   0.110E+00    0.986E+00
RMM:  19    -0.175890240807E+03    0.21092E+00   -0.36602E-01   699   0.934E-01    0.832E+00
RMM:  20    -0.175795152889E+03    0.95088E-01   -0.24944E-01   695   0.769E-01    0.809E+00
RMM:  21    -0.175686477629E+03    0.10868E+00   -0.20287E-01   703   0.700E-01    0.760E+00
RMM:  22    -0.175650630700E+03    0.35847E-01   -0.27520E-01   703   0.798E-01    0.811E+00
RMM:  23    -0.175437617167E+03    0.21301E+00   -0.17341E-01   696   0.641E-01    0.519E+00
RMM:  24    -0.175457129926E+03   -0.19513E-01   -0.15502E-01   697   0.591E-01    0.704E+00
RMM:  25    -0.175333079401E+03    0.12405E+00   -0.80438E-02   694   0.452E-01    0.417E+00
RMM:  26    -0.175271261144E+03    0.61818E-01   -0.75077E-02   696   0.426E-01    0.313E+00
RMM:  27    -0.175271328720E+03   -0.67576E-04   -0.56488E-02   698   0.378E-01    0.333E+00
RMM:  28    -0.175256295580E+03    0.15033E-01   -0.45154E-02   691   0.339E-01    0.296E+00
RMM:  29    -0.175234491120E+03    0.21804E-01   -0.27049E-02   693   0.269E-01    0.240E+00
RMM:  30    -0.175220313379E+03    0.14178E-01   -0.16199E-02   695   0.208E-01    0.209E+00
RMM:  31    -0.175211562934E+03    0.87504E-02   -0.12089E-02   696   0.177E-01    0.177E+00
RMM:  32    -0.175206794928E+03    0.47680E-02   -0.91768E-03   696   0.155E-01    0.158E+00
RMM:  33    -0.175198692861E+03    0.81021E-02   -0.69749E-03   697   0.136E-01    0.986E-01
RMM:  34    -0.175197528102E+03    0.11648E-02   -0.43920E-03   696   0.110E-01    0.870E-01
RMM:  35    -0.175195489903E+03    0.20382E-02   -0.29727E-03   689   0.893E-02    0.565E-01
RMM:  36    -0.175195239344E+03    0.25056E-03   -0.18127E-03   693   0.686E-02    0.499E-01
RMM:  37    -0.175196440215E+03   -0.12009E-02   -0.14118E-03   688   0.584E-02    0.526E-01
RMM:  38    -0.175196875387E+03   -0.43517E-03   -0.10040E-03   688   0.527E-02    0.369E-01
RMM:  39    -0.175198120087E+03   -0.12447E-02   -0.81153E-04   683   0.460E-02    0.325E-01
RMM:  40    -0.175201940139E+03   -0.38201E-02   -0.10244E-03   678   0.486E-02    0.332E-01
RMM:  41    -0.175203979179E+03   -0.20390E-02   -0.67445E-04   631   0.384E-02    0.250E-01
RMM:  42    -0.175207637122E+03   -0.36579E-02   -0.72521E-04   627   0.371E-02    0.247E-01
RMM:  43    -0.175209945077E+03   -0.23080E-02   -0.52590E-04   531   0.319E-02    0.130E-01
RMM:  44    -0.175211519745E+03   -0.15747E-02   -0.27713E-04   434   0.239E-02    0.144E-01
RMM:  45    -0.175214069913E+03   -0.25502E-02   -0.41177E-04   484   0.250E-02    0.127E-01
RMM:  46    -0.175214949487E+03   -0.87957E-03   -0.17340E-04   422   0.177E-02    0.110E-01
RMM:  47    -0.175216973959E+03   -0.20245E-02   -0.21608E-04   427   0.178E-02    0.845E-02
RMM:  48    -0.175217730887E+03   -0.75693E-03   -0.10277E-04   411   0.131E-02    0.659E-02
RMM:  49    -0.175218999732E+03   -0.12688E-02   -0.95636E-05   407   0.121E-02    0.754E-02
RMM:  50    -0.175219913896E+03   -0.91416E-03   -0.79228E-05   407   0.106E-02    0.360E-02
RMM:  51    -0.175220396286E+03   -0.48239E-03   -0.42265E-05   398   0.794E-03    0.426E-02
RMM:  52    -0.175221266131E+03   -0.86985E-03   -0.40806E-05   399   0.749E-03    0.254E-02
RMM:  53    -0.175221533140E+03   -0.26701E-03   -0.15379E-05   263   0.488E-03    0.196E-02
RMM:  54    -0.175221989509E+03   -0.45637E-03   -0.10954E-05   228   0.469E-03    0.190E-02
RMM:  55    -0.175222300479E+03   -0.31097E-03   -0.96381E-06   233   0.446E-03    0.161E-02
RMM:  56    -0.175222592877E+03   -0.29240E-03   -0.73308E-06   201   0.403E-03    0.123E-02
RMM:  57    -0.175222869252E+03   -0.27638E-03   -0.81866E-06   196   0.412E-03    0.127E-02
RMM:  58    -0.175223144077E+03   -0.27483E-03   -0.12452E-05   214   0.414E-03    0.735E-03
RMM:  59    -0.175223289339E+03   -0.14526E-03   -0.53103E-06   156   0.375E-03    0.694E-03
RMM:  60    -0.175223456042E+03   -0.16670E-03   -0.11717E-05   197   0.408E-03    0.583E-03
RMM:  61    -0.175223512971E+03   -0.56929E-04   -0.37930E-06   131   0.349E-03
   1 F= -.17522351E+03 E0= -.17521162E+03  d E =-.475537E-01
================================= SLURM INFO ===================================
Command: run-cluster -n 1 -m 10000 -j 0432_vasp --same-node /opt/VASP/vasp
Exit code: 0
Job name: 0432_vasp
Job time: 0 days 5h:9m:29s
MPI task count: 1
Working dir: /home/pashkov/pyFitIt/pyfitit/data/random_pd_co_new/sample/0432
Job was running on nodes: h11
Task per node: 1
       JobID     MaxRSS  MaxDiskRead MaxDiskWrite    Elapsed    JobName 
------------ ---------- ------------ ------------ ---------- ---------- 
105900                                              05:09:29  0432_vasp 
105900.batch                                        05:09:29      batch 
