   57   57    1    1
  0.4736842E+03  0.3000000E-08  0.3000000E-08  0.3000000E-08  0.5000000E-15
  1.000000000000000E-004
  CAR 
 6_Pd100_top_free_z(O)                   
    560      1    336
 
  0.0000000E+00  0.0000000E+00  0.0000000E+00  0.1000000E+01
    1      -28.757782   1.000000
    2      -13.429507   1.000000
    3      -11.167786   1.000000
    4      -11.130557   1.000000
    5      -10.150051   1.000000
    6       -6.637693   1.000000
    7       -6.126160   1.000000
    8       -6.121638   1.000000
    9       -6.117641   1.000000
   10       -5.826436   1.000000
   11       -5.816693   1.000000
   12       -5.802815   1.000000
   13       -5.763215   1.000000
   14       -5.747859   1.000000
   15       -5.731534   1.000000
   16       -5.680957   1.000000
   17       -5.675940   1.000000
   18       -5.675655   1.000000
   19       -5.672759   1.000000
   20       -5.618005   1.000000
   21       -5.604267   1.000000
   22       -5.598566   1.000000
   23       -5.588009   1.000000
   24       -5.586042   1.000000
   25       -5.584829   1.000000
   26       -5.553356   1.000000
   27       -5.552374   1.000000
   28       -5.534354   1.000000
   29       -5.519169   1.000000
   30       -5.518187   1.000000
   31       -5.511126   1.000000
   32       -5.508061   1.000000
   33       -5.507733   1.000000
   34       -5.506431   1.000000
   35       -5.502115   1.000000
   36       -5.500272   1.000000
   37       -5.485241   1.000000
   38       -5.469072   1.000000
   39       -5.467906   1.000000
   40       -5.464991   1.000000
   41       -5.458330   1.000000
   42       -5.457702   1.000000
   43       -5.456850   1.000000
   44       -5.456747   1.000000
   45       -5.451899   1.000000
   46       -5.434347   1.000000
   47       -5.429089   1.000000
   48       -5.419580   1.000000
   49       -5.418785   1.000000
   50       -5.417861   1.000000
   51       -5.416328   1.000000
   52       -5.405961   1.000000
   53       -5.396583   1.000000
   54       -5.395956   1.000000
   55       -5.384832   1.000000
   56       -5.358331   1.000000
   57       -5.347306   1.000000
   58       -5.332423   1.000000
   59       -5.326214   1.000000
   60       -5.307504   1.000000
   61       -5.307202   1.000000
   62       -5.305722   1.000000
   63       -5.305301   1.000000
   64       -5.302293   1.000000
   65       -5.291454   1.000000
   66       -5.290042   1.000000
   67       -5.287750   1.000000
   68       -5.272537   1.000000
   69       -5.242684   1.000000
   70       -5.220984   1.000000
   71       -5.220474   1.000000
   72       -5.183624   1.000000
   73       -5.173000   1.000000
   74       -5.170489   1.000000
   75       -5.170145   1.000000
   76       -5.165732   1.000000
   77       -5.164938   1.000000
   78       -5.163647   1.000000
   79       -5.159750   1.000000
   80       -5.141626   1.000000
   81       -5.137360   1.000000
   82       -5.128806   1.000000
   83       -5.113887   1.000000
   84       -5.113404   1.000000
   85       -5.106287   1.000000
   86       -5.100681   1.000000
   87       -5.093802   1.000000
   88       -5.087458   1.000000
   89       -5.082550   1.000000
   90       -5.060248   1.000000
   91       -5.058582   1.000000
   92       -5.048046   1.000000
   93       -5.046429   1.000000
   94       -5.042158   1.000000
   95       -5.041199   1.000000
   96       -5.037482   1.000000
   97       -5.037106   1.000000
   98       -5.025588   1.000000
   99       -5.017147   1.000000
  100       -5.009123   1.000000
  101       -5.006180   1.000000
  102       -5.001582   1.000000
  103       -4.994632   1.000000
  104       -4.994024   1.000000
  105       -4.993396   1.000000
  106       -4.985805   1.000000
  107       -4.980160   1.000000
  108       -4.979646   1.000000
  109       -4.971670   1.000000
  110       -4.969606   1.000000
  111       -4.969128   1.000000
  112       -4.967994   1.000000
  113       -4.956930   1.000000
  114       -4.950061   1.000000
  115       -4.946264   0.999999
  116       -4.944471   0.999999
  117       -4.936826   0.999999
  118       -4.932628   0.999999
  119       -4.916186   0.999998
  120       -4.907151   0.999998
  121       -4.906836   0.999998
  122       -4.905349   0.999998
  123       -4.905018   0.999998
  124       -4.900986   0.999997
  125       -4.891092   0.999996
  126       -4.889949   0.999996
  127       -4.868246   0.999992
  128       -4.862758   0.999991
  129       -4.851840   0.999987
  130       -4.849481   0.999986
  131       -4.832942   0.999977
  132       -4.828607   0.999974
  133       -4.826756   0.999972
  134       -4.820947   0.999967
  135       -4.820146   0.999966
  136       -4.819405   0.999966
  137       -4.803235   0.999946
  138       -4.787615   0.999917
  139       -4.786733   0.999915
  140       -4.778728   0.999895
  141       -4.766337   0.999856
  142       -4.750326   0.999786
  143       -4.747731   0.999772
  144       -4.738528   0.999717
  145       -4.726684   0.999628
  146       -4.726540   0.999627
  147       -4.725187   0.999616
  148       -4.715150   0.999520
  149       -4.701915   0.999365
  150       -4.695171   0.999271
  151       -4.690793   0.999204
  152       -4.685926   0.999124
  153       -4.671279   0.998845
  154       -4.668293   0.998781
  155       -4.667664   0.998767
  156       -4.663553   0.998673
  157       -4.661876   0.998634
  158       -4.661686   0.998629
  159       -4.655767   0.998482
  160       -4.652495   0.998396
  161       -4.642808   0.998123
  162       -4.640898   0.998066
  163       -4.639496   0.998023
  164       -4.638757   0.998000
  165       -4.637715   0.997968
  166       -4.633754   0.997843
  167       -4.633549   0.997836
  168       -4.625230   0.997559
  169       -4.620376   0.997390
  170       -4.618649   0.997329
  171       -4.614287   0.997171
  172       -4.610950   0.997049
  173       -4.601471   0.996695
  174       -4.586212   0.996126
  175       -4.585612   0.996104
  176       -4.581762   0.995967
  177       -4.580388   0.995919
  178       -4.576380   0.995783
  179       -4.575943   0.995768
  180       -4.569675   0.995571
  181       -4.562790   0.995380
  182       -4.553537   0.995183
  183       -4.543170   0.995071
  184       -4.541391   0.995066
  185       -4.540440   0.995065
  186       -4.540298   0.995065
  187       -4.539686   0.995065
  188       -4.539303   0.995066
  189       -4.537615   0.995071
  190       -4.535590   0.995083
  191       -4.503272   0.996461
  192       -4.497803   0.996974
  193       -4.497233   0.997034
  194       -4.494221   0.997364
  195       -4.491582   0.997681
  196       -4.479869   0.999397
  197       -4.471205   1.001021
  198       -4.469371   1.001406
  199       -4.463675   1.002694
  200       -4.458601   1.003964
  201       -4.456005   1.004659
  202       -4.452881   1.005536
  203       -4.449424   1.006559
  204       -4.446611   1.007432
  205       -4.442681   1.008711
  206       -4.439475   1.009806
  207       -4.439059   1.009951
  208       -4.436452   1.010879
  209       -4.433749   1.011873
  210       -4.427947   1.014109
  211       -4.419543   1.017580
  212       -4.406479   1.023432
  213       -4.399598   1.026675
  214       -4.397282   1.027782
  215       -4.395422   1.028675
  216       -4.390799   1.030900
  217       -4.388808   1.031859
  218       -4.388556   1.031980
  219       -4.386749   1.032848
  220       -4.376988   1.037459
  221       -4.374259   1.038708
  222       -4.357093   1.045777
  223       -4.351696   1.047586
  224       -4.337310   1.050936
  225       -4.337283   1.050940
  226       -4.328873   1.051619
  227       -4.325913   1.051586
  228       -4.325221   1.051556
  229       -4.324990   1.051544
  230       -4.321905   1.051291
  231       -4.317918   1.050693
  232       -4.317400   1.050591
  233       -4.314630   1.049954
  234       -4.313812   1.049735
  235       -4.311730   1.049109
  236       -4.310297   1.048621
  237       -4.309268   1.048242
  238       -4.305053   1.046423
  239       -4.304086   1.045944
  240       -4.300543   1.043986
  241       -4.295561   1.040666
  242       -4.288178   1.034453
  243       -4.285560   1.031859
  244       -4.283137   1.029269
  245       -4.278228   1.023443
  246       -4.278204   1.023412
  247       -4.271721   1.014484
  248       -4.270501   1.012643
  249       -4.270182   1.012153
  250       -4.268823   1.010025
  251       -4.254313   0.983140
  252       -4.245955   0.964073
  253       -4.245935   0.964024
  254       -4.244258   0.959874
  255       -4.238452   0.944664
  256       -4.237619   0.942375
  257       -4.237538   0.942149
  258       -4.236326   0.938769
  259       -4.231879   0.925869
  260       -4.231281   0.924074
  261       -4.225848   0.907153
  262       -4.224648   0.903264
  263       -4.224316   0.902178
  264       -4.223430   0.899259
  265       -4.221036   0.891227
  266       -4.208888   0.847187
  267       -4.208704   0.846481
  268       -4.206827   0.839193
  269       -4.205563   0.834212
  270       -4.202512   0.821971
  271       -4.201978   0.819797
  272       -4.190681   0.771646
  273       -4.182229   0.733151
  274       -4.181176   0.728216
  275       -4.175803   0.702637
  276       -4.170965   0.679036
  277       -4.169492   0.671755
  278       -4.165777   0.653204
  279       -4.157210   0.609557
  280       -4.155882   0.602698
  281       -4.155757   0.602053
  282       -4.142150   0.530812
  283       -4.127796   0.454972
  284       -4.118946   0.408640
  285       -4.117541   0.401348
  286       -4.113307   0.379520
  287       -4.105903   0.341970
  288       -4.097882   0.302412
  289       -4.036443   0.061592
  290       -3.960040  -0.049382
  291       -3.890809  -0.035192
  292       -3.812138  -0.003475
  293       -3.810612  -0.003093
  294       -3.794195   0.000358
  295       -3.483911   0.000081
  296       -3.483397   0.000079
  297       -3.375037   0.000003
  298       -3.051516   0.000000
  299       -3.047227   0.000000
  300       -3.016099   0.000000
  301       -3.008354   0.000000
  302       -3.001291   0.000000
  303       -2.999478   0.000000
  304       -2.922160   0.000000
  305       -2.826592   0.000000
  306       -2.573602   0.000000
  307       -2.533865   0.000000
  308       -2.507725   0.000000
  309       -2.234231   0.000000
  310       -2.122138   0.000000
  311       -2.109110   0.000000
  312       -2.106587   0.000000
  313       -1.961281   0.000000
  314       -1.935481   0.000000
  315       -1.885061   0.000000
  316       -1.874868   0.000000
  317       -1.837768   0.000000
  318       -1.747926   0.000000
  319       -1.729794   0.000000
  320       -1.671464   0.000000
  321       -1.630605   0.000000
  322       -1.543753   0.000000
  323       -1.503469   0.000000
  324       -1.443758   0.000000
  325       -1.366864   0.000000
  326       -1.096199   0.000000
  327       -1.051593   0.000000
  328       -1.005209   0.000000
  329       -0.970642   0.000000
  330       -0.965157   0.000000
  331       -0.929615   0.000000
  332       -0.926192   0.000000
  333       -0.916413   0.000000
  334       -0.898787   0.000000
  335       -0.784157   0.000000
  336       -0.578094   0.000000
