 vasp.5.4.4.18Apr17-6-g9f103f2a35 (build Sep 03 2018 23:53:05) complex          
  
 executed on             LinuxIFC date 2021.12.03  04:27:22
 running on    1 total cores
 distrk:  each k-point on    1 cores,    1 groups
 distr:  one band on NCORES_PER_BAND=   1 cores,    1 groups


--------------------------------------------------------------------------------------------------------


 INCAR:
 POTCAR:    PAW_PBE Pd 04Jan2005                  
 POTCAR:    PAW_PBE C 08Apr2002                   
 POTCAR:    PAW_PBE O 08Apr2002                   
 POTCAR:    PAW_PBE Pd 04Jan2005                  
   VRHFIN =Pd : s1 d9                                                           
   LEXCH  = PE                                                                  
   EATOM  =   809.7530 eV,   59.5152 Ry                                         
                                                                                
   TITEL  = PAW_PBE Pd 04Jan2005                                                
   LULTRA =        F    use ultrasoft PP ?                                      
   IUNSCR =        1    unscreen: 0-lin 1-nonlin 2-no                           
   RPACOR =    2.000    partial core radius                                     
   POMASS =  106.420; ZVAL   =   10.000    mass and valenz                      
   RCORE  =    2.600    outmost cutoff radius                                   
   RWIGS  =    2.710; RWIGS  =    1.434    wigner-seitz radius (au A)           
   ENMAX  =  250.925; ENMIN  =  188.194 eV                                      
   ICORE  =        3    local potential                                         
   LCOR   =        T    correct aug charges                                     
   LPAW   =        T    paw PP                                                  
   EAUG   =  416.230                                                            
   DEXC   =    0.000                                                            
   RMAX   =    2.653    core radius for proj-oper                               
   RAUG   =    1.300    factor for augmentation sphere                          
   RDEP   =    2.734    radius for radial grids                                 
   RDEPT  =    2.103    core radius for aug-charge                              
                                                                                
   Atomic configuration                                                         
   12 entries                                                                   
     n  l   j            E        occ.                                          
     1  0  0.50    -24164.6631   2.0000                                         
     2  0  0.50     -3530.9218   2.0000                                         
     2  1  1.50     -3165.6822   6.0000                                         
     3  0  0.50      -639.4577   2.0000                                         
     3  1  1.50      -519.4532   6.0000                                         
     3  2  2.50      -328.9757  10.0000                                         
     4  0  0.50       -88.7014   2.0000                                         
     4  1  1.50       -54.4540   6.0000                                         
     4  2  2.50        -6.6878   9.0000                                         
     5  0  0.50        -4.3543   1.0000                                         
     5  1  0.50        -1.3606   0.0000                                         
     4  3  2.50        -1.3606   0.0000                                         
   Description                                                                  
     l       E           TYP  RCUT    TYP  RCUT                                 
     2     -6.6878251     23  2.400                                             
     2     -8.0484077     23  2.400                                             
     0     -4.3542939     23  2.400                                             
     0      4.3406793     23  2.400                                             
     1     -4.0817478     23  2.600                                             
     1     15.8380318     23  2.600                                             
     3     -4.0817478     23  2.400                                             
  local pseudopotential read in
  partial core-charges read in
  partial kinetic energy density read in
  atomic valenz-charges read in
  non local Contribution for L=           2  read in
    real space projection operators read in
  non local Contribution for L=           2  read in
    real space projection operators read in
  non local Contribution for L=           0  read in
    real space projection operators read in
  non local Contribution for L=           0  read in
    real space projection operators read in
  non local Contribution for L=           1  read in
    real space projection operators read in
  non local Contribution for L=           1  read in
    real space projection operators read in
    PAW grid and wavefunctions read in
 
   number of l-projection  operators is LMAX  =           6
   number of lm-projection operators is LMMAX =          18
 
 POTCAR:    PAW_PBE C 08Apr2002                   
   VRHFIN =C: s2p2                                                              
   LEXCH  = PE                                                                  
   EATOM  =   147.1560 eV,   10.8157 Ry                                         
                                                                                
   TITEL  = PAW_PBE C 08Apr2002                                                 
   LULTRA =        F    use ultrasoft PP ?                                      
   IUNSCR =        1    unscreen: 0-lin 1-nonlin 2-no                           
   RPACOR =    1.200    partial core radius                                     
   POMASS =   12.011; ZVAL   =    4.000    mass and valenz                      
   RCORE  =    1.500    outmost cutoff radius                                   
   RWIGS  =    1.630; RWIGS  =    0.863    wigner-seitz radius (au A)           
   ENMAX  =  400.000; ENMIN  =  300.000 eV                                      
   ICORE  =        2    local potential                                         
   LCOR   =        T    correct aug charges                                     
   LPAW   =        T    paw PP                                                  
   EAUG   =  644.873                                                            
   DEXC   =    0.000                                                            
   RMAX   =    1.529    core radius for proj-oper                               
   RAUG   =    1.300    factor for augmentation sphere                          
   RDEP   =    1.501    radius for radial grids                                 
   RDEPT  =    1.300    core radius for aug-charge                              
                                                                                
   Atomic configuration                                                         
    4 entries                                                                   
     n  l   j            E        occ.                                          
     1  0  0.50      -273.3789   2.0000                                         
     2  0  0.50       -13.7508   2.0000                                         
     2  1  0.50        -5.2854   2.0000                                         
     3  2  1.50        -5.4423   0.0000                                         
   Description                                                                  
     l       E           TYP  RCUT    TYP  RCUT                                 
     0    -13.7508458     23  1.200                                             
     0     -8.2022199     23  1.200                                             
     1     -5.2854383     23  1.500                                             
     1     34.0145650     23  1.500                                             
     2     -5.4423304      7  1.500                                             
  local pseudopotential read in
  partial core-charges read in
  partial kinetic energy density read in
  atomic valenz-charges read in
  non local Contribution for L=           0  read in
    real space projection operators read in
  non local Contribution for L=           0  read in
    real space projection operators read in
  non local Contribution for L=           1  read in
    real space projection operators read in
  non local Contribution for L=           1  read in
    real space projection operators read in
    PAW grid and wavefunctions read in
 
   number of l-projection  operators is LMAX  =           4
   number of lm-projection operators is LMMAX =           8
 
 POTCAR:    PAW_PBE O 08Apr2002                   
   VRHFIN =O: s2p4                                                              
   LEXCH  = PE                                                                  
   EATOM  =   432.3788 eV,   31.7789 Ry                                         
                                                                                
   TITEL  = PAW_PBE O 08Apr2002                                                 
   LULTRA =        F    use ultrasoft PP ?                                      
   IUNSCR =        1    unscreen: 0-lin 1-nonlin 2-no                           
   RPACOR =    1.200    partial core radius                                     
   POMASS =   16.000; ZVAL   =    6.000    mass and valenz                      
   RCORE  =    1.520    outmost cutoff radius                                   
   RWIGS  =    1.550; RWIGS  =    0.820    wigner-seitz radius (au A)           
   ENMAX  =  400.000; ENMIN  =  300.000 eV                                      
   ICORE  =        2    local potential                                         
   LCOR   =        T    correct aug charges                                     
   LPAW   =        T    paw PP                                                  
   EAUG   =  605.392                                                            
   DEXC   =    0.000                                                            
   RMAX   =    1.553    core radius for proj-oper                               
   RAUG   =    1.300    factor for augmentation sphere                          
   RDEP   =    1.550    radius for radial grids                                 
   RDEPT  =    1.329    core radius for aug-charge                              
                                                                                
   Atomic configuration                                                         
    4 entries                                                                   
     n  l   j            E        occ.                                          
     1  0  0.50      -514.6923   2.0000                                         
     2  0  0.50       -23.9615   2.0000                                         
     2  1  0.50        -9.0305   4.0000                                         
     3  2  1.50        -9.5241   0.0000                                         
   Description                                                                  
     l       E           TYP  RCUT    TYP  RCUT                                 
     0    -23.9615318     23  1.200                                             
     0     -9.5240782     23  1.200                                             
     1     -9.0304911     23  1.520                                             
     1      8.1634956     23  1.520                                             
     2     -9.5240782      7  1.500                                             
  local pseudopotential read in
  partial core-charges read in
  partial kinetic energy density read in
  kinetic energy density of atom read in
  atomic valenz-charges read in
  non local Contribution for L=           0  read in
    real space projection operators read in
  non local Contribution for L=           0  read in
    real space projection operators read in
  non local Contribution for L=           1  read in
    real space projection operators read in
  non local Contribution for L=           1  read in
    real space projection operators read in
    PAW grid and wavefunctions read in
 
   number of l-projection  operators is LMAX  =           4
   number of lm-projection operators is LMMAX =           8
 
 Optimization of the real space projectors (new method)

 maximal supplied QI-value         = 14.36
 optimisation between [QCUT,QGAM] = [ 10.20, 20.39] = [ 29.12,116.47] Ry 
 Optimized for a Real-space Cutoff    1.51 Angstroem

   l    n(q)    QCUT    max X(q) W(low)/X(q) W(high)/X(q)  e(spline) 
   2      8    10.197    59.108    0.26E-03    0.14E-03    0.96E-07
   2      8    10.197    58.101    0.27E-03    0.14E-03    0.98E-07
   0      9    10.197   102.235    0.54E-04    0.60E-05    0.72E-07
   0      9    10.197    58.388    0.52E-04    0.60E-05    0.68E-07
   1      9    10.197    22.191    0.18E-03    0.25E-03    0.79E-07
   1      9    10.197    15.590    0.15E-03    0.21E-03    0.69E-07
 Optimization of the real space projectors (new method)

 maximal supplied QI-value         = 25.13
 optimisation between [QCUT,QGAM] = [ 10.05, 20.36] = [ 28.30,116.06] Ry 
 Optimized for a Real-space Cutoff    1.30 Angstroem

   l    n(q)    QCUT    max X(q) W(low)/X(q) W(high)/X(q)  e(spline) 
   0      8    10.053   115.676    0.49E-03    0.72E-03    0.18E-06
   0      8    10.053    87.132    0.49E-03    0.71E-03    0.18E-06
   1      7    10.053     4.429    0.32E-03    0.31E-03    0.18E-06
   1      7    10.053     2.733    0.23E-03    0.19E-03    0.20E-06
 Optimization of the real space projectors (new method)

 maximal supplied QI-value         = 24.76
 optimisation between [QCUT,QGAM] = [ 10.15, 20.30] = [ 28.85,115.39] Ry 
 Optimized for a Real-space Cutoff    1.38 Angstroem

   l    n(q)    QCUT    max X(q) W(low)/X(q) W(high)/X(q)  e(spline) 
   0      8    10.150    20.381    0.22E-03    0.32E-03    0.29E-06
   0      8    10.150    15.268    0.23E-03    0.35E-03    0.30E-06
   1      8    10.150     5.964    0.46E-03    0.53E-03    0.21E-06
   1      8    10.150     5.382    0.38E-03    0.45E-03    0.19E-06

 ----------------------------------------------------------------------------- 
|                                                                             |
|  ADVICE TO THIS USER RUNNING 'VASP/VAMP'   (HEAR YOUR MASTER'S VOICE ...):  |
|                                                                             |
|      You enforced a specific xc-type in the INCAR file,                     |
|      a different type was found on the POTCAR file                          |
|          I HOPE YOU KNOW, WHAT YOU ARE  DOING                               |
|                                                                             |
 ----------------------------------------------------------------------------- 

  PAW_PBE Pd 04Jan2005                  :
 energy of atom  1       EATOM= -809.7530
 kinetic energy error for atom=    0.0091 (will be added to EATOM!!)
  PAW_PBE C 08Apr2002                   :
 energy of atom  2       EATOM= -147.1560
 kinetic energy error for atom=    0.0288 (will be added to EATOM!!)
  PAW_PBE O 08Apr2002                   :
 energy of atom  3       EATOM= -432.3788
 kinetic energy error for atom=    0.1156 (will be added to EATOM!!)
 
 
 POSCAR: Pd55PES                                 
  positions in cartesian coordinates
  No initial velocities read in
 exchange correlation table for  LEXCH =        9
   RHO(1)=    0.500       N(1)  =     2000
   RHO(2)=  100.500       N(2)  =     4000
 


--------------------------------------------------------------------------------------------------------


 ion  position               nearest neighbor table
   1  0.446  0.328  0.417-   3 3.25   5 3.25   7 3.36  15 3.36  29 3.42  28 3.42
   2  0.672  0.554  0.417-  26 3.25  30 3.25  17 3.36   9 3.36  47 3.42  49 3.42
   3  0.554  0.328  0.417-   1 3.25   5 3.25   7 3.36  11 3.36  29 3.42  21 3.42
   4  0.328  0.554  0.417-  56 2.13  32 3.25  22 3.25  13 3.36   8 3.36  43 3.42  48 3.42
   5  0.500  0.383  0.340-   1 3.25   3 3.25  11 3.36  15 3.36  21 3.42  28 3.42
   6  0.500  0.383  0.660-  24 3.25  19 3.25  16 3.36  12 3.36  42 3.42  44 3.42
   7  0.500  0.276  0.500-  29 3.24   3 3.36   1 3.36  19 3.36  24 3.36
   8  0.276  0.500  0.500-  48 3.24  22 3.36  40 3.36   4 3.36  25 3.36
   9  0.724  0.500  0.500-  49 3.24  26 3.36  45 3.36   2 3.36  20 3.36
  10  0.500  0.724  0.500-  55 3.24  27 3.36  23 3.36  46 3.36  41 3.36
  11  0.612  0.388  0.342-  21 3.24   5 3.36   3 3.36  30 3.36  26 3.36
  12  0.612  0.388  0.658-  42 3.24  24 3.36  45 3.36   6 3.36  31 3.36
  13  0.388  0.612  0.342-  43 3.24  32 3.36  50 3.36   4 3.36  27 3.36
  14  0.388  0.612  0.658-  53 3.24  25 3.36  33 3.36  51 3.36  46 3.36
  15  0.388  0.388  0.342-  28 3.24   5 3.36   1 3.36  32 3.36  22 3.36
  16  0.388  0.388  0.658-  44 3.24  19 3.36  40 3.36   6 3.36  33 3.36
  17  0.612  0.612  0.342-  47 3.24  30 3.36  50 3.36   2 3.36  23 3.36
  18  0.612  0.612  0.658-  54 3.24  31 3.36  20 3.36  51 3.36  41 3.36
  19  0.446  0.328  0.583-   6 3.25  24 3.25  16 3.36   7 3.36  44 3.42  29 3.42
  20  0.672  0.554  0.583-  31 3.25  45 3.25  18 3.36   9 3.36  54 3.42  49 3.42
  21  0.558  0.442  0.418-  11 3.24   5 3.42   3 3.42  30 3.42  26 3.42
  22  0.328  0.446  0.417-   4 3.25  32 3.25   8 3.36  15 3.36  48 3.42  28 3.42
  23  0.554  0.672  0.417-  27 3.25  50 3.25  10 3.36  17 3.36  55 3.42  47 3.42
  24  0.554  0.328  0.583-   6 3.25  19 3.25  12 3.36   7 3.36  42 3.42  29 3.42
  25  0.328  0.554  0.583-  33 3.25  40 3.25  14 3.36   8 3.36  53 3.42  48 3.42
  26  0.672  0.446  0.417-   2 3.25  30 3.25   9 3.36  11 3.36  49 3.42  21 3.42
  27  0.446  0.672  0.417-  23 3.25  50 3.25  10 3.36  13 3.36  55 3.42  43 3.42
  28  0.442  0.442  0.418-  15 3.24   5 3.42   1 3.42  32 3.42  22 3.42
  29  0.500  0.384  0.500-   7 3.24   3 3.42   1 3.42  24 3.42  19 3.42
  30  0.617  0.500  0.340-   2 3.25  26 3.25  17 3.36  11 3.36  47 3.42  21 3.42
  31  0.617  0.500  0.660-  20 3.25  45 3.25  18 3.36  12 3.36  54 3.42  42 3.42
  32  0.383  0.500  0.340-   4 3.25  22 3.25  13 3.36  15 3.36  43 3.42  28 3.42
  33  0.383  0.500  0.660-  25 3.25  40 3.25  14 3.36  16 3.36  53 3.42  44 3.42
  34  0.383  0.383  0.500-
  35  0.617  0.617  0.500-
  36  0.617  0.383  0.500-
  37  0.383  0.617  0.500-
  38  0.500  0.500  0.335-
  39  0.500  0.500  0.665-
  40  0.328  0.446  0.583-  33 3.25  25 3.25  16 3.36   8 3.36  44 3.42  48 3.42
  41  0.554  0.672  0.583-  46 3.25  51 3.25  10 3.36  18 3.36  54 3.42  55 3.42
  42  0.558  0.442  0.582-  12 3.24   6 3.42  24 3.42  31 3.42  45 3.42
  43  0.442  0.558  0.418-  13 3.24   4 3.42  32 3.42  27 3.42  50 3.42
  44  0.442  0.442  0.582-  16 3.24   6 3.42  19 3.42  33 3.42  40 3.42
  45  0.672  0.446  0.583-  20 3.25  31 3.25   9 3.36  12 3.36  49 3.42  42 3.42
  46  0.446  0.672  0.583-  41 3.25  51 3.25  10 3.36  14 3.36  53 3.42  55 3.42
  47  0.558  0.558  0.418-  17 3.24   2 3.42  30 3.42  23 3.42  50 3.42
  48  0.384  0.500  0.500-   8 3.24   4 3.42  22 3.42  25 3.42  40 3.42
  49  0.616  0.500  0.500-   9 3.24   2 3.42  26 3.42  20 3.42  45 3.42
  50  0.500  0.617  0.340-  27 3.25  23 3.25  13 3.36  17 3.36  43 3.42  47 3.42
  51  0.500  0.617  0.660-  41 3.25  46 3.25  14 3.36  18 3.36  53 3.42  54 3.42
  52  0.500  0.500  0.500-
  53  0.442  0.558  0.582-  14 3.24  25 3.42  33 3.42  51 3.42  46 3.42
  54  0.558  0.558  0.582-  18 3.24  31 3.42  20 3.42  51 3.42  41 3.42
  55  0.500  0.616  0.500-  10 3.24  23 3.42  27 3.42  41 3.42  46 3.42
  56  0.261  0.578  0.417-  57 1.13   4 2.13
  57  0.227  0.589  0.405-  56 1.13
 
  LATTYP: Found a simple cubic cell.
 ALAT       =    30.0000000000
  
  Lattice vectors:
  
 A1 = (  30.0000000000,   0.0000000000,   0.0000000000)
 A2 = (   0.0000000000,  30.0000000000,   0.0000000000)
 A3 = (   0.0000000000,   0.0000000000,  30.0000000000)


Analysis of symmetry for initial positions (statically):
=====================================================================
 Subroutine PRICEL returns:
 Original cell was already a primitive cell.
 

 Routine SETGRP: Setting up the symmetry group for a 
 simple cubic supercell.


 Subroutine GETGRP returns: Found  1 space group operations
 (whereof  1 operations were pure point group operations)
 out of a pool of 48 trial point group operations.


The static configuration has the point symmetry C_1 .


Analysis of symmetry for dynamics (positions and initial velocities):
=====================================================================
 Subroutine PRICEL returns:
 Original cell was already a primitive cell.
 

 Routine SETGRP: Setting up the symmetry group for a 
 simple cubic supercell.


 Subroutine GETGRP returns: Found  1 space group operations
 (whereof  1 operations were pure point group operations)
 out of a pool of 48 trial point group operations.


The dynamic configuration has the point symmetry C_1 .


Analysis of constrained symmetry for selective dynamics:
=====================================================================
 Subroutine PRICEL returns:
 Original cell was already a primitive cell.
 

 Routine SETGRP: Setting up the symmetry group for a 
 simple cubic supercell.


 Subroutine GETGRP returns: Found  1 space group operations
 (whereof  1 operations were pure point group operations)
 out of a pool of 48 trial point group operations.


The constrained configuration has the point symmetry C_1 .


 Subroutine INISYM returns: Found  1 space group operations
 (whereof  1 operations are pure point group operations),
 and found     1 'primitive' translations

 
 
 KPOINTS: K-points                                

Automatic generation of k-mesh.
Space group operators:
 irot       det(A)        alpha          n_x          n_y          n_z        tau_x        tau_y        tau_z
    1     1.000000     0.000000     1.000000     0.000000     0.000000     0.000000     0.000000     0.000000
 
 Subroutine IBZKPT returns following result:
 ===========================================
 
 Found      1 irreducible k-points:
 
 Following reciprocal coordinates:
            Coordinates               Weight
  0.000000  0.000000  0.000000      1.000000
 
 Following cartesian coordinates:
            Coordinates               Weight
  0.000000  0.000000  0.000000      1.000000
 


--------------------------------------------------------------------------------------------------------




 Dimension of arrays:
   k-points           NKPTS =      1   k-points in BZ     NKDIM =      1   number of bands    NBANDS=    336
   number of dos      NEDOS =    301   number of ions     NIONS =     57
   non local maximal  LDIM  =      6   non local SUM 2l+1 LMDIM =     18
   total plane-waves  NPLWV = ******
   max r-space proj   IRMAX =   1847   max aug-charges    IRDMAX=   6262
   dimension x,y,z NGX =   150 NGY =  150 NGZ =  150
   dimension x,y,z NGXF=   300 NGYF=  300 NGZF=  300
   support grid    NGXF=   300 NGYF=  300 NGZF=  300
   ions per type =              55   1   1
   NGX,Y,Z   is equivalent  to a cutoff of   8.31,  8.31,  8.31 a.u.
   NGXF,Y,Z  is equivalent  to a cutoff of  16.62, 16.62, 16.62 a.u.

 SYSTEM =  6_Pd100_top_free_z(O)                   
 POSCAR =  Pd55PES                                 

 Startparameter for this run:
   NWRITE =      2    write-flag & timer
   PREC   = normal    normal or accurate (medium, high low for compatibility)
   ISTART =      0    job   : 0-new  1-cont  2-samecut
   ICHARG =      2    charge: 1-file 2-atom 10-const
   ISPIN  =      1    spin polarized calculation?
   LNONCOLLINEAR =      F non collinear calculations
   LSORBIT =      F    spin-orbit coupling
   INIWAV =      1    electr: 0-lowe 1-rand  2-diag
   LASPH  =      F    aspherical Exc in radial PAW
   METAGGA=      F    non-selfconsistent MetaGGA calc.

 Electronic Relaxation 1
   ENCUT  =  400.0 eV  29.40 Ry    5.42 a.u.  48.92 48.92 48.92*2*pi/ulx,y,z
   ENINI  =  400.0     initial cutoff
   ENAUG  =  644.9 eV  augmentation charge cutoff
   NELM   =    100;   NELMIN=  6; NELMDL= -5     # of ELM steps 
   EDIFF  = 0.1E-03   stopping-criterion for ELM
   LREAL  =      T    real-space projection
   NLSPLINE    = F    spline interpolate recip. space projectors
   LCOMPAT=      F    compatible to vasp.4.4
   GGA_COMPAT  = T    GGA compatible to vasp.4.4-vasp.4.6
   LMAXPAW     = -100 max onsite density
   LMAXMIX     =    2 max onsite mixed and CHGCAR
   VOSKOWN=      0    Vosko Wilk Nusair interpolation
   ROPT   =   -0.00050  -0.00050  -0.00050
 Ionic relaxation
   EDIFFG = -.5E-01   stopping-criterion for IOM
   NSW    =      0    number of steps for IOM
   NBLOCK =      1;   KBLOCK =      1    inner block; outer block 
   IBRION =     -1    ionic relax: 0-MD 1-quasi-New 2-CG
   NFREE  =      1    steps in history (QN), initial steepest desc. (CG)
   ISIF   =      2    stress and relaxation
   IWAVPR =     10    prediction:  0-non 1-charg 2-wave 3-comb
   ISYM   =      2    0-nonsym 1-usesym 2-fastsym
   LCORR  =      T    Harris-Foulkes like correction to forces

   POTIM  = 0.5000    time-step for ionic-motion
   TEIN   =    0.0    initial temperature
   TEBEG  =    0.0;   TEEND  =   0.0 temperature during run
   SMASS  =  -3.00    Nose mass-parameter (am)
   estimated Nose-frequenzy (Omega)   =  0.10E-29 period in steps =****** mass=  -0.206E-25a.u.
   SCALEE = 1.0000    scale energy and forces
   NPACO  =    256;   APACO  = 16.0  distance and # of slots for P.C.
   PSTRESS=    0.0 pullay stress

  Mass of Ions in am
   POMASS = 106.42 12.01 16.00
  Ionic Valenz
   ZVAL   =  10.00  4.00  6.00
  Atomic Wigner-Seitz radii
   RWIGS  =  -1.00 -1.00 -1.00
  virtual crystal weights 
   VCA    =   1.00  1.00  1.00
   NELECT =     560.0000    total number of electrons
   NUPDOWN=      -1.0000    fix difference up-down

 DOS related values:
   EMIN   =  10.00;   EMAX   =-10.00  energy-range for DOS
   EFERMI =   0.00
   ISMEAR =     2;   SIGMA  =   0.20  broadening in eV -4-tet -1-fermi 0-gaus

 Electronic relaxation 2 (details)
   IALGO  =     68    algorithm
   LDIAG  =      T    sub-space diagonalisation (order eigenvalues)
   LSUBROT=      F    optimize rotation matrix (better conditioning)
   TURBO    =      0    0=normal 1=particle mesh
   IRESTART =      0    0=no restart 2=restart with 2 vectors
   NREBOOT  =      0    no. of reboots
   NMIN     =      0    reboot dimension
   EREF     =   0.00    reference energy to select bands
   IMIX   =      4    mixing-type and parameters
     AMIX     =   0.40;   BMIX     =  1.00
     AMIX_MAG =   1.60;   BMIX_MAG =  1.00
     AMIN     =   0.10
     WC   =   100.;   INIMIX=   1;  MIXPRE=   1;  MAXMIX= -45

 Intra band minimization:
   WEIMIN = 0.0000     energy-eigenvalue tresh-hold
   EBREAK =  0.74E-07  absolut break condition
   DEPER  =   0.30     relativ break condition  

   TIME   =   0.40     timestep for ELM

  volume/ion in A,a.u.               =     473.68      3196.58
  Fermi-wavevector in a.u.,A,eV,Ry     =   0.449797  0.849992  2.752691  0.202317
  Thomas-Fermi vector in A             =   1.430086
 
 Write flags
   LWAVE        =      F    write WAVECAR
   LDOWNSAMPLE  =      F    k-point downsampling of WAVECAR
   LCHARG       =      F    write CHGCAR
   LVTOT        =      F    write LOCPOT, total local potential
   LVHAR        =      F    write LOCPOT, Hartree potential only
   LELF         =      F    write electronic localiz. function (ELF)
   LORBIT       =      0    0 simple, 1 ext, 2 COOP (PROOUT), +10 PAW based schemes


 Dipole corrections
   LMONO  =      F    monopole corrections only (constant potential shift)
   LDIPOL =      F    correct potential (dipole corrections)
   IDIPOL =      0    1-x, 2-y, 3-z, 4-all directions 
   EPSILON=  1.0000000 bulk dielectric constant

 Exchange correlation treatment:
   GGA     =    RP    GGA type
   LEXCH   =     9    internal setting for exchange type
   VOSKOWN=      0    Vosko Wilk Nusair interpolation
   LHFCALC =     F    Hartree Fock is set to
   LHFONE  =     F    Hartree Fock one center treatment
   AEXX    =    0.0000 exact exchange contribution

 Linear response parameters
   LEPSILON=     F    determine dielectric tensor
   LRPA    =     F    only Hartree local field effects (RPA)
   LNABLA  =     F    use nabla operator in PAW spheres
   LVEL    =     F    velocity operator in full k-point grid
   LINTERFAST=   F  fast interpolation
   KINTER  =     0    interpolate to denser k-point grid
   CSHIFT  =0.1000    complex shift for real part using Kramers Kronig
   OMEGAMAX=  -1.0    maximum frequency
   DEG_THRESHOLD= 0.2000000E-02 threshold for treating states as degnerate
   RTIME   =   -0.100 relaxation time in fs
  (WPLASMAI=    0.000 imaginary part of plasma frequency in eV, 0.658/RTIME)
   DFIELD  = 0.0000000 0.0000000 0.0000000 field for delta impulse in time
 
 Orbital magnetization related:
   ORBITALMAG=     F  switch on orbital magnetization
   LCHIMAG   =     F  perturbation theory with respect to B field
   DQ        =  0.001000  dq finite difference perturbation B field
   LLRAUG    =     F  two centre corrections for induced B field



--------------------------------------------------------------------------------------------------------


 Static calculation
 charge density and potential will be updated during run
 non-spin polarized calculation
 RMM-DIIS sequential band-by-band and
  variant of blocked Davidson during initial phase
 perform sub-space diagonalisation
    before iterative eigenvector-optimisation
 modified Broyden-mixing scheme, WC =      100.0
 initial mixing is a Kerker type mixing with AMIX =  0.4000 and BMIX =      1.0000
 Hartree-type preconditioning will be used
 using additional bands           56
 real space projection scheme for non local part
 use partial core corrections
 calculate Harris-corrections to forces 
   (improved forces if not selfconsistent)
 use gradient corrections 
 use of overlap-Matrix (Vanderbilt PP)
 Methfessel and Paxton  Order N= 2 SIGMA  =   0.20


--------------------------------------------------------------------------------------------------------


  energy-cutoff  :      400.00
  volume of cell :    27000.00
      direct lattice vectors                 reciprocal lattice vectors
    30.000000000  0.000000000  0.000000000     0.033333333  0.000000000  0.000000000
     0.000000000 30.000000000  0.000000000     0.000000000  0.033333333  0.000000000
     0.000000000  0.000000000 30.000000000     0.000000000  0.000000000  0.033333333

  length of vectors
    30.000000000 30.000000000 30.000000000     0.033333333  0.033333333  0.033333333


 
 k-points in units of 2pi/SCALE and weight: K-points                                
   0.00000000  0.00000000  0.00000000       1.000
 
 k-points in reciprocal lattice and weights: K-points                                
   0.00000000  0.00000000  0.00000000       1.000
 
 position of ions in fractional coordinates (direct lattice) 
   0.44576020  0.32826710  0.41691983
   0.67173288  0.55423978  0.41691983
   0.55423980  0.32826710  0.41691983
   0.32826712  0.55423978  0.41691983
   0.50000000  0.38250690  0.34021317
   0.50000000  0.38250690  0.65978680
   0.50000000  0.27609440  0.50000000
   0.27609443  0.49999998  0.50000000
   0.72390557  0.49999998  0.50000000
   0.50000000  0.72390555  0.50000000
   0.61195280  0.38804720  0.34167483
   0.61195280  0.38804720  0.65832513
   0.38804722  0.61195278  0.34167483
   0.38804722  0.61195278  0.65832513
   0.38804720  0.38804720  0.34167483
   0.38804720  0.38804720  0.65832513
   0.61195278  0.61195278  0.34167483
   0.61195278  0.61195278  0.65832513
   0.44576020  0.32826710  0.58308023
   0.67173288  0.55423978  0.58308023
   0.55791699  0.44208301  0.41809300
   0.32826705  0.44576024  0.41691983
   0.55423973  0.67173293  0.41691983
   0.55423980  0.32826710  0.58308023
   0.32826712  0.55423978  0.58308023
   0.67173295  0.44576024  0.41691983
   0.44576027  0.67173293  0.41691983
   0.44208301  0.44208301  0.41809300
   0.50000000  0.38416601  0.50000000
   0.61749315  0.50000005  0.34021317
   0.61749315  0.50000005  0.65978680
   0.38250685  0.50000005  0.34021317
   0.38250685  0.50000005  0.65978680
   0.38317830  0.38317830  0.50000000
   0.61682172  0.61682172  0.50000000
   0.61682170  0.38317830  0.50000000
   0.38317828  0.61682172  0.50000000
   0.50000000  0.50000000  0.33478917
   0.50000000  0.50000000  0.66521087
   0.32826705  0.44576024  0.58308023
   0.55423973  0.67173293  0.58308023
   0.55791699  0.44208301  0.58190703
   0.44208298  0.55791702  0.41809300
   0.44208301  0.44208301  0.58190703
   0.67173295  0.44576024  0.58308023
   0.44576027  0.67173293  0.58308023
   0.55791702  0.55791702  0.41809300
   0.38416599  0.50000002  0.50000000
   0.61583401  0.50000002  0.50000000
   0.50000000  0.61749319  0.34021317
   0.50000000  0.61749319  0.65978680
   0.50000000  0.50000000  0.50000000
   0.44208298  0.55791702  0.58190703
   0.55791702  0.55791702  0.58190703
   0.50000000  0.61583404  0.50000000
   0.26132013  0.57808447  0.41689553
   0.22739337  0.58918367  0.40508280
 
 position of ions in cartesian coordinates  (Angst):
  13.37280588  9.84801292 12.50759500
  20.15198637 16.62719342 12.50759500
  16.62719412  9.84801292 12.50759500
   9.84801363 16.62719342 12.50759500
  15.00000000 11.47520705 10.20639500
  15.00000000 11.47520705 19.79360400
  15.00000000  8.28283206 15.00000000
   8.28283277 14.99999929 15.00000000
  21.71716723 14.99999929 15.00000000
  15.00000000 21.71716652 14.99999999
  18.35858397 11.64141603 10.25024500
  18.35858397 11.64141603 19.74975399
  11.64141674 18.35858326 10.25024500
  11.64141674 18.35858326 19.74975400
  11.64141603 11.64141603 10.25024500
  11.64141603 11.64141603 19.74975400
  18.35858326 18.35858326 10.25024500
  18.35858326 18.35858326 19.74975400
  13.37280588  9.84801291 17.49240700
  20.15198638 16.62719341 17.49240700
  16.73750985 13.26249015 12.54279000
   9.84801151 13.37280729 12.50759500
  16.62719200 20.15198779 12.50759500
  16.62719412  9.84801292 17.49240700
   9.84801363 16.62719342 17.49240700
  20.15198849 13.37280729 12.50759500
  13.37280800 20.15198779 12.50759500
  13.26249015 13.26249015 12.54279000
  15.00000000 11.52498029 15.00000000
  18.52479437 15.00000140 10.20639500
  18.52479437 15.00000141 19.79360400
  11.47520562 15.00000141 10.20639501
  11.47520563 15.00000141 19.79360400
  11.49534898 11.49534898 15.00000000
  18.50465172 18.50465172 15.00000000
  18.50465102 11.49534898 15.00000000
  11.49534828 18.50465172 15.00000000
  15.00000000 15.00000000 10.04367500
  15.00000000 15.00000000 19.95632599
   9.84801151 13.37280729 17.49240700
  16.62719200 20.15198779 17.49240700
  16.73750985 13.26249015 17.45721100
  13.26248944 16.73751056 12.54279001
  13.26249015 13.26249015 17.45721100
  20.15198849 13.37280729 17.49240699
  13.37280800 20.15198779 17.49240700
  16.73751056 16.73751056 12.54279000
  11.52497959 15.00000071 15.00000000
  18.47502041 15.00000071 15.00000000
  14.99999999 18.52479579 10.20639500
  15.00000000 18.52479578 19.79360400
  15.00000000 15.00000000 15.00000000
  13.26248944 16.73751057 17.45721101
  16.73751056 16.73751057 17.45721100
  15.00000000 18.47502112 15.00000000
   7.83960400 17.34253400 12.50686600
   6.82180100 17.67551000 12.15248400
 


--------------------------------------------------------------------------------------------------------


 k-point  1 :   0.0000 0.0000 0.0000  plane waves:  490521

 maximum and minimum number of plane-waves per node :    490521   490521

 maximum number of plane-waves:    490521
 maximum index in each direction: 
   IXMAX=   48   IYMAX=   48   IZMAX=   48
   IXMIN=  -48   IYMIN=  -48   IZMIN=  -48


 serial   3D FFT for wavefunctions
 parallel 3D FFT for charge:
    minimum data exchange during FFTs selected (reduces bandwidth)


 total amount of memory used by VASP MPI-rank0  5486941. kBytes
=======================================================================

   base      :      30000. kBytes
   nonlr-proj:      17126. kBytes
   fftplans  :     924480. kBytes
   grid      :    1872000. kBytes
   one-center:        886. kBytes
   wavefun   :    2642449. kBytes
 
     INWAV:  cpu time    0.0001: real time    0.0006
 Broyden mixing: mesh for mixing (old mesh)
   NGX = 97   NGY = 97   NGZ = 97
  (NGX  =300   NGY  =300   NGZ  =300)
  gives a total of 912673 points

 initial charge density was supplied:
 charge density of overlapping atoms calculated
 number of electron     560.0000000 magnetization 
 keeping initial charge density in first step


--------------------------------------------------------------------------------------------------------


 Maximum index for non-local projection operator         1763
 Maximum index for augmentation-charges         5898 (set IRDMAX)


--------------------------------------------------------------------------------------------------------


 First call to EWALD:  gamma=   0.059
 Maximum number of real-space cells 3x 3x 3
 Maximum number of reciprocal cells 3x 3x 3

    FEWALD:  cpu time    0.0134: real time    0.0134


--------------------------------------- Iteration      1(   1)  ---------------------------------------


    POTLOK:  cpu time   14.2775: real time   14.2801
    SETDIJ:  cpu time    0.1125: real time    0.1125
     EDDAV:  cpu time  367.1223: real time  367.1956
       DOS:  cpu time    0.0012: real time    0.0012
    --------------------------------------------
      LOOP:  cpu time  381.5134: real time  381.5894

 eigenvalue-minimisations  :   688
 total energy-change (2. order) : 0.4387425E+04  (-0.1004813E+05)
 number of electron     560.0000000 magnetization 
 augmentation part      560.0000000 magnetization 

 Free energy of the ion-electron system (eV)
  ---------------------------------------------------
  alpha Z        PSCENC =        75.25431677
  Ewald energy   TEWEN  =    137770.78822966
  -Hartree energ DENC   =   -181134.96328614
  -exchange      EXHF   =         0.00000000
  -V(xc)+E(xc)   XCENC  =     -1703.45429222
  PAW double counting   =     44873.02882129   -41398.84523641
  entropy T*S    EENTRO =        -0.00371048
  eigenvalues    EBANDS =       819.11501612
  atomic energy  EATOM  =     45086.50549395
  Solvation  Ediel_sol  =         0.00000000
  ---------------------------------------------------
  free energy    TOTEN  =      4387.42535254 eV

  energy without entropy =     4387.42906302  energy(sigma->0) =     4387.42628016


--------------------------------------------------------------------------------------------------------




--------------------------------------- Iteration      1(   2)  ---------------------------------------


     EDDAV:  cpu time  590.5686: real time  590.5732
       DOS:  cpu time    0.0012: real time    0.0012
    --------------------------------------------
      LOOP:  cpu time  590.5698: real time  590.5744

 eigenvalue-minimisations  :  1224
 total energy-change (2. order) :-0.2378043E+04  (-0.2137736E+04)
 number of electron     560.0000000 magnetization 
 augmentation part      560.0000000 magnetization 

 Free energy of the ion-electron system (eV)
  ---------------------------------------------------
  alpha Z        PSCENC =        75.25431677
  Ewald energy   TEWEN  =    137770.78822966
  -Hartree energ DENC   =   -181134.96328614
  -exchange      EXHF   =         0.00000000
  -V(xc)+E(xc)   XCENC  =     -1703.45429222
  PAW double counting   =     44873.02882129   -41398.84523641
  entropy T*S    EENTRO =        -0.02475425
  eigenvalues    EBANDS =     -1558.90705873
  atomic energy  EATOM  =     45086.50549395
  Solvation  Ediel_sol  =         0.00000000
  ---------------------------------------------------
  free energy    TOTEN  =      2009.38223392 eV

  energy without entropy =     2009.40698818  energy(sigma->0) =     2009.38842248


--------------------------------------------------------------------------------------------------------




--------------------------------------- Iteration      1(   3)  ---------------------------------------


     EDDAV:  cpu time  500.1098: real time  500.1137
       DOS:  cpu time    0.0010: real time    0.0010
    --------------------------------------------
      LOOP:  cpu time  500.1108: real time  500.1147

 eigenvalue-minimisations  :  1008
 total energy-change (2. order) :-0.1781827E+04  (-0.1674653E+04)
 number of electron     560.0000000 magnetization 
 augmentation part      560.0000000 magnetization 

 Free energy of the ion-electron system (eV)
  ---------------------------------------------------
  alpha Z        PSCENC =        75.25431677
  Ewald energy   TEWEN  =    137770.78822966
  -Hartree energ DENC   =   -181134.96328614
  -exchange      EXHF   =         0.00000000
  -V(xc)+E(xc)   XCENC  =     -1703.45429222
  PAW double counting   =     44873.02882129   -41398.84523641
  entropy T*S    EENTRO =         0.04708417
  eigenvalues    EBANDS =     -3340.80572996
  atomic energy  EATOM  =     45086.50549395
  Solvation  Ediel_sol  =         0.00000000
  ---------------------------------------------------
  free energy    TOTEN  =       227.55540111 eV

  energy without entropy =      227.50831694  energy(sigma->0) =      227.54363007


--------------------------------------------------------------------------------------------------------




--------------------------------------- Iteration      1(   4)  ---------------------------------------


     EDDAV:  cpu time  425.3860: real time  425.3851
       DOS:  cpu time    0.0010: real time    0.0010
    --------------------------------------------
      LOOP:  cpu time  425.3870: real time  425.3861

 eigenvalue-minimisations  :   832
 total energy-change (2. order) :-0.3635502E+03  (-0.3106552E+03)
 number of electron     560.0000000 magnetization 
 augmentation part      560.0000000 magnetization 

 Free energy of the ion-electron system (eV)
  ---------------------------------------------------
  alpha Z        PSCENC =        75.25431677
  Ewald energy   TEWEN  =    137770.78822966
  -Hartree energ DENC   =   -181134.96328614
  -exchange      EXHF   =         0.00000000
  -V(xc)+E(xc)   XCENC  =     -1703.45429222
  PAW double counting   =     44873.02882129   -41398.84523641
  entropy T*S    EENTRO =         0.02651807
  eigenvalues    EBANDS =     -3704.33539067
  atomic energy  EATOM  =     45086.50549395
  Solvation  Ediel_sol  =         0.00000000
  ---------------------------------------------------
  free energy    TOTEN  =      -135.99482570 eV

  energy without entropy =     -136.02134377  energy(sigma->0) =     -136.00145522


--------------------------------------------------------------------------------------------------------




--------------------------------------- Iteration      1(   5)  ---------------------------------------


     EDDAV:  cpu time  517.7201: real time  517.7197
       DOS:  cpu time    0.0013: real time    0.0013
    CHARGE:  cpu time   26.2806: real time   26.2803
    MIXING:  cpu time    0.4338: real time    0.4339
    --------------------------------------------
      LOOP:  cpu time  544.4358: real time  544.4351

 eigenvalue-minimisations  :  1032
 total energy-change (2. order) :-0.4370882E+02  (-0.3558986E+02)
 number of electron     559.9999845 magnetization 
 augmentation part      245.1284374 magnetization 

 Broyden mixing:
  rms(total) = 0.14435E+01    rms(broyden)= 0.14426E+01
  rms(prec ) = 0.15494E+01
  weight for this iteration     100.00

 Free energy of the ion-electron system (eV)
  ---------------------------------------------------
  alpha Z        PSCENC =        75.25431677
  Ewald energy   TEWEN  =    137770.78822966
  -Hartree energ DENC   =   -181134.96328614
  -exchange      EXHF   =         0.00000000
  -V(xc)+E(xc)   XCENC  =     -1703.45429222
  PAW double counting   =     44873.02882129   -41398.84523641
  entropy T*S    EENTRO =         0.48908075
  eigenvalues    EBANDS =     -3748.50677340
  atomic energy  EATOM  =     45086.50549395
  Solvation  Ediel_sol  =         0.00000000
  ---------------------------------------------------
  free energy    TOTEN  =      -179.70364574 eV

  energy without entropy =     -180.19272649  energy(sigma->0) =     -179.82591593


--------------------------------------------------------------------------------------------------------




--------------------------------------- Iteration      1(   6)  ---------------------------------------


    POTLOK:  cpu time   13.2968: real time   13.2976
    SETDIJ:  cpu time    0.1179: real time    0.1179
    EDDIAG:  cpu time   66.4041: real time   66.4047
  RMM-DIIS:  cpu time  193.5873: real time  193.5925
    ORTHCH:  cpu time   12.8858: real time   12.8856
       DOS:  cpu time    0.0013: real time    0.0013
    CHARGE:  cpu time   25.3084: real time   25.3079
    MIXING:  cpu time    0.4445: real time    0.4445
    --------------------------------------------
      LOOP:  cpu time  312.0461: real time  312.0519

 eigenvalue-minimisations  :   724
 total energy-change (2. order) : 0.5242838E+00  (-0.5259658E+01)
 number of electron     559.9999876 magnetization 
 augmentation part      240.6972608 magnetization 

 Broyden mixing:
  rms(total) = 0.19234E+01    rms(broyden)= 0.19232E+01
  rms(prec ) = 0.22586E+01
  weight for this iteration     100.00

 eigenvalues of (default mixing * dielectric matrix)
  average eigenvalue GAMMA=   0.3848
  0.3848

 Free energy of the ion-electron system (eV)
  ---------------------------------------------------
  alpha Z        PSCENC =        75.25431677
  Ewald energy   TEWEN  =    137770.78822966
  -Hartree energ DENC   =   -181543.98478429
  -exchange      EXHF   =         0.00000000
  -V(xc)+E(xc)   XCENC  =     -1697.21215798
  PAW double counting   =     45630.43962395   -42129.42949974
  entropy T*S    EENTRO =        -0.03821628
  eigenvalues    EBANDS =     -3371.50236797
  atomic energy  EATOM  =     45086.50549395
  Solvation  Ediel_sol  =         0.00000000
  ---------------------------------------------------
  free energy    TOTEN  =      -179.17936192 eV

  energy without entropy =     -179.14114565  energy(sigma->0) =     -179.16980785


--------------------------------------------------------------------------------------------------------




--------------------------------------- Iteration      1(   7)  ---------------------------------------


    POTLOK:  cpu time   13.3563: real time   13.3597
    SETDIJ:  cpu time    0.1086: real time    0.1086
    EDDIAG:  cpu time   67.3018: real time   67.3020
  RMM-DIIS:  cpu time  225.8749: real time  225.8759
    ORTHCH:  cpu time   13.0044: real time   13.0042
       DOS:  cpu time    0.0012: real time    0.0012
    CHARGE:  cpu time   25.8484: real time   25.8481
    MIXING:  cpu time    0.4681: real time    0.4681
    --------------------------------------------
      LOOP:  cpu time  345.9638: real time  345.9677

 eigenvalue-minimisations  :   851
 total energy-change (2. order) :-0.4594326E+01  (-0.1691230E+01)
 number of electron     559.9999841 magnetization 
 augmentation part      240.0253075 magnetization 

 Broyden mixing:
  rms(total) = 0.27059E+01    rms(broyden)= 0.27057E+01
  rms(prec ) = 0.33449E+01
  weight for this iteration     100.00

 eigenvalues of (default mixing * dielectric matrix)
  average eigenvalue GAMMA=   0.3105
  0.4931  0.1278

 Free energy of the ion-electron system (eV)
  ---------------------------------------------------
  alpha Z        PSCENC =        75.25431677
  Ewald energy   TEWEN  =    137770.78822966
  -Hartree energ DENC   =   -181634.84738323
  -exchange      EXHF   =         0.00000000
  -V(xc)+E(xc)   XCENC  =     -1697.33347468
  PAW double counting   =     45705.78619480   -42201.65803167
  entropy T*S    EENTRO =        -0.04929339
  eigenvalues    EBANDS =     -3288.21974026
  atomic energy  EATOM  =     45086.50549395
  Solvation  Ediel_sol  =         0.00000000
  ---------------------------------------------------
  free energy    TOTEN  =      -183.77368806 eV

  energy without entropy =     -183.72439467  energy(sigma->0) =     -183.76136471


--------------------------------------------------------------------------------------------------------




--------------------------------------- Iteration      1(   8)  ---------------------------------------


    POTLOK:  cpu time   13.2172: real time   13.2193
    SETDIJ:  cpu time    0.1129: real time    0.1129
    EDDIAG:  cpu time   66.7247: real time   66.7260
  RMM-DIIS:  cpu time  217.0491: real time  217.0531
    ORTHCH:  cpu time   12.5694: real time   12.5693
       DOS:  cpu time    0.0012: real time    0.0012
    CHARGE:  cpu time   25.2690: real time   25.2686
    MIXING:  cpu time    0.5201: real time    0.5201
    --------------------------------------------
      LOOP:  cpu time  335.4636: real time  335.4705

 eigenvalue-minimisations  :   809
 total energy-change (2. order) : 0.9970447E+00  (-0.6210107E+00)
 number of electron     559.9999836 magnetization 
 augmentation part      240.2393807 magnetization 

 Broyden mixing:
  rms(total) = 0.23140E+01    rms(broyden)= 0.23136E+01
  rms(prec ) = 0.26623E+01
  weight for this iteration     100.00

 eigenvalues of (default mixing * dielectric matrix)
  average eigenvalue GAMMA=   0.3151
  0.6749  0.1391  0.1312

 Free energy of the ion-electron system (eV)
  ---------------------------------------------------
  alpha Z        PSCENC =        75.25431677
  Ewald energy   TEWEN  =    137770.78822966
  -Hartree energ DENC   =   -181665.73256246
  -exchange      EXHF   =         0.00000000
  -V(xc)+E(xc)   XCENC  =     -1697.40190756
  PAW double counting   =     45751.18205171   -42245.23993778
  entropy T*S    EENTRO =        -0.17544552
  eigenvalues    EBANDS =     -3257.95688211
  atomic energy  EATOM  =     45086.50549395
  Solvation  Ediel_sol  =         0.00000000
  ---------------------------------------------------
  free energy    TOTEN  =      -182.77664334 eV

  energy without entropy =     -182.60119782  energy(sigma->0) =     -182.73278196


--------------------------------------------------------------------------------------------------------




--------------------------------------- Iteration      1(   9)  ---------------------------------------


    POTLOK:  cpu time   13.3723: real time   13.3731
    SETDIJ:  cpu time    0.1123: real time    0.1123
    EDDIAG:  cpu time   65.2033: real time   65.2029
  RMM-DIIS:  cpu time  195.8986: real time  195.9010
    ORTHCH:  cpu time   12.3467: real time   12.3466
       DOS:  cpu time    0.0012: real time    0.0012
    CHARGE:  cpu time   25.2540: real time   25.2538
    MIXING:  cpu time    0.5473: real time    0.5473
    --------------------------------------------
      LOOP:  cpu time  312.7357: real time  312.7381

 eigenvalue-minimisations  :   726
 total energy-change (2. order) : 0.1811321E+01  (-0.5327161E+00)
 number of electron     559.9999840 magnetization 
 augmentation part      241.1771265 magnetization 

 Broyden mixing:
  rms(total) = 0.24410E+01    rms(broyden)= 0.24407E+01
  rms(prec ) = 0.29143E+01
  weight for this iteration     100.00

 eigenvalues of (default mixing * dielectric matrix)
  average eigenvalue GAMMA=   0.2881
  0.7490  0.1507  0.1507  0.1019

 Free energy of the ion-electron system (eV)
  ---------------------------------------------------
  alpha Z        PSCENC =        75.25431677
  Ewald energy   TEWEN  =    137770.78822966
  -Hartree energ DENC   =   -181681.24939162
  -exchange      EXHF   =         0.00000000
  -V(xc)+E(xc)   XCENC  =     -1697.33930598
  PAW double counting   =     45816.70116839   -42308.03870727
  entropy T*S    EENTRO =        -0.00560767
  eigenvalues    EBANDS =     -3243.58151840
  atomic energy  EATOM  =     45086.50549395
  Solvation  Ediel_sol  =         0.00000000
  ---------------------------------------------------
  free energy    TOTEN  =      -180.96532217 eV

  energy without entropy =     -180.95971450  energy(sigma->0) =     -180.96392026


--------------------------------------------------------------------------------------------------------




--------------------------------------- Iteration      1(  10)  ---------------------------------------


    POTLOK:  cpu time   13.2918: real time   13.2926
    SETDIJ:  cpu time    0.1070: real time    0.1070
    EDDIAG:  cpu time   65.1752: real time   65.1757
  RMM-DIIS:  cpu time  200.1358: real time  200.1359
    ORTHCH:  cpu time   12.9318: real time   12.9316
       DOS:  cpu time    0.0012: real time    0.0012
    CHARGE:  cpu time   25.0781: real time   25.0781
    MIXING:  cpu time    0.5599: real time    0.5599
    --------------------------------------------
      LOOP:  cpu time  317.2808: real time  317.2820

 eigenvalue-minimisations  :   746
 total energy-change (2. order) : 0.1296624E+01  (-0.2322831E+00)
 number of electron     559.9999815 magnetization 
 augmentation part      241.3236422 magnetization 

 Broyden mixing:
  rms(total) = 0.20857E+01    rms(broyden)= 0.20853E+01
  rms(prec ) = 0.24491E+01
  weight for this iteration     100.00

 eigenvalues of (default mixing * dielectric matrix)
  average eigenvalue GAMMA=   0.2742
  0.8324  0.1661  0.1661  0.1321  0.0743

 Free energy of the ion-electron system (eV)
  ---------------------------------------------------
  alpha Z        PSCENC =        75.25431677
  Ewald energy   TEWEN  =    137770.78822966
  -Hartree energ DENC   =   -181708.19715748
  -exchange      EXHF   =         0.00000000
  -V(xc)+E(xc)   XCENC  =     -1697.22062377
  PAW double counting   =     45851.08115808   -42340.98922123
  entropy T*S    EENTRO =        -0.14693674
  eigenvalues    EBANDS =     -3216.74395778
  atomic energy  EATOM  =     45086.50549395
  Solvation  Ediel_sol  =         0.00000000
  ---------------------------------------------------
  free energy    TOTEN  =      -179.66869855 eV

  energy without entropy =     -179.52176180  energy(sigma->0) =     -179.63196436


--------------------------------------------------------------------------------------------------------




--------------------------------------- Iteration      1(  11)  ---------------------------------------


    POTLOK:  cpu time   12.9132: real time   12.9159
    SETDIJ:  cpu time    0.1102: real time    0.1102
    EDDIAG:  cpu time   65.8944: real time   65.8962
  RMM-DIIS:  cpu time  192.5344: real time  192.5366
    ORTHCH:  cpu time   12.9926: real time   12.9925
       DOS:  cpu time    0.0013: real time    0.0013
    CHARGE:  cpu time   25.7526: real time   25.7521
    MIXING:  cpu time    0.5732: real time    0.5731
    --------------------------------------------
      LOOP:  cpu time  310.7718: real time  310.7779

 eigenvalue-minimisations  :   725
 total energy-change (2. order) : 0.1805912E+01  (-0.2161380E+00)
 number of electron     559.9999849 magnetization 
 augmentation part      241.4260642 magnetization 

 Broyden mixing:
  rms(total) = 0.17897E+01    rms(broyden)= 0.17893E+01
  rms(prec ) = 0.21150E+01
  weight for this iteration     100.00

 eigenvalues of (default mixing * dielectric matrix)
  average eigenvalue GAMMA=   0.2619
  0.9005  0.1830  0.1647  0.1647  0.0792  0.0792

 Free energy of the ion-electron system (eV)
  ---------------------------------------------------
  alpha Z        PSCENC =        75.25431677
  Ewald energy   TEWEN  =    137770.78822966
  -Hartree energ DENC   =   -181733.43639512
  -exchange      EXHF   =         0.00000000
  -V(xc)+E(xc)   XCENC  =     -1697.03278770
  PAW double counting   =     45891.43491369   -42379.61102936
  entropy T*S    EENTRO =        -0.10123684
  eigenvalues    EBANDS =     -3191.66429179
  atomic energy  EATOM  =     45086.50549395
  Solvation  Ediel_sol  =         0.00000000
  ---------------------------------------------------
  free energy    TOTEN  =      -177.86278674 eV

  energy without entropy =     -177.76154990  energy(sigma->0) =     -177.83747753


--------------------------------------------------------------------------------------------------------




--------------------------------------- Iteration      1(  12)  ---------------------------------------


    POTLOK:  cpu time   12.9029: real time   12.9037
    SETDIJ:  cpu time    0.1150: real time    0.1150
    EDDIAG:  cpu time   65.7470: real time   65.7463
  RMM-DIIS:  cpu time  195.1965: real time  195.1992
    ORTHCH:  cpu time   12.7581: real time   12.7578
       DOS:  cpu time    0.0014: real time    0.0014
    CHARGE:  cpu time   25.1648: real time   25.1646
    MIXING:  cpu time    0.6537: real time    0.6537
    --------------------------------------------
      LOOP:  cpu time  312.5393: real time  312.5417

 eigenvalue-minimisations  :   726
 total energy-change (2. order) : 0.1120021E+01  (-0.1337609E+00)
 number of electron     559.9999856 magnetization 
 augmentation part      241.7376116 magnetization 

 Broyden mixing:
  rms(total) = 0.13882E+01    rms(broyden)= 0.13878E+01
  rms(prec ) = 0.16242E+01
  weight for this iteration     100.00

 eigenvalues of (default mixing * dielectric matrix)
  average eigenvalue GAMMA=   0.2618
  0.9641  0.2259  0.2259  0.1334  0.1093  0.1093  0.0645

 Free energy of the ion-electron system (eV)
  ---------------------------------------------------
  alpha Z        PSCENC =        75.25431677
  Ewald energy   TEWEN  =    137770.78822966
  -Hartree energ DENC   =   -181742.14648446
  -exchange      EXHF   =         0.00000000
  -V(xc)+E(xc)   XCENC  =     -1696.82425810
  PAW double counting   =     45921.83928863   -42408.57512344
  entropy T*S    EENTRO =        -0.10359389
  eigenvalues    EBANDS =     -3183.48063501
  atomic energy  EATOM  =     45086.50549395
  Solvation  Ediel_sol  =         0.00000000
  ---------------------------------------------------
  free energy    TOTEN  =      -176.74276589 eV

  energy without entropy =     -176.63917200  energy(sigma->0) =     -176.71686742


--------------------------------------------------------------------------------------------------------




--------------------------------------- Iteration      1(  13)  ---------------------------------------


    POTLOK:  cpu time   12.8386: real time   12.8392
    SETDIJ:  cpu time    0.1089: real time    0.1088
    EDDIAG:  cpu time   64.6489: real time   64.6500
  RMM-DIIS:  cpu time  192.3970: real time  192.4009
    ORTHCH:  cpu time   12.4110: real time   12.4108
       DOS:  cpu time    0.0013: real time    0.0013
    CHARGE:  cpu time   25.0965: real time   25.0962
    MIXING:  cpu time    0.6844: real time    0.6844
    --------------------------------------------
      LOOP:  cpu time  308.1866: real time  308.1916

 eigenvalue-minimisations  :   721
 total energy-change (2. order) : 0.1072014E+00  (-0.1092621E+00)
 number of electron     559.9999851 magnetization 
 augmentation part      241.5964731 magnetization 

 Broyden mixing:
  rms(total) = 0.18057E+01    rms(broyden)= 0.18054E+01
  rms(prec ) = 0.20893E+01
  weight for this iteration     100.00

 eigenvalues of (default mixing * dielectric matrix)
  average eigenvalue GAMMA=   0.2813
  1.1107  0.3978  0.2589  0.1106  0.1106  0.1124  0.0897  0.0597

 Free energy of the ion-electron system (eV)
  ---------------------------------------------------
  alpha Z        PSCENC =        75.25431677
  Ewald energy   TEWEN  =    137770.78822966
  -Hartree energ DENC   =   -181771.48097288
  -exchange      EXHF   =         0.00000000
  -V(xc)+E(xc)   XCENC  =     -1696.49400165
  PAW double counting   =     45960.39415192   -42445.25260730
  entropy T*S    EENTRO =        -0.03863786
  eigenvalues    EBANDS =     -3156.31153706
  atomic energy  EATOM  =     45086.50549395
  Solvation  Ediel_sol  =         0.00000000
  ---------------------------------------------------
  free energy    TOTEN  =      -176.63556446 eV

  energy without entropy =     -176.59692660  energy(sigma->0) =     -176.62590499


--------------------------------------------------------------------------------------------------------




--------------------------------------- Iteration      1(  14)  ---------------------------------------


    POTLOK:  cpu time   12.9162: real time   12.9172
    SETDIJ:  cpu time    0.1100: real time    0.1100
    EDDIAG:  cpu time   65.8297: real time   65.8292
  RMM-DIIS:  cpu time  185.4827: real time  185.4846
    ORTHCH:  cpu time   12.1875: real time   12.1873
       DOS:  cpu time    0.0013: real time    0.0013
    CHARGE:  cpu time   24.2317: real time   24.2314
    MIXING:  cpu time    0.7054: real time    0.7063
    --------------------------------------------
      LOOP:  cpu time  301.4645: real time  301.4673

 eigenvalue-minimisations  :   719
 total energy-change (2. order) :-0.1650005E-01  (-0.1328104E+00)
 number of electron     559.9999845 magnetization 
 augmentation part      241.2164024 magnetization 

 Broyden mixing:
  rms(total) = 0.15801E+01    rms(broyden)= 0.15798E+01
  rms(prec ) = 0.18598E+01
  weight for this iteration     100.00

 eigenvalues of (default mixing * dielectric matrix)
  average eigenvalue GAMMA=   0.2947
  1.2868  0.5270  0.2271  0.1167  0.1167  0.1391  0.1087  0.0746  0.0558

 Free energy of the ion-electron system (eV)
  ---------------------------------------------------
  alpha Z        PSCENC =        75.25431677
  Ewald energy   TEWEN  =    137770.78822966
  -Hartree energ DENC   =   -181818.65524087
  -exchange      EXHF   =         0.00000000
  -V(xc)+E(xc)   XCENC  =     -1695.94576229
  PAW double counting   =     46023.81857597   -42505.55556735
  entropy T*S    EENTRO =        -0.02470150
  eigenvalues    EBANDS =     -3112.83740885
  atomic energy  EATOM  =     45086.50549395
  Solvation  Ediel_sol  =         0.00000000
  ---------------------------------------------------
  free energy    TOTEN  =      -176.65206451 eV

  energy without entropy =     -176.62736302  energy(sigma->0) =     -176.64588914


--------------------------------------------------------------------------------------------------------




--------------------------------------- Iteration      1(  15)  ---------------------------------------


    POTLOK:  cpu time   12.6492: real time   12.6559
    SETDIJ:  cpu time    0.1068: real time    0.1068
    EDDIAG:  cpu time   64.6540: real time   64.6579
  RMM-DIIS:  cpu time  187.8098: real time  187.8253
    ORTHCH:  cpu time   12.6482: real time   12.6482
       DOS:  cpu time    0.0013: real time    0.0013
    CHARGE:  cpu time   24.6182: real time   24.6193
    MIXING:  cpu time    0.7556: real time    0.7556
    --------------------------------------------
      LOOP:  cpu time  303.2431: real time  303.2702

 eigenvalue-minimisations  :   714
 total energy-change (2. order) : 0.2117792E+00  (-0.9755785E-01)
 number of electron     559.9999862 magnetization 
 augmentation part      241.2141419 magnetization 

 Broyden mixing:
  rms(total) = 0.16096E+01    rms(broyden)= 0.16093E+01
  rms(prec ) = 0.19232E+01
  weight for this iteration     100.00

 eigenvalues of (default mixing * dielectric matrix)
  average eigenvalue GAMMA=   0.2946
  1.3963  0.6115  0.1903  0.1903  0.1114  0.1114  0.1289  0.0903  0.0579  0.0579

 Free energy of the ion-electron system (eV)
  ---------------------------------------------------
  alpha Z        PSCENC =        75.25431677
  Ewald energy   TEWEN  =    137770.78822966
  -Hartree energ DENC   =   -181846.83831030
  -exchange      EXHF   =         0.00000000
  -V(xc)+E(xc)   XCENC  =     -1695.47451147
  PAW double counting   =     46070.59287456   -42549.96393859
  entropy T*S    EENTRO =        -0.00182840
  eigenvalues    EBANDS =     -3087.30261150
  atomic energy  EATOM  =     45086.50549395
  Solvation  Ediel_sol  =         0.00000000
  ---------------------------------------------------
  free energy    TOTEN  =      -176.44028532 eV

  energy without entropy =     -176.43845692  energy(sigma->0) =     -176.43982822


--------------------------------------------------------------------------------------------------------




--------------------------------------- Iteration      1(  16)  ---------------------------------------


    POTLOK:  cpu time   12.8362: real time   12.8372
    SETDIJ:  cpu time    0.1064: real time    0.1064
    EDDIAG:  cpu time   64.7951: real time   64.7991
  RMM-DIIS:  cpu time  189.7524: real time  189.7625
    ORTHCH:  cpu time   12.4778: real time   12.4789
       DOS:  cpu time    0.0014: real time    0.0014
    CHARGE:  cpu time   25.0608: real time   25.0608
    MIXING:  cpu time    0.8437: real time    0.8437
    --------------------------------------------
      LOOP:  cpu time  305.8738: real time  305.8900

 eigenvalue-minimisations  :   723
 total energy-change (2. order) : 0.1425782E+00  (-0.6454176E-01)
 number of electron     559.9999855 magnetization 
 augmentation part      241.1204443 magnetization 

 Broyden mixing:
  rms(total) = 0.15254E+01    rms(broyden)= 0.15251E+01
  rms(prec ) = 0.18489E+01
  weight for this iteration     100.00

 eigenvalues of (default mixing * dielectric matrix)
  average eigenvalue GAMMA=   0.2982
  1.5012  0.6957  0.2345  0.2345  0.1112  0.1112  0.1008  0.1008  0.0784  0.0640
  0.0485

 Free energy of the ion-electron system (eV)
  ---------------------------------------------------
  alpha Z        PSCENC =        75.25431677
  Ewald energy   TEWEN  =    137770.78822966
  -Hartree energ DENC   =   -181868.89320271
  -exchange      EXHF   =         0.00000000
  -V(xc)+E(xc)   XCENC  =     -1695.19112027
  PAW double counting   =     46098.33679340   -42576.20133276
  entropy T*S    EENTRO =        -0.02800212
  eigenvalues    EBANDS =     -3066.86888303
  atomic energy  EATOM  =     45086.50549395
  Solvation  Ediel_sol  =         0.00000000
  ---------------------------------------------------
  free energy    TOTEN  =      -176.29770712 eV

  energy without entropy =     -176.26970500  energy(sigma->0) =     -176.29070659


--------------------------------------------------------------------------------------------------------




--------------------------------------- Iteration      1(  17)  ---------------------------------------


    POTLOK:  cpu time   13.1380: real time   13.1389
    SETDIJ:  cpu time    0.1129: real time    0.1129
    EDDIAG:  cpu time   66.3037: real time   66.3076
  RMM-DIIS:  cpu time  186.9779: real time  186.9940
    ORTHCH:  cpu time   12.7691: real time   12.7703
       DOS:  cpu time    0.0013: real time    0.0013
    CHARGE:  cpu time   24.7958: real time   24.7981
    MIXING:  cpu time    0.8657: real time    0.8657
    --------------------------------------------
      LOOP:  cpu time  304.9644: real time  304.9887

 eigenvalue-minimisations  :   712
 total energy-change (2. order) : 0.3257847E+00  (-0.5490626E-01)
 number of electron     559.9999855 magnetization 
 augmentation part      241.1116904 magnetization 

 Broyden mixing:
  rms(total) = 0.13704E+01    rms(broyden)= 0.13701E+01
  rms(prec ) = 0.15792E+01
  weight for this iteration     100.00

 eigenvalues of (default mixing * dielectric matrix)
  average eigenvalue GAMMA=   0.3108
  1.6330  0.8063  0.2929  0.2929  0.1095  0.1095  0.1056  0.1056  0.0985  0.0722
  0.0598  0.0444

 Free energy of the ion-electron system (eV)
  ---------------------------------------------------
  alpha Z        PSCENC =        75.25431677
  Ewald energy   TEWEN  =    137770.78822966
  -Hartree energ DENC   =   -181886.15509498
  -exchange      EXHF   =         0.00000000
  -V(xc)+E(xc)   XCENC  =     -1694.94722521
  PAW double counting   =     46121.02615366   -42597.61093879
  entropy T*S    EENTRO =        -0.00625191
  eigenvalues    EBANDS =     -3050.82660557
  atomic energy  EATOM  =     45086.50549395
  Solvation  Ediel_sol  =         0.00000000
  ---------------------------------------------------
  free energy    TOTEN  =      -175.97192243 eV

  energy without entropy =     -175.96567052  energy(sigma->0) =     -175.97035945


--------------------------------------------------------------------------------------------------------




--------------------------------------- Iteration      1(  18)  ---------------------------------------


    POTLOK:  cpu time   12.7294: real time   12.7341
    SETDIJ:  cpu time    0.1120: real time    0.1120
    EDDIAG:  cpu time   64.7862: real time   64.7934
  RMM-DIIS:  cpu time  185.8187: real time  185.8232
    ORTHCH:  cpu time   12.4472: real time   12.4482
       DOS:  cpu time    0.0013: real time    0.0013
    CHARGE:  cpu time   25.0455: real time   25.0454
    MIXING:  cpu time    0.9518: real time    0.9518
    --------------------------------------------
      LOOP:  cpu time  301.8920: real time  301.9094

 eigenvalue-minimisations  :   706
 total energy-change (2. order) : 0.3564001E+00  (-0.5516585E-01)
 number of electron     559.9999857 magnetization 
 augmentation part      241.0839226 magnetization 

 Broyden mixing:
  rms(total) = 0.10395E+01    rms(broyden)= 0.10393E+01
  rms(prec ) = 0.11982E+01
  weight for this iteration     100.00

 eigenvalues of (default mixing * dielectric matrix)
  average eigenvalue GAMMA=   0.3193
  1.7205  0.9093  0.3457  0.3457  0.1332  0.1332  0.1001  0.1001  0.1005  0.0803
  0.0803  0.0581  0.0440

 Free energy of the ion-electron system (eV)
  ---------------------------------------------------
  alpha Z        PSCENC =        75.25431677
  Ewald energy   TEWEN  =    137770.78822966
  -Hartree energ DENC   =   -181908.82476036
  -exchange      EXHF   =         0.00000000
  -V(xc)+E(xc)   XCENC  =     -1694.68047726
  PAW double counting   =     46143.92652384   -42619.07755558
  entropy T*S    EENTRO =        -0.00753550
  eigenvalues    EBANDS =     -3029.49975783
  atomic energy  EATOM  =     45086.50549395
  Solvation  Ediel_sol  =         0.00000000
  ---------------------------------------------------
  free energy    TOTEN  =      -175.61552230 eV

  energy without entropy =     -175.60798680  energy(sigma->0) =     -175.61363843


--------------------------------------------------------------------------------------------------------




--------------------------------------- Iteration      1(  19)  ---------------------------------------


    POTLOK:  cpu time   12.8529: real time   12.8571
    SETDIJ:  cpu time    0.1112: real time    0.1112
    EDDIAG:  cpu time   65.9621: real time   65.9704
  RMM-DIIS:  cpu time  182.0087: real time  182.0226
    ORTHCH:  cpu time   12.4621: real time   12.4633
       DOS:  cpu time    0.0013: real time    0.0013
    CHARGE:  cpu time   24.7821: real time   24.7821
    MIXING:  cpu time    1.0042: real time    1.0042
    --------------------------------------------
      LOOP:  cpu time  299.1846: real time  299.2121

 eigenvalue-minimisations  :   701
 total energy-change (2. order) : 0.1331641E+00  (-0.3756240E-01)
 number of electron     559.9999861 magnetization 
 augmentation part      241.1552908 magnetization 

 Broyden mixing:
  rms(total) = 0.99221E+00    rms(broyden)= 0.99202E+00
  rms(prec ) = 0.11439E+01
  weight for this iteration     100.00

 eigenvalues of (default mixing * dielectric matrix)
  average eigenvalue GAMMA=   0.3277
  1.8105  1.0653  0.3767  0.3767  0.1539  0.1539  0.1019  0.1019  0.1002  0.1002
  0.0728  0.0728  0.0578  0.0438

 Free energy of the ion-electron system (eV)
  ---------------------------------------------------
  alpha Z        PSCENC =        75.25431677
  Ewald energy   TEWEN  =    137770.78822966
  -Hartree energ DENC   =   -181923.29477840
  -exchange      EXHF   =         0.00000000
  -V(xc)+E(xc)   XCENC  =     -1694.53545110
  PAW double counting   =     46152.72766934   -42627.06145410
  entropy T*S    EENTRO =        -0.01387076
  eigenvalues    EBANDS =     -3015.85251353
  atomic energy  EATOM  =     45086.50549395
  Solvation  Ediel_sol  =         0.00000000
  ---------------------------------------------------
  free energy    TOTEN  =      -175.48235818 eV

  energy without entropy =     -175.46848742  energy(sigma->0) =     -175.47889049


--------------------------------------------------------------------------------------------------------




--------------------------------------- Iteration      1(  20)  ---------------------------------------


    POTLOK:  cpu time   12.7536: real time   12.7575
    SETDIJ:  cpu time    0.1079: real time    0.1079
    EDDIAG:  cpu time   65.1436: real time   65.1489
  RMM-DIIS:  cpu time  178.2148: real time  178.2204
    ORTHCH:  cpu time   12.3630: real time   12.3629
       DOS:  cpu time    0.0013: real time    0.0013
    CHARGE:  cpu time   24.6680: real time   24.6677
    MIXING:  cpu time    1.0284: real time    1.0284
    --------------------------------------------
      LOOP:  cpu time  294.2805: real time  294.2950

 eigenvalue-minimisations  :   706
 total energy-change (2. order) : 0.1726571E+00  (-0.3305136E-01)
 number of electron     559.9999844 magnetization 
 augmentation part      241.1203171 magnetization 

 Broyden mixing:
  rms(total) = 0.89205E+00    rms(broyden)= 0.89184E+00
  rms(prec ) = 0.10371E+01
  weight for this iteration     100.00

 eigenvalues of (default mixing * dielectric matrix)
  average eigenvalue GAMMA=   0.3321
  1.9382  1.1543  0.3837  0.3837  0.1801  0.1801  0.1049  0.1049  0.1141  0.1141
  0.0816  0.0707  0.0707  0.0571  0.0436

 Free energy of the ion-electron system (eV)
  ---------------------------------------------------
  alpha Z        PSCENC =        75.25431677
  Ewald energy   TEWEN  =    137770.78822966
  -Hartree energ DENC   =   -181944.90027342
  -exchange      EXHF   =         0.00000000
  -V(xc)+E(xc)   XCENC  =     -1694.34431787
  PAW double counting   =     46161.68589769   -42635.03403256
  entropy T*S    EENTRO =        -0.07781586
  eigenvalues    EBANDS =     -2995.18719943
  atomic energy  EATOM  =     45086.50549395
  Solvation  Ediel_sol  =         0.00000000
  ---------------------------------------------------
  free energy    TOTEN  =      -175.30970108 eV

  energy without entropy =     -175.23188521  energy(sigma->0) =     -175.29024711


--------------------------------------------------------------------------------------------------------




--------------------------------------- Iteration      1(  21)  ---------------------------------------


    POTLOK:  cpu time   12.5046: real time   12.5071
    SETDIJ:  cpu time    0.1132: real time    0.1132
    EDDIAG:  cpu time   64.3441: real time   64.3445
  RMM-DIIS:  cpu time  181.1672: real time  181.1715
    ORTHCH:  cpu time   12.5060: real time   12.5057
       DOS:  cpu time    0.0013: real time    0.0013
    CHARGE:  cpu time   24.7734: real time   24.7729
    MIXING:  cpu time    1.1142: real time    1.1142
    --------------------------------------------
      LOOP:  cpu time  296.5239: real time  296.5305

 eigenvalue-minimisations  :   700
 total energy-change (2. order) : 0.1297454E+00  (-0.2599463E-01)
 number of electron     559.9999845 magnetization 
 augmentation part      241.1555744 magnetization 

 Broyden mixing:
  rms(total) = 0.81152E+00    rms(broyden)= 0.81135E+00
  rms(prec ) = 0.92938E+00
  weight for this iteration     100.00

 eigenvalues of (default mixing * dielectric matrix)
  average eigenvalue GAMMA=   0.3335
  2.0621  1.1845  0.4045  0.3254  0.3254  0.1629  0.1229  0.1229  0.1047  0.1047
  0.0992  0.0786  0.0786  0.0606  0.0557  0.0436

 Free energy of the ion-electron system (eV)
  ---------------------------------------------------
  alpha Z        PSCENC =        75.25431677
  Ewald energy   TEWEN  =    137770.78822966
  -Hartree energ DENC   =   -181962.15977618
  -exchange      EXHF   =         0.00000000
  -V(xc)+E(xc)   XCENC  =     -1694.15026444
  PAW double counting   =     46167.43888774   -42639.91721607
  entropy T*S    EENTRO =        -0.08854480
  eigenvalues    EBANDS =     -2978.85108230
  atomic energy  EATOM  =     45086.50549395
  Solvation  Ediel_sol  =         0.00000000
  ---------------------------------------------------
  free energy    TOTEN  =      -175.17995567 eV

  energy without entropy =     -175.09141087  energy(sigma->0) =     -175.15781947


--------------------------------------------------------------------------------------------------------




--------------------------------------- Iteration      1(  22)  ---------------------------------------


    POTLOK:  cpu time   12.7846: real time   12.7879
    SETDIJ:  cpu time    0.1065: real time    0.1065
    EDDIAG:  cpu time   65.6689: real time   65.6689
  RMM-DIIS:  cpu time  181.3198: real time  181.3183
    ORTHCH:  cpu time   12.4574: real time   12.4573
       DOS:  cpu time    0.0013: real time    0.0013
    CHARGE:  cpu time   24.7087: real time   24.7084
    MIXING:  cpu time    1.2037: real time    1.2037
    --------------------------------------------
      LOOP:  cpu time  298.2510: real time  298.2523

 eigenvalue-minimisations  :   698
 total energy-change (2. order) : 0.1386246E+00  (-0.1632488E-01)
 number of electron     559.9999844 magnetization 
 augmentation part      241.1353223 magnetization 

 Broyden mixing:
  rms(total) = 0.61359E+00    rms(broyden)= 0.61343E+00
  rms(prec ) = 0.70064E+00
  weight for this iteration     100.00

 eigenvalues of (default mixing * dielectric matrix)
  average eigenvalue GAMMA=   0.3396
  2.1787  1.1829  0.5850  0.3338  0.3338  0.1699  0.1404  0.1404  0.1023  0.1023
  0.1085  0.0808  0.0808  0.0733  0.0613  0.0558  0.0436

 Free energy of the ion-electron system (eV)
  ---------------------------------------------------
  alpha Z        PSCENC =        75.25431677
  Ewald energy   TEWEN  =    137770.78822966
  -Hartree energ DENC   =   -181976.52664084
  -exchange      EXHF   =         0.00000000
  -V(xc)+E(xc)   XCENC  =     -1693.97492323
  PAW double counting   =     46171.20555319   -42642.99778574
  entropy T*S    EENTRO =        -0.08742313
  eigenvalues    EBANDS =     -2965.20815165
  atomic energy  EATOM  =     45086.50549395
  Solvation  Ediel_sol  =         0.00000000
  ---------------------------------------------------
  free energy    TOTEN  =      -175.04133103 eV

  energy without entropy =     -174.95390789  energy(sigma->0) =     -175.01947524


--------------------------------------------------------------------------------------------------------




--------------------------------------- Iteration      1(  23)  ---------------------------------------


    POTLOK:  cpu time   12.7555: real time   12.7584
    SETDIJ:  cpu time    0.1123: real time    0.1123
    EDDIAG:  cpu time   65.9742: real time   65.9743
  RMM-DIIS:  cpu time  182.7471: real time  182.7491
    ORTHCH:  cpu time   12.6398: real time   12.6395
       DOS:  cpu time    0.0013: real time    0.0013
    CHARGE:  cpu time   25.2759: real time   25.2754
    MIXING:  cpu time    1.2029: real time    1.2029
    --------------------------------------------
      LOOP:  cpu time  300.7090: real time  300.7131

 eigenvalue-minimisations  :   699
 total energy-change (2. order) : 0.8510808E-01  (-0.1189655E-01)
 number of electron     559.9999850 magnetization 
 augmentation part      241.1669803 magnetization 

 Broyden mixing:
  rms(total) = 0.51617E+00    rms(broyden)= 0.51604E+00
  rms(prec ) = 0.60000E+00
  weight for this iteration     100.00

 eigenvalues of (default mixing * dielectric matrix)
  average eigenvalue GAMMA=   0.3396
  2.2050  1.2274  0.6160  0.3608  0.3608  0.2353  0.1466  0.1466  0.1041  0.1041
[...]
 -0.006  -0.012   0.004   0.004   0.005  -0.006  -0.012   0.004
 -0.011  -0.020   0.006   0.007   0.009  -0.011  -0.020   0.006
 -0.015  -0.005   0.013   0.000   0.022  -0.014  -0.005   0.012
  0.000  -0.023  -0.006  -0.015  -0.000   0.000  -0.022  -0.006
 -0.022   0.000   0.009  -0.005  -0.016  -0.021   0.000   0.008
 -0.018  -0.006   0.015   0.000   0.027  -0.017  -0.006   0.015
  0.000  -0.027  -0.008  -0.018   0.000   0.000  -0.027  -0.007
 -0.027   0.000   0.010  -0.006  -0.019  -0.026   0.000   0.010
 total augmentation occupancy for first ion, spin component:           1
  1.536  -0.032   0.004   0.017   0.024   0.076  -0.007  -0.001   0.035  -0.010   0.094  -0.031   0.012   0.002   0.002  -0.019
 -0.032   1.400   0.029   0.071  -0.000  -0.006   0.071   0.011  -0.015  -0.008   0.217  -0.066   0.019   0.002   0.003  -0.006
  0.004   0.029   1.544   0.002   0.002  -0.001   0.012   0.074  -0.013   0.017  -0.052   0.018  -0.003  -0.006  -0.005   0.016
  0.017   0.071   0.002   1.338   0.045   0.033  -0.014  -0.012   0.092  -0.022  -0.083   0.020  -0.001  -0.009  -0.004   0.001
  0.024  -0.000   0.002   0.045   1.441  -0.010  -0.009   0.016  -0.022   0.067  -0.095   0.031  -0.002  -0.010  -0.010   0.026
  0.076  -0.006  -0.001   0.033  -0.010   0.217   0.019  -0.002  -0.045   0.004  -0.048   0.002   0.017  -0.010   0.035  -0.004
 -0.007   0.071   0.012  -0.014  -0.009   0.019   0.263  -0.023  -0.003   0.006  -0.109   0.007  -0.001   0.051  -0.010  -0.001
 -0.001   0.011   0.074  -0.012   0.016  -0.002  -0.023   0.215   0.014  -0.020   0.028  -0.001  -0.012   0.009  -0.018   0.003
  0.035  -0.015  -0.013   0.092  -0.022  -0.045  -0.003   0.014   0.260   0.007   0.044  -0.004  -0.009   0.036   0.004   0.000
 -0.010  -0.008   0.017  -0.022   0.067   0.004   0.006  -0.020   0.007   0.258   0.047  -0.003  -0.038   0.002   0.049   0.007
  0.094   0.217  -0.052  -0.083  -0.095  -0.048  -0.109   0.028   0.044   0.047   0.947  -0.141   0.083   0.014   0.064  -0.013
 -0.031  -0.066   0.018   0.020   0.031   0.002   0.007  -0.001  -0.004  -0.003  -0.141   0.023  -0.014  -0.003  -0.010   0.003
  0.012   0.019  -0.003  -0.001  -0.002   0.017  -0.001  -0.012  -0.009  -0.038   0.083  -0.014   0.029  -0.008  -0.004  -0.003
  0.002   0.002  -0.006  -0.009  -0.010  -0.010   0.051   0.009   0.036   0.002   0.014  -0.003  -0.008   0.036   0.004   0.000
  0.002   0.003  -0.005  -0.004  -0.010   0.035  -0.010  -0.018   0.004   0.049   0.064  -0.010  -0.004   0.004   0.035  -0.000
 -0.019  -0.006   0.016   0.001   0.026  -0.004  -0.001   0.003   0.000   0.007  -0.013   0.003  -0.003   0.000  -0.000   0.001
  0.001  -0.028  -0.007  -0.018   0.001   0.001  -0.008  -0.002  -0.006  -0.000  -0.003   0.001   0.000  -0.003  -0.000   0.000
 -0.028   0.001   0.012  -0.005  -0.019  -0.006   0.001   0.003  -0.001  -0.007  -0.008   0.001  -0.000  -0.000  -0.003   0.000


------------------------ aborting loop because EDIFF is reached ----------------------------------------


    CHARGE:  cpu time   23.6789: real time   23.6786
    FORLOC:  cpu time    6.1428: real time    6.1427
    FORNL :  cpu time   60.8474: real time   60.8462
    STRESS:  cpu time  183.3649: real time  183.3632
    FORCOR:  cpu time   19.5273: real time   19.5271
    FORHAR:  cpu time    8.6652: real time    8.6652
    MIXING:  cpu time    3.4492: real time    3.4492
    OFIELD:  cpu time    0.0000: real time    0.0000

  FORCE on cell =-STRESS in cart. coord.  units (eV):
  Direction    XX          YY          ZZ          XY          YZ          ZX
  --------------------------------------------------------------------------------------
  Alpha Z    75.25432    75.25432    75.25432
  Ewald   49111.68393 44298.34546 44360.65313 -1279.67070  -535.90154  1142.83314
  Hartree 63681.43449 59188.74237 59260.96284 -1150.81243  -488.83367  1055.61639
  E(xc)   -2902.70193 -2905.04199 -2905.23786    -0.99623    -0.22631     0.47266
  Local  ************************************  2416.64344  1020.72130 -2188.71101
  n-local  -888.42880  -881.01689  -881.24174     2.45293     1.37752    -1.47855
  augment  4100.52311  4105.04402  4105.63061     2.09693     0.20369    -0.88870
  Kinetic  7784.69352  7811.40043  7812.90743    10.57535     2.23152    -6.54754
  Fock        0.00000     0.00000     0.00000     0.00000     0.00000     0.00000
  -------------------------------------------------------------------------------------
  Total    -114.14335  -113.71714  -113.27434     0.28929    -0.42748     1.29639
  in kB      -6.77326    -6.74796    -6.72169     0.01717    -0.02537     0.07693
  external pressure =       -6.75 kB  Pullay stress =        0.00 kB


 VOLUME and BASIS-vectors are now :
 -----------------------------------------------------------------------------
  energy-cutoff  :      400.00
  volume of cell :    27000.00
      direct lattice vectors                 reciprocal lattice vectors
    30.000000000  0.000000000  0.000000000     0.033333333  0.000000000  0.000000000
     0.000000000 30.000000000  0.000000000     0.000000000  0.033333333  0.000000000
     0.000000000  0.000000000 30.000000000     0.000000000  0.000000000  0.033333333

  length of vectors
    30.000000000 30.000000000 30.000000000     0.033333333  0.033333333  0.033333333


 FORCES acting on ions
    electron-ion (+dipol)            ewald-force                    non-local-force                 convergence-correction
 -----------------------------------------------------------------------------------------------
   0.385E+03 0.980E+03 0.415E+03   -.383E+03 -.977E+03 -.415E+03   -.149E+01 -.181E+01 -.229E+00   -.306E-02 0.422E-02 -.182E-02
   -.974E+03 -.393E+03 0.415E+03   0.971E+03 0.391E+03 -.415E+03   0.184E+01 0.148E+01 -.215E+00   -.166E-02 0.344E-02 0.261E-02
   -.399E+03 0.975E+03 0.415E+03   0.397E+03 -.972E+03 -.415E+03   0.149E+01 -.182E+01 -.228E+00   -.246E-03 0.139E-02 0.214E-03
   0.766E+03 -.321E+03 0.406E+03   -.770E+03 0.322E+03 -.406E+03   0.271E+01 -.486E+00 0.152E+00   0.871E-03 -.971E-03 0.286E-02
   -.921E+01 0.593E+03 0.966E+03   0.923E+01 -.592E+03 -.962E+03   -.148E-01 -.303E+00 -.234E+01   -.417E-02 0.344E-02 -.162E-02
   -.458E+01 0.589E+03 -.968E+03   0.456E+01 -.589E+03 0.964E+03   0.139E-01 -.314E+00 0.235E+01   -.838E-03 0.126E-02 0.346E-03
   -.462E+01 0.114E+04 -.180E+01   0.461E+01 -.113E+04 0.180E+01   0.113E-02 -.311E+01 -.244E-02   -.516E-04 -.107E-03 0.753E-03
   0.111E+04 0.641E+02 -.682E+02   -.110E+04 -.642E+02 0.683E+02   -.284E+01 0.909E-01 -.104E+00   0.229E-02 -.715E-03 -.117E-03
   -.113E+04 0.132E+01 -.140E+01   0.113E+04 -.132E+01 0.140E+01   0.311E+01 -.125E-02 -.663E-02   -.961E-03 0.289E-02 0.673E-03
   -.124E+02 -.114E+04 -.456E+01   0.124E+02 0.113E+04 0.457E+01   -.545E-02 0.311E+01 -.271E-02   0.525E-04 -.136E-02 0.379E-03
   -.582E+03 0.581E+03 0.813E+03   0.580E+03 -.579E+03 -.810E+03   0.156E+01 -.156E+01 -.220E+01   -.121E-02 0.886E-03 -.809E-03
   -.580E+03 0.580E+03 -.814E+03   0.578E+03 -.577E+03 0.811E+03   0.156E+01 -.156E+01 0.220E+01   0.128E-02 -.103E-02 0.127E-03
   0.526E+03 -.588E+03 0.836E+03   -.523E+03 0.585E+03 -.833E+03   -.165E+01 0.155E+01 -.216E+01   0.297E-02 0.915E-04 0.129E-02
   0.569E+03 -.579E+03 -.826E+03   -.566E+03 0.577E+03 0.823E+03   -.156E+01 0.156E+01 0.219E+01   0.400E-03 0.846E-03 -.217E-02
   0.564E+03 0.595E+03 0.818E+03   -.562E+03 -.593E+03 -.815E+03   -.153E+01 -.157E+01 -.223E+01   -.514E-04 0.116E-02 0.714E-03
   0.573E+03 0.584E+03 -.819E+03   -.570E+03 -.582E+03 0.816E+03   -.156E+01 -.154E+01 0.218E+01   -.194E-02 0.165E-02 -.836E-03
   -.585E+03 -.578E+03 0.813E+03   0.583E+03 0.576E+03 -.810E+03   0.154E+01 0.156E+01 -.221E+01   -.235E-02 0.777E-03 0.253E-02
   -.581E+03 -.578E+03 -.815E+03   0.579E+03 0.576E+03 0.812E+03   0.157E+01 0.155E+01 0.220E+01   0.490E-03 0.597E-03 -.309E-02
   0.388E+03 0.977E+03 -.420E+03   -.386E+03 -.974E+03 0.420E+03   -.151E+01 -.181E+01 0.209E+00   -.234E-02 0.259E-02 0.239E-03
   -.973E+03 -.393E+03 -.418E+03   0.970E+03 0.391E+03 0.418E+03   0.183E+01 0.150E+01 0.228E+00   0.921E-03 0.165E-02 -.457E-02
   -.330E+03 0.325E+03 0.452E+03   0.330E+03 -.326E+03 -.453E+03   -.395E+00 0.374E+00 0.514E+00   -.315E-02 0.445E-02 0.665E-03
   0.940E+03 0.444E+03 0.414E+03   -.937E+03 -.442E+03 -.413E+03   -.196E+01 -.129E+01 -.216E+00   0.135E-02 -.999E-03 0.113E-02
   -.406E+03 -.974E+03 0.415E+03   0.403E+03 0.971E+03 -.415E+03   0.151E+01 0.182E+01 -.227E+00   0.644E-03 -.324E-02 0.107E-03
   -.398E+03 0.974E+03 -.418E+03   0.395E+03 -.971E+03 0.418E+03   0.151E+01 -.181E+01 0.220E+00   0.230E-02 0.104E-02 0.330E-03
   0.953E+03 -.387E+03 -.451E+03   -.950E+03 0.385E+03 0.451E+03   -.186E+01 0.151E+01 0.185E+00   0.208E-02 0.336E-03 -.800E-03
   -.973E+03 0.396E+03 0.415E+03   0.970E+03 -.394E+03 -.415E+03   0.183E+01 -.150E+01 -.209E+00   0.146E-02 0.342E-02 0.360E-02
   0.365E+03 -.983E+03 0.415E+03   -.363E+03 0.980E+03 -.414E+03   -.151E+01 0.184E+01 -.228E+00   0.290E-02 -.139E-02 0.146E-02
   0.300E+03 0.335E+03 0.452E+03   -.301E+03 -.336E+03 -.452E+03   0.425E+00 0.333E+00 0.525E+00   -.167E-02 0.174E-02 -.911E-03
   -.891E+01 0.645E+03 -.334E+01   0.892E+01 -.646E+03 0.334E+01   -.172E-01 0.737E+00 -.219E-02   -.166E-02 0.375E-02 0.644E-05
   -.592E+03 0.208E+01 0.965E+03   0.591E+03 -.209E+01 -.962E+03   0.302E+00 0.532E-02 -.236E+01   -.223E-02 0.572E-02 0.162E-02
   -.589E+03 0.126E+01 -.967E+03   0.588E+03 -.126E+01 0.963E+03   0.318E+00 0.261E-02 0.235E+01   0.869E-03 0.653E-03 -.230E-02
   0.547E+03 0.233E+02 0.983E+03   -.546E+03 -.234E+02 -.980E+03   -.437E+00 0.386E-01 -.245E+01   0.221E-02 -.243E-02 0.259E-02
   0.578E+03 0.470E+01 -.977E+03   -.577E+03 -.468E+01 0.973E+03   -.296E+00 -.180E-01 0.237E+01   -.191E-03 0.377E-03 -.242E-02
   0.748E+03 0.776E+03 -.757E+01   -.746E+03 -.774E+03 0.755E+01   -.113E+01 -.119E+01 0.957E-02   -.203E-02 0.353E-02 -.612E-03
   -.766E+03 -.760E+03 -.230E+01   0.764E+03 0.758E+03 0.230E+01   0.114E+01 0.115E+01 0.377E-02   0.297E-03 -.876E-03 -.155E-02
   -.764E+03 0.763E+03 -.160E+01   0.762E+03 -.761E+03 0.158E+01   0.115E+01 -.114E+01 0.848E-02   0.170E-02 0.125E-02 0.145E-02
   0.715E+03 -.770E+03 -.288E+02   -.713E+03 0.768E+03 0.289E+02   -.131E+01 0.110E+01 -.121E+00   0.130E-02 -.163E-03 0.142E-02
   -.165E+02 0.567E+01 0.107E+04   0.165E+02 -.564E+01 -.107E+04   0.385E-01 -.235E-01 -.161E+01   -.524E-03 0.245E-02 0.155E-02
   -.645E+01 0.231E+01 -.107E+04   0.646E+01 -.232E+01 0.107E+04   -.114E-01 0.672E-02 0.160E+01   -.225E-02 0.138E-02 -.161E-02
   0.960E+03 0.409E+03 -.435E+03   -.958E+03 -.407E+03 0.435E+03   -.182E+01 -.152E+01 0.259E+00   0.999E-03 -.143E-04 -.905E-03
   -.401E+03 -.973E+03 -.420E+03   0.399E+03 0.970E+03 0.420E+03   0.150E+01 0.181E+01 0.212E+00   -.127E-02 -.480E-03 -.361E-02
   -.327E+03 0.324E+03 -.456E+03   0.327E+03 -.324E+03 0.457E+03   -.377E+00 0.358E+00 -.523E+00   -.411E-04 0.118E-02 -.147E-02
   0.282E+03 -.316E+03 0.451E+03   -.283E+03 0.316E+03 -.452E+03   0.611E+00 -.306E+00 0.550E+00   0.310E-02 -.226E-03 0.664E-03
   0.310E+03 0.328E+03 -.462E+03   -.310E+03 -.329E+03 0.462E+03   0.371E+00 0.369E+00 -.540E+00   -.302E-02 0.224E-02 -.102E-02
   -.972E+03 0.395E+03 -.418E+03   0.969E+03 -.393E+03 0.417E+03   0.183E+01 -.151E+01 0.219E+00   0.121E-02 0.177E-02 -.250E-02
   0.380E+03 -.976E+03 -.427E+03   -.378E+03 0.973E+03 0.427E+03   -.149E+01 0.183E+01 0.228E+00   -.786E-03 -.698E-03 -.155E-02
   -.333E+03 -.319E+03 0.452E+03   0.334E+03 0.320E+03 -.453E+03   -.418E+00 -.374E+00 0.512E+00   -.234E-03 0.378E-02 -.758E-03
   0.604E+03 0.201E+02 -.215E+02   -.605E+03 -.202E+02 0.215E+02   0.610E+00 0.428E-01 0.242E-01   0.196E-03 -.114E-03 -.238E-03
   -.644E+03 0.205E+01 -.216E+01   0.645E+03 -.205E+01 0.218E+01   -.716E+00 -.550E-02 -.879E-02   0.194E-02 0.475E-02 -.334E-03
   -.191E+02 -.588E+03 0.969E+03   0.190E+02 0.587E+03 -.965E+03   0.359E-01 0.329E+00 -.236E+01   0.330E-02 -.144E-02 0.133E-02
   -.720E+01 -.587E+03 -.970E+03   0.722E+01 0.586E+03 0.967E+03   -.821E-02 0.294E+00 0.234E+01   -.274E-02 0.570E-03 -.268E-02
   -.158E+02 0.542E+01 -.577E+01   0.158E+02 -.542E+01 0.576E+01   0.130E-01 -.326E-02 0.345E-02   -.135E-02 0.276E-02 -.138E-02
   0.304E+03 -.318E+03 -.466E+03   -.305E+03 0.319E+03 0.467E+03   0.401E+00 -.374E+00 -.485E+00   -.982E-03 0.175E-02 -.110E-02
   -.329E+03 -.320E+03 -.458E+03   0.329E+03 0.320E+03 0.458E+03   -.376E+00 -.372E+00 -.525E+00   0.163E-03 0.219E-02 -.365E-02
   -.179E+02 -.640E+03 -.651E+01   0.179E+02 0.641E+03 0.650E+01   0.324E-01 -.720E+00 0.608E-02   0.819E-03 0.708E-03 -.656E-03
   0.207E+03 -.102E+03 0.464E+02   -.184E+03 0.947E+02 -.389E+02   -.176E+02 0.549E+01 -.654E+01   0.382E-03 -.614E-05 0.374E-03
   0.639E+03 -.241E+03 0.222E+03   -.697E+03 0.261E+03 -.242E+03   0.551E+02 -.180E+02 0.195E+02   0.525E-03 0.476E-04 0.411E-03
 -----------------------------------------------------------------------------------------------
   -.421E+02 0.141E+02 -.131E+02   -.114E-12 0.568E-13 -.102E-11   0.421E+02 -.142E+02 0.131E+02   -.399E-02 0.625E-01 -.156E-01
 
 
 POSITION                                       TOTAL-FORCE (eV/Angst)
 -----------------------------------------------------------------------------------
     13.37281      9.84801     12.50759         0.705820      1.107975      0.294837
     20.15199     16.62719     12.50759        -1.115323     -0.695022      0.286062
     16.62719      9.84801     12.50759        -0.702063      1.108140      0.291913
      9.84801     16.62719     12.50759        -1.001484      0.161832      0.231957
     15.00000     11.47521     10.20639         0.005694      0.414020      1.284319
     15.00000     11.47521     19.79360        -0.009203      0.414461     -1.283528
     15.00000      8.28283     15.00000        -0.000588      1.518184      0.002352
      8.28283     15.00000     15.00000         1.469425      0.022487     -0.019684
     21.71717     15.00000     15.00000        -1.513437      0.002670      0.000357
     15.00000     21.71717     15.00000         0.000870     -1.518423      0.000931
     18.35858     11.64142     10.25025        -0.755832      0.758177      1.071919
     18.35858     11.64142     19.74975        -0.758558      0.756279     -1.070816
     11.64142     18.35858     10.25025         0.780900     -0.757614      1.067383
     11.64142     18.35858     19.74975         0.757896     -0.757731     -1.073643
     11.64142     11.64142     10.25025         0.735436      0.765350      1.089656
     11.64142     11.64142     19.74975         0.766931      0.744921     -1.068454
     18.35858     18.35858     10.25025        -0.746989     -0.764249      1.076922
     18.35858     18.35858     19.74975        -0.759897     -0.751800     -1.071582
     13.37281      9.84801     17.49241         0.707272      1.109524     -0.287370
     20.15199     16.62719     17.49241        -1.110299     -0.702977     -0.291581
     16.73751     13.26249     12.54279         0.118408     -0.111441     -0.155988
      9.84801     13.37281     12.50759         1.147158      0.604351      0.273599
     16.62719     20.15199     12.50759        -0.708208     -1.108291      0.292354
     16.62719      9.84801     17.49241        -0.708537      1.105049     -0.293097
      9.84801     16.62719     17.49241         1.122519     -0.707879     -0.257549
     20.15199     13.37281     12.50759        -1.114696      0.700186      0.285400
     13.37281     20.15199     12.50759         0.716885     -1.106114      0.291726
     13.26249     13.26249     12.54279        -0.115478     -0.098385     -0.152875
     15.00000     11.52498     15.00000        -0.001397     -0.229942      0.002044
     18.52479     15.00000     10.20639        -0.406329      0.002261      1.279323
     18.52479     15.00000     19.79360        -0.411664      0.000204     -1.279509
     11.47521     15.00000     10.20640         0.478230     -0.011526      1.282587
     11.47521     15.00000     19.79360         0.404363      0.005802     -1.288677
     11.49535     11.49535     15.00000         0.829133      0.829512     -0.009965
     18.50465     18.50465     15.00000        -0.826653     -0.827185      0.001128
     18.50465     11.49535     15.00000        -0.832104      0.827994     -0.002785
     11.49535     18.50465     15.00000         0.872953     -0.798276      0.045440
     15.00000     15.00000     10.04368        -0.018875      0.001835      1.181517
     15.00000     15.00000     19.95633         0.004037     -0.000571     -1.175613
      9.84801     13.37281     17.49241         1.101632      0.704389     -0.286125
     16.62719     20.15199     17.49241        -0.704132     -1.108727     -0.288534
     16.73751     13.26249     17.45721         0.113551     -0.110786      0.156422
     13.26249     16.73751     12.54279        -0.171733      0.079147     -0.154474
     13.26249     13.26249     17.45721        -0.096175     -0.127300      0.167827
     20.15199     13.37281     17.49241        -1.107816      0.705331     -0.288323
     13.37281     20.15199     17.49241         0.708978     -1.111379     -0.291227
     16.73751     16.73751     12.54279         0.146472      0.111701     -0.165822
     11.52498     15.00000     15.00000        -0.161711     -0.027932      0.032440
     18.47502     15.00000     15.00000         0.225747     -0.000196      0.003902
     15.00000     18.52480     10.20639        -0.009443     -0.413200      1.277505
     15.00000     18.52480     19.79360         0.003879     -0.408830     -1.283549
     15.00000     15.00000     15.00000        -0.018854     -0.001094     -0.009832
     13.26249     16.73751     17.45721        -0.112867      0.109466      0.159299
     16.73751     16.73751     17.45721         0.112106      0.114069      0.153273
     15.00000     18.47502     15.00000        -0.001347      0.230205     -0.003456
      7.83960     17.34253     12.50687         5.392236     -1.904242      0.996252
      6.82180     17.67551     12.15248        -3.426841      1.145585     -1.026586
 -----------------------------------------------------------------------------------
    total drift:                               -0.003217     -0.004705      0.003674


--------------------------------------------------------------------------------------------------------



  FREE ENERGIE OF THE ION-ELECTRON SYSTEM (eV)
  ---------------------------------------------------
  free  energy   TOTEN  =      -174.79453249 eV

  energy  without entropy=     -174.69085037  energy(sigma->0) =     -174.76861196
 


--------------------------------------------------------------------------------------------------------


    POTLOK:  cpu time   12.2783: real time   12.2781


--------------------------------------------------------------------------------------------------------


     LOOP+:  cpu time17864.1765: real time17864.5178
    4ORBIT:  cpu time    0.0000: real time    0.0000

 total amount of memory used by VASP MPI-rank0  5486941. kBytes
=======================================================================

   base      :      30000. kBytes
   nonlr-proj:      17126. kBytes
   fftplans  :     924480. kBytes
   grid      :    1872000. kBytes
   one-center:        886. kBytes
   wavefun   :    2642449. kBytes
 
  
  
 General timing and accounting informations for this job:
 ========================================================
  
                  Total CPU time used (sec):    17937.494
                            User time (sec):    16945.120
                          System time (sec):      992.374
                         Elapsed time (sec):    17937.889
  
                   Maximum memory used (kb):     7179028.
                   Average memory used (kb):           0.
  
                          Minor page faults:    812871043
                          Major page faults:            0
                 Voluntary context switches:          540
