   57   57    1    1
  0.4736842E+03  0.3000000E-08  0.3000000E-08  0.3000000E-08  0.5000000E-15
  1.000000000000000E-004
  CAR 
 6_Pd100_top_free_z(O)                   
    560      1    336
 
  0.0000000E+00  0.0000000E+00  0.0000000E+00  0.1000000E+01
    1      -28.844391   1.000000
    2      -13.447825   1.000000
    3      -11.229294   1.000000
    4      -11.215699   1.000000
    5       -9.679172   1.000000
    6       -6.638689   1.000000
    7       -6.124657   1.000000
    8       -6.121513   1.000000
    9       -6.109855   1.000000
   10       -5.818730   1.000000
   11       -5.807747   1.000000
   12       -5.803001   1.000000
   13       -5.748574   1.000000
   14       -5.689961   1.000000
   15       -5.684669   1.000000
   16       -5.679533   1.000000
   17       -5.672843   1.000000
   18       -5.646807   1.000000
   19       -5.625299   1.000000
   20       -5.616364   1.000000
   21       -5.605188   1.000000
   22       -5.592214   1.000000
   23       -5.590118   1.000000
   24       -5.568962   1.000000
   25       -5.550071   1.000000
   26       -5.546351   1.000000
   27       -5.541982   1.000000
   28       -5.539819   1.000000
   29       -5.533547   1.000000
   30       -5.514801   1.000000
   31       -5.513717   1.000000
   32       -5.512338   1.000000
   33       -5.509372   1.000000
   34       -5.507639   1.000000
   35       -5.506775   1.000000
   36       -5.485582   1.000000
   37       -5.477669   1.000000
   38       -5.470784   1.000000
   39       -5.467301   1.000000
   40       -5.466222   1.000000
   41       -5.463721   1.000000
   42       -5.461944   1.000000
   43       -5.459797   1.000000
   44       -5.447093   1.000000
   45       -5.439456   1.000000
   46       -5.427612   1.000000
   47       -5.425084   1.000000
   48       -5.422510   1.000000
   49       -5.420132   1.000000
   50       -5.418431   1.000000
   51       -5.415089   1.000000
   52       -5.407917   1.000000
   53       -5.399615   1.000000
   54       -5.398829   1.000000
   55       -5.389214   1.000000
   56       -5.358025   1.000000
   57       -5.330003   1.000000
   58       -5.321950   1.000000
   59       -5.320860   1.000000
   60       -5.319553   1.000000
   61       -5.314099   1.000000
   62       -5.312267   1.000000
   63       -5.309547   1.000000
   64       -5.295166   1.000000
   65       -5.294389   1.000000
   66       -5.287186   1.000000
   67       -5.282717   1.000000
   68       -5.240037   1.000000
   69       -5.219238   1.000000
   70       -5.200787   1.000000
   71       -5.200131   1.000000
   72       -5.192265   1.000000
   73       -5.184618   1.000000
   74       -5.180757   1.000000
   75       -5.174833   1.000000
   76       -5.174691   1.000000
   77       -5.172311   1.000000
   78       -5.157909   1.000000
   79       -5.156518   1.000000
   80       -5.147692   1.000000
   81       -5.135142   1.000000
   82       -5.125030   1.000000
   83       -5.122236   1.000000
   84       -5.118626   1.000000
   85       -5.105009   1.000000
   86       -5.101273   1.000000
   87       -5.097404   1.000000
   88       -5.090437   1.000000
   89       -5.062270   1.000000
   90       -5.052968   1.000000
   91       -5.050728   1.000000
   92       -5.049569   1.000000
   93       -5.047028   1.000000
   94       -5.044465   1.000000
   95       -5.040614   1.000000
   96       -5.032993   1.000000
   97       -5.025111   1.000000
   98       -5.023808   1.000000
   99       -5.021476   1.000000
  100       -5.013525   1.000000
  101       -5.009718   1.000000
  102       -5.006076   1.000000
  103       -5.000931   1.000000
  104       -4.995186   1.000000
  105       -4.992553   1.000000
  106       -4.988274   1.000000
  107       -4.983623   1.000000
  108       -4.981642   1.000000
  109       -4.974897   1.000000
  110       -4.968956   1.000000
  111       -4.967371   1.000000
  112       -4.957709   1.000000
  113       -4.956849   1.000000
  114       -4.951173   0.999999
  115       -4.949758   0.999999
  116       -4.948654   0.999999
  117       -4.934944   0.999999
  118       -4.924446   0.999999
  119       -4.921414   0.999998
  120       -4.912143   0.999998
  121       -4.904034   0.999997
  122       -4.903563   0.999997
  123       -4.897779   0.999996
  124       -4.895584   0.999996
  125       -4.893260   0.999996
  126       -4.891242   0.999995
  127       -4.855887   0.999986
  128       -4.847112   0.999982
  129       -4.839873   0.999977
  130       -4.836246   0.999975
  131       -4.835325   0.999974
  132       -4.833658   0.999973
  133       -4.830994   0.999971
  134       -4.824358   0.999965
  135       -4.823026   0.999963
  136       -4.803938   0.999937
  137       -4.799026   0.999928
  138       -4.787687   0.999903
  139       -4.785842   0.999898
  140       -4.769993   0.999847
  141       -4.766293   0.999833
  142       -4.758292   0.999796
  143       -4.751186   0.999758
  144       -4.742928   0.999706
  145       -4.733557   0.999636
  146       -4.733052   0.999632
  147       -4.720199   0.999511
  148       -4.715392   0.999458
  149       -4.703516   0.999306
  150       -4.689406   0.999082
  151       -4.688056   0.999057
  152       -4.682109   0.998945
  153       -4.678245   0.998867
  154       -4.676952   0.998840
  155       -4.673928   0.998774
  156       -4.671780   0.998726
  157       -4.667658   0.998630
  158       -4.665166   0.998569
  159       -4.660728   0.998457
  160       -4.656037   0.998331
  161       -4.652455   0.998231
  162       -4.647694   0.998092
  163       -4.643212   0.997955
  164       -4.641276   0.997894
  165       -4.639765   0.997845
  166       -4.639039   0.997822
  167       -4.638609   0.997808
  168       -4.636141   0.997727
  169       -4.634327   0.997667
  170       -4.624364   0.997321
  171       -4.614341   0.996955
  172       -4.604880   0.996600
  173       -4.595729   0.996257
  174       -4.593451   0.996174
  175       -4.589930   0.996046
  176       -4.588753   0.996004
  177       -4.586544   0.995927
  178       -4.583832   0.995834
  179       -4.577651   0.995633
  180       -4.568946   0.995386
  181       -4.566526   0.995326
  182       -4.561692   0.995223
  183       -4.557594   0.995153
  184       -4.550404   0.995077
  185       -4.549506   0.995073
  186       -4.547878   0.995067
  187       -4.547013   0.995065
  188       -4.543269   0.995072
  189       -4.541533   0.995083
  190       -4.537647   0.995126
  191       -4.519593   0.995735
  192       -4.506461   0.996706
  193       -4.503847   0.996963
  194       -4.501484   0.997214
  195       -4.498084   0.997610
  196       -4.492808   0.998307
  197       -4.489405   0.998813
  198       -4.477875   1.000870
  199       -4.474625   1.001551
  200       -4.471073   1.002349
  201       -4.467952   1.003096
  202       -4.461949   1.004656
  203       -4.455397   1.006547
  204       -4.452281   1.007515
  205       -4.448216   1.008844
  206       -4.445127   1.009903
  207       -4.441769   1.011103
  208       -4.438037   1.012493
  209       -4.436958   1.012905
  210       -4.433302   1.014339
  211       -4.419437   1.020225
  212       -4.416991   1.021327
  213       -4.411358   1.023923
  214       -4.407435   1.025770
  215       -4.401860   1.028432
  216       -4.399211   1.029706
  217       -4.398066   1.030257
  218       -4.395851   1.031324
  219       -4.391736   1.033301
  220       -4.378959   1.039264
  221       -4.365162   1.044996
  222       -4.360204   1.046755
  223       -4.357144   1.047736
  224       -4.345320   1.050608
  225       -4.337292   1.051533
  226       -4.333130   1.051619
  227       -4.331234   1.051560
  228       -4.330363   1.051511
  229       -4.327962   1.051305
  230       -4.326436   1.051117
  231       -4.325922   1.051043
  232       -4.323437   1.050612
  233       -4.320720   1.049995
  234       -4.319172   1.049572
  235       -4.317101   1.048923
  236       -4.314468   1.047956
  237       -4.313404   1.047519
  238       -4.311970   1.046887
  239       -4.310399   1.046136
  240       -4.307449   1.044556
  241       -4.297794   1.037752
  242       -4.293717   1.034077
  243       -4.285322   1.024892
  244       -4.281332   1.019725
  245       -4.278537   1.015786
  246       -4.277358   1.014043
  247       -4.275068   1.010521
  248       -4.274872   1.010210
  249       -4.270972   1.003755
  250       -4.260442   0.983557
  251       -4.256093   0.974001
  252       -4.254620   0.970600
  253       -4.249670   0.958564
  254       -4.247888   0.954000
  255       -4.246547   0.950481
  256       -4.243313   0.941716
  257       -4.240790   0.934592
  258       -4.240346   0.933315
  259       -4.237097   0.923726
  260       -4.235609   0.919195
  261       -4.234826   0.916780
  262       -4.232682   0.910040
  263       -4.231890   0.907506
  264       -4.230460   0.902872
  265       -4.228022   0.894787
  266       -4.219567   0.865036
  267       -4.218205   0.859995
  268       -4.213780   0.843171
  269       -4.212593   0.838539
  270       -4.210783   0.831384
  271       -4.209328   0.825549
  272       -4.200233   0.787508
  273       -4.192378   0.752601
  274       -4.187947   0.732146
  275       -4.177157   0.680314
  276       -4.174704   0.668178
  277       -4.169271   0.640900
  278       -4.166385   0.626209
  279       -4.165210   0.620190
  280       -4.164145   0.614719
  281       -4.159325   0.589789
  282       -4.149432   0.537935
  283       -4.124674   0.407577
  284       -4.120700   0.387023
  285       -4.120124   0.384060
  286       -4.119541   0.381069
  287       -4.107611   0.320978
  288       -4.104033   0.303474
  289       -4.086172   0.220765
  290       -3.959191  -0.050949
  291       -3.889090  -0.031533
  292       -3.815332  -0.002798
  293       -3.807250  -0.000997
  294       -3.740926   0.004929
  295       -3.489058   0.000079
  296       -3.483790   0.000068
  297       -3.423061   0.000012
  298       -3.056546   0.000000
  299       -3.050071   0.000000
  300       -3.031731   0.000000
  301       -3.029961   0.000000
  302       -3.010056   0.000000
  303       -2.956845   0.000000
  304       -2.936936   0.000000
  305       -2.878800   0.000000
  306       -2.528667   0.000000
  307       -2.517094   0.000000
  308       -2.402566   0.000000
  309       -2.360778   0.000000
  310       -2.184176   0.000000
  311       -2.118037   0.000000
  312       -2.105439   0.000000
  313       -2.059900   0.000000
  314       -1.980441   0.000000
  315       -1.924615   0.000000
  316       -1.859387   0.000000
  317       -1.853460   0.000000
  318       -1.755319   0.000000
  319       -1.726624   0.000000
  320       -1.636173   0.000000
  321       -1.605814   0.000000
  322       -1.546209   0.000000
  323       -1.486684   0.000000
  324       -1.408423   0.000000
  325       -1.328667   0.000000
  326       -1.209414   0.000000
  327       -1.167962   0.000000
  328       -1.128749   0.000000
  329       -0.980340   0.000000
  330       -0.974950   0.000000
  331       -0.952814   0.000000
  332       -0.929181   0.000000
  333       -0.924361   0.000000
  334       -0.905497   0.000000
  335       -0.821161   0.000000
  336       -0.775522   0.000000
