   57   57    1    1
  0.4736842E+03  0.3000000E-08  0.3000000E-08  0.3000000E-08  0.5000000E-15
  1.000000000000000E-004
  CAR 
 6_Pd100_top_free_z(O)                   
    560      1    336
 
  0.0000000E+00  0.0000000E+00  0.0000000E+00  0.1000000E+01
    1      -29.124660   1.000000
    2      -13.670122   1.000000
    3      -11.460949   1.000000
    4      -11.441501   1.000000
    5       -9.475734   1.000000
    6       -6.632226   1.000000
    7       -6.113233   1.000000
    8       -6.113095   1.000000
    9       -6.108139   1.000000
   10       -5.799050   1.000000
   11       -5.797627   1.000000
   12       -5.796812   1.000000
   13       -5.730429   1.000000
   14       -5.684469   1.000000
   15       -5.675486   1.000000
   16       -5.670965   1.000000
   17       -5.669750   1.000000
   18       -5.609868   1.000000
   19       -5.606152   1.000000
   20       -5.596108   1.000000
   21       -5.588501   1.000000
   22       -5.582239   1.000000
   23       -5.579963   1.000000
   24       -5.537529   1.000000
   25       -5.534445   1.000000
   26       -5.532412   1.000000
   27       -5.531929   1.000000
   28       -5.511672   1.000000
   29       -5.508474   1.000000
   30       -5.506893   1.000000
   31       -5.503385   1.000000
   32       -5.502627   1.000000
   33       -5.501743   1.000000
   34       -5.499257   1.000000
   35       -5.499105   1.000000
   36       -5.473195   1.000000
   37       -5.464572   1.000000
   38       -5.458410   1.000000
   39       -5.456712   1.000000
   40       -5.454662   1.000000
   41       -5.454407   1.000000
   42       -5.453829   1.000000
   43       -5.453650   1.000000
   44       -5.421146   1.000000
   45       -5.416408   1.000000
   46       -5.415991   1.000000
   47       -5.415249   1.000000
   48       -5.413177   1.000000
   49       -5.408412   1.000000
   50       -5.407426   1.000000
   51       -5.407086   1.000000
   52       -5.391616   1.000000
   53       -5.391153   1.000000
   54       -5.390342   1.000000
   55       -5.375321   1.000000
   56       -5.320554   1.000000
   57       -5.314197   1.000000
   58       -5.313519   1.000000
   59       -5.313013   1.000000
   60       -5.309083   1.000000
   61       -5.303752   1.000000
   62       -5.302256   1.000000
   63       -5.286790   1.000000
   64       -5.286539   1.000000
   65       -5.285887   1.000000
   66       -5.274010   1.000000
   67       -5.272860   1.000000
   68       -5.203928   1.000000
   69       -5.191918   1.000000
   70       -5.190323   1.000000
   71       -5.190239   1.000000
   72       -5.178221   1.000000
   73       -5.169840   1.000000
   74       -5.168190   1.000000
   75       -5.166615   1.000000
   76       -5.163226   1.000000
   77       -5.148627   1.000000
   78       -5.148066   1.000000
   79       -5.147705   1.000000
   80       -5.135756   1.000000
   81       -5.118311   1.000000
   82       -5.110457   1.000000
   83       -5.108696   1.000000
   84       -5.098548   1.000000
   85       -5.093822   1.000000
   86       -5.090344   1.000000
   87       -5.087876   1.000000
   88       -5.071096   1.000000
   89       -5.067648   1.000000
   90       -5.045487   1.000000
   91       -5.041642   1.000000
   92       -5.039140   1.000000
   93       -5.038026   1.000000
   94       -5.035405   1.000000
   95       -5.033868   1.000000
   96       -5.016303   1.000000
   97       -5.015356   1.000000
   98       -5.014738   1.000000
   99       -5.005180   1.000000
  100       -5.001457   1.000000
  101       -4.998243   1.000000
  102       -4.992146   1.000000
  103       -4.989917   1.000000
  104       -4.983513   1.000000
  105       -4.976675   1.000000
  106       -4.976386   1.000000
  107       -4.971889   1.000000
  108       -4.969971   1.000000
  109       -4.965003   1.000000
  110       -4.955113   1.000000
  111       -4.954294   1.000000
  112       -4.945593   0.999999
  113       -4.942076   0.999999
  114       -4.941056   0.999999
  115       -4.938991   0.999999
  116       -4.936979   0.999999
  117       -4.923332   0.999999
  118       -4.921333   0.999999
  119       -4.902833   0.999998
  120       -4.902007   0.999998
  121       -4.890795   0.999996
  122       -4.890135   0.999996
  123       -4.886538   0.999996
  124       -4.885949   0.999996
  125       -4.885168   0.999996
  126       -4.884890   0.999996
  127       -4.846422   0.999985
  128       -4.830323   0.999976
  129       -4.828469   0.999975
  130       -4.826954   0.999974
  131       -4.826685   0.999974
  132       -4.826377   0.999973
  133       -4.821303   0.999969
  134       -4.818923   0.999967
  135       -4.816188   0.999964
  136       -4.782909   0.999911
  137       -4.778474   0.999900
  138       -4.778288   0.999900
  139       -4.777509   0.999898
  140       -4.755695   0.999822
  141       -4.752778   0.999808
  142       -4.749738   0.999794
  143       -4.747408   0.999782
  144       -4.731934   0.999686
  145       -4.726558   0.999645
  146       -4.719069   0.999580
  147       -4.710953   0.999498
  148       -4.707797   0.999463
  149       -4.696697   0.999323
  150       -4.681883   0.999091
  151       -4.675801   0.998979
  152       -4.672891   0.998922
  153       -4.671998   0.998904
  154       -4.668591   0.998833
  155       -4.667809   0.998816
  156       -4.664829   0.998751
  157       -4.658296   0.998598
  158       -4.658185   0.998595
  159       -4.653806   0.998486
  160       -4.644341   0.998229
  161       -4.638691   0.998063
  162       -4.633984   0.997917
  163       -4.632597   0.997873
  164       -4.632559   0.997872
  165       -4.632146   0.997859
  166       -4.631706   0.997845
  167       -4.631003   0.997822
  168       -4.629029   0.997758
  169       -4.625646   0.997645
  170       -4.615798   0.997302
  171       -4.602214   0.996802
  172       -4.591791   0.996410
  173       -4.587876   0.996264
  174       -4.581494   0.996032
  175       -4.581375   0.996028
  176       -4.580748   0.996006
  177       -4.578800   0.995937
  178       -4.575928   0.995838
  179       -4.561607   0.995404
  180       -4.560426   0.995374
  181       -4.560363   0.995372
  182       -4.552372   0.995199
  183       -4.546029   0.995108
  184       -4.543960   0.995089
  185       -4.538426   0.995065
  186       -4.537278   0.995066
  187       -4.536658   0.995067
  188       -4.533728   0.995081
  189       -4.533600   0.995082
  190       -4.533079   0.995086
  191       -4.493705   0.997186
  192       -4.491583   0.997426
  193       -4.490314   0.997577
  194       -4.489783   0.997642
  195       -4.488772   0.997769
  196       -4.482174   0.998688
  197       -4.472875   1.000274
  198       -4.468408   1.001163
  199       -4.464319   1.002054
  200       -4.454414   1.004518
  201       -4.453674   1.004720
  202       -4.447045   1.006641
  203       -4.444411   1.007461
  204       -4.442938   1.007932
  205       -4.435377   1.010507
  206       -4.432666   1.011492
  207       -4.431499   1.011926
  208       -4.428382   1.013111
  209       -4.425888   1.014089
  210       -4.425211   1.014359
  211       -4.413513   1.019285
  212       -4.408438   1.021560
  213       -4.395609   1.027574
  214       -4.395011   1.027860
  215       -4.394283   1.028209
  216       -4.392858   1.028894
  217       -4.388755   1.030869
  218       -4.386278   1.032061
  219       -4.381350   1.034420
  220       -4.353378   1.046342
  221       -4.353035   1.046460
  222       -4.352270   1.046718
  223       -4.335194   1.050937
  224       -4.326697   1.051620
  225       -4.326186   1.051624
  226       -4.322648   1.051531
  227       -4.322424   1.051518
  228       -4.321203   1.051429
  229       -4.319333   1.051238
  230       -4.318159   1.051083
  231       -4.316470   1.050814
  232       -4.311887   1.049785
  233       -4.310629   1.049424
  234       -4.308030   1.048564
  235       -4.306921   1.048150
  236       -4.306458   1.047969
  237       -4.305483   1.047570
  238       -4.302759   1.046333
  239       -4.302229   1.046072
  240       -4.300655   1.045252
  241       -4.286533   1.034892
  242       -4.285627   1.034030
  243       -4.270226   1.015391
  244       -4.269478   1.014284
  245       -4.268420   1.012686
  246       -4.267999   1.012039
  247       -4.267784   1.011706
  248       -4.265932   1.008771
  249       -4.259384   0.997409
  250       -4.249558   0.977391
  251       -4.248845   0.975797
  252       -4.245065   0.967020
  253       -4.238465   0.950374
  254       -4.238114   0.949442
  255       -4.233811   0.937622
  256       -4.233559   0.936906
  257       -4.232335   0.933403
  258       -4.230059   0.926730
  259       -4.227717   0.919655
  260       -4.226686   0.916474
  261       -4.224749   0.910385
  262       -4.223650   0.906867
  263       -4.223081   0.905029
  264       -4.221426   0.899607
  265       -4.218454   0.889613
  266       -4.213702   0.872947
  267       -4.207861   0.851325
  268       -4.204830   0.839628
  269       -4.202325   0.829718
  270       -4.201986   0.828361
  271       -4.200892   0.823953
  272       -4.199428   0.817994
  273       -4.183764   0.749989
  274       -4.178582   0.725940
  275       -4.172335   0.696059
  276       -4.164926   0.659515
  277       -4.162556   0.647604
  278       -4.160541   0.637404
  279       -4.156213   0.615284
  280       -4.155263   0.610393
  281       -4.154583   0.606885
  282       -4.140419   0.532807
  283       -4.113173   0.389673
  284       -4.112155   0.384434
  285       -4.110907   0.378026
  286       -4.110788   0.377419
  287       -4.098041   0.313466
  288       -4.095846   0.302769
  289       -4.094845   0.297924
  290       -3.953862  -0.050439
  291       -3.886377  -0.034089
  292       -3.799661  -0.001090
  293       -3.799468  -0.001050
  294       -3.750608   0.004561
  295       -3.476231   0.000069
  296       -3.475131   0.000067
  297       -3.453232   0.000037
  298       -3.043889   0.000000
  299       -3.041378   0.000000
  300       -3.020611   0.000000
  301       -3.012598   0.000000
  302       -2.995133   0.000000
  303       -2.970216   0.000000
  304       -2.917200   0.000000
  305       -2.857055   0.000000
  306       -2.524135   0.000000
  307       -2.504132   0.000000
  308       -2.490070   0.000000
  309       -2.338326   0.000000
  310       -2.149483   0.000000
  311       -2.113202   0.000000
  312       -2.100566   0.000000
  313       -2.005112   0.000000
  314       -1.977738   0.000000
  315       -1.915337   0.000000
  316       -1.872094   0.000000
  317       -1.838770   0.000000
  318       -1.819685   0.000000
  319       -1.709220   0.000000
  320       -1.628551   0.000000
  321       -1.611357   0.000000
  322       -1.542739   0.000000
  323       -1.501874   0.000000
  324       -1.475962   0.000000
  325       -1.345253   0.000000
  326       -1.223857   0.000000
  327       -1.216711   0.000000
  328       -1.199562   0.000000
  329       -0.970106   0.000000
  330       -0.958778   0.000000
  331       -0.935553   0.000000
  332       -0.919452   0.000000
  333       -0.900024   0.000000
  334       -0.870125   0.000000
  335       -0.815440   0.000000
  336       -0.591536   0.000000
