<?xml version="1.0" encoding="ISO-8859-1"?>
<modeling>
 <generator>
  <i name="program" type="string">vasp </i>
  <i name="version" type="string">5.4.4.18Apr17-6-g9f103f2a35  </i>
  <i name="subversion" type="string">(build Sep 03 2018 23:53:05) complex            parallel </i>
  <i name="platform" type="string">LinuxIFC </i>
  <i name="date" type="string">2021 11 26 </i>
  <i name="time" type="string">12:50:11 </i>
 </generator>
 <incar>
  <i type="string" name="SYSTEM"> 6_Pd100_top_free_z(O)</i>
  <i type="int" name="ISTART">     0</i>
  <i type="string" name="PREC">normal   			! encut=max(enmax), ngx,y,z</i>
  <i type="string" name="ALGO"> Fast     			! Mix RMM-DIIS and Dav</i>
  <i type="logical" name="ADDGRID"> F  </i>
  <i type="int" name="ISPIN">     1</i>
  <i type="int" name="ICHARG">     2</i>
  <i type="int" name="NELM">   100</i>
  <i type="int" name="NELMIN">     6</i>
  <i type="int" name="IBRION">     2</i>
  <i name="EDIFF">      0.00010000</i>
  <i name="EDIFFG">     -0.05000000</i>
  <i type="int" name="NSW">     0</i>
  <i type="int" name="ISIF">     2</i>
  <i type="int" name="ISYM">     2</i>
  <i name="ENCUT">    400.00000000</i>
  <i type="string" name="LREAL"> Auto     			! Auto or A projection done</i>
  <i type="int" name="ISMEAR">     2</i>
  <i name="SIGMA">      0.20000000</i>
  <i type="logical" name="LWAVE"> F  </i>
  <i type="logical" name="LCHARG"> F  </i>
  <v type="int" name="KPOINT_BSE">    -1     0     0     0</v>
  <i type="int" name="MAXMEM"> 10000</i>
  <i type="int" name="NELM">   100</i>
  <i type="string" name="GGA"> RP         			! Revised PBE</i>
 </incar>
 <structure name="primitive_cell" >
  <crystal>
   <varray name="basis" >
    <v>      30.00000000       0.00000000       0.00000000 </v>
    <v>       0.00000000      30.00000000       0.00000000 </v>
    <v>       0.00000000       0.00000000      30.00000000 </v>
   </varray>
   <i name="volume">  27000.00000000 </i>
   <varray name="rec_basis" >
    <v>       0.03333333       0.00000000       0.00000000 </v>
    <v>       0.00000000       0.03333333       0.00000000 </v>
    <v>       0.00000000       0.00000000       0.03333333 </v>
   </varray>
  </crystal>
  <varray name="positions" >
   <v>       0.44576020       0.32826710       0.41691983 </v>
   <v>      -0.44576020       0.32826710       0.41691983 </v>
   <v>      -0.50000000       0.38250690       0.34021317 </v>
   <v>      -0.50000000       0.27609440      -0.50000000 </v>
   <v>       0.38804720       0.38804720       0.34167483 </v>
   <v>      -0.50000000       0.38416601      -0.50000000 </v>
   <v>       0.44208300       0.44208300       0.41809300 </v>
   <v>       0.38317830       0.38317830      -0.50000000 </v>
   <v>      -0.44208300       0.44208300       0.41809300 </v>
   <v>       0.44576020       0.32826710      -0.41691977 </v>
   <v>       0.32826705       0.44576024       0.41691983 </v>
   <v>      -0.38804720       0.38804720       0.34167483 </v>
   <v>      -0.38317830       0.38317830      -0.50000000 </v>
   <v>      -0.50000000      -0.50000000       0.33478917 </v>
   <v>      -0.50000000      -0.50000000      -0.50000000 </v>
   <v>      -0.44576020       0.32826710      -0.41691977 </v>
   <v>       0.38250685      -0.49999995       0.34021317 </v>
   <v>       0.44208300       0.44208300      -0.41809297 </v>
   <v>       0.38416599      -0.49999998      -0.50000000 </v>
   <v>      -0.44208300       0.44208300      -0.41809297 </v>
   <v>       0.44208298      -0.44208298       0.41809300 </v>
   <v>       0.32826705       0.44576024      -0.41691977 </v>
   <v>      -0.50000000       0.38250690      -0.34021320 </v>
   <v>       0.32826712      -0.44576022       0.41691983 </v>
   <v>      -0.38250685      -0.49999995       0.34021317 </v>
   <v>      -0.32826705       0.44576024       0.41691983 </v>
   <v>       0.27609443       0.49999998      -0.50000000 </v>
   <v>       0.38804720       0.38804720      -0.34167487 </v>
   <v>      -0.38416599      -0.49999998      -0.50000000 </v>
   <v>      -0.44208298      -0.44208298       0.41809300 </v>
   <v>       0.44208298      -0.44208298      -0.41809297 </v>
   <v>      -0.38804720       0.38804720      -0.34167487 </v>
   <v>       0.38804722      -0.38804722       0.34167483 </v>
   <v>       0.38250685      -0.49999995      -0.34021320 </v>
   <v>       0.32826712      -0.44576022      -0.41691977 </v>
   <v>      -0.32826705       0.44576024      -0.41691977 </v>
   <v>       0.50000000      -0.38250681       0.34021317 </v>
   <v>      -0.50000000      -0.38416596      -0.50000000 </v>
   <v>      -0.44208298      -0.44208298      -0.41809297 </v>
   <v>      -0.50000000      -0.50000000      -0.33478913 </v>
   <v>       0.38317828      -0.38317828      -0.50000000 </v>
   <v>      -0.32826712      -0.44576022       0.41691983 </v>
   <v>      -0.27609443       0.49999998      -0.50000000 </v>
   <v>      -0.38804722      -0.38804722       0.34167483 </v>
   <v>      -0.38250685      -0.49999995      -0.34021320 </v>
   <v>       0.44576027      -0.32826707       0.41691983 </v>
   <v>      -0.38317828      -0.38317828      -0.50000000 </v>
   <v>      -0.32826712      -0.44576022      -0.41691977 </v>
   <v>      -0.44576027      -0.32826707       0.41691983 </v>
   <v>      -0.29348317      -0.43477250      -0.46299760 </v>
   <v>       0.38804722      -0.38804722      -0.34167487 </v>
   <v>      -0.50000000      -0.38250681      -0.34021320 </v>
   <v>       0.44576027      -0.32826707      -0.41691977 </v>
   <v>      -0.44576027      -0.32826707      -0.41691977 </v>
   <v>      -0.25814117      -0.42360990      -0.45666523 </v>
   <v>      -0.50000000      -0.27609445       0.50000000 </v>
   <v>      -0.38804722      -0.38804722      -0.34167487 </v>
  </varray>
 </structure>
 <varray name="primitive_index" >
  <v type="int" >        1 </v>
  <v type="int" >        3 </v>
  <v type="int" >        5 </v>
  <v type="int" >        7 </v>
  <v type="int" >       15 </v>
  <v type="int" >       29 </v>
  <v type="int" >       28 </v>
  <v type="int" >       34 </v>
  <v type="int" >       21 </v>
  <v type="int" >       19 </v>
  <v type="int" >       22 </v>
  <v type="int" >       11 </v>
  <v type="int" >       36 </v>
  <v type="int" >       38 </v>
  <v type="int" >       52 </v>
  <v type="int" >       24 </v>
  <v type="int" >       32 </v>
  <v type="int" >       44 </v>
  <v type="int" >       48 </v>
  <v type="int" >       42 </v>
  <v type="int" >       43 </v>
  <v type="int" >       40 </v>
  <v type="int" >        6 </v>
  <v type="int" >        4 </v>
  <v type="int" >       30 </v>
  <v type="int" >       26 </v>
  <v type="int" >        8 </v>
  <v type="int" >       16 </v>
  <v type="int" >       49 </v>
  <v type="int" >       47 </v>
  <v type="int" >       53 </v>
  <v type="int" >       12 </v>
  <v type="int" >       13 </v>
  <v type="int" >       33 </v>
  <v type="int" >       25 </v>
  <v type="int" >       45 </v>
  <v type="int" >       50 </v>
  <v type="int" >       55 </v>
  <v type="int" >       54 </v>
  <v type="int" >       39 </v>
  <v type="int" >       37 </v>
  <v type="int" >        2 </v>
  <v type="int" >        9 </v>
  <v type="int" >       17 </v>
  <v type="int" >       31 </v>
  <v type="int" >       27 </v>
  <v type="int" >       35 </v>
  <v type="int" >       20 </v>
  <v type="int" >       23 </v>
  <v type="int" >       56 </v>
  <v type="int" >       14 </v>
  <v type="int" >       51 </v>
  <v type="int" >       46 </v>
  <v type="int" >       41 </v>
  <v type="int" >       57 </v>
  <v type="int" >       10 </v>
  <v type="int" >       18 </v>
 </varray>
 <kpoints>
  <generation param="Monkhorst-Pack">
   <v type="int" name="divisions">       1        1        1 </v>
   <v name="usershift">      0.00000000       0.00000000       0.00000000 </v>
   <v name="genvec1">      1.00000000       0.00000000       0.00000000 </v>
   <v name="genvec2">      0.00000000       1.00000000       0.00000000 </v>
   <v name="genvec3">      0.00000000       0.00000000       1.00000000 </v>
   <v name="shift">      0.00000000       0.00000000       0.00000000 </v>
  </generation>
  <varray name="kpointlist" >
   <v>       0.00000000       0.00000000       0.00000000 </v>
  </varray>
  <varray name="weights" >
   <v>       1.00000000 </v>
  </varray>
 </kpoints>
 <parameters>
  <separator name="general" >
   <i type="string" name="SYSTEM">6_Pd100_top_free_z(O)</i>
   <i type="logical" name="LCOMPAT"> F  </i>
  </separator>
  <separator name="electronic" >
   <i type="string" name="PREC">normal</i>
   <i name="ENMAX">    400.00000000</i>
   <i name="ENAUG">    644.87300000</i>
   <i name="EDIFF">      0.00010000</i>
   <i type="int" name="IALGO">    68</i>
   <i type="int" name="IWAVPR">    10</i>
   <i type="int" name="NBANDS">   336</i>
   <i name="NELECT">    560.00000000</i>
   <i type="int" name="TURBO">     0</i>
   <i type="int" name="IRESTART">     0</i>
   <i type="int" name="NREBOOT">     0</i>
   <i type="int" name="NMIN">     0</i>
   <i name="EREF">      0.00000000</i>
   <separator name="electronic smearing" >
    <i type="int" name="ISMEAR">     2</i>
    <i name="SIGMA">      0.20000000</i>
    <i name="KSPACING">      0.50000000</i>
    <i type="logical" name="KGAMMA"> T  </i>
   </separator>
   <separator name="electronic projectors" >
    <i type="logical" name="LREAL"> T  </i>
    <v name="ROPT">     -0.00050000     -0.00050000     -0.00050000</v>
    <i type="int" name="LMAXPAW">  -100</i>
    <i type="int" name="LMAXMIX">     2</i>
    <i type="logical" name="NLSPLINE"> F  </i>
   </separator>
   <separator name="electronic startup" >
    <i type="int" name="ISTART">     0</i>
    <i type="int" name="ICHARG">     2</i>
    <i type="int" name="INIWAV">     1</i>
   </separator>
   <separator name="electronic spin" >
    <i type="int" name="ISPIN">     1</i>
    <i type="logical" name="LNONCOLLINEAR"> F  </i>
    <v name="MAGMOM">      1.00000000      1.00000000      1.00000000      1.00000000      1.00000000      1.00000000      1.00000000      1.00000000      1.00000000      1.00000000      1.00000000      1.00000000      1.00000000      1.00000000      1.00000000      1.00000000      1.00000000      1.00000000      1.00000000      1.00000000
      1.00000000      1.00000000      1.00000000      1.00000000      1.00000000      1.00000000      1.00000000      1.00000000      1.00000000      1.00000000      1.00000000      1.00000000      1.00000000      1.00000000      1.00000000      1.00000000      1.00000000      1.00000000      1.00000000      1.00000000
      1.00000000      1.00000000      1.00000000      1.00000000      1.00000000      1.00000000      1.00000000      1.00000000      1.00000000      1.00000000      1.00000000      1.00000000      1.00000000      1.00000000      1.00000000      1.00000000      1.00000000</v>
    <i name="NUPDOWN">     -1.00000000</i>
    <i type="logical" name="LSORBIT"> F  </i>
    <v name="SAXIS">      0.00000000      0.00000000      1.00000000</v>
    <i type="logical" name="LSPIRAL"> F  </i>
    <v name="QSPIRAL">      0.00000000      0.00000000      0.00000000</v>
    <i type="logical" name="LZEROZ"> F  </i>
   </separator>
   <separator name="electronic exchange-correlation" >
    <i type="logical" name="LASPH"> F  </i>
    <i type="logical" name="LMETAGGA"> F  </i>
   </separator>
   <separator name="electronic convergence" >
    <i type="int" name="NELM">   100</i>
    <i type="int" name="NELMDL">    -5</i>
    <i type="int" name="NELMIN">     6</i>
    <i name="ENINI">    400.00000000</i>
    <separator name="electronic convergence detail" >
     <i type="logical" name="LDIAG"> T  </i>
     <i type="logical" name="LSUBROT"> F  </i>
     <i name="WEIMIN">      0.00000000</i>
     <i name="EBREAK">      0.00000007</i>
     <i name="DEPER">      0.30000000</i>
     <i type="int" name="NRMM">     4</i>
     <i name="TIME">      0.40000000</i>
    </separator>
   </separator>
   <separator name="electronic mixer" >
    <i name="AMIX">      0.40000000</i>
    <i name="BMIX">      1.00000000</i>
    <i name="AMIN">      0.10000000</i>
    <i name="AMIX_MAG">      1.60000000</i>
    <i name="BMIX_MAG">      1.00000000</i>
    <separator name="electronic mixer details" >
     <i type="int" name="IMIX">     4</i>
     <i type="logical" name="MIXFIRST"> F  </i>
     <i type="int" name="MAXMIX">   -45</i>
     <i name="WC">    100.00000000</i>
     <i type="int" name="INIMIX">     1</i>
     <i type="int" name="MIXPRE">     1</i>
     <i type="int" name="MREMOVE">     5</i>
    </separator>
   </separator>
   <separator name="electronic dipolcorrection" >
    <i type="logical" name="LDIPOL"> F  </i>
    <i type="logical" name="LMONO"> F  </i>
    <i type="int" name="IDIPOL">     0</i>
    <i name="EPSILON">      1.00000000</i>
    <v name="DIPOL">   -100.00000000   -100.00000000   -100.00000000</v>
    <i name="EFIELD">      0.00000000</i>
   </separator>
  </separator>
  <separator name="grids" >
   <i type="int" name="NGX">   150</i>
   <i type="int" name="NGY">   150</i>
   <i type="int" name="NGZ">   150</i>
   <i type="int" name="NGXF">   300</i>
   <i type="int" name="NGYF">   300</i>
   <i type="int" name="NGZF">   300</i>
   <i type="logical" name="ADDGRID"> F  </i>
  </separator>
  <separator name="ionic" >
   <i type="int" name="NSW">     0</i>
   <i type="int" name="IBRION">    -1</i>
   <i type="int" name="MDALGO">     0</i>
   <i type="int" name="ISIF">     2</i>
   <i name="PSTRESS">      0.00000000</i>
   <i name="EDIFFG">     -0.05000000</i>
   <i type="int" name="NFREE">     1</i>
   <i name="POTIM">      0.50000000</i>
   <i name="SMASS">     -3.00000000</i>
   <i name="SCALEE">      1.00000000</i>
  </separator>
  <separator name="ionic md" >
   <i name="TEBEG">      0.00010000</i>
   <i name="TEEND">      0.00010000</i>
   <i type="int" name="NBLOCK">     1</i>
   <i type="int" name="KBLOCK">     1</i>
   <i type="int" name="NPACO">   256</i>
   <i name="APACO">     16.00000000</i>
  </separator>
  <separator name="symmetry" >
   <i type="int" name="ISYM">     2</i>
   <i name="SYMPREC">      0.00001000</i>
  </separator>
  <separator name="dos" >
   <i type="int" name="LORBIT">     0</i>
   <v name="RWIGS">     -1.00000000     -1.00000000     -1.00000000</v>
   <i type="int" name="NEDOS">   301</i>
   <i name="EMIN">     10.00000000</i>
   <i name="EMAX">    -10.00000000</i>
   <i name="EFERMI">      0.00000000</i>
  </separator>
  <separator name="writing" >
   <i type="int" name="NWRITE">     2</i>
   <i type="logical" name="LWAVE"> F  </i>
   <i type="logical" name="LDOWNSAMPLE"> F  </i>
   <i type="logical" name="LCHARG"> F  </i>
   <i type="logical" name="LPARD"> F  </i>
   <i type="logical" name="LVTOT"> F  </i>
   <i type="logical" name="LVHAR"> F  </i>
   <i type="logical" name="LELF"> F  </i>
   <i type="logical" name="LOPTICS"> F  </i>
   <v name="STM">      0.00000000      0.00000000      0.00000000      0.00000000      0.00000000      0.00000000      0.00000000</v>
  </separator>
  <separator name="performance" >
   <i type="int" name="NPAR">     1</i>
   <i type="int" name="NSIM">     4</i>
   <i type="int" name="NBLK">    -1</i>
   <i type="logical" name="LPLANE"> T  </i>
   <i type="logical" name="LSCALAPACK"> T  </i>
   <i type="logical" name="LSCAAWARE"> F  </i>
   <i type="logical" name="LSCALU"> F  </i>
   <i type="logical" name="LASYNC"> F  </i>
   <i type="logical" name="LORBITALREAL"> F  </i>
  </separator>
  <separator name="miscellaneous" >
   <i type="int" name="IDIOT">     3</i>
   <i type="int" name="ISPECIAL">     0</i>
   <i type="logical" name="LMUSIC"> F  </i>
   <v name="POMASS">    106.42000000     12.01100000     16.00000000</v>
   <v name="DARWINR">      0.00000000      0.00000000      0.00000000</v>
   <v name="DARWINV">      1.00000000      1.00000000      1.00000000</v>
   <i type="logical" name="LCORR"> T  </i>
  </separator>
  <i type="logical" name="GGA_COMPAT"> T  </i>
  <i type="logical" name="LBERRY"> F  </i>
  <i type="int" name="ICORELEVEL">     0</i>
  <i type="logical" name="LDAU"> F  </i>
  <i type="int" name="I_CONSTRAINED_M">     0</i>
  <separator name="electronic exchange-correlation" >
   <i type="string" name="GGA">RP</i>
   <i type="int" name="VOSKOWN">     0</i>
   <i type="logical" name="LHFCALC"> F  </i>
   <i type="string" name="PRECFOCK"></i>
   <i type="logical" name="LSYMGRAD"> F  </i>
   <i type="logical" name="LHFONE"> F  </i>
   <i type="logical" name="LRHFCALC"> F  </i>
   <i type="logical" name="LTHOMAS"> F  </i>
   <i type="logical" name="LMODELHF"> F  </i>
   <i name="ENCUT4O">     -1.00000000</i>
   <i type="int" name="EXXOEP">     0</i>
   <i type="int" name="FOURORBIT">     0</i>
   <i name="AEXX">      0.00000000</i>
   <i name="HFALPHA">      0.00000000</i>
   <i name="MCALPHA">      0.00000000</i>
   <i name="ALDAX">      1.00000000</i>
   <i name="AGGAX">      1.00000000</i>
   <i name="ALDAC">      1.00000000</i>
   <i name="AGGAC">      1.00000000</i>
   <i type="int" name="NKREDX">     1</i>
   <i type="int" name="NKREDY">     1</i>
   <i type="int" name="NKREDZ">     1</i>
   <i type="logical" name="SHIFTRED"> F  </i>
   <i type="logical" name="ODDONLY"> F  </i>
   <i type="logical" name="EVENONLY"> F  </i>
   <i type="int" name="LMAXFOCK">     0</i>
   <i type="int" name="NMAXFOCKAE">     0</i>
   <i type="logical" name="LFOCKAEDFT"> F  </i>
   <i name="HFSCREEN">      0.00000000</i>
   <i name="HFSCREENC">      0.00000000</i>
   <i type="int" name="NBANDSGWLOW">     0</i>
  </separator>
  <separator name="vdW DFT" >
   <i type="logical" name="LUSE_VDW"> F  </i>
   <i name="Zab_VDW">     -0.84910000</i>
   <i name="PARAM1">      0.12340000</i>
   <i name="PARAM2">      1.00000000</i>
   <i name="PARAM3">      0.00000000</i>
  </separator>
  <separator name="model GW" >
   <i type="int" name="MODEL_GW">     0</i>
   <i name="MODEL_EPS0">    284.21052632</i>
   <i name="MODEL_ALPHA">      1.00000000</i>
  </separator>
  <separator name="linear response parameters" >
   <i type="logical" name="LEPSILON"> F  </i>
   <i type="logical" name="LRPA"> F  </i>
   <i type="logical" name="LNABLA"> F  </i>
   <i type="logical" name="LVEL"> F  </i>
   <i type="int" name="KINTER">     0</i>
   <i name="CSHIFT">      0.10000000</i>
   <i name="OMEGAMAX">     -1.00000000</i>
   <i name="DEG_THRESHOLD">      0.00200000</i>
   <i name="RTIME">     -0.10000000</i>
   <i name="WPLASMAI">      0.00000000</i>
   <v name="DFIELD">      0.00000000      0.00000000      0.00000000</v>
   <v name="WPLASMA">      0.00000000      0.00000000      0.00000000      0.00000000      0.00000000      0.00000000      0.00000000      0.00000000      0.00000000</v>
  </separator>
  <separator name="orbital magnetization" >
   <i type="logical" name="NUCIND"> F  </i>
   <v name="MAGPOS">      0.00000000      0.00000000      0.00000000</v>
   <i type="logical" name="LNICSALL"> T  </i>
   <i type="logical" name="ORBITALMAG"> F  </i>
   <i type="logical" name="LMAGBLOCH"> F  </i>
   <i type="logical" name="LCHIMAG"> F  </i>
   <i type="logical" name="LGAUGE"> T  </i>
   <i type="int" name="MAGATOM">     0</i>
   <v name="MAGDIPOL">      0.00000000      0.00000000      0.00000000</v>
   <v name="AVECCONST">      0.00000000      0.00000000      0.00000000</v>
  </separator>
  <separator name="response functions" >
   <i type="logical" name="LADDER"> F  </i>
   <i type="logical" name="LRPAFORCE"> F  </i>
   <i type="logical" name="LFXC"> F  </i>
   <i type="logical" name="LHARTREE"> T  </i>
   <i type="int" name="IBSE">     0</i>
   <v type="int" name="KPOINT">    -1     0     0     0</v>
   <i type="logical" name="LTCTE"> F  </i>
   <i type="logical" name="LTETE"> F  </i>
   <i type="logical" name="LTRIPLET"> F  </i>
   <i type="logical" name="LFXCEPS"> F  </i>
   <i type="logical" name="LFXHEG"> F  </i>
   <i type="int" name="NATURALO">     2</i>
   <i type="logical" name="L2ORDER"> F  </i>
   <i type="logical" name="LMP2LT"> F  </i>
   <i type="logical" name="LUSEW"> F  </i>
   <i name="ENCUTGW">     -2.00000000</i>
   <i name="ENCUTGWSOFT">     -2.00000000</i>
   <i name="ENCUTLF">     -1.00000000</i>
   <i type="int" name="LMAXMP2">    -1</i>
   <i name="SCISSOR">      0.00000000</i>
   <i type="int" name="NOMEGA">     0</i>
   <i type="int" name="NOMEGAR">     0</i>
   <i type="int" name="NBANDSGW">    -1</i>
   <i type="int" name="NBANDSO">    -1</i>
   <i type="int" name="NBANDSV">    -1</i>
   <i type="int" name="NELM">   100</i>
   <i type="int" name="NELMHF">     1</i>
   <i type="int" name="DIM">     3</i>
   <i type="int" name="ANTIRES">     0</i>
   <i name="OMEGAMAX">    -30.00000000</i>
   <i name="OMEGAMIN">    -30.00000000</i>
   <i name="OMEGATL">   -200.00000000</i>
   <i type="int" name="OMEGAGRID">   140</i>
   <i name="CSHIFT">     -0.10000000</i>
   <i type="logical" name="SELFENERGY"> F  </i>
   <i type="logical" name="LSPECTRAL"> F  </i>
   <i type="logical" name="LSPECTRALGW"> F  </i>
   <i type="logical" name="LSINGLES"> F  </i>
   <i type="logical" name="LFERMIGW"> F  </i>
   <i type="logical" name="ODDONLYGW"> F  </i>
   <i type="logical" name="EVENONLYGW"> F  </i>
   <i type="int" name="NKREDLFX">     1</i>
   <i type="int" name="NKREDLFY">     1</i>
   <i type="int" name="NKREDLFZ">     1</i>
   <i type="int" name="MAXMEM"> 10000</i>
   <i type="int" name="TELESCOPE">     0</i>
   <i type="int" name="TAUPAR">     1</i>
   <i type="int" name="OMEGAPAR">    -1</i>
   <i name="LAMBDA">      1.00000000</i>
  </separator>
  <separator name="External order field" >
   <i name="OFIELD_KAPPA">      0.00000000</i>
   <v name="OFIELD_K">      0.00000000      0.00000000      0.00000000</v>
   <i name="OFIELD_Q6_NEAR">      0.00000000</i>
   <i name="OFIELD_Q6_FAR">      0.00000000</i>
   <i name="OFIELD_A">      0.00000000</i>
  </separator>
 </parameters>
 <atominfo>
  <atoms>      57 </atoms>
  <types>       3 </types>
  <array name="atoms" >
   <dimension dim="1">ion</dimension>
   <field type="string">element</field>
   <field type="int">atomtype</field>
   <set>
    <rc><c>Pd</c><c>   1</c></rc>
    <rc><c>Pd</c><c>   1</c></rc>
    <rc><c>Pd</c><c>   1</c></rc>
    <rc><c>Pd</c><c>   1</c></rc>
    <rc><c>Pd</c><c>   1</c></rc>
    <rc><c>Pd</c><c>   1</c></rc>
    <rc><c>Pd</c><c>   1</c></rc>
    <rc><c>Pd</c><c>   1</c></rc>
    <rc><c>Pd</c><c>   1</c></rc>
    <rc><c>Pd</c><c>   1</c></rc>
    <rc><c>Pd</c><c>   1</c></rc>
    <rc><c>Pd</c><c>   1</c></rc>
    <rc><c>Pd</c><c>   1</c></rc>
    <rc><c>Pd</c><c>   1</c></rc>
    <rc><c>Pd</c><c>   1</c></rc>
    <rc><c>Pd</c><c>   1</c></rc>
    <rc><c>Pd</c><c>   1</c></rc>
    <rc><c>Pd</c><c>   1</c></rc>
    <rc><c>Pd</c><c>   1</c></rc>
    <rc><c>Pd</c><c>   1</c></rc>
    <rc><c>Pd</c><c>   1</c></rc>
    <rc><c>Pd</c><c>   1</c></rc>
    <rc><c>Pd</c><c>   1</c></rc>
    <rc><c>Pd</c><c>   1</c></rc>
    <rc><c>Pd</c><c>   1</c></rc>
    <rc><c>Pd</c><c>   1</c></rc>
    <rc><c>Pd</c><c>   1</c></rc>
    <rc><c>Pd</c><c>   1</c></rc>
    <rc><c>Pd</c><c>   1</c></rc>
    <rc><c>Pd</c><c>   1</c></rc>
    <rc><c>Pd</c><c>   1</c></rc>
    <rc><c>Pd</c><c>   1</c></rc>
    <rc><c>Pd</c><c>   1</c></rc>
    <rc><c>Pd</c><c>   1</c></rc>
    <rc><c>Pd</c><c>   1</c></rc>
    <rc><c>Pd</c><c>   1</c></rc>
    <rc><c>Pd</c><c>   1</c></rc>
    <rc><c>Pd</c><c>   1</c></rc>
    <rc><c>Pd</c><c>   1</c></rc>
    <rc><c>Pd</c><c>   1</c></rc>
    <rc><c>Pd</c><c>   1</c></rc>
    <rc><c>Pd</c><c>   1</c></rc>
    <rc><c>Pd</c><c>   1</c></rc>
    <rc><c>Pd</c><c>   1</c></rc>
    <rc><c>Pd</c><c>   1</c></rc>
    <rc><c>Pd</c><c>   1</c></rc>
    <rc><c>Pd</c><c>   1</c></rc>
    <rc><c>Pd</c><c>   1</c></rc>
    <rc><c>Pd</c><c>   1</c></rc>
    <rc><c>Pd</c><c>   1</c></rc>
    <rc><c>Pd</c><c>   1</c></rc>
    <rc><c>Pd</c><c>   1</c></rc>
    <rc><c>Pd</c><c>   1</c></rc>
    <rc><c>Pd</c><c>   1</c></rc>
    <rc><c>Pd</c><c>   1</c></rc>
    <rc><c>C </c><c>   2</c></rc>
    <rc><c>O </c><c>   3</c></rc>
   </set>
  </array>
  <array name="atomtypes" >
   <dimension dim="1">type</dimension>
   <field type="int">atomspertype</field>
   <field type="string">element</field>
   <field>mass</field>
   <field>valence</field>
   <field type="string">pseudopotential</field>
   <set>
    <rc><c>  55</c><c>Pd</c><c>    106.42000000</c><c>     10.00000000</c><c>  PAW_PBE Pd 04Jan2005                  </c></rc>
    <rc><c>   1</c><c>C </c><c>     12.01100000</c><c>      4.00000000</c><c>  PAW_PBE C 08Apr2002                   </c></rc>
    <rc><c>   1</c><c>O </c><c>     16.00000000</c><c>      6.00000000</c><c>  PAW_PBE O 08Apr2002                   </c></rc>
   </set>
  </array>
 </atominfo>
 <structure name="initialpos" >
  <crystal>
   <varray name="basis" >
    <v>      30.00000000       0.00000000       0.00000000 </v>
    <v>       0.00000000      30.00000000       0.00000000 </v>
    <v>       0.00000000       0.00000000      30.00000000 </v>
   </varray>
   <i name="volume">  27000.00000000 </i>
   <varray name="rec_basis" >
    <v>       0.03333333       0.00000000       0.00000000 </v>
    <v>       0.00000000       0.03333333       0.00000000 </v>
    <v>       0.00000000       0.00000000       0.03333333 </v>
   </varray>
  </crystal>
  <varray name="positions" >
   <v>       0.44576020       0.32826710       0.41691983 </v>
   <v>       0.67173288       0.55423978       0.41691983 </v>
   <v>       0.55423980       0.32826710       0.41691983 </v>
   <v>       0.32826712       0.55423978       0.41691983 </v>
   <v>       0.50000000       0.38250690       0.34021317 </v>
   <v>       0.50000000       0.38250690       0.65978680 </v>
   <v>       0.50000000       0.27609440       0.50000000 </v>
   <v>       0.27609443       0.49999998       0.50000000 </v>
   <v>       0.72390557       0.49999998       0.50000000 </v>
   <v>       0.50000000       0.72390555       0.50000000 </v>
   <v>       0.61195280       0.38804720       0.34167483 </v>
   <v>       0.61195280       0.38804720       0.65832513 </v>
   <v>       0.38804722       0.61195278       0.34167483 </v>
   <v>       0.38804722       0.61195278       0.65832513 </v>
   <v>       0.38804720       0.38804720       0.34167483 </v>
   <v>       0.38804720       0.38804720       0.65832513 </v>
   <v>       0.61195278       0.61195278       0.34167483 </v>
   <v>       0.61195278       0.61195278       0.65832513 </v>
   <v>       0.44576020       0.32826710       0.58308023 </v>
   <v>       0.67173288       0.55423978       0.58308023 </v>
   <v>       0.55791699       0.44208301       0.41809300 </v>
   <v>       0.32826705       0.44576024       0.41691983 </v>
   <v>       0.55423973       0.67173293       0.41691983 </v>
   <v>       0.55423980       0.32826710       0.58308023 </v>
   <v>       0.32826712       0.55423978       0.58308023 </v>
   <v>       0.67173295       0.44576024       0.41691983 </v>
   <v>       0.44576027       0.67173293       0.41691983 </v>
   <v>       0.44208301       0.44208301       0.41809300 </v>
   <v>       0.50000000       0.38416601       0.50000000 </v>
   <v>       0.61749315       0.50000005       0.34021317 </v>
   <v>       0.61749315       0.50000005       0.65978680 </v>
   <v>       0.38250685       0.50000005       0.34021317 </v>
   <v>       0.38250685       0.50000005       0.65978680 </v>
   <v>       0.38317830       0.38317830       0.50000000 </v>
   <v>       0.61682172       0.61682172       0.50000000 </v>
   <v>       0.61682170       0.38317830       0.50000000 </v>
   <v>       0.38317828       0.61682172       0.50000000 </v>
   <v>       0.50000000       0.50000000       0.33478917 </v>
   <v>       0.50000000       0.50000000       0.66521087 </v>
   <v>       0.32826705       0.44576024       0.58308023 </v>
   <v>       0.55423973       0.67173293       0.58308023 </v>
   <v>       0.55791699       0.44208301       0.58190703 </v>
   <v>       0.44208298       0.55791702       0.41809300 </v>
   <v>       0.44208301       0.44208301       0.58190703 </v>
   <v>       0.67173295       0.44576024       0.58308023 </v>
   <v>       0.44576027       0.67173293       0.58308023 </v>
   <v>       0.55791702       0.55791702       0.41809300 </v>
   <v>       0.38416599       0.50000002       0.50000000 </v>
   <v>       0.61583401       0.50000002       0.50000000 </v>
   <v>       0.50000000       0.61749319       0.34021317 </v>
   <v>       0.50000000       0.61749319       0.65978680 </v>
   <v>       0.50000000       0.50000000       0.50000000 </v>
   <v>       0.44208298       0.55791702       0.58190703 </v>
   <v>       0.55791702       0.55791702       0.58190703 </v>
   <v>       0.50000000       0.61583404       0.50000000 </v>
   <v>       0.70651683       0.56522750       0.53700240 </v>
   <v>       0.74185883       0.57639010       0.54333477 </v>
  </varray>
  <varray name="selective"  type="logical" >
   <v type="logical" >  F  F  F </v>
   <v type="logical" >  F  F  F </v>
   <v type="logical" >  F  F  F </v>
   <v type="logical" >  F  F  F </v>
   <v type="logical" >  F  F  F </v>
   <v type="logical" >  F  F  F </v>
   <v type="logical" >  F  F  F </v>
   <v type="logical" >  F  F  F </v>
   <v type="logical" >  F  F  F </v>
   <v type="logical" >  F  F  F </v>
   <v type="logical" >  F  F  F </v>
   <v type="logical" >  F  F  F </v>
   <v type="logical" >  F  F  F </v>
   <v type="logical" >  F  F  F </v>
   <v type="logical" >  F  F  F </v>
   <v type="logical" >  F  F  F </v>
   <v type="logical" >  F  F  F </v>
   <v type="logical" >  F  F  F </v>
   <v type="logical" >  F  F  F </v>
   <v type="logical" >  F  F  F </v>
   <v type="logical" >  F  F  F </v>
   <v type="logical" >  F  F  F </v>
   <v type="logical" >  F  F  F </v>
   <v type="logical" >  F  F  F </v>
   <v type="logical" >  F  F  F </v>
   <v type="logical" >  F  F  F </v>
   <v type="logical" >  F  F  F </v>
   <v type="logical" >  F  F  F </v>
   <v type="logical" >  F  F  F </v>
   <v type="logical" >  F  F  F </v>
   <v type="logical" >  F  F  F </v>
   <v type="logical" >  F  F  F </v>
   <v type="logical" >  F  F  F </v>
   <v type="logical" >  F  F  F </v>
   <v type="logical" >  F  F  F </v>
   <v type="logical" >  F  F  F </v>
   <v type="logical" >  F  F  F </v>
   <v type="logical" >  F  F  F </v>
   <v type="logical" >  F  F  F </v>
   <v type="logical" >  F  F  F </v>
   <v type="logical" >  F  F  F </v>
   <v type="logical" >  F  F  F </v>
   <v type="logical" >  F  F  F </v>
   <v type="logical" >  F  F  F </v>
   <v type="logical" >  F  F  F </v>
   <v type="logical" >  F  F  F </v>
   <v type="logical" >  F  F  F </v>
   <v type="logical" >  F  F  F </v>
   <v type="logical" >  F  F  F </v>
   <v type="logical" >  F  F  F </v>
   <v type="logical" >  F  F  F </v>
   <v type="logical" >  F  F  F </v>
   <v type="logical" >  F  F  F </v>
   <v type="logical" >  F  F  F </v>
   <v type="logical" >  F  F  F </v>
   <v type="logical" >  F  F  F </v>
   <v type="logical" >  F  F  F </v>
  </varray>
  <nose>
   <v>      -3.00000000       0.00000000       0.00010000       0.00010000 </v>
  </nose>
 </structure>
 <calculation>
  <scstep>
   <time name="dav">  541.76  541.91</time>
   <time name="total">  561.12  561.27</time>
   <energy>
    <i name="alphaZ">     75.25431677 </i>
    <i name="ewald"> 139200.32903024 </i>
    <i name="hartreedc">-182551.07240370 </i>
    <i name="XCdc">  -1701.95615590 </i>
    <i name="pawpsdc">  44873.02882129 </i>
    <i name="pawaedc"> -41398.84523641 </i>
    <i name="eentropy">      0.01823466 </i>
    <i name="bandstr">    814.49573241 </i>
    <i name="atom">  45086.50549395 </i>
    <i name="e_fr_energy">   4397.75783332 </i>
    <i name="e_wo_entrp">   4397.73959866 </i>
    <i name="e_0_energy">   4397.75327466 </i>
   </energy>
  </scstep>
  <scstep>
   <time name="dav">  865.29  865.30</time>
   <time name="total">  865.29  865.30</time>
   <energy>
    <i name="e_fr_energy">   2012.70895470 </i>
    <i name="e_wo_entrp">   2012.74021755 </i>
    <i name="e_0_energy">   2012.71677041 </i>
   </energy>
  </scstep>
  <scstep>
   <time name="dav">  731.61  731.62</time>
   <time name="total">  731.61  731.62</time>
   <energy>
    <i name="e_fr_energy">    235.66954388 </i>
    <i name="e_wo_entrp">    235.69868800 </i>
    <i name="e_0_energy">    235.67682991 </i>
   </energy>
  </scstep>
  <scstep>
   <time name="dav">  652.59  652.60</time>
   <time name="total">  652.60  652.60</time>
   <energy>
    <i name="e_fr_energy">   -133.69071398 </i>
    <i name="e_wo_entrp">   -133.69854761 </i>
    <i name="e_0_energy">   -133.69267238 </i>
   </energy>
  </scstep>
  <scstep>
   <time name="dav">  791.53  791.54</time>
   <time name="total">  831.60  831.61</time>
   <energy>
    <i name="e_fr_energy">   -180.22383554 </i>
    <i name="e_wo_entrp">   -180.77010506 </i>
    <i name="e_0_energy">   -180.36040292 </i>
   </energy>
  </scstep>
  <scstep>
   <time name="diag">  110.20  110.20</time>
   <time name="diis">  299.79  299.79</time>
   <time name="orth">   20.44   20.44</time>
   <time name="total">  489.15  489.16</time>
   <energy>
    <i name="e_fr_energy">   -179.72366245 </i>
    <i name="e_wo_entrp">   -179.48711917 </i>
    <i name="e_0_energy">   -179.66452663 </i>
   </energy>
  </scstep>
  <scstep>
   <time name="diag">  110.17  110.17</time>
   <time name="diis">  347.00  347.00</time>
   <time name="orth">   21.65   21.65</time>
   <time name="total">  542.01  542.02</time>
   <energy>
    <i name="e_fr_energy">   -183.46179325 </i>
    <i name="e_wo_entrp">   -183.36187564 </i>
    <i name="e_0_energy">   -183.43681385 </i>
   </energy>
  </scstep>
  <scstep>
   <time name="diag">  106.92  106.93</time>
   <time name="diis">  341.63  341.64</time>
   <time name="orth">   22.87   22.87</time>
   <time name="total">  533.62  533.62</time>
   <energy>
    <i name="e_fr_energy">   -186.35570422 </i>
    <i name="e_wo_entrp">   -186.18831052 </i>
    <i name="e_0_energy">   -186.31385579 </i>
   </energy>
  </scstep>
  <scstep>
   <time name="diag">  103.60  103.60</time>
   <time name="diis">  310.13  310.13</time>
   <time name="orth">   22.69   22.69</time>
   <time name="total">  499.67  499.67</time>
   <energy>
    <i name="e_fr_energy">   -184.25588411 </i>
    <i name="e_wo_entrp">   -184.08310929 </i>
    <i name="e_0_energy">   -184.21269040 </i>
   </energy>
  </scstep>
  <scstep>
   <time name="diag">  103.73  103.73</time>
   <time name="diis">  314.93  314.93</time>
   <time name="orth">   22.21   22.21</time>
   <time name="total">  503.51  503.52</time>
   <energy>
    <i name="e_fr_energy">   -181.37874517 </i>
    <i name="e_wo_entrp">   -181.24512581 </i>
    <i name="e_0_energy">   -181.34534033 </i>
   </energy>
  </scstep>
  <scstep>
   <time name="diag">  104.32  104.32</time>
   <time name="diis">  304.67  304.67</time>
   <time name="orth">   21.88   21.88</time>
   <time name="total">  492.06  492.07</time>
   <energy>
    <i name="e_fr_energy">   -178.44717732 </i>
    <i name="e_wo_entrp">   -178.45809375 </i>
    <i name="e_0_energy">   -178.44990643 </i>
   </energy>
  </scstep>
  <scstep>
   <time name="diag">  104.88  104.88</time>
   <time name="diis">  302.17  302.18</time>
   <time name="orth">   21.76   21.76</time>
   <time name="total">  489.38  489.40</time>
   <energy>
    <i name="e_fr_energy">   -177.10902455 </i>
    <i name="e_wo_entrp">   -177.13127581 </i>
    <i name="e_0_energy">   -177.11458736 </i>
   </energy>
  </scstep>
  <scstep>
   <time name="diag">  104.33  104.34</time>
   <time name="diis">  305.61  305.63</time>
   <time name="orth">   23.56   23.56</time>
   <time name="total">  494.64  494.68</time>
   <energy>
    <i name="e_fr_energy">   -176.72252444 </i>
    <i name="e_wo_entrp">   -176.69059613 </i>
    <i name="e_0_energy">   -176.71454237 </i>
   </energy>
  </scstep>
  <scstep>
   <time name="diag">  105.76  105.77</time>
   <time name="diis">  300.19  300.21</time>
   <time name="orth">   21.76   21.76</time>
   <time name="total">  487.85  487.88</time>
   <energy>
    <i name="e_fr_energy">   -176.76365391 </i>
    <i name="e_wo_entrp">   -176.75283489 </i>
    <i name="e_0_energy">   -176.76094916 </i>
   </energy>
  </scstep>
  <scstep>
   <time name="diag">  105.26  105.27</time>
   <time name="diis">  296.31  296.33</time>
   <time name="orth">   21.68   21.68</time>
   <time name="total">  483.97  484.01</time>
   <energy>
    <i name="e_fr_energy">   -176.18916943 </i>
    <i name="e_wo_entrp">   -176.12349280 </i>
    <i name="e_0_energy">   -176.17275027 </i>
   </energy>
  </scstep>
  <scstep>
   <time name="diag">  105.18  105.18</time>
   <time name="diis">  301.28  301.30</time>
   <time name="orth">   21.74   21.74</time>
   <time name="total">  488.87  488.90</time>
   <energy>
    <i name="e_fr_energy">   -176.32495329 </i>
    <i name="e_wo_entrp">   -176.45489370 </i>
    <i name="e_0_energy">   -176.35743840 </i>
   </energy>
  </scstep>
  <scstep>
   <time name="diag">  105.45  105.46</time>
   <time name="diis">  301.03  301.06</time>
   <time name="orth">   22.09   22.09</time>
   <time name="total">  489.09  489.13</time>
   <energy>
    <i name="e_fr_energy">   -175.46936735 </i>
    <i name="e_wo_entrp">   -175.49340715 </i>
    <i name="e_0_energy">   -175.47537730 </i>
   </energy>
  </scstep>
  <scstep>
   <time name="diag">  105.73  105.73</time>
   <time name="diis">  294.55  294.57</time>
   <time name="orth">   21.99   21.99</time>
   <time name="total">  483.20  483.24</time>
   <energy>
    <i name="e_fr_energy">   -175.44753701 </i>
    <i name="e_wo_entrp">   -175.52782319 </i>
    <i name="e_0_energy">   -175.46760856 </i>
   </energy>
  </scstep>
  <scstep>
   <time name="diag">  105.46  105.47</time>
   <time name="diis">  299.96  299.98</time>
   <time name="orth">   22.14   22.14</time>
   <time name="total">  488.30  488.33</time>
   <energy>
    <i name="e_fr_energy">   -175.72076586 </i>
    <i name="e_wo_entrp">   -175.90363507 </i>
    <i name="e_0_energy">   -175.76648316 </i>
   </energy>
  </scstep>
  <scstep>
   <time name="diag">  105.88  105.89</time>
   <time name="diis">  295.12  295.14</time>
   <time name="orth">   22.05   22.05</time>
   <time name="total">  484.25  484.28</time>
   <energy>
    <i name="e_fr_energy">   -175.29423752 </i>
    <i name="e_wo_entrp">   -175.33521473 </i>
    <i name="e_0_energy">   -175.30448182 </i>
   </energy>
  </scstep>
  <scstep>
   <time name="diag">  105.63  105.64</time>
   <time name="diis">  293.57  293.59</time>
   <time name="orth">   21.92   21.92</time>
   <time name="total">  482.78  482.80</time>
   <energy>
    <i name="e_fr_energy">   -175.00072728 </i>
    <i name="e_wo_entrp">   -175.01580636 </i>
    <i name="e_0_energy">   -175.00449705 </i>
   </energy>
  </scstep>
  <scstep>
   <time name="diag">  105.32  105.32</time>
   <time name="diis">  293.47  293.47</time>
   <time name="orth">   22.02   22.02</time>
   <time name="total">  482.31  482.32</time>
   <energy>
    <i name="e_fr_energy">   -174.88915594 </i>
    <i name="e_wo_entrp">   -174.87620961 </i>
    <i name="e_0_energy">   -174.88591936 </i>
   </energy>
  </scstep>
  <scstep>
   <time name="diag">  105.70  105.70</time>
   <time name="diis">  290.74  290.74</time>
   <time name="orth">   22.08   22.08</time>
   <time name="total">  480.88  480.89</time>
   <energy>
    <i name="e_fr_energy">   -174.91187466 </i>
    <i name="e_wo_entrp">   -174.87517534 </i>
    <i name="e_0_energy">   -174.90269983 </i>
   </energy>
  </scstep>
  <scstep>
   <time name="diag">  105.60  105.60</time>
   <time name="diis">  292.09  292.09</time>
   <time name="orth">   22.15   22.15</time>
   <time name="total">  482.72  482.73</time>
   <energy>
    <i name="e_fr_energy">   -174.85810162 </i>
    <i name="e_wo_entrp">   -174.79897737 </i>
    <i name="e_0_energy">   -174.84332056 </i>
   </energy>
  </scstep>
  <scstep>
   <time name="diag">  105.81  105.82</time>
   <time name="diis">  288.19  288.19</time>
   <time name="orth">   22.00   22.00</time>
   <time name="total">  479.11  479.14</time>
   <energy>
    <i name="e_fr_energy">   -174.72666024 </i>
    <i name="e_wo_entrp">   -174.67079606 </i>
    <i name="e_0_energy">   -174.71269419 </i>
   </energy>
  </scstep>
  <scstep>
   <time name="diag">  104.85  104.85</time>
   <time name="diis">  289.02  289.03</time>
   <time name="orth">   21.78   21.78</time>
   <time name="total">  479.45  479.46</time>
   <energy>
    <i name="e_fr_energy">   -174.64817857 </i>
    <i name="e_wo_entrp">   -174.61547483 </i>
    <i name="e_0_energy">   -174.64000264 </i>
   </energy>
  </scstep>
  <scstep>
   <time name="diag">  105.19  105.19</time>
   <time name="diis">  289.09  289.09</time>
   <time name="orth">   21.70   21.70</time>
   <time name="total">  480.34  480.35</time>
   <energy>
    <i name="e_fr_energy">   -174.63458327 </i>
    <i name="e_wo_entrp">   -174.61624220 </i>
    <i name="e_0_energy">   -174.62999800 </i>
   </energy>
  </scstep>
  <scstep>
   <time name="diag">  105.29  105.29</time>
   <time name="diis">  287.02  287.03</time>
   <time name="orth">   21.58   21.58</time>
   <time name="total">  478.59  478.60</time>
   <energy>
    <i name="e_fr_energy">   -174.60778410 </i>
    <i name="e_wo_entrp">   -174.58146619 </i>
    <i name="e_0_energy">   -174.60120462 </i>
   </energy>
  </scstep>
  <scstep>
   <time name="diag">  105.68  105.68</time>
   <time name="diis">  287.47  287.48</time>
   <time name="orth">   21.48   21.48</time>
   <time name="total">  479.52  479.54</time>
   <energy>
    <i name="e_fr_energy">   -174.58973073 </i>
    <i name="e_wo_entrp">   -174.55179817 </i>
    <i name="e_0_energy">   -174.58024759 </i>
   </energy>
  </scstep>
  <scstep>
   <time name="diag">  106.58  106.58</time>
   <time name="diis">  286.52  286.53</time>
   <time name="orth">   21.63   21.63</time>
   <time name="total">  480.03  480.04</time>
   <energy>
    <i name="e_fr_energy">   -174.58297592 </i>
    <i name="e_wo_entrp">   -174.54158026 </i>
    <i name="e_0_energy">   -174.57262701 </i>
   </energy>
  </scstep>
  <scstep>
   <time name="diag">  105.89  105.89</time>
   <time name="diis">  285.00  285.01</time>
   <time name="orth">   21.75   21.75</time>
   <time name="total">  478.10  478.11</time>
   <energy>
    <i name="e_fr_energy">   -174.57242008 </i>
    <i name="e_wo_entrp">   -174.53575127 </i>
    <i name="e_0_energy">   -174.56325287 </i>
   </energy>
  </scstep>
  <scstep>
   <time name="diag">  108.27  108.27</time>
   <time name="diis">  286.16  286.17</time>
   <time name="orth">   21.76   21.76</time>
   <time name="total">  481.93  481.94</time>
   <energy>
    <i name="e_fr_energy">   -174.56674230 </i>
    <i name="e_wo_entrp">   -174.52773386 </i>
    <i name="e_0_energy">   -174.55699019 </i>
   </energy>
  </scstep>
  <scstep>
   <time name="diag">  107.72  107.72</time>
   <time name="diis">  285.29  285.30</time>
   <time name="orth">   21.12   21.12</time>
   <time name="total">  479.39  479.40</time>
   <energy>
    <i name="e_fr_energy">   -174.56543558 </i>
    <i name="e_wo_entrp">   -174.52619577 </i>
    <i name="e_0_energy">   -174.55562563 </i>
   </energy>
  </scstep>
  <scstep>
   <time name="diag">  109.20  109.20</time>
   <time name="diis">  286.19  286.20</time>
   <time name="orth">   21.09   21.09</time>
   <time name="total">  482.46  482.47</time>
   <energy>
    <i name="e_fr_energy">   -174.56357618 </i>
    <i name="e_wo_entrp">   -174.52206606 </i>
    <i name="e_0_energy">   -174.55319865 </i>
   </energy>
  </scstep>
  <scstep>
   <time name="diag">  109.49  109.49</time>
   <time name="diis">  285.73  285.74</time>
   <time name="orth">   20.80   20.80</time>
   <time name="total">  482.34  482.35</time>
   <energy>
    <i name="e_fr_energy">   -174.56335453 </i>
    <i name="e_wo_entrp">   -174.52154880 </i>
    <i name="e_0_energy">   -174.55290310 </i>
   </energy>
  </scstep>
  <scstep>
   <time name="diag">  109.68  109.68</time>
   <time name="diis">  283.61  283.61</time>
   <time name="orth">   21.40   21.41</time>
   <time name="total">  480.74  480.75</time>
   <energy>
    <i name="e_fr_energy">   -174.56361009 </i>
    <i name="e_wo_entrp">   -174.52442258 </i>
    <i name="e_0_energy">   -174.55381321 </i>
   </energy>
  </scstep>
  <scstep>
   <time name="diag">  110.16  110.16</time>
   <time name="diis">  283.82  283.83</time>
   <time name="orth">   21.04   21.04</time>
   <time name="total">  479.92  479.92</time>
   <energy>
    <i name="e_fr_energy">   -174.56486041 </i>
    <i name="e_wo_entrp">   -174.52138845 </i>
    <i name="e_0_energy">   -174.55399242 </i>
   </energy>
  </scstep>
  <scstep>
   <time name="diag">  111.20  111.20</time>
   <time name="diis">  282.92  282.94</time>
   <time name="orth">   21.11   21.11</time>
   <time name="total">  480.67  480.69</time>
   <energy>
    <i name="e_fr_energy">   -174.56570843 </i>
    <i name="e_wo_entrp">   -174.52364413 </i>
    <i name="e_0_energy">   -174.55519235 </i>
   </energy>
  </scstep>
  <scstep>
   <time name="diag">  111.58  111.59</time>
   <time name="diis">  283.07  283.09</time>
   <time name="orth">   21.40   21.40</time>
   <time name="total">  483.02  483.05</time>
   <energy>
    <i name="e_fr_energy">   -174.56807030 </i>
    <i name="e_wo_entrp">   -174.52579950 </i>
    <i name="e_0_energy">   -174.55750260 </i>
   </energy>
  </scstep>
  <scstep>
   <time name="diag">  110.45  110.46</time>
   <time name="diis">  278.90  278.90</time>
   <time name="orth">   21.50   21.50</time>
   <time name="total">  477.17  477.18</time>
   <energy>
    <i name="e_fr_energy">   -174.56920069 </i>
    <i name="e_wo_entrp">   -174.52568747 </i>
    <i name="e_0_energy">   -174.55832239 </i>
   </energy>
  </scstep>
  <scstep>
   <time name="diag">  108.71  108.72</time>
   <time name="diis">  262.78  262.79</time>
   <time name="orth">   21.06   21.06</time>
   <time name="total">  456.38  456.39</time>
   <energy>
    <i name="e_fr_energy">   -174.57168075 </i>
    <i name="e_wo_entrp">   -174.52946228 </i>
    <i name="e_0_energy">   -174.56112613 </i>
   </energy>
  </scstep>
  <scstep>
   <time name="diag">  108.10  108.10</time>
   <time name="diis">  209.35  209.35</time>
   <time name="orth">   20.89   20.89</time>
   <time name="total">  401.83  401.83</time>
   <energy>
    <i name="e_fr_energy">   -174.57353149 </i>
    <i name="e_wo_entrp">   -174.53105234 </i>
    <i name="e_0_energy">   -174.56291170 </i>
   </energy>
  </scstep>
  <scstep>
   <time name="diag">  105.96  105.96</time>
   <time name="diis">  181.53  181.53</time>
   <time name="orth">   21.23   21.23</time>
   <time name="total">  373.44  373.45</time>
   <energy>
    <i name="e_fr_energy">   -174.57484792 </i>
    <i name="e_wo_entrp">   -174.53351818 </i>
    <i name="e_0_energy">   -174.56451548 </i>
   </energy>
  </scstep>
  <scstep>
   <time name="diag">  104.36  104.36</time>
   <time name="diis">  205.40  205.40</time>
   <time name="orth">   20.01   20.01</time>
   <time name="total">  392.45  392.46</time>
   <energy>
    <i name="e_fr_energy">   -174.57813926 </i>
    <i name="e_wo_entrp">   -174.53540747 </i>
    <i name="e_0_energy">   -174.56745632 </i>
   </energy>
  </scstep>
  <scstep>
   <time name="diag">  108.03  108.03</time>
   <time name="diis">  181.93  181.94</time>
   <time name="orth">   20.70   20.70</time>
   <time name="total">  374.48  374.48</time>
   <energy>
    <i name="e_fr_energy">   -174.57933562 </i>
    <i name="e_wo_entrp">   -174.53637449 </i>
    <i name="e_0_energy">   -174.56859534 </i>
   </energy>
  </scstep>
  <scstep>
   <time name="diag">  102.59  102.60</time>
   <time name="diis">  211.78  211.79</time>
   <time name="orth">   19.23   19.23</time>
   <time name="total">  394.51  394.52</time>
   <energy>
    <i name="e_fr_energy">   -174.58227059 </i>
    <i name="e_wo_entrp">   -174.54017210 </i>
    <i name="e_0_energy">   -174.57174597 </i>
   </energy>
  </scstep>
  <scstep>
   <time name="diag">   99.94   99.94</time>
   <time name="diis">  187.48  187.49</time>
   <time name="orth">   19.07   19.07</time>
   <time name="total">  365.17  365.18</time>
   <energy>
    <i name="e_fr_energy">   -174.58427088 </i>
    <i name="e_wo_entrp">   -174.54184875 </i>
    <i name="e_0_energy">   -174.57366535 </i>
   </energy>
  </scstep>
  <scstep>
   <time name="diag">  102.13  102.13</time>
   <time name="diis">  170.96  170.96</time>
   <time name="orth">   19.70   19.70</time>
   <time name="total">  353.69  353.71</time>
   <energy>
    <i name="e_fr_energy">   -174.58519641 </i>
    <i name="e_wo_entrp">   -174.54264495 </i>
    <i name="e_0_energy">   -174.57455855 </i>
   </energy>
  </scstep>
  <scstep>
   <time name="diag">   97.24   97.24</time>
   <time name="diis">  171.63  171.64</time>
   <time name="orth">   19.19   19.19</time>
   <time name="total">  347.61  347.63</time>
   <energy>
    <i name="e_fr_energy">   -174.58653928 </i>
    <i name="e_wo_entrp">   -174.54398336 </i>
    <i name="e_0_energy">   -174.57590030 </i>
   </energy>
  </scstep>
  <scstep>
   <time name="diag">  102.55  102.55</time>
   <time name="diis">  167.55  167.56</time>
   <time name="orth">   19.92   19.92</time>
   <time name="total">  351.03  351.04</time>
   <energy>
    <i name="e_fr_energy">   -174.58695083 </i>
    <i name="e_wo_entrp">   -174.54455910 </i>
    <i name="e_0_energy">   -174.57635290 </i>
   </energy>
  </scstep>
  <scstep>
   <time name="diag">   97.83   97.84</time>
   <time name="diis">  167.09  167.09</time>
   <time name="orth">   19.33   19.33</time>
   <time name="total">  344.39  344.41</time>
   <energy>
    <i name="e_fr_energy">   -174.58799152 </i>
    <i name="e_wo_entrp">   -174.54586625 </i>
    <i name="e_0_energy">   -174.57746020 </i>
   </energy>
  </scstep>
  <scstep>
   <time name="diag">  101.22  101.22</time>
   <time name="diis">  167.59  167.60</time>
   <time name="orth">   19.92   19.92</time>
   <time name="total">  348.00  348.02</time>
   <energy>
    <i name="e_fr_energy">   -174.58849858 </i>
    <i name="e_wo_entrp">   -174.54626752 </i>
    <i name="e_0_energy">   -174.57794081 </i>
   </energy>
  </scstep>
  <scstep>
   <time name="diag">   98.49   98.49</time>
   <time name="diis">  161.92  161.93</time>
   <time name="orth">   19.27   19.27</time>
   <time name="total">  341.32  341.34</time>
   <energy>
    <i name="e_fr_energy">   -174.58902888 </i>
    <i name="e_wo_entrp">   -174.54690420 </i>
    <i name="e_0_energy">   -174.57849771 </i>
   </energy>
  </scstep>
  <scstep>
   <time name="diag">   99.01   99.01</time>
   <time name="diis">  149.11  149.12</time>
   <time name="orth">   20.23   20.23</time>
   <time name="total">  327.73  327.76</time>
   <energy>
    <i name="e_fr_energy">   -174.58949726 </i>
    <i name="e_wo_entrp">   -174.54736038 </i>
    <i name="e_0_energy">   -174.57896304 </i>
   </energy>
  </scstep>
  <scstep>
   <time name="diag">   98.45   98.45</time>
   <time name="diis">  121.75  121.75</time>
   <time name="orth">   19.02   19.02</time>
   <time name="total">  297.63  297.65</time>
   <energy>
    <i name="e_fr_energy">   -174.58970271 </i>
    <i name="e_wo_entrp">   -174.54751493 </i>
    <i name="e_0_energy">   -174.57915576 </i>
   </energy>
  </scstep>
  <scstep>
   <time name="diag">  100.72  100.72</time>
   <time name="diis">  135.52  135.52</time>
   <time name="orth">   19.97   19.97</time>
   <time name="total">  317.81  317.83</time>
   <energy>
    <i name="e_fr_energy">   -174.59008082 </i>
    <i name="e_wo_entrp">   -174.54800703 </i>
    <i name="e_0_energy">   -174.57956237 </i>
   </energy>
  </scstep>
  <scstep>
   <time name="diag">   95.29   95.30</time>
   <time name="diis">  120.54  120.55</time>
   <time name="orth">   19.11   19.11</time>
   <time name="total">  293.75  293.77</time>
   <energy>
    <i name="e_fr_energy">   -174.59021549 </i>
    <i name="e_wo_entrp">   -174.54800355 </i>
    <i name="e_0_energy">   -174.57966250 </i>
   </energy>
  </scstep>
  <scstep>
   <time name="diag">   98.19   98.19</time>
   <time name="diis">  128.31  128.32</time>
   <time name="orth">   18.74   18.74</time>
   <time name="total">  305.54  305.55</time>
   <energy>
    <i name="e_fr_energy">   -174.59055490 </i>
    <i name="e_wo_entrp">   -174.54832731 </i>
    <i name="e_0_energy">   -174.57999800 </i>
   </energy>
  </scstep>
  <scstep>
   <time name="diag">   98.48   98.49</time>
   <time name="diis">  124.00  124.00</time>
   <time name="orth">   19.40   19.40</time>
   <time name="total">  303.76  303.77</time>
   <energy>
    <i name="e_fr_energy">   -174.59074433 </i>
    <i name="e_wo_entrp">   -174.54856294 </i>
    <i name="e_0_energy">   -174.58019898 </i>
   </energy>
  </scstep>
  <scstep>
   <time name="diag">   95.23   95.23</time>
   <time name="diis">  120.71  120.72</time>
   <time name="orth">   18.81   18.81</time>
   <time name="total">  252.26  252.27</time>
   <energy>
    <i name="alphaZ">     75.25431677 </i>
    <i name="ewald"> 139200.32903024 </i>
    <i name="hartreedc">-183555.97293071 </i>
    <i name="XCdc">  -1691.15669783 </i>
    <i name="pawpsdc">  46303.58734448 </i>
    <i name="pawaedc"> -42774.58592897 </i>
    <i name="eentropy">     -0.04220243 </i>
    <i name="bandstr">  -2818.50926558 </i>
    <i name="atom">  45086.50549395 </i>
    <i name="e_fr_energy">   -174.59084008 </i>
    <i name="e_wo_entrp">   -174.54863764 </i>
    <i name="e_0_energy">   -174.58028947 </i>
   </energy>
  </scstep>
  <structure>
   <crystal>
    <varray name="basis" >
     <v>      30.00000000       0.00000000       0.00000000 </v>
     <v>       0.00000000      30.00000000       0.00000000 </v>
     <v>       0.00000000       0.00000000      30.00000000 </v>
    </varray>
    <i name="volume">  27000.00000000 </i>
    <varray name="rec_basis" >
     <v>       0.03333333       0.00000000       0.00000000 </v>
     <v>       0.00000000       0.03333333       0.00000000 </v>
     <v>       0.00000000       0.00000000       0.03333333 </v>
    </varray>
   </crystal>
   <varray name="positions" >
    <v>       0.44576020       0.32826710       0.41691983 </v>
    <v>       0.67173288       0.55423978       0.41691983 </v>
    <v>       0.55423980       0.32826710       0.41691983 </v>
    <v>       0.32826712       0.55423978       0.41691983 </v>
    <v>       0.50000000       0.38250690       0.34021317 </v>
    <v>       0.50000000       0.38250690       0.65978680 </v>
    <v>       0.50000000       0.27609440       0.50000000 </v>
    <v>       0.27609443       0.49999998       0.50000000 </v>
    <v>       0.72390557       0.49999998       0.50000000 </v>
    <v>       0.50000000       0.72390555       0.50000000 </v>
    <v>       0.61195280       0.38804720       0.34167483 </v>
    <v>       0.61195280       0.38804720       0.65832513 </v>
    <v>       0.38804722       0.61195278       0.34167483 </v>
    <v>       0.38804722       0.61195278       0.65832513 </v>
    <v>       0.38804720       0.38804720       0.34167483 </v>
    <v>       0.38804720       0.38804720       0.65832513 </v>
    <v>       0.61195278       0.61195278       0.34167483 </v>
    <v>       0.61195278       0.61195278       0.65832513 </v>
    <v>       0.44576020       0.32826710       0.58308023 </v>
    <v>       0.67173288       0.55423978       0.58308023 </v>
    <v>       0.55791699       0.44208301       0.41809300 </v>
    <v>       0.32826705       0.44576024       0.41691983 </v>
    <v>       0.55423973       0.67173293       0.41691983 </v>
    <v>       0.55423980       0.32826710       0.58308023 </v>
    <v>       0.32826712       0.55423978       0.58308023 </v>
    <v>       0.67173295       0.44576024       0.41691983 </v>
    <v>       0.44576027       0.67173293       0.41691983 </v>
    <v>       0.44208301       0.44208301       0.41809300 </v>
    <v>       0.50000000       0.38416601       0.50000000 </v>
    <v>       0.61749315       0.50000005       0.34021317 </v>
    <v>       0.61749315       0.50000005       0.65978680 </v>
    <v>       0.38250685       0.50000005       0.34021317 </v>
    <v>       0.38250685       0.50000005       0.65978680 </v>
    <v>       0.38317830       0.38317830       0.50000000 </v>
    <v>       0.61682172       0.61682172       0.50000000 </v>
    <v>       0.61682170       0.38317830       0.50000000 </v>
    <v>       0.38317828       0.61682172       0.50000000 </v>
    <v>       0.50000000       0.50000000       0.33478917 </v>
    <v>       0.50000000       0.50000000       0.66521087 </v>
    <v>       0.32826705       0.44576024       0.58308023 </v>
    <v>       0.55423973       0.67173293       0.58308023 </v>
    <v>       0.55791699       0.44208301       0.58190703 </v>
    <v>       0.44208298       0.55791702       0.41809300 </v>
    <v>       0.44208301       0.44208301       0.58190703 </v>
    <v>       0.67173295       0.44576024       0.58308023 </v>
    <v>       0.44576027       0.67173293       0.58308023 </v>
    <v>       0.55791702       0.55791702       0.41809300 </v>
    <v>       0.38416599       0.50000002       0.50000000 </v>
    <v>       0.61583401       0.50000002       0.50000000 </v>
    <v>       0.50000000       0.61749319       0.34021317 </v>
    <v>       0.50000000       0.61749319       0.65978680 </v>
    <v>       0.50000000       0.50000000       0.50000000 </v>
    <v>       0.44208298       0.55791702       0.58190703 </v>
    <v>       0.55791702       0.55791702       0.58190703 </v>
    <v>       0.50000000       0.61583404       0.50000000 </v>
    <v>       0.70651683       0.56522750       0.53700240 </v>
    <v>       0.74185883       0.57639010       0.54333477 </v>
   </varray>
  </structure>
  <varray name="forces" >
   <v>       0.70367687       1.10450683       0.29176213 </v>
   <v>      -1.15635970      -0.69676385       0.18643636 </v>
   <v>      -0.70702903       1.11094120       0.29619504 </v>
   <v>       1.11077981      -0.69521413       0.29047744 </v>
   <v>      -0.01466630       0.40588615       1.28051602 </v>
   <v>      -0.00991935       0.41350114      -1.28346729 </v>
   <v>      -0.00025577       1.51709947      -0.00151078 </v>
   <v>       1.51108812       0.00871395       0.00488103 </v>
   <v>      -1.71003765       0.51738686       0.12441375 </v>
   <v>       0.00006244      -1.51674325       0.00039761 </v>
   <v>      -0.74085433       0.74510229       1.07066798 </v>
   <v>      -0.71482666       0.75681254      -1.09393501 </v>
   <v>       0.75398176      -0.75374230       1.06796645 </v>
   <v>       0.75523647      -0.75502597      -1.06785766 </v>
   <v>       0.75949193       0.75372773       1.06874593 </v>
   <v>       0.75552921       0.75570124      -1.07049306 </v>
   <v>      -0.75346613      -0.76099217       1.07190514 </v>
   <v>      -0.78503175      -0.73498077      -1.00632208 </v>
   <v>       0.70050675       1.10841263      -0.29441563 </v>
   <v>      -4.06922930      -1.35357580       2.24180465 </v>
   <v>       0.11169637      -0.10602643      -0.14268182 </v>
   <v>       1.11011948       0.70185683       0.27820790 </v>
   <v>      -0.70498072      -1.10362455       0.29245609 </v>
   <v>      -0.70336609       1.11021492      -0.29733141 </v>
   <v>       1.11292149      -0.69468577      -0.28973697 </v>
   <v>      -1.15834210       0.67007345       0.20413432 </v>
   <v>       0.70294734      -1.10588080       0.29893820 </v>
   <v>      -0.10783661      -0.11088808      -0.15467648 </v>
   <v>       0.00413553      -0.22883290      -0.00160864 </v>
   <v>      -0.39220339       0.01613152       1.29243667 </v>
   <v>      -0.44731426      -0.01064647      -1.21898291 </v>
   <v>       0.40968734      -0.00204331       1.27527614 </v>
   <v>       0.40869907      -0.00166407      -1.28037174 </v>
   <v>       0.83739724       0.82218971       0.00518603 </v>
   <v>      -0.73047301      -0.81620790       0.00153588 </v>
   <v>      -0.84091865       0.82478946      -0.00737655 </v>
   <v>       0.82004291      -0.82723892      -0.00272504 </v>
   <v>      -0.00130745       0.00462322       1.18251165 </v>
   <v>       0.00593293       0.00688462      -1.18262864 </v>
   <v>       1.11206394       0.69672742      -0.28082298 </v>
   <v>      -0.72637143      -1.09785083      -0.29196127 </v>
   <v>       0.11113801      -0.10364025       0.15408952 </v>
   <v>      -0.11182872       0.11076802      -0.14069314 </v>
   <v>      -0.11973667      -0.11219081       0.15253137 </v>
   <v>      -1.17010560       0.57221258      -0.16564672 </v>
   <v>       0.70849702      -1.10483095      -0.29773197 </v>
   <v>       0.10240294       0.10463863      -0.17207188 </v>
   <v>      -0.22527045       0.00656499       0.00107435 </v>
   <v>       0.05488103      -0.10081165      -0.07250479 </v>
   <v>      -0.00058978      -0.40976931       1.27889206 </v>
   <v>       0.00466124      -0.41439269      -1.27479984 </v>
   <v>       0.01922033      -0.00797609       0.00205375 </v>
   <v>      -0.12848906       0.10750949       0.14781083 </v>
   <v>       0.05464501       0.10142727       0.18699050 </v>
   <v>      -0.00064587       0.22680435       0.00079661 </v>
   <v>      -4.36236886      -2.90724395      -2.99213867 </v>
   <v>       7.85238207       3.25227548       0.33340158 </v>
  </varray>
  <varray name="stress" >
   <v>      -6.03580813       0.27723632      -0.13942018 </v>
   <v>       0.27723631      -6.68354103      -0.04589790 </v>
   <v>      -0.13942022      -0.04589790      -6.48116946 </v>
  </varray>
  <energy>
   <i name="e_fr_energy">   -174.59084008 </i>
   <i name="e_wo_entrp">   -174.58028947 </i>
   <i name="e_0_energy">     -0.04220243 </i>
  </energy>
  <time name="totalsc">28137.0028138.06</time>
  <eigenvalues>
   <array>
    <dimension dim="1">band</dimension>
    <dimension dim="2">kpoint</dimension>
    <dimension dim="3">spin</dimension>
    <field>eigene</field>
    <field>occ</field>
    <set>
     <set comment="spin 1">
      <set comment="kpoint 1">
       <r>  -28.2337    1.0000 </r>
       <r>  -13.4672    1.0000 </r>
       <r>  -11.4480    1.0000 </r>
       <r>  -11.1459    1.0000 </r>
       <r>  -10.2961    1.0000 </r>
       <r>   -6.6721    1.0000 </r>
       <r>   -6.5430    1.0000 </r>
       <r>   -6.3641    1.0000 </r>
       <r>   -6.1398    1.0000 </r>
       <r>   -6.1275    1.0000 </r>
       <r>   -6.0904    1.0000 </r>
       <r>   -5.8662    1.0000 </r>
       <r>   -5.8280    1.0000 </r>
       <r>   -5.8048    1.0000 </r>
       <r>   -5.7858    1.0000 </r>
       <r>   -5.7615    1.0000 </r>
       <r>   -5.7208    1.0000 </r>
       <r>   -5.6990    1.0000 </r>
       <r>   -5.6886    1.0000 </r>
       <r>   -5.6806    1.0000 </r>
       <r>   -5.6699    1.0000 </r>
       <r>   -5.6533    1.0000 </r>
       <r>   -5.6225    1.0000 </r>
       <r>   -5.6059    1.0000 </r>
       <r>   -5.5940    1.0000 </r>
       <r>   -5.5874    1.0000 </r>
       <r>   -5.5755    1.0000 </r>
       <r>   -5.5700    1.0000 </r>
       <r>   -5.5464    1.0000 </r>
       <r>   -5.5446    1.0000 </r>
       <r>   -5.5419    1.0000 </r>
       <r>   -5.5252    1.0000 </r>
       <r>   -5.5207    1.0000 </r>
       <r>   -5.5176    1.0000 </r>
       <r>   -5.5130    1.0000 </r>
       <r>   -5.5111    1.0000 </r>
       <r>   -5.5061    1.0000 </r>
       <r>   -5.5046    1.0000 </r>
       <r>   -5.4888    1.0000 </r>
       <r>   -5.4838    1.0000 </r>
       <r>   -5.4708    1.0000 </r>
       <r>   -5.4672    1.0000 </r>
       <r>   -5.4658    1.0000 </r>
       <r>   -5.4627    1.0000 </r>
       <r>   -5.4605    1.0000 </r>
       <r>   -5.4514    1.0000 </r>
       <r>   -5.4379    1.0000 </r>
       <r>   -5.4328    1.0000 </r>
       <r>   -5.4279    1.0000 </r>
       <r>   -5.4231    1.0000 </r>
       <r>   -5.4192    1.0000 </r>
       <r>   -5.4134    1.0000 </r>
       <r>   -5.4013    1.0000 </r>
       <r>   -5.3999    1.0000 </r>
       <r>   -5.3965    1.0000 </r>
       <r>   -5.3847    1.0000 </r>
       <r>   -5.3786    1.0000 </r>
       <r>   -5.3703    1.0000 </r>
       <r>   -5.3554    1.0000 </r>
       <r>   -5.3403    1.0000 </r>
       <r>   -5.3230    1.0000 </r>
       <r>   -5.3226    1.0000 </r>
       <r>   -5.3131    1.0000 </r>
       <r>   -5.3111    1.0000 </r>
       <r>   -5.3024    1.0000 </r>
       <r>   -5.2983    1.0000 </r>
       <r>   -5.2950    1.0000 </r>
       <r>   -5.2903    1.0000 </r>
       <r>   -5.2722    1.0000 </r>
       <r>   -5.2583    1.0000 </r>
       <r>   -5.2311    1.0000 </r>
       <r>   -5.2091    1.0000 </r>
       <r>   -5.2013    1.0000 </r>
       <r>   -5.1974    1.0000 </r>
       <r>   -5.1930    1.0000 </r>
       <r>   -5.1821    1.0000 </r>
       <r>   -5.1792    1.0000 </r>
       <r>   -5.1731    1.0000 </r>
       <r>   -5.1684    1.0000 </r>
       <r>   -5.1628    1.0000 </r>
       <r>   -5.1609    1.0000 </r>
       <r>   -5.1467    1.0000 </r>
       <r>   -5.1405    1.0000 </r>
       <r>   -5.1310    1.0000 </r>
       <r>   -5.1245    1.0000 </r>
       <r>   -5.1148    1.0000 </r>
       <r>   -5.1132    1.0000 </r>
       <r>   -5.1056    1.0000 </r>
       <r>   -5.0958    1.0000 </r>
       <r>   -5.0865    1.0000 </r>
       <r>   -5.0825    1.0000 </r>
       <r>   -5.0650    1.0000 </r>
       <r>   -5.0603    1.0000 </r>
       <r>   -5.0547    1.0000 </r>
       <r>   -5.0491    1.0000 </r>
       <r>   -5.0482    1.0000 </r>
       <r>   -5.0443    1.0000 </r>
       <r>   -5.0402    1.0000 </r>
       <r>   -5.0351    1.0000 </r>
       <r>   -5.0305    1.0000 </r>
       <r>   -5.0243    1.0000 </r>
       <r>   -5.0212    1.0000 </r>
       <r>   -5.0110    1.0000 </r>
       <r>   -5.0096    1.0000 </r>
       <r>   -5.0032    1.0000 </r>
       <r>   -5.0011    1.0000 </r>
       <r>   -4.9965    1.0000 </r>
       <r>   -4.9937    1.0000 </r>
       <r>   -4.9843    1.0000 </r>
       <r>   -4.9804    1.0000 </r>
       <r>   -4.9743    1.0000 </r>
       <r>   -4.9730    1.0000 </r>
       <r>   -4.9676    1.0000 </r>
       <r>   -4.9617    1.0000 </r>
       <r>   -4.9571    1.0000 </r>
       <r>   -4.9522    1.0000 </r>
       <r>   -4.9468    1.0000 </r>
       <r>   -4.9415    1.0000 </r>
       <r>   -4.9360    1.0000 </r>
       <r>   -4.9293    1.0000 </r>
       <r>   -4.9206    1.0000 </r>
       <r>   -4.9096    1.0000 </r>
       <r>   -4.9067    1.0000 </r>
       <r>   -4.9014    1.0000 </r>
       <r>   -4.8988    1.0000 </r>
       <r>   -4.8952    1.0000 </r>
       <r>   -4.8894    1.0000 </r>
       <r>   -4.8695    1.0000 </r>
       <r>   -4.8578    1.0000 </r>
       <r>   -4.8547    1.0000 </r>
       <r>   -4.8467    1.0000 </r>
       <r>   -4.8435    1.0000 </r>
       <r>   -4.8381    1.0000 </r>
       <r>   -4.8360    1.0000 </r>
       <r>   -4.8290    1.0000 </r>
       <r>   -4.8262    1.0000 </r>
       <r>   -4.8080    0.9999 </r>
       <r>   -4.8055    0.9999 </r>
       <r>   -4.8005    0.9999 </r>
       <r>   -4.7919    0.9999 </r>
       <r>   -4.7858    0.9999 </r>
       <r>   -4.7772    0.9999 </r>
       <r>   -4.7729    0.9999 </r>
       <r>   -4.7615    0.9998 </r>
       <r>   -4.7573    0.9998 </r>
       <r>   -4.7536    0.9998 </r>
       <r>   -4.7447    0.9997 </r>
       <r>   -4.7382    0.9997 </r>
       <r>   -4.7276    0.9996 </r>
       <r>   -4.7177    0.9995 </r>
       <r>   -4.7134    0.9994 </r>
       <r>   -4.7100    0.9994 </r>
       <r>   -4.6946    0.9991 </r>
       <r>   -4.6866    0.9990 </r>
       <r>   -4.6833    0.9989 </r>
       <r>   -4.6813    0.9989 </r>
       <r>   -4.6774    0.9988 </r>
       <r>   -4.6722    0.9987 </r>
       <r>   -4.6681    0.9986 </r>
       <r>   -4.6646    0.9985 </r>
       <r>   -4.6610    0.9984 </r>
       <r>   -4.6579    0.9983 </r>
       <r>   -4.6535    0.9982 </r>
       <r>   -4.6471    0.9980 </r>
       <r>   -4.6427    0.9979 </r>
       <r>   -4.6416    0.9978 </r>
       <r>   -4.6409    0.9978 </r>
       <r>   -4.6382    0.9977 </r>
       <r>   -4.6343    0.9976 </r>
       <r>   -4.6272    0.9974 </r>
       <r>   -4.6250    0.9973 </r>
       <r>   -4.6166    0.9970 </r>
       <r>   -4.6075    0.9966 </r>
       <r>   -4.6052    0.9965 </r>
       <r>   -4.6021    0.9964 </r>
       <r>   -4.5927    0.9961 </r>
       <r>   -4.5920    0.9961 </r>
       <r>   -4.5884    0.9959 </r>
       <r>   -4.5867    0.9959 </r>
       <r>   -4.5817    0.9957 </r>
       <r>   -4.5773    0.9956 </r>
       <r>   -4.5689    0.9953 </r>
       <r>   -4.5675    0.9953 </r>
       <r>   -4.5624    0.9952 </r>
       <r>   -4.5571    0.9951 </r>
       <r>   -4.5557    0.9951 </r>
       <r>   -4.5510    0.9951 </r>
       <r>   -4.5471    0.9951 </r>
       <r>   -4.5439    0.9951 </r>
       <r>   -4.5396    0.9951 </r>
       <r>   -4.5337    0.9952 </r>
       <r>   -4.5249    0.9956 </r>
       <r>   -4.5193    0.9959 </r>
       <r>   -4.5085    0.9967 </r>
       <r>   -4.5056    0.9970 </r>
       <r>   -4.4997    0.9976 </r>
       <r>   -4.4954    0.9982 </r>
       <r>   -4.4917    0.9987 </r>
       <r>   -4.4859    0.9997 </r>
       <r>   -4.4815    1.0005 </r>
       <r>   -4.4709    1.0028 </r>
       <r>   -4.4628    1.0049 </r>
       <r>   -4.4611    1.0054 </r>
       <r>   -4.4597    1.0058 </r>
       <r>   -4.4569    1.0066 </r>
       <r>   -4.4481    1.0095 </r>
       <r>   -4.4462    1.0102 </r>
       <r>   -4.4416    1.0119 </r>
       <r>   -4.4381    1.0132 </r>
       <r>   -4.4370    1.0136 </r>
       <r>   -4.4291    1.0168 </r>
       <r>   -4.4209    1.0204 </r>
       <r>   -4.4188    1.0213 </r>
       <r>   -4.4155    1.0229 </r>
       <r>   -4.4077    1.0265 </r>
       <r>   -4.4042    1.0282 </r>
       <r>   -4.4031    1.0287 </r>
       <r>   -4.3999    1.0303 </r>
       <r>   -4.3936    1.0333 </r>
       <r>   -4.3874    1.0362 </r>
       <r>   -4.3830    1.0383 </r>
       <r>   -4.3666    1.0451 </r>
       <r>   -4.3649    1.0458 </r>
       <r>   -4.3600    1.0474 </r>
       <r>   -4.3504    1.0500 </r>
       <r>   -4.3437    1.0511 </r>
       <r>   -4.3359    1.0516 </r>
       <r>   -4.3338    1.0516 </r>
       <r>   -4.3313    1.0514 </r>
       <r>   -4.3301    1.0513 </r>
       <r>   -4.3290    1.0512 </r>
       <r>   -4.3278    1.0510 </r>
       <r>   -4.3242    1.0504 </r>
       <r>   -4.3207    1.0495 </r>
       <r>   -4.3202    1.0493 </r>
       <r>   -4.3169    1.0482 </r>
       <r>   -4.3161    1.0479 </r>
       <r>   -4.3134    1.0467 </r>
       <r>   -4.3109    1.0455 </r>
       <r>   -4.3045    1.0415 </r>
       <r>   -4.3041    1.0412 </r>
       <r>   -4.2956    1.0341 </r>
       <r>   -4.2884    1.0264 </r>
       <r>   -4.2870    1.0247 </r>
       <r>   -4.2850    1.0222 </r>
       <r>   -4.2829    1.0194 </r>
       <r>   -4.2781    1.0124 </r>
       <r>   -4.2767    1.0102 </r>
       <r>   -4.2742    1.0062 </r>
       <r>   -4.2693    0.9974 </r>
       <r>   -4.2634    0.9860 </r>
       <r>   -4.2598    0.9781 </r>
       <r>   -4.2577    0.9736 </r>
       <r>   -4.2547    0.9663 </r>
       <r>   -4.2499    0.9544 </r>
       <r>   -4.2485    0.9508 </r>
       <r>   -4.2464    0.9452 </r>
       <r>   -4.2425    0.9342 </r>
       <r>   -4.2404    0.9281 </r>
       <r>   -4.2396    0.9258 </r>
       <r>   -4.2369    0.9176 </r>
       <r>   -4.2359    0.9143 </r>
       <r>   -4.2334    0.9066 </r>
       <r>   -4.2319    0.9015 </r>
       <r>   -4.2304    0.8967 </r>
       <r>   -4.2251    0.8782 </r>
       <r>   -4.2188    0.8553 </r>
       <r>   -4.2176    0.8506 </r>
       <r>   -4.2148    0.8402 </r>
       <r>   -4.2119    0.8285 </r>
       <r>   -4.2108    0.8242 </r>
       <r>   -4.2044    0.7975 </r>
       <r>   -4.1984    0.7715 </r>
       <r>   -4.1931    0.7475 </r>
       <r>   -4.1804    0.6874 </r>
       <r>   -4.1778    0.6743 </r>
       <r>   -4.1720    0.6453 </r>
       <r>   -4.1686    0.6283 </r>
       <r>   -4.1678    0.6240 </r>
       <r>   -4.1653    0.6113 </r>
       <r>   -4.1552    0.5586 </r>
       <r>   -4.1523    0.5432 </r>
       <r>   -4.1348    0.4508 </r>
       <r>   -4.1269    0.4098 </r>
       <r>   -4.1228    0.3882 </r>
       <r>   -4.1220    0.3844 </r>
       <r>   -4.1122    0.3344 </r>
       <r>   -4.1056    0.3023 </r>
       <r>   -4.0232    0.0108 </r>
       <r>   -3.9576   -0.0514 </r>
       <r>   -3.9010   -0.0363 </r>
       <r>   -3.8221   -0.0040 </r>
       <r>   -3.8110   -0.0014 </r>
       <r>   -3.6779    0.0033 </r>
       <r>   -3.4973    0.0001 </r>
       <r>   -3.4895    0.0001 </r>
       <r>   -3.3491    0.0000 </r>
       <r>   -3.0738    0.0000 </r>
       <r>   -3.0579    0.0000 </r>
       <r>   -3.0379    0.0000 </r>
       <r>   -3.0350    0.0000 </r>
       <r>   -3.0154    0.0000 </r>
       <r>   -2.9619    0.0000 </r>
       <r>   -2.9444    0.0000 </r>
       <r>   -2.7894    0.0000 </r>
       <r>   -2.5491    0.0000 </r>
       <r>   -2.5209    0.0000 </r>
       <r>   -2.3782    0.0000 </r>
       <r>   -2.2618    0.0000 </r>
       <r>   -2.1211    0.0000 </r>
       <r>   -2.1137    0.0000 </r>
       <r>   -2.1113    0.0000 </r>
       <r>   -1.9851    0.0000 </r>
       <r>   -1.9697    0.0000 </r>
       <r>   -1.9235    0.0000 </r>
       <r>   -1.8626    0.0000 </r>
       <r>   -1.8326    0.0000 </r>
       <r>   -1.7536    0.0000 </r>
       <r>   -1.6901    0.0000 </r>
       <r>   -1.6437    0.0000 </r>
       <r>   -1.5872    0.0000 </r>
       <r>   -1.5608    0.0000 </r>
       <r>   -1.4353    0.0000 </r>
       <r>   -1.3158    0.0000 </r>
       <r>   -1.2742    0.0000 </r>
       <r>   -1.1400    0.0000 </r>
       <r>   -1.0568    0.0000 </r>
       <r>   -0.9912    0.0000 </r>
       <r>   -0.9843    0.0000 </r>
       <r>   -0.9682    0.0000 </r>
       <r>   -0.9418    0.0000 </r>
       <r>   -0.9389    0.0000 </r>
       <r>   -0.8810    0.0000 </r>
       <r>   -0.8708    0.0000 </r>
       <r>   -0.7946    0.0000 </r>
       <r>   -0.6325    0.0000 </r>
      </set>
     </set>
    </set>
   </array>
  </eigenvalues>
  <separator name="orbital magnetization" >
   <v name="MAGDIPOLOUT">      0.00000000      0.00000000      0.00000000</v>
  </separator>
  <dos>
   <i name="efermi">     -4.14409172 </i>
   <total>
    <array>
     <dimension dim="1">gridpoints</dimension>
     <dimension dim="2">spin</dimension>
     <field>energy</field>
     <field>total</field>
     <field>integrated</field>
     <set>
      <set comment="spin 1">
       <r>   -30.2337     0.0000     0.0000 </r>
       <r>   -30.1283     0.0000     0.0000 </r>
       <r>   -30.0230     0.0000     0.0000 </r>
       <r>   -29.9177     0.0000     0.0000 </r>
       <r>   -29.8123     0.0000     0.0000 </r>
       <r>   -29.7070     0.0000     0.0000 </r>
       <r>   -29.6017     0.0000     0.0000 </r>
       <r>   -29.4963     0.0000     0.0000 </r>
       <r>   -29.3910     0.0000     0.0000 </r>
       <r>   -29.2856     0.0000     0.0000 </r>
       <r>   -29.1803     0.0000     0.0000 </r>
       <r>   -29.0750     0.0000     0.0000 </r>
       <r>   -28.9696     0.0001     0.0000 </r>
       <r>   -28.8643     0.0026     0.0003 </r>
       <r>   -28.7590     0.0234     0.0027 </r>
       <r>   -28.6536     0.0644     0.0095 </r>
       <r>   -28.5483    -0.2065    -0.0122 </r>
       <r>   -28.4429    -0.8201    -0.0986 </r>
       <r>   -28.3376     1.8947     0.1010 </r>
       <r>   -28.2323     8.6762     1.0149 </r>
       <r>   -28.1269     8.5327     1.9137 </r>
       <r>   -28.0216     1.7410     2.0971 </r>
       <r>   -27.9163    -0.8215     2.0106 </r>
       <r>   -27.8109    -0.1898     1.9906 </r>
       <r>   -27.7056     0.0646     1.9974 </r>
       <r>   -27.6002     0.0223     1.9997 </r>
       <r>   -27.4949     0.0024     2.0000 </r>
       <r>   -27.3896     0.0001     2.0000 </r>
       <r>   -27.2842     0.0000     2.0000 </r>
       <r>   -27.1789     0.0000     2.0000 </r>
       <r>   -27.0736     0.0000     2.0000 </r>
       <r>   -26.9682     0.0000     2.0000 </r>
       <r>   -26.8629     0.0000     2.0000 </r>
       <r>   -26.7575     0.0000     2.0000 </r>
       <r>   -26.6522     0.0000     2.0000 </r>
       <r>   -26.5469     0.0000     2.0000 </r>
       <r>   -26.4415     0.0000     2.0000 </r>
       <r>   -26.3362     0.0000     2.0000 </r>
       <r>   -26.2309     0.0000     2.0000 </r>
       <r>   -26.1255     0.0000     2.0000 </r>
       <r>   -26.0202     0.0000     2.0000 </r>
       <r>   -25.9148     0.0000     2.0000 </r>
       <r>   -25.8095     0.0000     2.0000 </r>
       <r>   -25.7042     0.0000     2.0000 </r>
       <r>   -25.5988     0.0000     2.0000 </r>
       <r>   -25.4935     0.0000     2.0000 </r>
       <r>   -25.3882     0.0000     2.0000 </r>
       <r>   -25.2828     0.0000     2.0000 </r>
       <r>   -25.1775     0.0000     2.0000 </r>
       <r>   -25.0721     0.0000     2.0000 </r>
       <r>   -24.9668     0.0000     2.0000 </r>
       <r>   -24.8615     0.0000     2.0000 </r>
       <r>   -24.7561     0.0000     2.0000 </r>
       <r>   -24.6508     0.0000     2.0000 </r>
       <r>   -24.5455     0.0000     2.0000 </r>
       <r>   -24.4401     0.0000     2.0000 </r>
       <r>   -24.3348     0.0000     2.0000 </r>
       <r>   -24.2295     0.0000     2.0000 </r>
       <r>   -24.1241     0.0000     2.0000 </r>
       <r>   -24.0188     0.0000     2.0000 </r>
       <r>   -23.9134     0.0000     2.0000 </r>
       <r>   -23.8081     0.0000     2.0000 </r>
       <r>   -23.7028     0.0000     2.0000 </r>
       <r>   -23.5974     0.0000     2.0000 </r>
       <r>   -23.4921     0.0000     2.0000 </r>
       <r>   -23.3868     0.0000     2.0000 </r>
       <r>   -23.2814     0.0000     2.0000 </r>
       <r>   -23.1761     0.0000     2.0000 </r>
       <r>   -23.0707     0.0000     2.0000 </r>
       <r>   -22.9654     0.0000     2.0000 </r>
       <r>   -22.8601     0.0000     2.0000 </r>
       <r>   -22.7547     0.0000     2.0000 </r>
       <r>   -22.6494     0.0000     2.0000 </r>
       <r>   -22.5441     0.0000     2.0000 </r>
       <r>   -22.4387     0.0000     2.0000 </r>
       <r>   -22.3334     0.0000     2.0000 </r>
       <r>   -22.2280     0.0000     2.0000 </r>
       <r>   -22.1227     0.0000     2.0000 </r>
       <r>   -22.0174     0.0000     2.0000 </r>
       <r>   -21.9120     0.0000     2.0000 </r>
       <r>   -21.8067     0.0000     2.0000 </r>
       <r>   -21.7014     0.0000     2.0000 </r>
       <r>   -21.5960     0.0000     2.0000 </r>
       <r>   -21.4907     0.0000     2.0000 </r>
       <r>   -21.3853     0.0000     2.0000 </r>
       <r>   -21.2800     0.0000     2.0000 </r>
       <r>   -21.1747     0.0000     2.0000 </r>
       <r>   -21.0693     0.0000     2.0000 </r>
       <r>   -20.9640     0.0000     2.0000 </r>
       <r>   -20.8587     0.0000     2.0000 </r>
       <r>   -20.7533     0.0000     2.0000 </r>
       <r>   -20.6480     0.0000     2.0000 </r>
       <r>   -20.5426     0.0000     2.0000 </r>
       <r>   -20.4373     0.0000     2.0000 </r>
       <r>   -20.3320     0.0000     2.0000 </r>
       <r>   -20.2266     0.0000     2.0000 </r>
       <r>   -20.1213     0.0000     2.0000 </r>
       <r>   -20.0160     0.0000     2.0000 </r>
       <r>   -19.9106     0.0000     2.0000 </r>
       <r>   -19.8053     0.0000     2.0000 </r>
       <r>   -19.6999     0.0000     2.0000 </r>
       <r>   -19.5946     0.0000     2.0000 </r>
       <r>   -19.4893     0.0000     2.0000 </r>
       <r>   -19.3839     0.0000     2.0000 </r>
       <r>   -19.2786     0.0000     2.0000 </r>
       <r>   -19.1733     0.0000     2.0000 </r>
       <r>   -19.0679     0.0000     2.0000 </r>
       <r>   -18.9626     0.0000     2.0000 </r>
       <r>   -18.8572     0.0000     2.0000 </r>
       <r>   -18.7519     0.0000     2.0000 </r>
       <r>   -18.6466     0.0000     2.0000 </r>
       <r>   -18.5412     0.0000     2.0000 </r>
       <r>   -18.4359     0.0000     2.0000 </r>
       <r>   -18.3306     0.0000     2.0000 </r>
       <r>   -18.2252     0.0000     2.0000 </r>
       <r>   -18.1199     0.0000     2.0000 </r>
       <r>   -18.0145     0.0000     2.0000 </r>
       <r>   -17.9092     0.0000     2.0000 </r>
       <r>   -17.8039     0.0000     2.0000 </r>
       <r>   -17.6985     0.0000     2.0000 </r>
       <r>   -17.5932     0.0000     2.0000 </r>
       <r>   -17.4879     0.0000     2.0000 </r>
       <r>   -17.3825     0.0000     2.0000 </r>
       <r>   -17.2772     0.0000     2.0000 </r>
       <r>   -17.1718     0.0000     2.0000 </r>
       <r>   -17.0665     0.0000     2.0000 </r>
       <r>   -16.9612     0.0000     2.0000 </r>
       <r>   -16.8558     0.0000     2.0000 </r>
       <r>   -16.7505     0.0000     2.0000 </r>
       <r>   -16.6452     0.0000     2.0000 </r>
       <r>   -16.5398     0.0000     2.0000 </r>
       <r>   -16.4345     0.0000     2.0000 </r>
       <r>   -16.3291     0.0000     2.0000 </r>
       <r>   -16.2238     0.0000     2.0000 </r>
       <r>   -16.1185     0.0000     2.0000 </r>
       <r>   -16.0131     0.0000     2.0000 </r>
       <r>   -15.9078     0.0000     2.0000 </r>
       <r>   -15.8025     0.0000     2.0000 </r>
       <r>   -15.6971     0.0000     2.0000 </r>
       <r>   -15.5918     0.0000     2.0000 </r>
       <r>   -15.4864     0.0000     2.0000 </r>
       <r>   -15.3811     0.0000     2.0000 </r>
       <r>   -15.2758     0.0000     2.0000 </r>
       <r>   -15.1704     0.0000     2.0000 </r>
       <r>   -15.0651     0.0000     2.0000 </r>
       <r>   -14.9598     0.0000     2.0000 </r>
       <r>   -14.8544     0.0000     2.0000 </r>
       <r>   -14.7491     0.0000     2.0000 </r>
       <r>   -14.6437     0.0000     2.0000 </r>
       <r>   -14.5384     0.0000     2.0000 </r>
       <r>   -14.4331     0.0000     2.0000 </r>
       <r>   -14.3277     0.0000     2.0000 </r>
       <r>   -14.2224     0.0001     2.0000 </r>
       <r>   -14.1171     0.0016     2.0002 </r>
       <r>   -14.0117     0.0167     2.0019 </r>
       <r>   -13.9064     0.0623     2.0085 </r>
       <r>   -13.8010    -0.1040     1.9975 </r>
       <r>   -13.6957    -0.7890     1.9144 </r>
       <r>   -13.5904     0.9327     2.0127 </r>
       <r>   -13.4850     7.5910     2.8123 </r>
       <r>   -13.3797     9.3860     3.8010 </r>
       <r>   -13.2744     2.8693     4.1032 </r>
       <r>   -13.1690    -0.7597     4.0232 </r>
       <r>   -13.0637    -0.3140     3.9901 </r>
       <r>   -12.9584     0.0594     3.9964 </r>
       <r>   -12.8530     0.0303     3.9996 </r>
       <r>   -12.7477     0.0038     4.0000 </r>
       <r>   -12.6423     0.0002     4.0000 </r>
       <r>   -12.5370     0.0000     4.0000 </r>
       <r>   -12.4317     0.0000     4.0000 </r>
       <r>   -12.3263     0.0000     4.0000 </r>
       <r>   -12.2210     0.0000     4.0000 </r>
       <r>   -12.1157     0.0010     4.0001 </r>
       <r>   -12.0103     0.0119     4.0014 </r>
       <r>   -11.9050     0.0557     4.0072 </r>
       <r>   -11.7996    -0.0321     4.0039 </r>
       <r>   -11.6943    -0.6804     3.9322 </r>
       <r>   -11.5890     0.2993     3.9637 </r>
       <r>   -11.4836     6.3360     4.6311 </r>
       <r>   -11.3783     9.0992     5.5896 </r>
       <r>   -11.2730     4.8106     6.0963 </r>
       <r>   -11.1676     6.7761     6.8101 </r>
       <r>   -11.0623     9.0723     7.7658 </r>
       <r>   -10.9569     3.1589     8.0985 </r>
       <r>   -10.8516    -0.6786     8.0270 </r>
       <r>   -10.7463    -0.2770     7.9978 </r>
       <r>   -10.6409    -0.0006     7.9978 </r>
       <r>   -10.5356    -0.7049     7.9235 </r>
       <r>   -10.4303     0.4864     7.9748 </r>
       <r>   -10.3249     6.8851     8.7000 </r>
       <r>   -10.2196     9.7229     9.7242 </r>
       <r>   -10.1142     3.5815    10.1015 </r>
       <r>   -10.0089    -0.6614    10.0318 </r>
       <r>    -9.9036    -0.3936     9.9904 </r>
       <r>    -9.7982     0.0509     9.9957 </r>
       <r>    -9.6929     0.0354     9.9994 </r>
       <r>    -9.5876     0.0049    10.0000 </r>
       <r>    -9.4822     0.0003    10.0000 </r>
       <r>    -9.3769     0.0000    10.0000 </r>
       <r>    -9.2715     0.0000    10.0000 </r>
       <r>    -9.1662     0.0000    10.0000 </r>
       <r>    -9.0609     0.0000    10.0000 </r>
       <r>    -8.9555     0.0000    10.0000 </r>
       <r>    -8.8502     0.0000    10.0000 </r>
       <r>    -8.7449     0.0000    10.0000 </r>
       <r>    -8.6395     0.0000    10.0000 </r>
       <r>    -8.5342     0.0000    10.0000 </r>
       <r>    -8.4288     0.0000    10.0000 </r>
       <r>    -8.3235     0.0000    10.0000 </r>
       <r>    -8.2182     0.0000    10.0000 </r>
       <r>    -8.1128     0.0000    10.0000 </r>
       <r>    -8.0075     0.0000    10.0000 </r>
       <r>    -7.9022     0.0000    10.0000 </r>
       <r>    -7.7968     0.0000    10.0000 </r>
       <r>    -7.6915     0.0000    10.0000 </r>
       <r>    -7.5861     0.0000    10.0000 </r>
       <r>    -7.4808     0.0000    10.0000 </r>
       <r>    -7.3755     0.0004    10.0000 </r>
       <r>    -7.2701     0.0057    10.0006 </r>
       <r>    -7.1648     0.0412    10.0050 </r>
       <r>    -7.0595     0.0726    10.0126 </r>
       <r>    -6.9541    -0.3630     9.9744 </r>
       <r>    -6.8488    -0.8165     9.8884 </r>
       <r>    -6.7434     3.1724    10.2226 </r>
       <r>    -6.6381    11.8285    11.4685 </r>
       <r>    -6.5328    15.3311    13.0835 </r>
       <r>    -6.4274    12.0728    14.3552 </r>
       <r>    -6.3221     8.5029    15.2509 </r>
       <r>    -6.2168    12.5846    16.5765 </r>
       <r>    -6.1114    25.4179    19.2540 </r>
       <r>    -6.0061    20.7640    21.4412 </r>
       <r>    -5.9007    14.1052    22.9270 </r>
       <r>    -5.7954    41.5056    27.2991 </r>
       <r>    -5.6901    85.7553    36.3323 </r>
       <r>    -5.5847   158.8974    53.0701 </r>
       <r>    -5.4794   260.9476    80.5577 </r>
       <r>    -5.3741   288.3734   110.9342 </r>
       <r>    -5.2687   229.8094   135.1417 </r>
       <r>    -5.1634   221.1415   158.4362 </r>
       <r>    -5.0580   300.8229   190.1241 </r>
       <r>    -4.9527   357.7760   227.8113 </r>
       <r>    -4.8474   325.3149   262.0791 </r>
       <r>    -4.7420   305.2837   294.2369 </r>
       <r>    -4.6367   371.1490   333.3327 </r>
       <r>    -4.5314   416.4171   377.1970 </r>
       <r>    -4.4260   415.3928   420.9534 </r>
       <r>    -4.3207   492.6718   472.8502 </r>
       <r>    -4.2153   547.9308   530.5678 </r>
       <r>    -4.1100   365.9205   569.1129 </r>
       <r>    -4.0047   106.1798   580.2976 </r>
       <r>    -3.8993    13.3303   581.7018 </r>
       <r>    -3.7940    24.1001   584.2404 </r>
       <r>    -3.6887    23.1258   586.6764 </r>
       <r>    -3.5833    15.1830   588.2758 </r>
       <r>    -3.4780    20.6441   590.4504 </r>
       <r>    -3.3726    21.2972   592.6937 </r>
       <r>    -3.2673     7.3731   593.4704 </r>
       <r>    -3.1620     6.5841   594.1640 </r>
       <r>    -3.0566    41.4271   598.5278 </r>
       <r>    -2.9513    61.9747   605.0560 </r>
       <r>    -2.8460    34.7775   608.7194 </r>
       <r>    -2.7406     8.4363   609.6081 </r>
       <r>    -2.6353     6.2226   610.2636 </r>
       <r>    -2.5299    16.8910   612.0428 </r>
       <r>    -2.4246    20.9767   614.2524 </r>
       <r>    -2.3193    15.7768   615.9143 </r>
       <r>    -2.2139    18.1143   617.8224 </r>
       <r>    -2.1086    31.1031   621.0987 </r>
       <r>    -2.0033    40.6659   625.3824 </r>
       <r>    -1.8979    41.9283   629.7990 </r>
       <r>    -1.7926    37.9375   633.7952 </r>
       <r>    -1.6873    35.8679   637.5735 </r>
       <r>    -1.5819    36.5406   641.4226 </r>
       <r>    -1.4766    27.5870   644.3285 </r>
       <r>    -1.3712    19.6847   646.4021 </r>
       <r>    -1.2659    19.9838   648.5071 </r>
       <r>    -1.1606    17.8326   650.3855 </r>
       <r>    -1.0552    31.2314   653.6754 </r>
       <r>    -0.9499    62.7725   660.2877 </r>
       <r>    -0.8446    63.2489   666.9501 </r>
       <r>    -0.7392    30.1232   670.1232 </r>
       <r>    -0.6339    10.5133   671.2307 </r>
       <r>    -0.5285     6.3527   671.8999 </r>
       <r>    -0.4232     1.5643   672.0646 </r>
       <r>    -0.3179    -0.5907   672.0024 </r>
       <r>    -0.2125    -0.1247   671.9893 </r>
       <r>    -0.1072     0.0750   671.9972 </r>
       <r>    -0.0019     0.0240   671.9997 </r>
       <r>     0.1035     0.0026   672.0000 </r>
       <r>     0.2088     0.0001   672.0000 </r>
       <r>     0.3142     0.0000   672.0000 </r>
       <r>     0.4195     0.0000   672.0000 </r>
       <r>     0.5248     0.0000   672.0000 </r>
       <r>     0.6302     0.0000   672.0000 </r>
       <r>     0.7355     0.0000   672.0000 </r>
       <r>     0.8408     0.0000   672.0000 </r>
       <r>     0.9462     0.0000   672.0000 </r>
       <r>     1.0515     0.0000   672.0000 </r>
       <r>     1.1569     0.0000   672.0000 </r>
       <r>     1.2622     0.0000   672.0000 </r>
       <r>     1.3675     0.0000   672.0000 </r>
      </set>
     </set>
    </array>
   </total>
  </dos>
 </calculation>
 <structure name="finalpos" >
  <crystal>
   <varray name="basis" >
    <v>      30.00000000       0.00000000       0.00000000 </v>
    <v>       0.00000000      30.00000000       0.00000000 </v>
    <v>       0.00000000       0.00000000      30.00000000 </v>
   </varray>
   <i name="volume">  27000.00000000 </i>
   <varray name="rec_basis" >
    <v>       0.03333333       0.00000000       0.00000000 </v>
    <v>       0.00000000       0.03333333       0.00000000 </v>
    <v>       0.00000000       0.00000000       0.03333333 </v>
   </varray>
  </crystal>
  <varray name="positions" >
   <v>       0.44576020       0.32826710       0.41691983 </v>
   <v>       0.67173288       0.55423978       0.41691983 </v>
   <v>       0.55423980       0.32826710       0.41691983 </v>
   <v>       0.32826712       0.55423978       0.41691983 </v>
   <v>       0.50000000       0.38250690       0.34021317 </v>
   <v>       0.50000000       0.38250690       0.65978680 </v>
   <v>       0.50000000       0.27609440       0.50000000 </v>
   <v>       0.27609443       0.49999998       0.50000000 </v>
   <v>       0.72390557       0.49999998       0.50000000 </v>
   <v>       0.50000000       0.72390555       0.50000000 </v>
   <v>       0.61195280       0.38804720       0.34167483 </v>
   <v>       0.61195280       0.38804720       0.65832513 </v>
   <v>       0.38804722       0.61195278       0.34167483 </v>
   <v>       0.38804722       0.61195278       0.65832513 </v>
   <v>       0.38804720       0.38804720       0.34167483 </v>
   <v>       0.38804720       0.38804720       0.65832513 </v>
   <v>       0.61195278       0.61195278       0.34167483 </v>
   <v>       0.61195278       0.61195278       0.65832513 </v>
   <v>       0.44576020       0.32826710       0.58308023 </v>
   <v>       0.67173288       0.55423978       0.58308023 </v>
   <v>       0.55791699       0.44208301       0.41809300 </v>
   <v>       0.32826705       0.44576024       0.41691983 </v>
   <v>       0.55423973       0.67173293       0.41691983 </v>
   <v>       0.55423980       0.32826710       0.58308023 </v>
   <v>       0.32826712       0.55423978       0.58308023 </v>
   <v>       0.67173295       0.44576024       0.41691983 </v>
   <v>       0.44576027       0.67173293       0.41691983 </v>
   <v>       0.44208301       0.44208301       0.41809300 </v>
   <v>       0.50000000       0.38416601       0.50000000 </v>
   <v>       0.61749315       0.50000005       0.34021317 </v>
   <v>       0.61749315       0.50000005       0.65978680 </v>
   <v>       0.38250685       0.50000005       0.34021317 </v>
   <v>       0.38250685       0.50000005       0.65978680 </v>
   <v>       0.38317830       0.38317830       0.50000000 </v>
   <v>       0.61682172       0.61682172       0.50000000 </v>
   <v>       0.61682170       0.38317830       0.50000000 </v>
   <v>       0.38317828       0.61682172       0.50000000 </v>
   <v>       0.50000000       0.50000000       0.33478917 </v>
   <v>       0.50000000       0.50000000       0.66521087 </v>
   <v>       0.32826705       0.44576024       0.58308023 </v>
   <v>       0.55423973       0.67173293       0.58308023 </v>
   <v>       0.55791699       0.44208301       0.58190703 </v>
   <v>       0.44208298       0.55791702       0.41809300 </v>
   <v>       0.44208301       0.44208301       0.58190703 </v>
   <v>       0.67173295       0.44576024       0.58308023 </v>
   <v>       0.44576027       0.67173293       0.58308023 </v>
   <v>       0.55791702       0.55791702       0.41809300 </v>
   <v>       0.38416599       0.50000002       0.50000000 </v>
   <v>       0.61583401       0.50000002       0.50000000 </v>
   <v>       0.50000000       0.61749319       0.34021317 </v>
   <v>       0.50000000       0.61749319       0.65978680 </v>
   <v>       0.50000000       0.50000000       0.50000000 </v>
   <v>       0.44208298       0.55791702       0.58190703 </v>
   <v>       0.55791702       0.55791702       0.58190703 </v>
   <v>       0.50000000       0.61583404       0.50000000 </v>
   <v>       0.70651683       0.56522750       0.53700240 </v>
   <v>       0.74185883       0.57639010       0.54333477 </v>
  </varray>
  <varray name="selective"  type="logical" >
   <v type="logical" >  F  F  F </v>
   <v type="logical" >  F  F  F </v>
   <v type="logical" >  F  F  F </v>
   <v type="logical" >  F  F  F </v>
   <v type="logical" >  F  F  F </v>
   <v type="logical" >  F  F  F </v>
   <v type="logical" >  F  F  F </v>
   <v type="logical" >  F  F  F </v>
   <v type="logical" >  F  F  F </v>
   <v type="logical" >  F  F  F </v>
   <v type="logical" >  F  F  F </v>
   <v type="logical" >  F  F  F </v>
   <v type="logical" >  F  F  F </v>
   <v type="logical" >  F  F  F </v>
   <v type="logical" >  F  F  F </v>
   <v type="logical" >  F  F  F </v>
   <v type="logical" >  F  F  F </v>
   <v type="logical" >  F  F  F </v>
   <v type="logical" >  F  F  F </v>
   <v type="logical" >  F  F  F </v>
   <v type="logical" >  F  F  F </v>
   <v type="logical" >  F  F  F </v>
   <v type="logical" >  F  F  F </v>
   <v type="logical" >  F  F  F </v>
   <v type="logical" >  F  F  F </v>
   <v type="logical" >  F  F  F </v>
   <v type="logical" >  F  F  F </v>
   <v type="logical" >  F  F  F </v>
   <v type="logical" >  F  F  F </v>
   <v type="logical" >  F  F  F </v>
   <v type="logical" >  F  F  F </v>
   <v type="logical" >  F  F  F </v>
   <v type="logical" >  F  F  F </v>
   <v type="logical" >  F  F  F </v>
   <v type="logical" >  F  F  F </v>
   <v type="logical" >  F  F  F </v>
   <v type="logical" >  F  F  F </v>
   <v type="logical" >  F  F  F </v>
   <v type="logical" >  F  F  F </v>
   <v type="logical" >  F  F  F </v>
   <v type="logical" >  F  F  F </v>
   <v type="logical" >  F  F  F </v>
   <v type="logical" >  F  F  F </v>
   <v type="logical" >  F  F  F </v>
   <v type="logical" >  F  F  F </v>
   <v type="logical" >  F  F  F </v>
   <v type="logical" >  F  F  F </v>
   <v type="logical" >  F  F  F </v>
   <v type="logical" >  F  F  F </v>
   <v type="logical" >  F  F  F </v>
   <v type="logical" >  F  F  F </v>
   <v type="logical" >  F  F  F </v>
   <v type="logical" >  F  F  F </v>
   <v type="logical" >  F  F  F </v>
   <v type="logical" >  F  F  F </v>
   <v type="logical" >  F  F  F </v>
   <v type="logical" >  F  F  F </v>
  </varray>
  <nose>
   <v>      -3.00000000       0.00000000       0.00010000       0.00010000 </v>
  </nose>
 </structure>
</modeling>
