   57   57    1    1
  0.4736842E+03  0.3000000E-08  0.3000000E-08  0.3000000E-08  0.5000000E-15
  1.000000000000000E-004
  CAR 
 6_Pd100_top_free_z(O)                   
    560      1    336
 
  0.0000000E+00  0.0000000E+00  0.0000000E+00  0.1000000E+01
    1      -29.188009   1.000000
    2      -13.720232   1.000000
    3      -11.512242   1.000000
    4      -11.498462   1.000000
    5       -9.413786   1.000000
    6       -6.628241   1.000000
    7       -6.109649   1.000000
    8       -6.109315   1.000000
    9       -6.102901   1.000000
   10       -5.795387   1.000000
   11       -5.794136   1.000000
   12       -5.790756   1.000000
   13       -5.726837   1.000000
   14       -5.680062   1.000000
   15       -5.671359   1.000000
   16       -5.667244   1.000000
   17       -5.665567   1.000000
   18       -5.606399   1.000000
   19       -5.602678   1.000000
   20       -5.592212   1.000000
   21       -5.583192   1.000000
   22       -5.578454   1.000000
   23       -5.575922   1.000000
   24       -5.533274   1.000000
   25       -5.530720   1.000000
   26       -5.528779   1.000000
   27       -5.527980   1.000000
   28       -5.504988   1.000000
   29       -5.503430   1.000000
   30       -5.503005   1.000000
   31       -5.499582   1.000000
   32       -5.498576   1.000000
   33       -5.495757   1.000000
   34       -5.495525   1.000000
   35       -5.493373   1.000000
   36       -5.464260   1.000000
   37       -5.460614   1.000000
   38       -5.454027   1.000000
   39       -5.452931   1.000000
   40       -5.450997   1.000000
   41       -5.450502   1.000000
   42       -5.449913   1.000000
   43       -5.449747   1.000000
   44       -5.417325   1.000000
   45       -5.412633   1.000000
   46       -5.412218   1.000000
   47       -5.410036   1.000000
   48       -5.409506   1.000000
   49       -5.405387   1.000000
   50       -5.403447   1.000000
   51       -5.403138   1.000000
   52       -5.387800   1.000000
   53       -5.387578   1.000000
   54       -5.386566   1.000000
   55       -5.371589   1.000000
   56       -5.320794   1.000000
   57       -5.310398   1.000000
   58       -5.309520   1.000000
   59       -5.308650   1.000000
   60       -5.301851   1.000000
   61       -5.300365   1.000000
   62       -5.298875   1.000000
   63       -5.283205   1.000000
   64       -5.283016   1.000000
   65       -5.282280   1.000000
   66       -5.270793   1.000000
   67       -5.269288   1.000000
   68       -5.199939   1.000000
   69       -5.187475   1.000000
   70       -5.186538   1.000000
   71       -5.185951   1.000000
   72       -5.174973   1.000000
   73       -5.166277   1.000000
   74       -5.163047   1.000000
   75       -5.162091   1.000000
   76       -5.159673   1.000000
   77       -5.144797   1.000000
   78       -5.144243   1.000000
   79       -5.143809   1.000000
   80       -5.131487   1.000000
   81       -5.115942   1.000000
   82       -5.106486   1.000000
   83       -5.105090   1.000000
   84       -5.094682   1.000000
   85       -5.089297   1.000000
   86       -5.086820   1.000000
   87       -5.084497   1.000000
   88       -5.061695   1.000000
   89       -5.048806   1.000000
   90       -5.041685   1.000000
   91       -5.037618   1.000000
   92       -5.036007   1.000000
   93       -5.033732   1.000000
   94       -5.031710   1.000000
   95       -5.030355   1.000000
   96       -5.012591   1.000000
   97       -5.011530   1.000000
   98       -5.010964   1.000000
   99       -5.000609   1.000000
  100       -4.998625   1.000000
  101       -4.993920   1.000000
  102       -4.988630   1.000000
  103       -4.986349   1.000000
  104       -4.975270   1.000000
  105       -4.973324   1.000000
  106       -4.972322   1.000000
  107       -4.966956   1.000000
  108       -4.965253   1.000000
  109       -4.961544   1.000000
  110       -4.950853   1.000000
  111       -4.950702   1.000000
  112       -4.941923   0.999999
  113       -4.938668   0.999999
  114       -4.936423   0.999999
  115       -4.935409   0.999999
  116       -4.933334   0.999999
  117       -4.919487   0.999999
  118       -4.909289   0.999998
  119       -4.899889   0.999998
  120       -4.898481   0.999998
  121       -4.888096   0.999997
  122       -4.886252   0.999996
  123       -4.883433   0.999996
  124       -4.882554   0.999996
  125       -4.881844   0.999996
  126       -4.881632   0.999996
  127       -4.834674   0.999981
  128       -4.826787   0.999977
  129       -4.824923   0.999975
  130       -4.823191   0.999974
  131       -4.822738   0.999974
  132       -4.822539   0.999973
  133       -4.815687   0.999968
  134       -4.813328   0.999965
  135       -4.812402   0.999964
  136       -4.778397   0.999909
  137       -4.775055   0.999901
  138       -4.774253   0.999899
  139       -4.773751   0.999897
  140       -4.751205   0.999818
  141       -4.748936   0.999808
  142       -4.746235   0.999795
  143       -4.740118   0.999762
  144       -4.727431   0.999680
  145       -4.721385   0.999633
  146       -4.709443   0.999522
  147       -4.707315   0.999499
  148       -4.701126   0.999428
  149       -4.698494   0.999396
  150       -4.673099   0.998998
  151       -4.668667   0.998912
  152       -4.668253   0.998903
  153       -4.668006   0.998898
  154       -4.664734   0.998830
  155       -4.663324   0.998800
  156       -4.658536   0.998692
  157       -4.654469   0.998595
  158       -4.654115   0.998587
  159       -4.648814   0.998453
  160       -4.639576   0.998199
  161       -4.635175   0.998069
  162       -4.631603   0.997959
  163       -4.629213   0.997884
  164       -4.628725   0.997868
  165       -4.628456   0.997860
  166       -4.627936   0.997843
  167       -4.627283   0.997822
  168       -4.624763   0.997740
  169       -4.621911   0.997644
  170       -4.611805   0.997292
  171       -4.598981   0.996820
  172       -4.588697   0.996433
  173       -4.582978   0.996221
  174       -4.577839   0.996034
  175       -4.577681   0.996029
  176       -4.576833   0.995999
  177       -4.574892   0.995930
  178       -4.572748   0.995857
  179       -4.557246   0.995387
  180       -4.556780   0.995375
  181       -4.556715   0.995374
  182       -4.547070   0.995172
  183       -4.543150   0.995117
  184       -4.539082   0.995080
  185       -4.534541   0.995065
  186       -4.533692   0.995065
  187       -4.532849   0.995067
  188       -4.529906   0.995082
  189       -4.529750   0.995083
  190       -4.529453   0.995085
  191       -4.489384   0.997252
  192       -4.488144   0.997393
  193       -4.486442   0.997596
  194       -4.485638   0.997695
  195       -4.485200   0.997750
  196       -4.478021   0.998755
  197       -4.470201   1.000078
  198       -4.465182   1.001062
  199       -4.462131   1.001712
  200       -4.450491   1.004574
  201       -4.449749   1.004777
  202       -4.442752   1.006818
  203       -4.440675   1.007466
  204       -4.439199   1.007939
  205       -4.434880   1.009380
  206       -4.429384   1.011332
  207       -4.428396   1.011696
  208       -4.424793   1.013062
  209       -4.422036   1.014142
  210       -4.421648   1.014297
  211       -4.407734   1.020200
  212       -4.404532   1.021646
  213       -4.395501   1.025853
  214       -4.391463   1.027779
  215       -4.390546   1.028218
  216       -4.390013   1.028474
  217       -4.385557   1.030619
  218       -4.382869   1.031913
  219       -4.379814   1.033379
  220       -4.350873   1.045918
  221       -4.349378   1.046439
  222       -4.348262   1.046816
  223       -4.330850   1.051025
  224       -4.323508   1.051611
  225       -4.322561   1.051624
  226       -4.319003   1.051535
  227       -4.318651   1.051514
  228       -4.316859   1.051372
  229       -4.315726   1.051251
  230       -4.314761   1.051128
  231       -4.313025   1.050861
  232       -4.308076   1.049759
  233       -4.306862   1.049409
  234       -4.305815   1.049080
  235       -4.303052   1.048091
  236       -4.302115   1.047716
  237       -4.301949   1.047647
  238       -4.299076   1.046350
  239       -4.298667   1.046149
  240       -4.297012   1.045292
  241       -4.282694   1.034778
  242       -4.281979   1.034097
  243       -4.266535   1.015430
  244       -4.265839   1.014402
  245       -4.265152   1.013370
  246       -4.264693   1.012671
  247       -4.264237   1.011970
  248       -4.263639   1.011039
  249       -4.257809   1.001298
  250       -4.245929   0.977588
  251       -4.245223   0.976012
  252       -4.241387   0.967113
  253       -4.234904   0.950789
  254       -4.234408   0.949471
  255       -4.230452   0.938633
  256       -4.229369   0.935562
  257       -4.228798   0.933922
  258       -4.226148   0.926154
  259       -4.224435   0.920986
  260       -4.223793   0.919019
  261       -4.220964   0.910169
  262       -4.219988   0.907044
  263       -4.219032   0.903951
  264       -4.217968   0.900463
  265       -4.215442   0.892015
  266       -4.213183   0.884258
  267       -4.203006   0.846975
  268       -4.200081   0.835575
  269       -4.198641   0.829852
  270       -4.198586   0.829633
  271       -4.196361   0.820653
  272       -4.194964   0.814928
  273       -4.176971   0.735799
  274       -4.174815   0.725702
  275       -4.167156   0.688936
  276       -4.160867   0.657802
  277       -4.158829   0.647554
  278       -4.157461   0.640639
  279       -4.152167   0.613591
  280       -4.151603   0.610689
  281       -4.151331   0.609289
  282       -4.136860   0.533641
  283       -4.109761   0.391246
  284       -4.108299   0.383719
  285       -4.107287   0.378529
  286       -4.106940   0.376748
  287       -4.096278   0.323076
  288       -4.092374   0.303960
  289       -4.090583   0.295297
  290       -3.950819  -0.050289
  291       -3.878953  -0.032314
  292       -3.796197  -0.001142
  293       -3.795986  -0.001099
  294       -3.750458   0.004404
  295       -3.472311   0.000069
  296       -3.471008   0.000067
  297       -3.451197   0.000038
  298       -3.038711   0.000000
  299       -3.037265   0.000000
  300       -3.019393   0.000000
  301       -3.006871   0.000000
  302       -2.992025   0.000000
  303       -2.962479   0.000000
  304       -2.912906   0.000000
  305       -2.857542   0.000000
  306       -2.513521   0.000000
  307       -2.502372   0.000000
  308       -2.491055   0.000000
  309       -2.329503   0.000000
  310       -2.177702   0.000000
  311       -2.097093   0.000000
  312       -2.089036   0.000000
  313       -2.010526   0.000000
  314       -1.972336   0.000000
  315       -1.911647   0.000000
  316       -1.860274   0.000000
  317       -1.848264   0.000000
  318       -1.811360   0.000000
  319       -1.706068   0.000000
  320       -1.630639   0.000000
  321       -1.611762   0.000000
  322       -1.556590   0.000000
  323       -1.533567   0.000000
  324       -1.486620   0.000000
  325       -1.369947   0.000000
  326       -1.218983   0.000000
  327       -1.214073   0.000000
  328       -1.193295   0.000000
  329       -0.966992   0.000000
  330       -0.957468   0.000000
  331       -0.932529   0.000000
  332       -0.916661   0.000000
  333       -0.896697   0.000000
  334       -0.869759   0.000000
  335       -0.779271   0.000000
  336       -0.591412   0.000000
