 running on    1 total cores
 distrk:  each k-point on    1 cores,    1 groups
 distr:  one band on    1 cores,    1 groups
 using from now: INCAR     
 vasp.5.4.4.18Apr17-6-g9f103f2a35 (build Sep 03 2018 23:53:05) complex          
  
 POSCAR found type information on POSCAR  Pd C  O 
 POSCAR found :  3 types and      57 ions
 scaLAPACK will be used

 ----------------------------------------------------------------------------- 
|                                                                             |
|  ADVICE TO THIS USER RUNNING 'VASP/VAMP'   (HEAR YOUR MASTER'S VOICE ...):  |
|                                                                             |
|      You enforced a specific xc-type in the INCAR file,                     |
|      a different type was found on the POTCAR file                          |
|          I HOPE YOU KNOW, WHAT YOU ARE  DOING                               |
|                                                                             |
 ----------------------------------------------------------------------------- 

 LDA part: xc-table for Pade appr. of Perdew
 POSCAR, INCAR and KPOINTS ok, starting setup
 FFT: planning ...
 WAVECAR not read
 entering main loop
       N       E                     dE             d eps       ncg     rms          rms(c)
DAV:   1     0.438117414456E+04    0.43812E+04   -0.10050E+05   688   0.815E+02
DAV:   2     0.203034500623E+04   -0.23508E+04   -0.21122E+04  1208   0.105E+02
DAV:   3     0.242630110539E+03   -0.17877E+04   -0.16778E+04  1000   0.918E+01
DAV:   4    -0.134709585077E+03   -0.37734E+03   -0.32326E+03   840   0.437E+01
DAV:   5    -0.178879198758E+03   -0.44170E+02   -0.36384E+02  1048   0.145E+01    0.138E+01
RMM:   6    -0.177550224863E+03    0.13290E+01   -0.46981E+01   727   0.835E+00    0.187E+01
RMM:   7    -0.181173734975E+03   -0.36235E+01   -0.17262E+01   852   0.447E+00    0.214E+01
RMM:   8    -0.183462929633E+03   -0.22892E+01   -0.60959E+00   784   0.329E+00    0.261E+01
RMM:   9    -0.180436284962E+03    0.30266E+01   -0.47094E+00   733   0.308E+00    0.246E+01
RMM:  10    -0.178847749730E+03    0.15885E+01   -0.20038E+00   744   0.207E+00    0.219E+01
RMM:  11    -0.177049254145E+03    0.17985E+01   -0.14232E+00   731   0.177E+00    0.200E+01
RMM:  12    -0.176006071942E+03    0.10432E+01   -0.98847E-01   734   0.147E+00    0.138E+01
RMM:  13    -0.176000237776E+03    0.58342E-02   -0.67861E-01   726   0.121E+00    0.159E+01
RMM:  14    -0.175581430112E+03    0.41881E+00   -0.92317E-01   722   0.141E+00    0.134E+01
RMM:  15    -0.175935699010E+03   -0.35427E+00   -0.11998E+00   713   0.160E+00    0.218E+01
RMM:  16    -0.175150840456E+03    0.78486E+00   -0.77076E-01   714   0.128E+00    0.133E+01
RMM:  17    -0.175169253947E+03   -0.18413E-01   -0.84848E-01   707   0.135E+00    0.155E+01
RMM:  18    -0.174789992258E+03    0.37926E+00   -0.42581E-01   718   0.950E-01    0.112E+01
RMM:  19    -0.174681145566E+03    0.10885E+00   -0.43590E-01   720   0.972E-01    0.113E+01
RMM:  20    -0.174739170163E+03   -0.58025E-01   -0.31690E-01   723   0.843E-01    0.102E+01
RMM:  21    -0.174478923041E+03    0.26025E+00   -0.25798E-01   722   0.788E-01    0.780E+00
RMM:  22    -0.174255454957E+03    0.22347E+00   -0.12305E-01   715   0.549E-01    0.570E+00
RMM:  23    -0.174214955460E+03    0.40499E-01   -0.95639E-02   716   0.468E-01    0.574E+00
RMM:  24    -0.174114215530E+03    0.10074E+00   -0.81352E-02   715   0.434E-01    0.385E+00
RMM:  25    -0.174080067766E+03    0.34148E-01   -0.72994E-02   715   0.409E-01    0.341E+00
RMM:  26    -0.174067107190E+03    0.12961E-01   -0.56889E-02   714   0.371E-01    0.347E+00
RMM:  27    -0.174015327090E+03    0.51780E-01   -0.46137E-02   706   0.342E-01    0.199E+00
RMM:  28    -0.174022413018E+03   -0.70859E-02   -0.34908E-02   704   0.294E-01    0.239E+00
RMM:  29    -0.174001669188E+03    0.20744E-01   -0.20157E-02   711   0.232E-01    0.207E+00
RMM:  30    -0.173984333117E+03    0.17336E-01   -0.10022E-02   704   0.164E-01    0.142E+00
RMM:  31    -0.173980558299E+03    0.37748E-02   -0.65191E-03   705   0.130E-01    0.122E+00
RMM:  32    -0.173974765118E+03    0.57932E-02   -0.58916E-03   702   0.124E-01    0.881E-01
RMM:  33    -0.173974588025E+03    0.17709E-03   -0.41270E-03   702   0.106E-01    0.955E-01
RMM:  34    -0.173971289478E+03    0.32985E-02   -0.23351E-03   700   0.798E-02    0.503E-01
RMM:  35    -0.173971032959E+03    0.25652E-03   -0.15899E-03   696   0.659E-02    0.354E-01
RMM:  36    -0.173973844919E+03   -0.28120E-02   -0.18151E-03   696   0.653E-02    0.590E-01
RMM:  37    -0.173974689405E+03   -0.84449E-03   -0.12835E-03   692   0.584E-02    0.414E-01
RMM:  38    -0.173975984380E+03   -0.12950E-02   -0.87238E-04   693   0.492E-02    0.350E-01
RMM:  39    -0.173979094481E+03   -0.31101E-02   -0.10063E-03   688   0.482E-02    0.412E-01
RMM:  40    -0.173982057059E+03   -0.29626E-02   -0.92764E-04   680   0.468E-02    0.287E-01
RMM:  41    -0.173983351034E+03   -0.12940E-02   -0.40893E-04   505   0.327E-02    0.218E-01
RMM:  42    -0.173985078280E+03   -0.17272E-02   -0.29477E-04   434   0.272E-02    0.187E-01
RMM:  43    -0.173987194440E+03   -0.21162E-02   -0.28574E-04   442   0.262E-02    0.119E-01
RMM:  44    -0.173988226748E+03   -0.10323E-02   -0.15779E-04   416   0.188E-02    0.121E-01
RMM:  45    -0.173991006901E+03   -0.27802E-02   -0.25274E-04   430   0.220E-02    0.134E-01
RMM:  46    -0.173992497949E+03   -0.14910E-02   -0.19372E-04   422   0.191E-02    0.119E-01
RMM:  47    -0.173994278612E+03   -0.17807E-02   -0.19038E-04   423   0.175E-02    0.107E-01
RMM:  48    -0.173995737763E+03   -0.14592E-02   -0.17100E-04   421   0.159E-02    0.731E-02
RMM:  49    -0.173996497235E+03   -0.75947E-03   -0.98661E-05   418   0.119E-02    0.702E-02
RMM:  50    -0.173997492706E+03   -0.99547E-03   -0.92343E-05   410   0.109E-02    0.502E-02
RMM:  51    -0.173997845033E+03   -0.35233E-03   -0.46276E-05   410   0.783E-03    0.429E-02
RMM:  52    -0.173998426928E+03   -0.58190E-03   -0.37294E-05   404   0.710E-03    0.350E-02
RMM:  53    -0.173998814305E+03   -0.38738E-03   -0.23441E-05   341   0.561E-03    0.286E-02
RMM:  54    -0.173999078952E+03   -0.26465E-03   -0.11323E-05   230   0.462E-03    0.167E-02
RMM:  55    -0.173999405189E+03   -0.32624E-03   -0.90044E-06   229   0.456E-03    0.188E-02
RMM:  56    -0.173999713478E+03   -0.30829E-03   -0.60629E-06   185   0.416E-03    0.957E-03
RMM:  57    -0.173999864705E+03   -0.15123E-03   -0.46257E-06   165   0.377E-03    0.102E-02
RMM:  58    -0.174000153984E+03   -0.28928E-03   -0.71070E-06   180   0.389E-03    0.104E-02
RMM:  59    -0.174000337001E+03   -0.18302E-03   -0.83200E-06   184   0.378E-03    0.859E-03
RMM:  60    -0.174000533111E+03   -0.19611E-03   -0.93157E-06   177   0.387E-03    0.844E-03
RMM:  61    -0.174000533671E+03   -0.55932E-06   -0.40004E-08    74   0.301E-03
   1 F= -.17400053E+03 E0= -.17397438E+03  d E =-.104606E+00
================================= SLURM INFO ===================================
Command: run-cluster -n 1 -m 10000 -j 0469_vasp --same-node /opt/VASP/vasp
Exit code: 0
Job name: 0469_vasp
Job time: 0 days 5h:2m:14s
MPI task count: 1
Working dir: /home/pashkov/pyFitIt/pyfitit/data/random_pd_co_new/sample/0469
Job was running on nodes: h4
Task per node: 1
       JobID     MaxRSS  MaxDiskRead MaxDiskWrite    Elapsed    JobName 
------------ ---------- ------------ ------------ ---------- ---------- 
106139                                              05:02:15  0469_vasp 
106139.batch                                        05:02:15      batch 
