<?xml version="1.0" encoding="ISO-8859-1"?>
<modeling>
 <generator>
  <i name="program" type="string">vasp </i>
  <i name="version" type="string">5.4.4.18Apr17-6-g9f103f2a35  </i>
  <i name="subversion" type="string">(build Sep 03 2018 23:53:05) complex            parallel </i>
  <i name="platform" type="string">LinuxIFC </i>
  <i name="date" type="string">2021 11 27 </i>
  <i name="time" type="string">03:08:59 </i>
 </generator>
 <incar>
  <i type="string" name="SYSTEM"> 6_Pd100_top_free_z(O)</i>
  <i type="int" name="ISTART">     0</i>
  <i type="string" name="PREC">normal   			! encut=max(enmax), ngx,y,z</i>
  <i type="string" name="ALGO"> Fast     			! Mix RMM-DIIS and Dav</i>
  <i type="logical" name="ADDGRID"> F  </i>
  <i type="int" name="ISPIN">     1</i>
  <i type="int" name="ICHARG">     2</i>
  <i type="int" name="NELM">   100</i>
  <i type="int" name="NELMIN">     6</i>
  <i type="int" name="IBRION">     2</i>
  <i name="EDIFF">      0.00010000</i>
  <i name="EDIFFG">     -0.05000000</i>
  <i type="int" name="NSW">     0</i>
  <i type="int" name="ISIF">     2</i>
  <i type="int" name="ISYM">     2</i>
  <i name="ENCUT">    400.00000000</i>
  <i type="string" name="LREAL"> Auto     			! Auto or A projection done</i>
  <i type="int" name="ISMEAR">     2</i>
  <i name="SIGMA">      0.20000000</i>
  <i type="logical" name="LWAVE"> F  </i>
  <i type="logical" name="LCHARG"> F  </i>
  <v type="int" name="KPOINT_BSE">    -1     0     0     0</v>
  <i type="int" name="MAXMEM"> 10000</i>
  <i type="int" name="NELM">   100</i>
  <i type="string" name="GGA"> RP         			! Revised PBE</i>
 </incar>
 <structure name="primitive_cell" >
  <crystal>
   <varray name="basis" >
    <v>      30.00000000       0.00000000       0.00000000 </v>
    <v>       0.00000000      30.00000000       0.00000000 </v>
    <v>       0.00000000       0.00000000      30.00000000 </v>
   </varray>
   <i name="volume">  27000.00000000 </i>
   <varray name="rec_basis" >
    <v>       0.03333333       0.00000000       0.00000000 </v>
    <v>       0.00000000       0.03333333       0.00000000 </v>
    <v>       0.00000000       0.00000000       0.03333333 </v>
   </varray>
  </crystal>
  <varray name="positions" >
   <v>       0.44576020       0.32826710       0.41691983 </v>
   <v>      -0.44576020       0.32826710       0.41691983 </v>
   <v>      -0.50000000       0.38250690       0.34021317 </v>
   <v>      -0.50000000       0.27609440      -0.50000000 </v>
   <v>       0.38804720       0.38804720       0.34167483 </v>
   <v>      -0.50000000       0.38416601      -0.50000000 </v>
   <v>       0.44208300       0.44208300       0.41809300 </v>
   <v>       0.38317830       0.38317830      -0.50000000 </v>
   <v>      -0.44208300       0.44208300       0.41809300 </v>
   <v>       0.44576020       0.32826710      -0.41691977 </v>
   <v>       0.32826705       0.44576024       0.41691983 </v>
   <v>      -0.38804720       0.38804720       0.34167483 </v>
   <v>      -0.38317830       0.38317830      -0.50000000 </v>
   <v>      -0.50000000      -0.50000000       0.33478917 </v>
   <v>      -0.50000000      -0.50000000      -0.50000000 </v>
   <v>      -0.44576020       0.32826710      -0.41691977 </v>
   <v>       0.38250685      -0.49999995       0.34021317 </v>
   <v>       0.44208300       0.44208300      -0.41809297 </v>
   <v>       0.38416599      -0.49999998      -0.50000000 </v>
   <v>      -0.44208300       0.44208300      -0.41809297 </v>
   <v>       0.44208298      -0.44208298       0.41809300 </v>
   <v>       0.32826705       0.44576024      -0.41691977 </v>
   <v>      -0.50000000       0.38250690      -0.34021320 </v>
   <v>       0.32826712      -0.44576022       0.41691983 </v>
   <v>      -0.38250685      -0.49999995       0.34021317 </v>
   <v>      -0.32826705       0.44576024       0.41691983 </v>
   <v>       0.27609443       0.49999998      -0.50000000 </v>
   <v>       0.38804720       0.38804720      -0.34167487 </v>
   <v>      -0.38416599      -0.49999998      -0.50000000 </v>
   <v>      -0.44208298      -0.44208298       0.41809300 </v>
   <v>       0.44208298      -0.44208298      -0.41809297 </v>
   <v>      -0.38804720       0.38804720      -0.34167487 </v>
   <v>       0.38804722      -0.38804722       0.34167483 </v>
   <v>       0.38250685      -0.49999995      -0.34021320 </v>
   <v>       0.32826712      -0.44576022      -0.41691977 </v>
   <v>      -0.32826705       0.44576024      -0.41691977 </v>
   <v>       0.50000000      -0.38250681       0.34021317 </v>
   <v>      -0.50000000      -0.38416596      -0.50000000 </v>
   <v>      -0.44208298      -0.44208298      -0.41809297 </v>
   <v>      -0.50000000      -0.50000000      -0.33478913 </v>
   <v>       0.38317828      -0.38317828      -0.50000000 </v>
   <v>      -0.32826712      -0.44576022       0.41691983 </v>
   <v>       0.41904587       0.48739857      -0.29359643 </v>
   <v>      -0.27609443       0.49999998      -0.50000000 </v>
   <v>      -0.38804722      -0.38804722       0.34167483 </v>
   <v>      -0.38250685      -0.49999995      -0.34021320 </v>
   <v>       0.44576027      -0.32826707       0.41691983 </v>
   <v>      -0.38317828      -0.38317828      -0.50000000 </v>
   <v>      -0.32826712      -0.44576022      -0.41691977 </v>
   <v>      -0.44576027      -0.32826707       0.41691983 </v>
   <v>       0.40533900       0.48526493      -0.25864890 </v>
   <v>       0.38804722      -0.38804722      -0.34167487 </v>
   <v>      -0.50000000      -0.38250681      -0.34021320 </v>
   <v>       0.44576027      -0.32826707      -0.41691977 </v>
   <v>      -0.44576027      -0.32826707      -0.41691977 </v>
   <v>      -0.50000000      -0.27609445       0.50000000 </v>
   <v>      -0.38804722      -0.38804722      -0.34167487 </v>
  </varray>
 </structure>
 <varray name="primitive_index" >
  <v type="int" >        1 </v>
  <v type="int" >        3 </v>
  <v type="int" >        5 </v>
  <v type="int" >        7 </v>
  <v type="int" >       15 </v>
  <v type="int" >       29 </v>
  <v type="int" >       28 </v>
  <v type="int" >       34 </v>
  <v type="int" >       21 </v>
  <v type="int" >       19 </v>
  <v type="int" >       22 </v>
  <v type="int" >       11 </v>
  <v type="int" >       36 </v>
  <v type="int" >       38 </v>
  <v type="int" >       52 </v>
  <v type="int" >       24 </v>
  <v type="int" >       32 </v>
  <v type="int" >       44 </v>
  <v type="int" >       48 </v>
  <v type="int" >       42 </v>
  <v type="int" >       43 </v>
  <v type="int" >       40 </v>
  <v type="int" >        6 </v>
  <v type="int" >        4 </v>
  <v type="int" >       30 </v>
  <v type="int" >       26 </v>
  <v type="int" >        8 </v>
  <v type="int" >       16 </v>
  <v type="int" >       49 </v>
  <v type="int" >       47 </v>
  <v type="int" >       53 </v>
  <v type="int" >       12 </v>
  <v type="int" >       13 </v>
  <v type="int" >       33 </v>
  <v type="int" >       25 </v>
  <v type="int" >       45 </v>
  <v type="int" >       50 </v>
  <v type="int" >       55 </v>
  <v type="int" >       54 </v>
  <v type="int" >       39 </v>
  <v type="int" >       37 </v>
  <v type="int" >        2 </v>
  <v type="int" >       56 </v>
  <v type="int" >        9 </v>
  <v type="int" >       17 </v>
  <v type="int" >       31 </v>
  <v type="int" >       27 </v>
  <v type="int" >       35 </v>
  <v type="int" >       20 </v>
  <v type="int" >       23 </v>
  <v type="int" >       57 </v>
  <v type="int" >       14 </v>
  <v type="int" >       51 </v>
  <v type="int" >       46 </v>
  <v type="int" >       41 </v>
  <v type="int" >       10 </v>
  <v type="int" >       18 </v>
 </varray>
 <kpoints>
  <generation param="Monkhorst-Pack">
   <v type="int" name="divisions">       1        1        1 </v>
   <v name="usershift">      0.00000000       0.00000000       0.00000000 </v>
   <v name="genvec1">      1.00000000       0.00000000       0.00000000 </v>
   <v name="genvec2">      0.00000000       1.00000000       0.00000000 </v>
   <v name="genvec3">      0.00000000       0.00000000       1.00000000 </v>
   <v name="shift">      0.00000000       0.00000000       0.00000000 </v>
  </generation>
  <varray name="kpointlist" >
   <v>       0.00000000       0.00000000       0.00000000 </v>
  </varray>
  <varray name="weights" >
   <v>       1.00000000 </v>
  </varray>
 </kpoints>
 <parameters>
  <separator name="general" >
   <i type="string" name="SYSTEM">6_Pd100_top_free_z(O)</i>
   <i type="logical" name="LCOMPAT"> F  </i>
  </separator>
  <separator name="electronic" >
   <i type="string" name="PREC">normal</i>
   <i name="ENMAX">    400.00000000</i>
   <i name="ENAUG">    644.87300000</i>
   <i name="EDIFF">      0.00010000</i>
   <i type="int" name="IALGO">    68</i>
   <i type="int" name="IWAVPR">    10</i>
   <i type="int" name="NBANDS">   336</i>
   <i name="NELECT">    560.00000000</i>
   <i type="int" name="TURBO">     0</i>
   <i type="int" name="IRESTART">     0</i>
   <i type="int" name="NREBOOT">     0</i>
   <i type="int" name="NMIN">     0</i>
   <i name="EREF">      0.00000000</i>
   <separator name="electronic smearing" >
    <i type="int" name="ISMEAR">     2</i>
    <i name="SIGMA">      0.20000000</i>
    <i name="KSPACING">      0.50000000</i>
    <i type="logical" name="KGAMMA"> T  </i>
   </separator>
   <separator name="electronic projectors" >
    <i type="logical" name="LREAL"> T  </i>
    <v name="ROPT">     -0.00050000     -0.00050000     -0.00050000</v>
    <i type="int" name="LMAXPAW">  -100</i>
    <i type="int" name="LMAXMIX">     2</i>
    <i type="logical" name="NLSPLINE"> F  </i>
   </separator>
   <separator name="electronic startup" >
    <i type="int" name="ISTART">     0</i>
    <i type="int" name="ICHARG">     2</i>
    <i type="int" name="INIWAV">     1</i>
   </separator>
   <separator name="electronic spin" >
    <i type="int" name="ISPIN">     1</i>
    <i type="logical" name="LNONCOLLINEAR"> F  </i>
    <v name="MAGMOM">      1.00000000      1.00000000      1.00000000      1.00000000      1.00000000      1.00000000      1.00000000      1.00000000      1.00000000      1.00000000      1.00000000      1.00000000      1.00000000      1.00000000      1.00000000      1.00000000      1.00000000      1.00000000      1.00000000      1.00000000
      1.00000000      1.00000000      1.00000000      1.00000000      1.00000000      1.00000000      1.00000000      1.00000000      1.00000000      1.00000000      1.00000000      1.00000000      1.00000000      1.00000000      1.00000000      1.00000000      1.00000000      1.00000000      1.00000000      1.00000000
      1.00000000      1.00000000      1.00000000      1.00000000      1.00000000      1.00000000      1.00000000      1.00000000      1.00000000      1.00000000      1.00000000      1.00000000      1.00000000      1.00000000      1.00000000      1.00000000      1.00000000</v>
    <i name="NUPDOWN">     -1.00000000</i>
    <i type="logical" name="LSORBIT"> F  </i>
    <v name="SAXIS">      0.00000000      0.00000000      1.00000000</v>
    <i type="logical" name="LSPIRAL"> F  </i>
    <v name="QSPIRAL">      0.00000000      0.00000000      0.00000000</v>
    <i type="logical" name="LZEROZ"> F  </i>
   </separator>
   <separator name="electronic exchange-correlation" >
    <i type="logical" name="LASPH"> F  </i>
    <i type="logical" name="LMETAGGA"> F  </i>
   </separator>
   <separator name="electronic convergence" >
    <i type="int" name="NELM">   100</i>
    <i type="int" name="NELMDL">    -5</i>
    <i type="int" name="NELMIN">     6</i>
    <i name="ENINI">    400.00000000</i>
    <separator name="electronic convergence detail" >
     <i type="logical" name="LDIAG"> T  </i>
     <i type="logical" name="LSUBROT"> F  </i>
     <i name="WEIMIN">      0.00000000</i>
     <i name="EBREAK">      0.00000007</i>
     <i name="DEPER">      0.30000000</i>
     <i type="int" name="NRMM">     4</i>
     <i name="TIME">      0.40000000</i>
    </separator>
   </separator>
   <separator name="electronic mixer" >
    <i name="AMIX">      0.40000000</i>
    <i name="BMIX">      1.00000000</i>
    <i name="AMIN">      0.10000000</i>
    <i name="AMIX_MAG">      1.60000000</i>
    <i name="BMIX_MAG">      1.00000000</i>
    <separator name="electronic mixer details" >
     <i type="int" name="IMIX">     4</i>
     <i type="logical" name="MIXFIRST"> F  </i>
     <i type="int" name="MAXMIX">   -45</i>
     <i name="WC">    100.00000000</i>
     <i type="int" name="INIMIX">     1</i>
     <i type="int" name="MIXPRE">     1</i>
     <i type="int" name="MREMOVE">     5</i>
    </separator>
   </separator>
   <separator name="electronic dipolcorrection" >
    <i type="logical" name="LDIPOL"> F  </i>
    <i type="logical" name="LMONO"> F  </i>
    <i type="int" name="IDIPOL">     0</i>
    <i name="EPSILON">      1.00000000</i>
    <v name="DIPOL">   -100.00000000   -100.00000000   -100.00000000</v>
    <i name="EFIELD">      0.00000000</i>
   </separator>
  </separator>
  <separator name="grids" >
   <i type="int" name="NGX">   150</i>
   <i type="int" name="NGY">   150</i>
   <i type="int" name="NGZ">   150</i>
   <i type="int" name="NGXF">   300</i>
   <i type="int" name="NGYF">   300</i>
   <i type="int" name="NGZF">   300</i>
   <i type="logical" name="ADDGRID"> F  </i>
  </separator>
  <separator name="ionic" >
   <i type="int" name="NSW">     0</i>
   <i type="int" name="IBRION">    -1</i>
   <i type="int" name="MDALGO">     0</i>
   <i type="int" name="ISIF">     2</i>
   <i name="PSTRESS">      0.00000000</i>
   <i name="EDIFFG">     -0.05000000</i>
   <i type="int" name="NFREE">     1</i>
   <i name="POTIM">      0.50000000</i>
   <i name="SMASS">     -3.00000000</i>
   <i name="SCALEE">      1.00000000</i>
  </separator>
  <separator name="ionic md" >
   <i name="TEBEG">      0.00010000</i>
   <i name="TEEND">      0.00010000</i>
   <i type="int" name="NBLOCK">     1</i>
   <i type="int" name="KBLOCK">     1</i>
   <i type="int" name="NPACO">   256</i>
   <i name="APACO">     16.00000000</i>
  </separator>
  <separator name="symmetry" >
   <i type="int" name="ISYM">     2</i>
   <i name="SYMPREC">      0.00001000</i>
  </separator>
  <separator name="dos" >
   <i type="int" name="LORBIT">     0</i>
   <v name="RWIGS">     -1.00000000     -1.00000000     -1.00000000</v>
   <i type="int" name="NEDOS">   301</i>
   <i name="EMIN">     10.00000000</i>
   <i name="EMAX">    -10.00000000</i>
   <i name="EFERMI">      0.00000000</i>
  </separator>
  <separator name="writing" >
   <i type="int" name="NWRITE">     2</i>
   <i type="logical" name="LWAVE"> F  </i>
   <i type="logical" name="LDOWNSAMPLE"> F  </i>
   <i type="logical" name="LCHARG"> F  </i>
   <i type="logical" name="LPARD"> F  </i>
   <i type="logical" name="LVTOT"> F  </i>
   <i type="logical" name="LVHAR"> F  </i>
   <i type="logical" name="LELF"> F  </i>
   <i type="logical" name="LOPTICS"> F  </i>
   <v name="STM">      0.00000000      0.00000000      0.00000000      0.00000000      0.00000000      0.00000000      0.00000000</v>
  </separator>
  <separator name="performance" >
   <i type="int" name="NPAR">     1</i>
   <i type="int" name="NSIM">     4</i>
   <i type="int" name="NBLK">    -1</i>
   <i type="logical" name="LPLANE"> T  </i>
   <i type="logical" name="LSCALAPACK"> T  </i>
   <i type="logical" name="LSCAAWARE"> F  </i>
   <i type="logical" name="LSCALU"> F  </i>
   <i type="logical" name="LASYNC"> F  </i>
   <i type="logical" name="LORBITALREAL"> F  </i>
  </separator>
  <separator name="miscellaneous" >
   <i type="int" name="IDIOT">     3</i>
   <i type="int" name="ISPECIAL">     0</i>
   <i type="logical" name="LMUSIC"> F  </i>
   <v name="POMASS">    106.42000000     12.01100000     16.00000000</v>
   <v name="DARWINR">      0.00000000      0.00000000      0.00000000</v>
   <v name="DARWINV">      1.00000000      1.00000000      1.00000000</v>
   <i type="logical" name="LCORR"> T  </i>
  </separator>
  <i type="logical" name="GGA_COMPAT"> T  </i>
  <i type="logical" name="LBERRY"> F  </i>
  <i type="int" name="ICORELEVEL">     0</i>
  <i type="logical" name="LDAU"> F  </i>
  <i type="int" name="I_CONSTRAINED_M">     0</i>
  <separator name="electronic exchange-correlation" >
   <i type="string" name="GGA">RP</i>
   <i type="int" name="VOSKOWN">     0</i>
   <i type="logical" name="LHFCALC"> F  </i>
   <i type="string" name="PRECFOCK"></i>
   <i type="logical" name="LSYMGRAD"> F  </i>
   <i type="logical" name="LHFONE"> F  </i>
   <i type="logical" name="LRHFCALC"> F  </i>
   <i type="logical" name="LTHOMAS"> F  </i>
   <i type="logical" name="LMODELHF"> F  </i>
   <i name="ENCUT4O">     -1.00000000</i>
   <i type="int" name="EXXOEP">     0</i>
   <i type="int" name="FOURORBIT">     0</i>
   <i name="AEXX">      0.00000000</i>
   <i name="HFALPHA">      0.00000000</i>
   <i name="MCALPHA">      0.00000000</i>
   <i name="ALDAX">      1.00000000</i>
   <i name="AGGAX">      1.00000000</i>
   <i name="ALDAC">      1.00000000</i>
   <i name="AGGAC">      1.00000000</i>
   <i type="int" name="NKREDX">     1</i>
   <i type="int" name="NKREDY">     1</i>
   <i type="int" name="NKREDZ">     1</i>
   <i type="logical" name="SHIFTRED"> F  </i>
   <i type="logical" name="ODDONLY"> F  </i>
   <i type="logical" name="EVENONLY"> F  </i>
   <i type="int" name="LMAXFOCK">     0</i>
   <i type="int" name="NMAXFOCKAE">     0</i>
   <i type="logical" name="LFOCKAEDFT"> F  </i>
   <i name="HFSCREEN">      0.00000000</i>
   <i name="HFSCREENC">      0.00000000</i>
   <i type="int" name="NBANDSGWLOW">     0</i>
  </separator>
  <separator name="vdW DFT" >
   <i type="logical" name="LUSE_VDW"> F  </i>
   <i name="Zab_VDW">     -0.84910000</i>
   <i name="PARAM1">      0.12340000</i>
   <i name="PARAM2">      1.00000000</i>
   <i name="PARAM3">      0.00000000</i>
  </separator>
  <separator name="model GW" >
   <i type="int" name="MODEL_GW">     0</i>
   <i name="MODEL_EPS0">    284.21052632</i>
   <i name="MODEL_ALPHA">      1.00000000</i>
  </separator>
  <separator name="linear response parameters" >
   <i type="logical" name="LEPSILON"> F  </i>
   <i type="logical" name="LRPA"> F  </i>
   <i type="logical" name="LNABLA"> F  </i>
   <i type="logical" name="LVEL"> F  </i>
   <i type="int" name="KINTER">     0</i>
   <i name="CSHIFT">      0.10000000</i>
   <i name="OMEGAMAX">     -1.00000000</i>
   <i name="DEG_THRESHOLD">      0.00200000</i>
   <i name="RTIME">     -0.10000000</i>
   <i name="WPLASMAI">      0.00000000</i>
   <v name="DFIELD">      0.00000000      0.00000000      0.00000000</v>
   <v name="WPLASMA">      0.00000000      0.00000000      0.00000000      0.00000000      0.00000000      0.00000000      0.00000000      0.00000000      0.00000000</v>
  </separator>
  <separator name="orbital magnetization" >
   <i type="logical" name="NUCIND"> F  </i>
   <v name="MAGPOS">      0.00000000      0.00000000      0.00000000</v>
   <i type="logical" name="LNICSALL"> T  </i>
   <i type="logical" name="ORBITALMAG"> F  </i>
   <i type="logical" name="LMAGBLOCH"> F  </i>
   <i type="logical" name="LCHIMAG"> F  </i>
   <i type="logical" name="LGAUGE"> T  </i>
   <i type="int" name="MAGATOM">     0</i>
   <v name="MAGDIPOL">      0.00000000      0.00000000      0.00000000</v>
   <v name="AVECCONST">      0.00000000      0.00000000      0.00000000</v>
  </separator>
  <separator name="response functions" >
   <i type="logical" name="LADDER"> F  </i>
   <i type="logical" name="LRPAFORCE"> F  </i>
   <i type="logical" name="LFXC"> F  </i>
   <i type="logical" name="LHARTREE"> T  </i>
   <i type="int" name="IBSE">     0</i>
   <v type="int" name="KPOINT">    -1     0     0     0</v>
   <i type="logical" name="LTCTE"> F  </i>
   <i type="logical" name="LTETE"> F  </i>
   <i type="logical" name="LTRIPLET"> F  </i>
   <i type="logical" name="LFXCEPS"> F  </i>
   <i type="logical" name="LFXHEG"> F  </i>
   <i type="int" name="NATURALO">     2</i>
   <i type="logical" name="L2ORDER"> F  </i>
   <i type="logical" name="LMP2LT"> F  </i>
   <i type="logical" name="LUSEW"> F  </i>
   <i name="ENCUTGW">     -2.00000000</i>
   <i name="ENCUTGWSOFT">     -2.00000000</i>
   <i name="ENCUTLF">     -1.00000000</i>
   <i type="int" name="LMAXMP2">    -1</i>
   <i name="SCISSOR">      0.00000000</i>
   <i type="int" name="NOMEGA">     0</i>
   <i type="int" name="NOMEGAR">     0</i>
   <i type="int" name="NBANDSGW">    -1</i>
   <i type="int" name="NBANDSO">    -1</i>
   <i type="int" name="NBANDSV">    -1</i>
   <i type="int" name="NELM">   100</i>
   <i type="int" name="NELMHF">     1</i>
   <i type="int" name="DIM">     3</i>
   <i type="int" name="ANTIRES">     0</i>
   <i name="OMEGAMAX">    -30.00000000</i>
   <i name="OMEGAMIN">    -30.00000000</i>
   <i name="OMEGATL">   -200.00000000</i>
   <i type="int" name="OMEGAGRID">   140</i>
   <i name="CSHIFT">     -0.10000000</i>
   <i type="logical" name="SELFENERGY"> F  </i>
   <i type="logical" name="LSPECTRAL"> F  </i>
   <i type="logical" name="LSPECTRALGW"> F  </i>
   <i type="logical" name="LSINGLES"> F  </i>
   <i type="logical" name="LFERMIGW"> F  </i>
   <i type="logical" name="ODDONLYGW"> F  </i>
   <i type="logical" name="EVENONLYGW"> F  </i>
   <i type="int" name="NKREDLFX">     1</i>
   <i type="int" name="NKREDLFY">     1</i>
   <i type="int" name="NKREDLFZ">     1</i>
   <i type="int" name="MAXMEM"> 10000</i>
   <i type="int" name="TELESCOPE">     0</i>
   <i type="int" name="TAUPAR">     1</i>
   <i type="int" name="OMEGAPAR">    -1</i>
   <i name="LAMBDA">      1.00000000</i>
  </separator>
  <separator name="External order field" >
   <i name="OFIELD_KAPPA">      0.00000000</i>
   <v name="OFIELD_K">      0.00000000      0.00000000      0.00000000</v>
   <i name="OFIELD_Q6_NEAR">      0.00000000</i>
   <i name="OFIELD_Q6_FAR">      0.00000000</i>
   <i name="OFIELD_A">      0.00000000</i>
  </separator>
 </parameters>
 <atominfo>
  <atoms>      57 </atoms>
  <types>       3 </types>
  <array name="atoms" >
   <dimension dim="1">ion</dimension>
   <field type="string">element</field>
   <field type="int">atomtype</field>
   <set>
    <rc><c>Pd</c><c>   1</c></rc>
    <rc><c>Pd</c><c>   1</c></rc>
    <rc><c>Pd</c><c>   1</c></rc>
    <rc><c>Pd</c><c>   1</c></rc>
    <rc><c>Pd</c><c>   1</c></rc>
    <rc><c>Pd</c><c>   1</c></rc>
    <rc><c>Pd</c><c>   1</c></rc>
    <rc><c>Pd</c><c>   1</c></rc>
    <rc><c>Pd</c><c>   1</c></rc>
    <rc><c>Pd</c><c>   1</c></rc>
    <rc><c>Pd</c><c>   1</c></rc>
    <rc><c>Pd</c><c>   1</c></rc>
    <rc><c>Pd</c><c>   1</c></rc>
    <rc><c>Pd</c><c>   1</c></rc>
    <rc><c>Pd</c><c>   1</c></rc>
    <rc><c>Pd</c><c>   1</c></rc>
    <rc><c>Pd</c><c>   1</c></rc>
    <rc><c>Pd</c><c>   1</c></rc>
    <rc><c>Pd</c><c>   1</c></rc>
    <rc><c>Pd</c><c>   1</c></rc>
    <rc><c>Pd</c><c>   1</c></rc>
    <rc><c>Pd</c><c>   1</c></rc>
    <rc><c>Pd</c><c>   1</c></rc>
    <rc><c>Pd</c><c>   1</c></rc>
    <rc><c>Pd</c><c>   1</c></rc>
    <rc><c>Pd</c><c>   1</c></rc>
    <rc><c>Pd</c><c>   1</c></rc>
    <rc><c>Pd</c><c>   1</c></rc>
    <rc><c>Pd</c><c>   1</c></rc>
    <rc><c>Pd</c><c>   1</c></rc>
    <rc><c>Pd</c><c>   1</c></rc>
    <rc><c>Pd</c><c>   1</c></rc>
    <rc><c>Pd</c><c>   1</c></rc>
    <rc><c>Pd</c><c>   1</c></rc>
    <rc><c>Pd</c><c>   1</c></rc>
    <rc><c>Pd</c><c>   1</c></rc>
    <rc><c>Pd</c><c>   1</c></rc>
    <rc><c>Pd</c><c>   1</c></rc>
    <rc><c>Pd</c><c>   1</c></rc>
    <rc><c>Pd</c><c>   1</c></rc>
    <rc><c>Pd</c><c>   1</c></rc>
    <rc><c>Pd</c><c>   1</c></rc>
    <rc><c>Pd</c><c>   1</c></rc>
    <rc><c>Pd</c><c>   1</c></rc>
    <rc><c>Pd</c><c>   1</c></rc>
    <rc><c>Pd</c><c>   1</c></rc>
    <rc><c>Pd</c><c>   1</c></rc>
    <rc><c>Pd</c><c>   1</c></rc>
    <rc><c>Pd</c><c>   1</c></rc>
    <rc><c>Pd</c><c>   1</c></rc>
    <rc><c>Pd</c><c>   1</c></rc>
    <rc><c>Pd</c><c>   1</c></rc>
    <rc><c>Pd</c><c>   1</c></rc>
    <rc><c>Pd</c><c>   1</c></rc>
    <rc><c>Pd</c><c>   1</c></rc>
    <rc><c>C </c><c>   2</c></rc>
    <rc><c>O </c><c>   3</c></rc>
   </set>
  </array>
  <array name="atomtypes" >
   <dimension dim="1">type</dimension>
   <field type="int">atomspertype</field>
   <field type="string">element</field>
   <field>mass</field>
   <field>valence</field>
   <field type="string">pseudopotential</field>
   <set>
    <rc><c>  55</c><c>Pd</c><c>    106.42000000</c><c>     10.00000000</c><c>  PAW_PBE Pd 04Jan2005                  </c></rc>
    <rc><c>   1</c><c>C </c><c>     12.01100000</c><c>      4.00000000</c><c>  PAW_PBE C 08Apr2002                   </c></rc>
    <rc><c>   1</c><c>O </c><c>     16.00000000</c><c>      6.00000000</c><c>  PAW_PBE O 08Apr2002                   </c></rc>
   </set>
  </array>
 </atominfo>
 <structure name="initialpos" >
  <crystal>
   <varray name="basis" >
    <v>      30.00000000       0.00000000       0.00000000 </v>
    <v>       0.00000000      30.00000000       0.00000000 </v>
    <v>       0.00000000       0.00000000      30.00000000 </v>
   </varray>
   <i name="volume">  27000.00000000 </i>
   <varray name="rec_basis" >
    <v>       0.03333333       0.00000000       0.00000000 </v>
    <v>       0.00000000       0.03333333       0.00000000 </v>
    <v>       0.00000000       0.00000000       0.03333333 </v>
   </varray>
  </crystal>
  <varray name="positions" >
   <v>       0.44576020       0.32826710       0.41691983 </v>
   <v>       0.67173288       0.55423978       0.41691983 </v>
   <v>       0.55423980       0.32826710       0.41691983 </v>
   <v>       0.32826712       0.55423978       0.41691983 </v>
   <v>       0.50000000       0.38250690       0.34021317 </v>
   <v>       0.50000000       0.38250690       0.65978680 </v>
   <v>       0.50000000       0.27609440       0.50000000 </v>
   <v>       0.27609443       0.49999998       0.50000000 </v>
   <v>       0.72390557       0.49999998       0.50000000 </v>
   <v>       0.50000000       0.72390555       0.50000000 </v>
   <v>       0.61195280       0.38804720       0.34167483 </v>
   <v>       0.61195280       0.38804720       0.65832513 </v>
   <v>       0.38804722       0.61195278       0.34167483 </v>
   <v>       0.38804722       0.61195278       0.65832513 </v>
   <v>       0.38804720       0.38804720       0.34167483 </v>
   <v>       0.38804720       0.38804720       0.65832513 </v>
   <v>       0.61195278       0.61195278       0.34167483 </v>
   <v>       0.61195278       0.61195278       0.65832513 </v>
   <v>       0.44576020       0.32826710       0.58308023 </v>
   <v>       0.67173288       0.55423978       0.58308023 </v>
   <v>       0.55791699       0.44208301       0.41809300 </v>
   <v>       0.32826705       0.44576024       0.41691983 </v>
   <v>       0.55423973       0.67173293       0.41691983 </v>
   <v>       0.55423980       0.32826710       0.58308023 </v>
   <v>       0.32826712       0.55423978       0.58308023 </v>
   <v>       0.67173295       0.44576024       0.41691983 </v>
   <v>       0.44576027       0.67173293       0.41691983 </v>
   <v>       0.44208301       0.44208301       0.41809300 </v>
   <v>       0.50000000       0.38416601       0.50000000 </v>
   <v>       0.61749315       0.50000005       0.34021317 </v>
   <v>       0.61749315       0.50000005       0.65978680 </v>
   <v>       0.38250685       0.50000005       0.34021317 </v>
   <v>       0.38250685       0.50000005       0.65978680 </v>
   <v>       0.38317830       0.38317830       0.50000000 </v>
   <v>       0.61682172       0.61682172       0.50000000 </v>
   <v>       0.61682170       0.38317830       0.50000000 </v>
   <v>       0.38317828       0.61682172       0.50000000 </v>
   <v>       0.50000000       0.50000000       0.33478917 </v>
   <v>       0.50000000       0.50000000       0.66521087 </v>
   <v>       0.32826705       0.44576024       0.58308023 </v>
   <v>       0.55423973       0.67173293       0.58308023 </v>
   <v>       0.55791699       0.44208301       0.58190703 </v>
   <v>       0.44208298       0.55791702       0.41809300 </v>
   <v>       0.44208301       0.44208301       0.58190703 </v>
   <v>       0.67173295       0.44576024       0.58308023 </v>
   <v>       0.44576027       0.67173293       0.58308023 </v>
   <v>       0.55791702       0.55791702       0.41809300 </v>
   <v>       0.38416599       0.50000002       0.50000000 </v>
   <v>       0.61583401       0.50000002       0.50000000 </v>
   <v>       0.50000000       0.61749319       0.34021317 </v>
   <v>       0.50000000       0.61749319       0.65978680 </v>
   <v>       0.50000000       0.50000000       0.50000000 </v>
   <v>       0.44208298       0.55791702       0.58190703 </v>
   <v>       0.55791702       0.55791702       0.58190703 </v>
   <v>       0.50000000       0.61583404       0.50000000 </v>
   <v>       0.41904587       0.48739857       0.70640357 </v>
   <v>       0.40533900       0.48526493       0.74135110 </v>
  </varray>
  <varray name="selective"  type="logical" >
   <v type="logical" >  F  F  F </v>
   <v type="logical" >  F  F  F </v>
   <v type="logical" >  F  F  F </v>
   <v type="logical" >  F  F  F </v>
   <v type="logical" >  F  F  F </v>
   <v type="logical" >  F  F  F </v>
   <v type="logical" >  F  F  F </v>
   <v type="logical" >  F  F  F </v>
   <v type="logical" >  F  F  F </v>
   <v type="logical" >  F  F  F </v>
   <v type="logical" >  F  F  F </v>
   <v type="logical" >  F  F  F </v>
   <v type="logical" >  F  F  F </v>
   <v type="logical" >  F  F  F </v>
   <v type="logical" >  F  F  F </v>
   <v type="logical" >  F  F  F </v>
   <v type="logical" >  F  F  F </v>
   <v type="logical" >  F  F  F </v>
   <v type="logical" >  F  F  F </v>
   <v type="logical" >  F  F  F </v>
   <v type="logical" >  F  F  F </v>
   <v type="logical" >  F  F  F </v>
   <v type="logical" >  F  F  F </v>
   <v type="logical" >  F  F  F </v>
   <v type="logical" >  F  F  F </v>
   <v type="logical" >  F  F  F </v>
   <v type="logical" >  F  F  F </v>
   <v type="logical" >  F  F  F </v>
   <v type="logical" >  F  F  F </v>
   <v type="logical" >  F  F  F </v>
   <v type="logical" >  F  F  F </v>
   <v type="logical" >  F  F  F </v>
   <v type="logical" >  F  F  F </v>
   <v type="logical" >  F  F  F </v>
   <v type="logical" >  F  F  F </v>
   <v type="logical" >  F  F  F </v>
   <v type="logical" >  F  F  F </v>
   <v type="logical" >  F  F  F </v>
   <v type="logical" >  F  F  F </v>
   <v type="logical" >  F  F  F </v>
   <v type="logical" >  F  F  F </v>
   <v type="logical" >  F  F  F </v>
   <v type="logical" >  F  F  F </v>
   <v type="logical" >  F  F  F </v>
   <v type="logical" >  F  F  F </v>
   <v type="logical" >  F  F  F </v>
   <v type="logical" >  F  F  F </v>
   <v type="logical" >  F  F  F </v>
   <v type="logical" >  F  F  F </v>
   <v type="logical" >  F  F  F </v>
   <v type="logical" >  F  F  F </v>
   <v type="logical" >  F  F  F </v>
   <v type="logical" >  F  F  F </v>
   <v type="logical" >  F  F  F </v>
   <v type="logical" >  F  F  F </v>
   <v type="logical" >  F  F  F </v>
   <v type="logical" >  F  F  F </v>
  </varray>
  <nose>
   <v>      -3.00000000       0.00000000       0.00010000       0.00010000 </v>
  </nose>
 </structure>
 <calculation>
  <scstep>
   <time name="dav">  453.63  453.70</time>
   <time name="total">  469.72  469.80</time>
   <energy>
    <i name="alphaZ">     75.25431677 </i>
    <i name="ewald"> 138984.01612658 </i>
    <i name="hartreedc">-182339.76467977 </i>
    <i name="XCdc">  -1702.54379030 </i>
    <i name="pawpsdc">  44873.02882129 </i>
    <i name="pawaedc"> -41398.84523641 </i>
    <i name="eentropy">      0.00634436 </i>
    <i name="bandstr">    816.05913087 </i>
    <i name="atom">  45086.50549395 </i>
    <i name="e_fr_energy">   4393.71652733 </i>
    <i name="e_wo_entrp">   4393.71018297 </i>
    <i name="e_0_energy">   4393.71494124 </i>
   </energy>
  </scstep>
  <scstep>
   <time name="dav">  748.28  748.31</time>
   <time name="total">  748.29  748.32</time>
   <energy>
    <i name="e_fr_energy">   2013.37105401 </i>
    <i name="e_wo_entrp">   2013.39815356 </i>
    <i name="e_0_energy">   2013.37782890 </i>
   </energy>
  </scstep>
  <scstep>
   <time name="dav">  601.05  601.07</time>
   <time name="total">  601.05  601.07</time>
   <energy>
    <i name="e_fr_energy">    235.97853974 </i>
    <i name="e_wo_entrp">    236.00280993 </i>
    <i name="e_0_energy">    235.98460729 </i>
   </energy>
  </scstep>
  <scstep>
   <time name="dav">  534.96  534.98</time>
   <time name="total">  534.96  534.99</time>
   <energy>
    <i name="e_fr_energy">   -134.85654514 </i>
    <i name="e_wo_entrp">   -134.88084175 </i>
    <i name="e_0_energy">   -134.86261930 </i>
   </energy>
  </scstep>
  <scstep>
   <time name="dav">  619.78  619.81</time>
   <time name="total">  649.56  649.59</time>
   <energy>
    <i name="e_fr_energy">   -179.95091156 </i>
    <i name="e_wo_entrp">   -180.48092960 </i>
    <i name="e_0_energy">   -180.08341607 </i>
   </energy>
  </scstep>
  <scstep>
   <time name="diag">   90.05   90.06</time>
   <time name="diis">  219.44  219.45</time>
   <time name="orth">   21.99   21.99</time>
   <time name="total">  375.17  375.20</time>
   <energy>
    <i name="e_fr_energy">   -179.31559674 </i>
    <i name="e_wo_entrp">   -179.06939916 </i>
    <i name="e_0_energy">   -179.25404734 </i>
   </energy>
  </scstep>
  <scstep>
   <time name="diag">   84.22   84.23</time>
   <time name="diis">  237.25  237.26</time>
   <time name="orth">   22.25   22.25</time>
   <time name="total">  385.84  385.87</time>
   <energy>
    <i name="e_fr_energy">   -183.31073507 </i>
    <i name="e_wo_entrp">   -183.20921662 </i>
    <i name="e_0_energy">   -183.28535546 </i>
   </energy>
  </scstep>
  <scstep>
   <time name="diag">   83.51   83.51</time>
   <time name="diis">  220.82  220.83</time>
   <time name="orth">   22.26   22.26</time>
   <time name="total">  368.65  368.66</time>
   <energy>
    <i name="e_fr_energy">   -185.08398269 </i>
    <i name="e_wo_entrp">   -184.96431858 </i>
    <i name="e_0_energy">   -185.05406666 </i>
   </energy>
  </scstep>
  <scstep>
   <time name="diag">   87.53   87.53</time>
   <time name="diis">  228.75  228.76</time>
   <time name="orth">   23.13   23.13</time>
   <time name="total">  382.88  382.90</time>
   <energy>
    <i name="e_fr_energy">   -183.40602374 </i>
    <i name="e_wo_entrp">   -183.41243309 </i>
    <i name="e_0_energy">   -183.40762608 </i>
   </energy>
  </scstep>
  <scstep>
   <time name="diag">   90.28   90.29</time>
   <time name="diis">  227.56  227.57</time>
   <time name="orth">   22.70   22.70</time>
   <time name="total">  382.86  382.87</time>
   <energy>
    <i name="e_fr_energy">   -181.54951793 </i>
    <i name="e_wo_entrp">   -181.42432991 </i>
    <i name="e_0_energy">   -181.51822093 </i>
   </energy>
  </scstep>
  <scstep>
   <time name="diag">   85.81   85.81</time>
   <time name="diis">  209.20  209.21</time>
   <time name="orth">   22.12   22.12</time>
   <time name="total">  359.07  359.08</time>
   <energy>
    <i name="e_fr_energy">   -179.13837608 </i>
    <i name="e_wo_entrp">   -178.98148980 </i>
    <i name="e_0_energy">   -179.09915451 </i>
   </energy>
  </scstep>
  <scstep>
   <time name="diag">   84.07   84.08</time>
   <time name="diis">  204.88  204.89</time>
   <time name="orth">   22.16   22.16</time>
   <time name="total">  352.24  352.26</time>
   <energy>
    <i name="e_fr_energy">   -176.98116399 </i>
    <i name="e_wo_entrp">   -176.92554131 </i>
    <i name="e_0_energy">   -176.96725832 </i>
   </energy>
  </scstep>
  <scstep>
   <time name="diag">   83.52   83.52</time>
   <time name="diis">  201.79  201.80</time>
   <time name="orth">   22.10   22.10</time>
   <time name="total">  349.11  349.12</time>
   <energy>
    <i name="e_fr_energy">   -176.74982681 </i>
    <i name="e_wo_entrp">   -176.77277716 </i>
    <i name="e_0_energy">   -176.75556440 </i>
   </energy>
  </scstep>
  <scstep>
   <time name="diag">   83.71   83.71</time>
   <time name="diis">  223.00  223.01</time>
   <time name="orth">   23.15   23.15</time>
   <time name="total">  372.57  372.59</time>
   <energy>
    <i name="e_fr_energy">   -177.82157339 </i>
    <i name="e_wo_entrp">   -177.86382675 </i>
    <i name="e_0_energy">   -177.83213673 </i>
   </energy>
  </scstep>
  <scstep>
   <time name="diag">   86.25   86.25</time>
   <time name="diis">  209.00  209.01</time>
   <time name="orth">   23.32   23.32</time>
   <time name="total">  362.50  362.52</time>
   <energy>
    <i name="e_fr_energy">   -176.70639182 </i>
    <i name="e_wo_entrp">   -176.62083395 </i>
    <i name="e_0_energy">   -176.68500235 </i>
   </energy>
  </scstep>
  <scstep>
   <time name="diag">   88.16   88.16</time>
   <time name="diis">  240.16  240.17</time>
   <time name="orth">   22.11   22.11</time>
   <time name="total">  392.14  392.16</time>
   <energy>
    <i name="e_fr_energy">   -175.92529755 </i>
    <i name="e_wo_entrp">   -175.91587124 </i>
    <i name="e_0_energy">   -175.92294097 </i>
   </energy>
  </scstep>
  <scstep>
   <time name="diag">   81.88   81.88</time>
   <time name="diis">  204.72  204.73</time>
   <time name="orth">   22.11   22.11</time>
   <time name="total">  350.10  350.11</time>
   <energy>
    <i name="e_fr_energy">   -176.04239498 </i>
    <i name="e_wo_entrp">   -176.04471588 </i>
    <i name="e_0_energy">   -176.04297520 </i>
   </energy>
  </scstep>
  <scstep>
   <time name="diag">   82.64   82.64</time>
   <time name="diis">  202.19  202.20</time>
   <time name="orth">   22.13   22.13</time>
   <time name="total">  348.19  348.21</time>
   <energy>
    <i name="e_fr_energy">   -175.56745737 </i>
    <i name="e_wo_entrp">   -175.54991715 </i>
    <i name="e_0_energy">   -175.56307232 </i>
   </energy>
  </scstep>
  <scstep>
   <time name="diag">   82.47   82.48</time>
   <time name="diis">  202.75  202.75</time>
   <time name="orth">   22.09   22.09</time>
   <time name="total">  349.35  349.36</time>
   <energy>
    <i name="e_fr_energy">   -175.55960389 </i>
    <i name="e_wo_entrp">   -175.63813393 </i>
    <i name="e_0_energy">   -175.57923640 </i>
   </energy>
  </scstep>
  <scstep>
   <time name="diag">   84.00   84.01</time>
   <time name="diis">  197.15  197.16</time>
   <time name="orth">   22.26   22.26</time>
   <time name="total">  346.87  346.89</time>
   <energy>
    <i name="e_fr_energy">   -175.37199686 </i>
    <i name="e_wo_entrp">   -175.42485419 </i>
    <i name="e_0_energy">   -175.38521120 </i>
   </energy>
  </scstep>
  <scstep>
   <time name="diag">   85.39   85.39</time>
   <time name="diis">  206.39  206.40</time>
   <time name="orth">   22.94   22.94</time>
   <time name="total">  358.16  358.18</time>
   <energy>
    <i name="e_fr_energy">   -175.16325376 </i>
    <i name="e_wo_entrp">   -175.12576964 </i>
    <i name="e_0_energy">   -175.15388273 </i>
   </energy>
  </scstep>
  <scstep>
   <time name="diag">   86.64   86.64</time>
   <time name="diis">  213.91  213.92</time>
   <time name="orth">   23.24   23.24</time>
   <time name="total">  371.25  371.27</time>
   <energy>
    <i name="e_fr_energy">   -175.06411012 </i>
    <i name="e_wo_entrp">   -175.05167204 </i>
    <i name="e_0_energy">   -175.06100060 </i>
   </energy>
  </scstep>
  <scstep>
   <time name="diag">   93.96   93.96</time>
   <time name="diis">  223.13  223.14</time>
   <time name="orth">   22.10   22.10</time>
   <time name="total">  383.18  383.20</time>
   <energy>
    <i name="e_fr_energy">   -175.01474087 </i>
    <i name="e_wo_entrp">   -174.97048809 </i>
    <i name="e_0_energy">   -175.00367767 </i>
   </energy>
  </scstep>
  <scstep>
   <time name="diag">   82.91   82.92</time>
   <time name="diis">  190.61  190.62</time>
   <time name="orth">   22.12   22.12</time>
   <time name="total">  337.13  337.15</time>
   <energy>
    <i name="e_fr_energy">   -174.94592552 </i>
    <i name="e_wo_entrp">   -174.90593149 </i>
    <i name="e_0_energy">   -174.93592701 </i>
   </energy>
  </scstep>
  <scstep>
   <time name="diag">   82.88   82.88</time>
   <time name="diis">  190.51  190.52</time>
   <time name="orth">   22.09   22.09</time>
   <time name="total">  337.63  337.64</time>
   <energy>
    <i name="e_fr_energy">   -174.86096430 </i>
    <i name="e_wo_entrp">   -174.83660603 </i>
    <i name="e_0_energy">   -174.85487473 </i>
   </energy>
  </scstep>
  <scstep>
   <time name="diag">   84.03   84.04</time>
   <time name="diis">  195.12  195.13</time>
   <time name="orth">   22.06   22.06</time>
   <time name="total">  343.24  343.26</time>
   <energy>
    <i name="e_fr_energy">   -174.79429747 </i>
    <i name="e_wo_entrp">   -174.75663824 </i>
    <i name="e_0_energy">   -174.78488266 </i>
   </energy>
  </scstep>
  <scstep>
   <time name="diag">   83.85   83.85</time>
   <time name="diis">  193.75  193.76</time>
   <time name="orth">   22.09   22.09</time>
   <time name="total">  341.98  341.99</time>
   <energy>
    <i name="e_fr_energy">   -174.77274949 </i>
    <i name="e_wo_entrp">   -174.74598764 </i>
    <i name="e_0_energy">   -174.76605902 </i>
   </energy>
  </scstep>
  <scstep>
   <time name="diag">   83.67   83.68</time>
   <time name="diis">  193.97  193.98</time>
   <time name="orth">   22.11   22.11</time>
   <time name="total">  342.12  342.13</time>
   <energy>
    <i name="e_fr_energy">   -174.75486177 </i>
    <i name="e_wo_entrp">   -174.72074745 </i>
    <i name="e_0_energy">   -174.74633319 </i>
   </energy>
  </scstep>
  <scstep>
   <time name="diag">   83.48   83.48</time>
   <time name="diis">  204.67  204.68</time>
   <time name="orth">   22.77   22.78</time>
   <time name="total">  353.10  353.11</time>
   <energy>
    <i name="e_fr_energy">   -174.74521602 </i>
    <i name="e_wo_entrp">   -174.71382301 </i>
    <i name="e_0_energy">   -174.73736777 </i>
   </energy>
  </scstep>
  <scstep>
   <time name="diag">   85.71   85.71</time>
   <time name="diis">  199.40  199.41</time>
   <time name="orth">   23.19   23.19</time>
   <time name="total">  352.38  352.40</time>
   <energy>
    <i name="e_fr_energy">   -174.72789312 </i>
    <i name="e_wo_entrp">   -174.69465206 </i>
    <i name="e_0_energy">   -174.71958286 </i>
   </energy>
  </scstep>
  <scstep>
   <time name="diag">   87.09   87.10</time>
   <time name="diis">  206.56  206.57</time>
   <time name="orth">   24.37   24.37</time>
   <time name="total">  369.35  369.37</time>
   <energy>
    <i name="e_fr_energy">   -174.72122935 </i>
    <i name="e_wo_entrp">   -174.68785194 </i>
    <i name="e_0_energy">   -174.71288500 </i>
   </energy>
  </scstep>
  <scstep>
   <time name="diag">  104.83  104.84</time>
   <time name="diis">  222.01  222.01</time>
   <time name="orth">   23.08   23.08</time>
   <time name="total">  399.59  399.60</time>
   <energy>
    <i name="e_fr_energy">   -174.71278437 </i>
    <i name="e_wo_entrp">   -174.67396429 </i>
    <i name="e_0_energy">   -174.70307935 </i>
   </energy>
  </scstep>
  <scstep>
   <time name="diag">   81.49   81.49</time>
   <time name="diis">  182.27  182.27</time>
   <time name="orth">   21.70   21.70</time>
   <time name="total">  328.07  328.09</time>
   <energy>
    <i name="e_fr_energy">   -174.70978127 </i>
    <i name="e_wo_entrp">   -174.67495260 </i>
    <i name="e_0_energy">   -174.70107410 </i>
   </energy>
  </scstep>
  <scstep>
   <time name="diag">   81.48   81.49</time>
   <time name="diis">  184.55  184.56</time>
   <time name="orth">   21.71   21.71</time>
   <time name="total">  328.84  328.86</time>
   <energy>
    <i name="e_fr_energy">   -174.70769164 </i>
    <i name="e_wo_entrp">   -174.66922124 </i>
    <i name="e_0_energy">   -174.69807404 </i>
   </energy>
  </scstep>
  <scstep>
   <time name="diag">   81.52   81.52</time>
   <time name="diis">  184.13  184.14</time>
   <time name="orth">   21.70   21.70</time>
   <time name="total">  328.59  328.61</time>
   <energy>
    <i name="e_fr_energy">   -174.70582286 </i>
    <i name="e_wo_entrp">   -174.66548915 </i>
    <i name="e_0_energy">   -174.69573943 </i>
   </energy>
  </scstep>
  <scstep>
   <time name="diag">   81.54   81.54</time>
   <time name="diis">  185.03  185.03</time>
   <time name="orth">   21.70   21.70</time>
   <time name="total">  329.65  329.67</time>
   <energy>
    <i name="e_fr_energy">   -174.70695578 </i>
    <i name="e_wo_entrp">   -174.66696471 </i>
    <i name="e_0_energy">   -174.69695801 </i>
   </energy>
  </scstep>
  <scstep>
   <time name="diag">   81.49   81.50</time>
   <time name="diis">  185.72  185.73</time>
   <time name="orth">   21.68   21.68</time>
   <time name="total">  330.35  330.36</time>
   <energy>
    <i name="e_fr_energy">   -174.70797348 </i>
    <i name="e_wo_entrp">   -174.66854572 </i>
    <i name="e_0_energy">   -174.69811654 </i>
   </energy>
  </scstep>
  <scstep>
   <time name="diag">   81.47   81.47</time>
   <time name="diis">  185.34  185.34</time>
   <time name="orth">   21.68   21.68</time>
   <time name="total">  330.02  330.03</time>
   <energy>
    <i name="e_fr_energy">   -174.71010999 </i>
    <i name="e_wo_entrp">   -174.67315548 </i>
    <i name="e_0_energy">   -174.70087136 </i>
   </energy>
  </scstep>
  <scstep>
   <time name="diag">   81.55   81.56</time>
   <time name="diis">  184.50  184.51</time>
   <time name="orth">   21.57   21.57</time>
   <time name="total">  328.81  328.82</time>
   <energy>
    <i name="e_fr_energy">   -174.71285247 </i>
    <i name="e_wo_entrp">   -174.67643440 </i>
    <i name="e_0_energy">   -174.70374795 </i>
   </energy>
  </scstep>
  <scstep>
   <time name="diag">   80.41   80.42</time>
   <time name="diis">  166.86  166.87</time>
   <time name="orth">   21.68   21.68</time>
   <time name="total">  310.61  310.62</time>
   <energy>
    <i name="e_fr_energy">   -174.71491918 </i>
    <i name="e_wo_entrp">   -174.67568003 </i>
    <i name="e_0_energy">   -174.70510939 </i>
   </energy>
  </scstep>
  <scstep>
   <time name="diag">   81.38   81.38</time>
   <time name="diis">  153.22  153.23</time>
   <time name="orth">   21.68   21.68</time>
   <time name="total">  298.12  298.13</time>
   <energy>
    <i name="e_fr_energy">   -174.71758430 </i>
    <i name="e_wo_entrp">   -174.67791292 </i>
    <i name="e_0_energy">   -174.70766645 </i>
   </energy>
  </scstep>
  <scstep>
   <time name="diag">   81.29   81.29</time>
   <time name="diis">  121.56  121.57</time>
   <time name="orth">   29.22   29.22</time>
   <time name="total">  303.54  303.55</time>
   <energy>
    <i name="e_fr_energy">   -174.71939699 </i>
    <i name="e_wo_entrp">   -174.68019594 </i>
    <i name="e_0_energy">   -174.70959673 </i>
   </energy>
  </scstep>
  <scstep>
   <time name="diag">  118.50  118.51</time>
   <time name="diis">  157.48  157.49</time>
   <time name="orth">   23.63   23.63</time>
   <time name="total">  363.86  363.89</time>
   <energy>
    <i name="e_fr_energy">   -174.72254385 </i>
    <i name="e_wo_entrp">   -174.68322706 </i>
    <i name="e_0_energy">   -174.71271465 </i>
   </energy>
  </scstep>
  <scstep>
   <time name="diag">   89.57   89.57</time>
   <time name="diis">  129.67  129.68</time>
   <time name="orth">   24.06   24.06</time>
   <time name="total">  296.71  296.72</time>
   <energy>
    <i name="e_fr_energy">   -174.72407660 </i>
    <i name="e_wo_entrp">   -174.68539793 </i>
    <i name="e_0_energy">   -174.71440693 </i>
   </energy>
  </scstep>
  <scstep>
   <time name="diag">   90.02   90.03</time>
   <time name="diis">  138.64  138.64</time>
   <time name="orth">   22.34   22.34</time>
   <time name="total">  304.29  304.31</time>
   <energy>
    <i name="e_fr_energy">   -174.72622488 </i>
    <i name="e_wo_entrp">   -174.68767355 </i>
    <i name="e_0_energy">   -174.71658705 </i>
   </energy>
  </scstep>
  <scstep>
   <time name="diag">   93.03   93.03</time>
   <time name="diis">  147.28  147.30</time>
   <time name="orth">   22.12   22.12</time>
   <time name="total">  309.17  309.20</time>
   <energy>
    <i name="e_fr_energy">   -174.72845288 </i>
    <i name="e_wo_entrp">   -174.68969776 </i>
    <i name="e_0_energy">   -174.71876410 </i>
   </energy>
  </scstep>
  <scstep>
   <time name="diag">   87.72   87.73</time>
   <time name="diis">  142.75  142.77</time>
   <time name="orth">   23.06   23.07</time>
   <time name="total">  302.55  302.59</time>
   <energy>
    <i name="e_fr_energy">   -174.72933019 </i>
    <i name="e_wo_entrp">   -174.69081877 </i>
    <i name="e_0_energy">   -174.71970233 </i>
   </energy>
  </scstep>
  <scstep>
   <time name="diag">   86.83   86.84</time>
   <time name="diis">  121.86  121.87</time>
   <time name="orth">   21.92   21.92</time>
   <time name="total">  277.92  277.95</time>
   <energy>
    <i name="e_fr_energy">   -174.73081222 </i>
    <i name="e_wo_entrp">   -174.69256623 </i>
    <i name="e_0_energy">   -174.72125072 </i>
   </energy>
  </scstep>
  <scstep>
   <time name="diag">   87.89   87.90</time>
   <time name="diis">  134.77  134.79</time>
   <time name="orth">   23.12   23.12</time>
   <time name="total">  293.07  293.11</time>
   <energy>
    <i name="e_fr_energy">   -174.73118446 </i>
    <i name="e_wo_entrp">   -174.69300280 </i>
    <i name="e_0_energy">   -174.72163904 </i>
   </energy>
  </scstep>
  <scstep>
   <time name="diag">   88.63   88.64</time>
   <time name="diis">  125.64  125.65</time>
   <time name="orth">   22.07   22.07</time>
   <time name="total">  283.30  283.34</time>
   <energy>
    <i name="e_fr_energy">   -174.73184535 </i>
    <i name="e_wo_entrp">   -174.69325013 </i>
    <i name="e_0_energy">   -174.72219655 </i>
   </energy>
  </scstep>
  <scstep>
   <time name="diag">   85.00   85.01</time>
   <time name="diis">  120.61  120.62</time>
   <time name="orth">   22.09   22.09</time>
   <time name="total">  273.91  273.94</time>
   <energy>
    <i name="e_fr_energy">   -174.73243179 </i>
    <i name="e_wo_entrp">   -174.69396464 </i>
    <i name="e_0_energy">   -174.72281500 </i>
   </energy>
  </scstep>
  <scstep>
   <time name="diag">   92.13   92.14</time>
   <time name="diis">  107.41  107.42</time>
   <time name="orth">   23.15   23.16</time>
   <time name="total">  274.59  274.62</time>
   <energy>
    <i name="e_fr_energy">   -174.73274569 </i>
    <i name="e_wo_entrp">   -174.69437292 </i>
    <i name="e_0_energy">   -174.72315250 </i>
   </energy>
  </scstep>
  <scstep>
   <time name="diag">   91.59   91.59</time>
   <time name="diis">  111.23  111.24</time>
   <time name="orth">   21.94   21.94</time>
   <time name="total">  272.30  272.33</time>
   <energy>
    <i name="e_fr_energy">   -174.73341841 </i>
    <i name="e_wo_entrp">   -174.69511830 </i>
    <i name="e_0_energy">   -174.72384338 </i>
   </energy>
  </scstep>
  <scstep>
   <time name="diag">   84.27   84.28</time>
   <time name="diis">   92.37   92.38</time>
   <time name="orth">   22.10   22.10</time>
   <time name="total">  244.75  244.78</time>
   <energy>
    <i name="e_fr_energy">   -174.73365883 </i>
    <i name="e_wo_entrp">   -174.69525726 </i>
    <i name="e_0_energy">   -174.72405844 </i>
   </energy>
  </scstep>
  <scstep>
   <time name="diag">   84.49   84.49</time>
   <time name="diis">  107.15  107.17</time>
   <time name="orth">   22.15   22.15</time>
   <time name="total">  260.25  260.28</time>
   <energy>
    <i name="e_fr_energy">   -174.73417099 </i>
    <i name="e_wo_entrp">   -174.69578785 </i>
    <i name="e_0_energy">   -174.72457521 </i>
   </energy>
  </scstep>
  <scstep>
   <time name="diag">   89.79   89.80</time>
   <time name="diis">   94.53   94.55</time>
   <time name="orth">   22.97   22.97</time>
   <time name="total">  254.64  254.67</time>
   <energy>
    <i name="e_fr_energy">   -174.73433738 </i>
    <i name="e_wo_entrp">   -174.69594381 </i>
    <i name="e_0_energy">   -174.72473899 </i>
   </energy>
  </scstep>
  <scstep>
   <time name="diag">   87.57   87.57</time>
   <time name="diis">  103.20  103.21</time>
   <time name="orth">   23.45   23.45</time>
   <time name="total">  267.01  267.04</time>
   <energy>
    <i name="e_fr_energy">   -174.73455311 </i>
    <i name="e_wo_entrp">   -174.69615356 </i>
    <i name="e_0_energy">   -174.72495322 </i>
   </energy>
  </scstep>
  <scstep>
   <time name="diag">   86.03   86.04</time>
   <time name="diis">   90.29   90.30</time>
   <time name="orth">   22.01   22.01</time>
   <time name="total">  246.97  247.00</time>
   <energy>
    <i name="e_fr_energy">   -174.73472700 </i>
    <i name="e_wo_entrp">   -174.69636641 </i>
    <i name="e_0_energy">   -174.72513685 </i>
   </energy>
  </scstep>
  <scstep>
   <time name="diag">   83.47   83.48</time>
   <time name="diis">   85.83   85.84</time>
   <time name="orth">   22.01   22.02</time>
   <time name="total">  235.67  235.69</time>
   <energy>
    <i name="e_fr_energy">   -174.73484856 </i>
    <i name="e_wo_entrp">   -174.69640993 </i>
    <i name="e_0_energy">   -174.72523890 </i>
   </energy>
  </scstep>
  <scstep>
   <time name="diag">   82.29   82.30</time>
   <time name="diis">   84.92   84.93</time>
   <time name="orth">   22.02   22.02</time>
   <time name="total">  233.62  233.65</time>
   <energy>
    <i name="e_fr_energy">   -174.73495401 </i>
    <i name="e_wo_entrp">   -174.69653139 </i>
    <i name="e_0_energy">   -174.72534836 </i>
   </energy>
  </scstep>
  <scstep>
   <time name="diag">   82.36   82.37</time>
   <time name="diis">   81.28   81.29</time>
   <time name="orth">   22.60   22.60</time>
   <time name="total">  200.26  200.28</time>
   <energy>
    <i name="alphaZ">     75.25431677 </i>
    <i name="ewald"> 138984.01612658 </i>
    <i name="hartreedc">-183341.45848479 </i>
    <i name="XCdc">  -1691.73435922 </i>
    <i name="pawpsdc">  46238.42909694 </i>
    <i name="pawaedc"> -42709.14423806 </i>
    <i name="eentropy">     -0.03840563 </i>
    <i name="bandstr">  -2816.56454626 </i>
    <i name="atom">  45086.50549395 </i>
    <i name="e_fr_energy">   -174.73499972 </i>
    <i name="e_wo_entrp">   -174.69659409 </i>
    <i name="e_0_energy">   -174.72539831 </i>
   </energy>
  </scstep>
  <structure>
   <crystal>
    <varray name="basis" >
     <v>      30.00000000       0.00000000       0.00000000 </v>
     <v>       0.00000000      30.00000000       0.00000000 </v>
     <v>       0.00000000       0.00000000      30.00000000 </v>
    </varray>
    <i name="volume">  27000.00000000 </i>
    <varray name="rec_basis" >
     <v>       0.03333333       0.00000000       0.00000000 </v>
     <v>       0.00000000       0.03333333       0.00000000 </v>
     <v>       0.00000000       0.00000000       0.03333333 </v>
    </varray>
   </crystal>
   <varray name="positions" >
    <v>       0.44576020       0.32826710       0.41691983 </v>
    <v>       0.67173288       0.55423978       0.41691983 </v>
    <v>       0.55423980       0.32826710       0.41691983 </v>
    <v>       0.32826712       0.55423978       0.41691983 </v>
    <v>       0.50000000       0.38250690       0.34021317 </v>
    <v>       0.50000000       0.38250690       0.65978680 </v>
    <v>       0.50000000       0.27609440       0.50000000 </v>
    <v>       0.27609443       0.49999998       0.50000000 </v>
    <v>       0.72390557       0.49999998       0.50000000 </v>
    <v>       0.50000000       0.72390555       0.50000000 </v>
    <v>       0.61195280       0.38804720       0.34167483 </v>
    <v>       0.61195280       0.38804720       0.65832513 </v>
    <v>       0.38804722       0.61195278       0.34167483 </v>
    <v>       0.38804722       0.61195278       0.65832513 </v>
    <v>       0.38804720       0.38804720       0.34167483 </v>
    <v>       0.38804720       0.38804720       0.65832513 </v>
    <v>       0.61195278       0.61195278       0.34167483 </v>
    <v>       0.61195278       0.61195278       0.65832513 </v>
    <v>       0.44576020       0.32826710       0.58308023 </v>
    <v>       0.67173288       0.55423978       0.58308023 </v>
    <v>       0.55791699       0.44208301       0.41809300 </v>
    <v>       0.32826705       0.44576024       0.41691983 </v>
    <v>       0.55423973       0.67173293       0.41691983 </v>
    <v>       0.55423980       0.32826710       0.58308023 </v>
    <v>       0.32826712       0.55423978       0.58308023 </v>
    <v>       0.67173295       0.44576024       0.41691983 </v>
    <v>       0.44576027       0.67173293       0.41691983 </v>
    <v>       0.44208301       0.44208301       0.41809300 </v>
    <v>       0.50000000       0.38416601       0.50000000 </v>
    <v>       0.61749315       0.50000005       0.34021317 </v>
    <v>       0.61749315       0.50000005       0.65978680 </v>
    <v>       0.38250685       0.50000005       0.34021317 </v>
    <v>       0.38250685       0.50000005       0.65978680 </v>
    <v>       0.38317830       0.38317830       0.50000000 </v>
    <v>       0.61682172       0.61682172       0.50000000 </v>
    <v>       0.61682170       0.38317830       0.50000000 </v>
    <v>       0.38317828       0.61682172       0.50000000 </v>
    <v>       0.50000000       0.50000000       0.33478917 </v>
    <v>       0.50000000       0.50000000       0.66521087 </v>
    <v>       0.32826705       0.44576024       0.58308023 </v>
    <v>       0.55423973       0.67173293       0.58308023 </v>
    <v>       0.55791699       0.44208301       0.58190703 </v>
    <v>       0.44208298       0.55791702       0.41809300 </v>
    <v>       0.44208301       0.44208301       0.58190703 </v>
    <v>       0.67173295       0.44576024       0.58308023 </v>
    <v>       0.44576027       0.67173293       0.58308023 </v>
    <v>       0.55791702       0.55791702       0.41809300 </v>
    <v>       0.38416599       0.50000002       0.50000000 </v>
    <v>       0.61583401       0.50000002       0.50000000 </v>
    <v>       0.50000000       0.61749319       0.34021317 </v>
    <v>       0.50000000       0.61749319       0.65978680 </v>
    <v>       0.50000000       0.50000000       0.50000000 </v>
    <v>       0.44208298       0.55791702       0.58190703 </v>
    <v>       0.55791702       0.55791702       0.58190703 </v>
    <v>       0.50000000       0.61583404       0.50000000 </v>
    <v>       0.41904587       0.48739857       0.70640357 </v>
    <v>       0.40533900       0.48526493       0.74135110 </v>
   </varray>
  </structure>
  <varray name="forces" >
   <v>       0.70174725       1.11228787       0.29276355 </v>
   <v>      -1.10614351      -0.69921466       0.29259442 </v>
   <v>      -0.69923214       1.10977740       0.28631709 </v>
   <v>       1.11839036      -0.69948167       0.28633824 </v>
   <v>      -0.00259726       0.40903819       1.27862247 </v>
   <v>       0.05715971       0.36978014      -1.30810477 </v>
   <v>      -0.00806944       1.50640836       0.00377840 </v>
   <v>       1.50900428      -0.01263931       0.03916890 </v>
   <v>      -1.51150486      -0.00159307       0.00038917 </v>
   <v>      -0.00638975      -1.50938499       0.00172549 </v>
   <v>      -0.75482968       0.74832081       1.07504256 </v>
   <v>      -0.75713966       0.75369907      -1.07381982 </v>
   <v>       0.75305284      -0.75532728       1.07243313 </v>
   <v>       0.72310207      -0.68621313      -1.06555274 </v>
   <v>       0.75428036       0.75524960       1.07205815 </v>
   <v>       0.71658584       0.69548984      -1.04042821 </v>
   <v>      -0.75366206      -0.74752384       1.07586616 </v>
   <v>      -0.75757302      -0.75462123      -1.07283517 </v>
   <v>       0.71192085       1.09137002      -0.31205305 </v>
   <v>      -1.11365087      -0.69636012      -0.28872224 </v>
   <v>       0.11276235      -0.11582936      -0.14941455 </v>
   <v>       1.11681420       0.69866870       0.29113150 </v>
   <v>      -0.69915086      -1.10870090       0.29221845 </v>
   <v>      -0.71036732       1.11251490      -0.27467850 </v>
   <v>       1.05495501      -0.69051273      -0.33341501 </v>
   <v>      -1.10527258       0.69890676       0.28994415 </v>
   <v>       0.70252915      -1.11024552       0.29123502 </v>
   <v>      -0.11186058      -0.11576480      -0.15580331 </v>
   <v>      -0.00102483      -0.22262070      -0.00562147 </v>
   <v>      -0.40011482      -0.00275674       1.28120849 </v>
   <v>      -0.42013198       0.00293195      -1.28384422 </v>
   <v>       0.41491148       0.00002225       1.27877230 </v>
   <v>      -0.27291179       0.39643891      -3.30552371 </v>
   <v>       0.83649447       0.82948182       0.00147319 </v>
   <v>      -0.81767005      -0.82600517      -0.01268711 </v>
   <v>      -0.82115238       0.82975362      -0.00813391 </v>
   <v>       0.83660072      -0.82857908       0.00402218 </v>
   <v>      -0.01651931      -0.00210307       1.18294828 </v>
   <v>      -0.66647842      -0.14083083      -0.67831784 </v>
   <v>       1.02284438       0.69372825      -0.39140401 </v>
   <v>      -0.70550721      -1.11294583      -0.28056659 </v>
   <v>       0.13669619      -0.12517819       0.13865428 </v>
   <v>      -0.11087075       0.11492589      -0.15820849 </v>
   <v>      -0.08870178      -0.16089022       0.04183942 </v>
   <v>      -1.10951353       0.69776310      -0.28921354 </v>
   <v>       0.70152417      -1.10278068      -0.29926569 </v>
   <v>       0.11311717       0.11621955      -0.14792951 </v>
   <v>      -0.22392579      -0.00002192       0.00838870 </v>
   <v>       0.21286597       0.00314380       0.00127544 </v>
   <v>      -0.00463507      -0.40832133       1.27882546 </v>
   <v>       0.03761504      -0.37769416      -1.30405602 </v>
   <v>      -0.00667993      -0.00315038      -0.00237644 </v>
   <v>      -0.10297973       0.16532463       0.07726222 </v>
   <v>       0.12457538       0.11575332       0.14815725 </v>
   <v>       0.00554215       0.22561457      -0.01033871 </v>
   <v>       2.61529008       0.42763336      -4.67763474 </v>
   <v>      -1.22412046      -0.66295577       6.54549531 </v>
  </varray>
  <varray name="stress" >
   <v>      -6.73390532      -0.02860858       0.03431351 </v>
   <v>      -0.02860862      -6.67862120      -0.05968803 </v>
   <v>       0.03431350      -0.05968802      -6.15529460 </v>
  </varray>
  <energy>
   <i name="e_fr_energy">   -174.73499972 </i>
   <i name="e_wo_entrp">   -174.72539831 </i>
   <i name="e_0_energy">     -0.03840563 </i>
  </energy>
  <time name="totalsc">21586.3021587.67</time>
  <eigenvalues>
   <array>
    <dimension dim="1">band</dimension>
    <dimension dim="2">kpoint</dimension>
    <dimension dim="3">spin</dimension>
    <field>eigene</field>
    <field>occ</field>
    <set>
     <set comment="spin 1">
      <set comment="kpoint 1">
       <r>  -28.1889    1.0000 </r>
       <r>  -13.2871    1.0000 </r>
       <r>  -11.2539    1.0000 </r>
       <r>  -10.7853    1.0000 </r>
       <r>  -10.1169    1.0000 </r>
       <r>   -6.6645    1.0000 </r>
       <r>   -6.3007    1.0000 </r>
       <r>   -6.2690    1.0000 </r>
       <r>   -6.1419    1.0000 </r>
       <r>   -6.1330    1.0000 </r>
       <r>   -6.0682    1.0000 </r>
       <r>   -5.8675    1.0000 </r>
       <r>   -5.8303    1.0000 </r>
       <r>   -5.8113    1.0000 </r>
       <r>   -5.7822    1.0000 </r>
       <r>   -5.7500    1.0000 </r>
       <r>   -5.7034    1.0000 </r>
       <r>   -5.6948    1.0000 </r>
       <r>   -5.6864    1.0000 </r>
       <r>   -5.6710    1.0000 </r>
       <r>   -5.6691    1.0000 </r>
       <r>   -5.6317    1.0000 </r>
       <r>   -5.6149    1.0000 </r>
       <r>   -5.6020    1.0000 </r>
       <r>   -5.5986    1.0000 </r>
       <r>   -5.5794    1.0000 </r>
       <r>   -5.5682    1.0000 </r>
       <r>   -5.5650    1.0000 </r>
       <r>   -5.5537    1.0000 </r>
       <r>   -5.5491    1.0000 </r>
       <r>   -5.5440    1.0000 </r>
       <r>   -5.5278    1.0000 </r>
       <r>   -5.5214    1.0000 </r>
       <r>   -5.5209    1.0000 </r>
       <r>   -5.5168    1.0000 </r>
       <r>   -5.5152    1.0000 </r>
       <r>   -5.5090    1.0000 </r>
       <r>   -5.4935    1.0000 </r>
       <r>   -5.4910    1.0000 </r>
       <r>   -5.4841    1.0000 </r>
       <r>   -5.4752    1.0000 </r>
       <r>   -5.4735    1.0000 </r>
       <r>   -5.4691    1.0000 </r>
       <r>   -5.4676    1.0000 </r>
       <r>   -5.4656    1.0000 </r>
       <r>   -5.4515    1.0000 </r>
       <r>   -5.4402    1.0000 </r>
       <r>   -5.4338    1.0000 </r>
       <r>   -5.4309    1.0000 </r>
       <r>   -5.4282    1.0000 </r>
       <r>   -5.4255    1.0000 </r>
       <r>   -5.4128    1.0000 </r>
       <r>   -5.4068    1.0000 </r>
       <r>   -5.4063    1.0000 </r>
       <r>   -5.3966    1.0000 </r>
       <r>   -5.3863    1.0000 </r>
       <r>   -5.3692    1.0000 </r>
       <r>   -5.3424    1.0000 </r>
       <r>   -5.3404    1.0000 </r>
       <r>   -5.3319    1.0000 </r>
       <r>   -5.3288    1.0000 </r>
       <r>   -5.3258    1.0000 </r>
       <r>   -5.3171    1.0000 </r>
       <r>   -5.3151    1.0000 </r>
       <r>   -5.3032    1.0000 </r>
       <r>   -5.3014    1.0000 </r>
       <r>   -5.2954    1.0000 </r>
       <r>   -5.2720    1.0000 </r>
       <r>   -5.2510    1.0000 </r>
       <r>   -5.2413    1.0000 </r>
       <r>   -5.2201    1.0000 </r>
       <r>   -5.2198    1.0000 </r>
       <r>   -5.2029    1.0000 </r>
       <r>   -5.2018    1.0000 </r>
       <r>   -5.1928    1.0000 </r>
       <r>   -5.1822    1.0000 </r>
       <r>   -5.1790    1.0000 </r>
       <r>   -5.1770    1.0000 </r>
       <r>   -5.1747    1.0000 </r>
       <r>   -5.1665    1.0000 </r>
       <r>   -5.1650    1.0000 </r>
       <r>   -5.1432    1.0000 </r>
       <r>   -5.1342    1.0000 </r>
       <r>   -5.1291    1.0000 </r>
       <r>   -5.1224    1.0000 </r>
       <r>   -5.1168    1.0000 </r>
       <r>   -5.1114    1.0000 </r>
       <r>   -5.1022    1.0000 </r>
       <r>   -5.0858    1.0000 </r>
       <r>   -5.0770    1.0000 </r>
       <r>   -5.0749    1.0000 </r>
       <r>   -5.0640    1.0000 </r>
       <r>   -5.0569    1.0000 </r>
       <r>   -5.0552    1.0000 </r>
       <r>   -5.0541    1.0000 </r>
       <r>   -5.0504    1.0000 </r>
       <r>   -5.0501    1.0000 </r>
       <r>   -5.0402    1.0000 </r>
       <r>   -5.0388    1.0000 </r>
       <r>   -5.0331    1.0000 </r>
       <r>   -5.0258    1.0000 </r>
       <r>   -5.0219    1.0000 </r>
       <r>   -5.0210    1.0000 </r>
       <r>   -5.0118    1.0000 </r>
       <r>   -5.0044    1.0000 </r>
       <r>   -5.0034    1.0000 </r>
       <r>   -4.9966    1.0000 </r>
       <r>   -4.9941    1.0000 </r>
       <r>   -4.9927    1.0000 </r>
       <r>   -4.9813    1.0000 </r>
       <r>   -4.9783    1.0000 </r>
       <r>   -4.9756    1.0000 </r>
       <r>   -4.9699    1.0000 </r>
       <r>   -4.9656    1.0000 </r>
       <r>   -4.9598    1.0000 </r>
       <r>   -4.9574    1.0000 </r>
       <r>   -4.9454    1.0000 </r>
       <r>   -4.9403    1.0000 </r>
       <r>   -4.9376    1.0000 </r>
       <r>   -4.9341    1.0000 </r>
       <r>   -4.9214    1.0000 </r>
       <r>   -4.9141    1.0000 </r>
       <r>   -4.9106    1.0000 </r>
       <r>   -4.9089    1.0000 </r>
       <r>   -4.9046    1.0000 </r>
       <r>   -4.9017    1.0000 </r>
       <r>   -4.8806    1.0000 </r>
       <r>   -4.8782    1.0000 </r>
       <r>   -4.8686    1.0000 </r>
       <r>   -4.8580    1.0000 </r>
       <r>   -4.8491    1.0000 </r>
       <r>   -4.8466    1.0000 </r>
       <r>   -4.8402    1.0000 </r>
       <r>   -4.8376    1.0000 </r>
       <r>   -4.8341    1.0000 </r>
       <r>   -4.8307    1.0000 </r>
       <r>   -4.8159    0.9999 </r>
       <r>   -4.8081    0.9999 </r>
       <r>   -4.7988    0.9999 </r>
       <r>   -4.7896    0.9999 </r>
       <r>   -4.7837    0.9999 </r>
       <r>   -4.7723    0.9998 </r>
       <r>   -4.7576    0.9998 </r>
       <r>   -4.7568    0.9998 </r>
       <r>   -4.7449    0.9997 </r>
       <r>   -4.7383    0.9996 </r>
       <r>   -4.7352    0.9996 </r>
       <r>   -4.7340    0.9996 </r>
       <r>   -4.7204    0.9994 </r>
       <r>   -4.7047    0.9992 </r>
       <r>   -4.7005    0.9992 </r>
       <r>   -4.6949    0.9991 </r>
       <r>   -4.6900    0.9990 </r>
       <r>   -4.6876    0.9989 </r>
       <r>   -4.6810    0.9988 </r>
       <r>   -4.6807    0.9988 </r>
       <r>   -4.6741    0.9986 </r>
       <r>   -4.6730    0.9986 </r>
       <r>   -4.6702    0.9985 </r>
       <r>   -4.6629    0.9983 </r>
       <r>   -4.6597    0.9982 </r>
       <r>   -4.6592    0.9982 </r>
       <r>   -4.6506    0.9980 </r>
       <r>   -4.6497    0.9979 </r>
       <r>   -4.6489    0.9979 </r>
       <r>   -4.6469    0.9979 </r>
       <r>   -4.6444    0.9978 </r>
       <r>   -4.6417    0.9977 </r>
       <r>   -4.6381    0.9976 </r>
       <r>   -4.6328    0.9974 </r>
       <r>   -4.6198    0.9969 </r>
       <r>   -4.6159    0.9968 </r>
       <r>   -4.6108    0.9966 </r>
       <r>   -4.6061    0.9964 </r>
       <r>   -4.5999    0.9962 </r>
       <r>   -4.5988    0.9961 </r>
       <r>   -4.5969    0.9961 </r>
       <r>   -4.5923    0.9959 </r>
       <r>   -4.5916    0.9959 </r>
       <r>   -4.5892    0.9958 </r>
       <r>   -4.5807    0.9955 </r>
       <r>   -4.5682    0.9952 </r>
       <r>   -4.5673    0.9952 </r>
       <r>   -4.5616    0.9951 </r>
       <r>   -4.5592    0.9951 </r>
       <r>   -4.5564    0.9951 </r>
       <r>   -4.5541    0.9951 </r>
       <r>   -4.5496    0.9951 </r>
       <r>   -4.5495    0.9951 </r>
       <r>   -4.5386    0.9952 </r>
       <r>   -4.5337    0.9954 </r>
       <r>   -4.5225    0.9960 </r>
       <r>   -4.5164    0.9964 </r>
       <r>   -4.5125    0.9968 </r>
       <r>   -4.5039    0.9977 </r>
       <r>   -4.5006    0.9982 </r>
       <r>   -4.4984    0.9985 </r>
       <r>   -4.4907    0.9997 </r>
       <r>   -4.4860    1.0006 </r>
       <r>   -4.4769    1.0026 </r>
       <r>   -4.4760    1.0028 </r>
       <r>   -4.4669    1.0052 </r>
       <r>   -4.4633    1.0062 </r>
       <r>   -4.4586    1.0077 </r>
       <r>   -4.4576    1.0080 </r>
       <r>   -4.4548    1.0089 </r>
       <r>   -4.4506    1.0104 </r>
       <r>   -4.4457    1.0121 </r>
       <r>   -4.4420    1.0136 </r>
       <r>   -4.4400    1.0144 </r>
       <r>   -4.4397    1.0145 </r>
       <r>   -4.4207    1.0227 </r>
       <r>   -4.4205    1.0228 </r>
       <r>   -4.4153    1.0252 </r>
       <r>   -4.4126    1.0265 </r>
       <r>   -4.4074    1.0290 </r>
       <r>   -4.4060    1.0297 </r>
       <r>   -4.4039    1.0307 </r>
       <r>   -4.4004    1.0324 </r>
       <r>   -4.3950    1.0350 </r>
       <r>   -4.3861    1.0391 </r>
       <r>   -4.3832    1.0404 </r>
       <r>   -4.3727    1.0447 </r>
       <r>   -4.3646    1.0475 </r>
       <r>   -4.3570    1.0496 </r>
       <r>   -4.3457    1.0514 </r>
       <r>   -4.3400    1.0516 </r>
       <r>   -4.3388    1.0516 </r>
       <r>   -4.3369    1.0515 </r>
       <r>   -4.3347    1.0513 </r>
       <r>   -4.3335    1.0512 </r>
       <r>   -4.3333    1.0511 </r>
       <r>   -4.3305    1.0507 </r>
       <r>   -4.3257    1.0495 </r>
       <r>   -4.3231    1.0487 </r>
       <r>   -4.3227    1.0485 </r>
       <r>   -4.3219    1.0482 </r>
       <r>   -4.3193    1.0472 </r>
       <r>   -4.3173    1.0462 </r>
       <r>   -4.3119    1.0432 </r>
       <r>   -4.3086    1.0409 </r>
       <r>   -4.3017    1.0352 </r>
       <r>   -4.2991    1.0328 </r>
       <r>   -4.2950    1.0284 </r>
       <r>   -4.2901    1.0224 </r>
       <r>   -4.2889    1.0208 </r>
       <r>   -4.2855    1.0160 </r>
       <r>   -4.2846    1.0147 </r>
       <r>   -4.2798    1.0072 </r>
       <r>   -4.2791    1.0061 </r>
       <r>   -4.2679    0.9851 </r>
       <r>   -4.2663    0.9816 </r>
       <r>   -4.2648    0.9783 </r>
       <r>   -4.2585    0.9638 </r>
       <r>   -4.2573    0.9608 </r>
       <r>   -4.2542    0.9527 </r>
       <r>   -4.2499    0.9412 </r>
       <r>   -4.2485    0.9374 </r>
       <r>   -4.2443    0.9251 </r>
       <r>   -4.2441    0.9244 </r>
       <r>   -4.2429    0.9207 </r>
       <r>   -4.2393    0.9095 </r>
       <r>   -4.2358    0.8981 </r>
       <r>   -4.2353    0.8967 </r>
       <r>   -4.2339    0.8919 </r>
       <r>   -4.2245    0.8581 </r>
       <r>   -4.2241    0.8566 </r>
       <r>   -4.2218    0.8481 </r>
       <r>   -4.2209    0.8446 </r>
       <r>   -4.2170    0.8293 </r>
       <r>   -4.2143    0.8183 </r>
       <r>   -4.2094    0.7979 </r>
       <r>   -4.2011    0.7613 </r>
       <r>   -4.1917    0.7177 </r>
       <r>   -4.1862    0.6913 </r>
       <r>   -4.1852    0.6863 </r>
       <r>   -4.1771    0.6462 </r>
       <r>   -4.1730    0.6254 </r>
       <r>   -4.1724    0.6221 </r>
       <r>   -4.1682    0.6009 </r>
       <r>   -4.1647    0.5824 </r>
       <r>   -4.1573    0.5435 </r>
       <r>   -4.1436    0.4712 </r>
       <r>   -4.1289    0.3946 </r>
       <r>   -4.1276    0.3877 </r>
       <r>   -4.1269    0.3844 </r>
       <r>   -4.1184    0.3412 </r>
       <r>   -4.1095    0.2971 </r>
       <r>   -4.0288    0.0123 </r>
       <r>   -3.9686   -0.0505 </r>
       <r>   -3.9084   -0.0375 </r>
       <r>   -3.8284   -0.0044 </r>
       <r>   -3.8170   -0.0016 </r>
       <r>   -3.7577    0.0048 </r>
       <r>   -3.5022    0.0001 </r>
       <r>   -3.4903    0.0001 </r>
       <r>   -3.3526    0.0000 </r>
       <r>   -3.0621    0.0000 </r>
       <r>   -3.0605    0.0000 </r>
       <r>   -3.0376    0.0000 </r>
       <r>   -3.0322    0.0000 </r>
       <r>   -3.0260    0.0000 </r>
       <r>   -2.9950    0.0000 </r>
       <r>   -2.9358    0.0000 </r>
       <r>   -2.8543    0.0000 </r>
       <r>   -2.5355    0.0000 </r>
       <r>   -2.5230    0.0000 </r>
       <r>   -2.4591    0.0000 </r>
       <r>   -2.2273    0.0000 </r>
       <r>   -2.1293    0.0000 </r>
       <r>   -2.1191    0.0000 </r>
       <r>   -2.1129    0.0000 </r>
       <r>   -1.9996    0.0000 </r>
       <r>   -1.9740    0.0000 </r>
       <r>   -1.9537    0.0000 </r>
       <r>   -1.8641    0.0000 </r>
       <r>   -1.8444    0.0000 </r>
       <r>   -1.7428    0.0000 </r>
       <r>   -1.6617    0.0000 </r>
       <r>   -1.6411    0.0000 </r>
       <r>   -1.6067    0.0000 </r>
       <r>   -1.5597    0.0000 </r>
       <r>   -1.4792    0.0000 </r>
       <r>   -1.3849    0.0000 </r>
       <r>   -1.2626    0.0000 </r>
       <r>   -1.1026    0.0000 </r>
       <r>   -1.0459    0.0000 </r>
       <r>   -1.0039    0.0000 </r>
       <r>   -0.9843    0.0000 </r>
       <r>   -0.9608    0.0000 </r>
       <r>   -0.9449    0.0000 </r>
       <r>   -0.9329    0.0000 </r>
       <r>   -0.9063    0.0000 </r>
       <r>   -0.8958    0.0000 </r>
       <r>   -0.8135    0.0000 </r>
       <r>   -0.7468    0.0000 </r>
      </set>
     </set>
    </set>
   </array>
  </eigenvalues>
  <separator name="orbital magnetization" >
   <v name="MAGDIPOLOUT">      0.00000000      0.00000000      0.00000000</v>
  </separator>
  <dos>
   <i name="efermi">     -4.14902071 </i>
   <total>
    <array>
     <dimension dim="1">gridpoints</dimension>
     <dimension dim="2">spin</dimension>
     <field>energy</field>
     <field>total</field>
     <field>integrated</field>
     <set>
      <set comment="spin 1">
       <r>   -30.1889     0.0000     0.0000 </r>
       <r>   -30.0841     0.0000     0.0000 </r>
       <r>   -29.9793     0.0000     0.0000 </r>
       <r>   -29.8745     0.0000     0.0000 </r>
       <r>   -29.7697     0.0000     0.0000 </r>
       <r>   -29.6649     0.0000     0.0000 </r>
       <r>   -29.5601     0.0000     0.0000 </r>
       <r>   -29.4553     0.0000     0.0000 </r>
       <r>   -29.3504     0.0000     0.0000 </r>
       <r>   -29.2456     0.0000     0.0000 </r>
       <r>   -29.1408     0.0000     0.0000 </r>
       <r>   -29.0360     0.0000     0.0000 </r>
       <r>   -28.9312     0.0001     0.0000 </r>
       <r>   -28.8264     0.0022     0.0002 </r>
       <r>   -28.7216     0.0207     0.0024 </r>
       <r>   -28.6168     0.0645     0.0092 </r>
       <r>   -28.5120    -0.1591    -0.0075 </r>
       <r>   -28.4072    -0.8184    -0.0933 </r>
       <r>   -28.3024     1.4023     0.0537 </r>
       <r>   -28.1976     8.1558     0.9085 </r>
       <r>   -28.0928     9.0332     1.8552 </r>
       <r>   -27.9880     2.3536     2.1019 </r>
       <r>   -27.8831    -0.8020     2.0178 </r>
       <r>   -27.7783    -0.2637     1.9902 </r>
       <r>   -27.6735     0.0626     1.9967 </r>
       <r>   -27.5687     0.0275     1.9996 </r>
       <r>   -27.4639     0.0033     2.0000 </r>
       <r>   -27.3591     0.0002     2.0000 </r>
       <r>   -27.2543     0.0000     2.0000 </r>
       <r>   -27.1495     0.0000     2.0000 </r>
       <r>   -27.0447     0.0000     2.0000 </r>
       <r>   -26.9399     0.0000     2.0000 </r>
       <r>   -26.8351     0.0000     2.0000 </r>
       <r>   -26.7303     0.0000     2.0000 </r>
       <r>   -26.6255     0.0000     2.0000 </r>
       <r>   -26.5207     0.0000     2.0000 </r>
       <r>   -26.4158     0.0000     2.0000 </r>
       <r>   -26.3110     0.0000     2.0000 </r>
       <r>   -26.2062     0.0000     2.0000 </r>
       <r>   -26.1014     0.0000     2.0000 </r>
       <r>   -25.9966     0.0000     2.0000 </r>
       <r>   -25.8918     0.0000     2.0000 </r>
       <r>   -25.7870     0.0000     2.0000 </r>
       <r>   -25.6822     0.0000     2.0000 </r>
       <r>   -25.5774     0.0000     2.0000 </r>
       <r>   -25.4726     0.0000     2.0000 </r>
       <r>   -25.3678     0.0000     2.0000 </r>
       <r>   -25.2630     0.0000     2.0000 </r>
       <r>   -25.1582     0.0000     2.0000 </r>
       <r>   -25.0534     0.0000     2.0000 </r>
       <r>   -24.9485     0.0000     2.0000 </r>
       <r>   -24.8437     0.0000     2.0000 </r>
       <r>   -24.7389     0.0000     2.0000 </r>
       <r>   -24.6341     0.0000     2.0000 </r>
       <r>   -24.5293     0.0000     2.0000 </r>
       <r>   -24.4245     0.0000     2.0000 </r>
       <r>   -24.3197     0.0000     2.0000 </r>
       <r>   -24.2149     0.0000     2.0000 </r>
       <r>   -24.1101     0.0000     2.0000 </r>
       <r>   -24.0053     0.0000     2.0000 </r>
       <r>   -23.9005     0.0000     2.0000 </r>
       <r>   -23.7957     0.0000     2.0000 </r>
       <r>   -23.6909     0.0000     2.0000 </r>
       <r>   -23.5861     0.0000     2.0000 </r>
       <r>   -23.4812     0.0000     2.0000 </r>
       <r>   -23.3764     0.0000     2.0000 </r>
       <r>   -23.2716     0.0000     2.0000 </r>
       <r>   -23.1668     0.0000     2.0000 </r>
       <r>   -23.0620     0.0000     2.0000 </r>
       <r>   -22.9572     0.0000     2.0000 </r>
       <r>   -22.8524     0.0000     2.0000 </r>
       <r>   -22.7476     0.0000     2.0000 </r>
       <r>   -22.6428     0.0000     2.0000 </r>
       <r>   -22.5380     0.0000     2.0000 </r>
       <r>   -22.4332     0.0000     2.0000 </r>
       <r>   -22.3284     0.0000     2.0000 </r>
       <r>   -22.2236     0.0000     2.0000 </r>
       <r>   -22.1188     0.0000     2.0000 </r>
       <r>   -22.0140     0.0000     2.0000 </r>
       <r>   -21.9091     0.0000     2.0000 </r>
       <r>   -21.8043     0.0000     2.0000 </r>
       <r>   -21.6995     0.0000     2.0000 </r>
       <r>   -21.5947     0.0000     2.0000 </r>
       <r>   -21.4899     0.0000     2.0000 </r>
       <r>   -21.3851     0.0000     2.0000 </r>
       <r>   -21.2803     0.0000     2.0000 </r>
       <r>   -21.1755     0.0000     2.0000 </r>
       <r>   -21.0707     0.0000     2.0000 </r>
       <r>   -20.9659     0.0000     2.0000 </r>
       <r>   -20.8611     0.0000     2.0000 </r>
       <r>   -20.7563     0.0000     2.0000 </r>
       <r>   -20.6515     0.0000     2.0000 </r>
       <r>   -20.5467     0.0000     2.0000 </r>
       <r>   -20.4418     0.0000     2.0000 </r>
       <r>   -20.3370     0.0000     2.0000 </r>
       <r>   -20.2322     0.0000     2.0000 </r>
       <r>   -20.1274     0.0000     2.0000 </r>
       <r>   -20.0226     0.0000     2.0000 </r>
       <r>   -19.9178     0.0000     2.0000 </r>
       <r>   -19.8130     0.0000     2.0000 </r>
       <r>   -19.7082     0.0000     2.0000 </r>
       <r>   -19.6034     0.0000     2.0000 </r>
       <r>   -19.4986     0.0000     2.0000 </r>
       <r>   -19.3938     0.0000     2.0000 </r>
       <r>   -19.2890     0.0000     2.0000 </r>
       <r>   -19.1842     0.0000     2.0000 </r>
       <r>   -19.0794     0.0000     2.0000 </r>
       <r>   -18.9745     0.0000     2.0000 </r>
       <r>   -18.8697     0.0000     2.0000 </r>
       <r>   -18.7649     0.0000     2.0000 </r>
       <r>   -18.6601     0.0000     2.0000 </r>
       <r>   -18.5553     0.0000     2.0000 </r>
       <r>   -18.4505     0.0000     2.0000 </r>
       <r>   -18.3457     0.0000     2.0000 </r>
       <r>   -18.2409     0.0000     2.0000 </r>
       <r>   -18.1361     0.0000     2.0000 </r>
       <r>   -18.0313     0.0000     2.0000 </r>
       <r>   -17.9265     0.0000     2.0000 </r>
       <r>   -17.8217     0.0000     2.0000 </r>
       <r>   -17.7169     0.0000     2.0000 </r>
       <r>   -17.6121     0.0000     2.0000 </r>
       <r>   -17.5072     0.0000     2.0000 </r>
       <r>   -17.4024     0.0000     2.0000 </r>
       <r>   -17.2976     0.0000     2.0000 </r>
       <r>   -17.1928     0.0000     2.0000 </r>
       <r>   -17.0880     0.0000     2.0000 </r>
       <r>   -16.9832     0.0000     2.0000 </r>
       <r>   -16.8784     0.0000     2.0000 </r>
       <r>   -16.7736     0.0000     2.0000 </r>
       <r>   -16.6688     0.0000     2.0000 </r>
       <r>   -16.5640     0.0000     2.0000 </r>
       <r>   -16.4592     0.0000     2.0000 </r>
       <r>   -16.3544     0.0000     2.0000 </r>
       <r>   -16.2496     0.0000     2.0000 </r>
       <r>   -16.1448     0.0000     2.0000 </r>
       <r>   -16.0399     0.0000     2.0000 </r>
       <r>   -15.9351     0.0000     2.0000 </r>
       <r>   -15.8303     0.0000     2.0000 </r>
       <r>   -15.7255     0.0000     2.0000 </r>
       <r>   -15.6207     0.0000     2.0000 </r>
       <r>   -15.5159     0.0000     2.0000 </r>
       <r>   -15.4111     0.0000     2.0000 </r>
       <r>   -15.3063     0.0000     2.0000 </r>
       <r>   -15.2015     0.0000     2.0000 </r>
       <r>   -15.0967     0.0000     2.0000 </r>
       <r>   -14.9919     0.0000     2.0000 </r>
       <r>   -14.8871     0.0000     2.0000 </r>
       <r>   -14.7823     0.0000     2.0000 </r>
       <r>   -14.6775     0.0000     2.0000 </r>
       <r>   -14.5726     0.0000     2.0000 </r>
       <r>   -14.4678     0.0000     2.0000 </r>
       <r>   -14.3630     0.0000     2.0000 </r>
       <r>   -14.2582     0.0000     2.0000 </r>
       <r>   -14.1534     0.0000     2.0000 </r>
       <r>   -14.0486     0.0001     2.0000 </r>
       <r>   -13.9438     0.0013     2.0001 </r>
       <r>   -13.8390     0.0146     2.0017 </r>
       <r>   -13.7342     0.0599     2.0080 </r>
       <r>   -13.6294    -0.0686     2.0008 </r>
       <r>   -13.5246    -0.7501     1.9221 </r>
       <r>   -13.4198     0.5471     1.9795 </r>
       <r>   -13.3150     6.9689     2.7099 </r>
       <r>   -13.2102     9.7096     3.7275 </r>
       <r>   -13.1053     3.5679     4.1015 </r>
       <r>   -13.0005    -0.6596     4.0323 </r>
       <r>   -12.8957    -0.4000     3.9904 </r>
       <r>   -12.7909     0.0497     3.9956 </r>
       <r>   -12.6861     0.0364     3.9994 </r>
       <r>   -12.5813     0.0052     4.0000 </r>
       <r>   -12.4765     0.0003     4.0000 </r>
       <r>   -12.3717     0.0000     4.0000 </r>
       <r>   -12.2669     0.0000     4.0000 </r>
       <r>   -12.1621     0.0000     4.0000 </r>
       <r>   -12.0573     0.0000     4.0000 </r>
       <r>   -11.9525     0.0004     4.0000 </r>
       <r>   -11.8477     0.0061     4.0007 </r>
       <r>   -11.7429     0.0400     4.0049 </r>
       <r>   -11.6380     0.0409     4.0092 </r>
       <r>   -11.5332    -0.4547     3.9615 </r>
       <r>   -11.4284    -0.5626     3.9025 </r>
       <r>   -11.3236     4.0747     4.3296 </r>
       <r>   -11.2188     9.9346     5.3708 </r>
       <r>   -11.1140     6.3542     6.0368 </r>
       <r>   -11.0092    -0.5230     5.9820 </r>
       <r>   -10.9044     0.4197     6.0260 </r>
       <r>   -10.7996     7.7855     6.8419 </r>
       <r>   -10.6948     9.3329     7.8201 </r>
       <r>   -10.5900     2.7560     8.1089 </r>
       <r>   -10.4852    -0.7622     8.0291 </r>
       <r>   -10.3804    -0.8790     7.9369 </r>
       <r>   -10.2756    -0.1996     7.9160 </r>
       <r>   -10.1707     5.2005     8.4611 </r>
       <r>   -10.0659    10.0368     9.5130 </r>
       <r>    -9.9611     5.3711    10.0759 </r>
       <r>    -9.8563    -0.1909    10.0559 </r>
       <r>    -9.7515    -0.5984     9.9932 </r>
       <r>    -9.6467     0.0055     9.9938 </r>
       <r>    -9.5419     0.0495     9.9990 </r>
       <r>    -9.4371     0.0092     9.9999 </r>
       <r>    -9.3323     0.0007    10.0000 </r>
       <r>    -9.2275     0.0000    10.0000 </r>
       <r>    -9.1227     0.0000    10.0000 </r>
       <r>    -9.0179     0.0000    10.0000 </r>
       <r>    -8.9131     0.0000    10.0000 </r>
       <r>    -8.8083     0.0000    10.0000 </r>
       <r>    -8.7034     0.0000    10.0000 </r>
       <r>    -8.5986     0.0000    10.0000 </r>
       <r>    -8.4938     0.0000    10.0000 </r>
       <r>    -8.3890     0.0000    10.0000 </r>
       <r>    -8.2842     0.0000    10.0000 </r>
       <r>    -8.1794     0.0000    10.0000 </r>
       <r>    -8.0746     0.0000    10.0000 </r>
       <r>    -7.9698     0.0000    10.0000 </r>
       <r>    -7.8650     0.0000    10.0000 </r>
       <r>    -7.7602     0.0000    10.0000 </r>
       <r>    -7.6554     0.0000    10.0000 </r>
       <r>    -7.5506     0.0000    10.0000 </r>
       <r>    -7.4458     0.0000    10.0000 </r>
       <r>    -7.3410     0.0008    10.0001 </r>
       <r>    -7.2361     0.0099    10.0011 </r>
       <r>    -7.1313     0.0512    10.0065 </r>
       <r>    -7.0265    -0.0027    10.0062 </r>
       <r>    -6.9217    -0.6182     9.9414 </r>
       <r>    -6.8169    -0.0598     9.9351 </r>
       <r>    -6.7121     5.7507    10.5379 </r>
       <r>    -6.6073     9.7968    11.5646 </r>
       <r>    -6.5025     3.4359    11.9247 </r>
       <r>    -6.3977     1.3927    12.0707 </r>
       <r>    -6.2929    14.7498    13.6166 </r>
       <r>    -6.1881    29.9004    16.7504 </r>
       <r>    -6.0833    30.9596    19.9951 </r>
       <r>    -5.9785    17.0028    21.7772 </r>
       <r>    -5.8737    17.9924    23.6629 </r>
       <r>    -5.7688    47.3752    28.6282 </r>
       <r>    -5.6640    97.0956    38.8045 </r>
       <r>    -5.5592   190.8195    58.8037 </r>
       <r>    -5.4544   281.8475    88.3433 </r>
       <r>    -5.3496   271.2488   116.7721 </r>
       <r>    -5.2448   215.6725   139.3761 </r>
       <r>    -5.1400   238.1819   164.3393 </r>
       <r>    -5.0352   327.8369   198.6989 </r>
       <r>    -4.9304   361.2534   236.5608 </r>
       <r>    -4.8256   304.9713   268.5240 </r>
       <r>    -4.7208   305.0162   300.4919 </r>
       <r>    -4.6160   393.8254   341.7676 </r>
       <r>    -4.5112   425.6897   386.3829 </r>
       <r>    -4.4064   433.0410   431.7686 </r>
       <r>    -4.3016   522.4619   486.5264 </r>
       <r>    -4.1967   527.3975   541.8014 </r>
       <r>    -4.0919   301.8101   573.4332 </r>
       <r>    -3.9871    70.1669   580.7872 </r>
       <r>    -3.8823    14.3735   582.2936 </r>
       <r>    -3.7775    30.6067   585.5014 </r>
       <r>    -3.6727    20.8785   587.6896 </r>
       <r>    -3.5679    10.0311   588.7410 </r>
       <r>    -3.4631    19.7385   590.8097 </r>
       <r>    -3.3583    20.3100   592.9383 </r>
       <r>    -3.2535     5.1145   593.4744 </r>
       <r>    -3.1487     9.0264   594.4204 </r>
       <r>    -3.0439    48.2720   599.4797 </r>
       <r>    -2.9391    64.3369   606.2226 </r>
       <r>    -2.8343    32.5014   609.6290 </r>
       <r>    -2.7294     3.2290   609.9674 </r>
       <r>    -2.6246     2.9714   610.2788 </r>
       <r>    -2.5198    21.9618   612.5806 </r>
       <r>    -2.4150    24.7883   615.1786 </r>
       <r>    -2.3102     9.4916   616.1734 </r>
       <r>    -2.2054    14.8402   617.7287 </r>
       <r>    -2.1006    36.4330   621.5472 </r>
       <r>    -1.9958    45.3689   626.3022 </r>
       <r>    -1.8910    40.7493   630.5730 </r>
       <r>    -1.7862    31.9335   633.9198 </r>
       <r>    -1.6814    33.4095   637.4214 </r>
       <r>    -1.5766    41.0334   641.7220 </r>
       <r>    -1.4718    33.8230   645.2669 </r>
       <r>    -1.3670    20.8730   647.4545 </r>
       <r>    -1.2621    12.7789   648.7938 </r>
       <r>    -1.1573    10.7768   649.9233 </r>
       <r>    -1.0525    33.3539   653.4190 </r>
       <r>    -0.9477    70.0099   660.7566 </r>
       <r>    -0.8429    68.5045   667.9363 </r>
       <r>    -0.7381    33.0385   671.3990 </r>
       <r>    -0.6333     7.2559   672.1595 </r>
       <r>    -0.5285    -0.8975   672.0654 </r>
       <r>    -0.4237    -0.8622   671.9750 </r>
       <r>    -0.3189     0.0795   671.9834 </r>
       <r>    -0.2141     0.1281   671.9968 </r>
       <r>    -0.1093     0.0278   671.9997 </r>
       <r>    -0.0045     0.0026   672.0000 </r>
       <r>     0.1003     0.0001   672.0000 </r>
       <r>     0.2052     0.0000   672.0000 </r>
       <r>     0.3100     0.0000   672.0000 </r>
       <r>     0.4148     0.0000   672.0000 </r>
       <r>     0.5196     0.0000   672.0000 </r>
       <r>     0.6244     0.0000   672.0000 </r>
       <r>     0.7292     0.0000   672.0000 </r>
       <r>     0.8340     0.0000   672.0000 </r>
       <r>     0.9388     0.0000   672.0000 </r>
       <r>     1.0436     0.0000   672.0000 </r>
       <r>     1.1484     0.0000   672.0000 </r>
       <r>     1.2532     0.0000   672.0000 </r>
      </set>
     </set>
    </array>
   </total>
  </dos>
 </calculation>
 <structure name="finalpos" >
  <crystal>
   <varray name="basis" >
    <v>      30.00000000       0.00000000       0.00000000 </v>
    <v>       0.00000000      30.00000000       0.00000000 </v>
    <v>       0.00000000       0.00000000      30.00000000 </v>
   </varray>
   <i name="volume">  27000.00000000 </i>
   <varray name="rec_basis" >
    <v>       0.03333333       0.00000000       0.00000000 </v>
    <v>       0.00000000       0.03333333       0.00000000 </v>
    <v>       0.00000000       0.00000000       0.03333333 </v>
   </varray>
  </crystal>
  <varray name="positions" >
   <v>       0.44576020       0.32826710       0.41691983 </v>
   <v>       0.67173288       0.55423978       0.41691983 </v>
   <v>       0.55423980       0.32826710       0.41691983 </v>
   <v>       0.32826712       0.55423978       0.41691983 </v>
   <v>       0.50000000       0.38250690       0.34021317 </v>
   <v>       0.50000000       0.38250690       0.65978680 </v>
   <v>       0.50000000       0.27609440       0.50000000 </v>
   <v>       0.27609443       0.49999998       0.50000000 </v>
   <v>       0.72390557       0.49999998       0.50000000 </v>
   <v>       0.50000000       0.72390555       0.50000000 </v>
   <v>       0.61195280       0.38804720       0.34167483 </v>
   <v>       0.61195280       0.38804720       0.65832513 </v>
   <v>       0.38804722       0.61195278       0.34167483 </v>
   <v>       0.38804722       0.61195278       0.65832513 </v>
   <v>       0.38804720       0.38804720       0.34167483 </v>
   <v>       0.38804720       0.38804720       0.65832513 </v>
   <v>       0.61195278       0.61195278       0.34167483 </v>
   <v>       0.61195278       0.61195278       0.65832513 </v>
   <v>       0.44576020       0.32826710       0.58308023 </v>
   <v>       0.67173288       0.55423978       0.58308023 </v>
   <v>       0.55791699       0.44208301       0.41809300 </v>
   <v>       0.32826705       0.44576024       0.41691983 </v>
   <v>       0.55423973       0.67173293       0.41691983 </v>
   <v>       0.55423980       0.32826710       0.58308023 </v>
   <v>       0.32826712       0.55423978       0.58308023 </v>
   <v>       0.67173295       0.44576024       0.41691983 </v>
   <v>       0.44576027       0.67173293       0.41691983 </v>
   <v>       0.44208301       0.44208301       0.41809300 </v>
   <v>       0.50000000       0.38416601       0.50000000 </v>
   <v>       0.61749315       0.50000005       0.34021317 </v>
   <v>       0.61749315       0.50000005       0.65978680 </v>
   <v>       0.38250685       0.50000005       0.34021317 </v>
   <v>       0.38250685       0.50000005       0.65978680 </v>
   <v>       0.38317830       0.38317830       0.50000000 </v>
   <v>       0.61682172       0.61682172       0.50000000 </v>
   <v>       0.61682170       0.38317830       0.50000000 </v>
   <v>       0.38317828       0.61682172       0.50000000 </v>
   <v>       0.50000000       0.50000000       0.33478917 </v>
   <v>       0.50000000       0.50000000       0.66521087 </v>
   <v>       0.32826705       0.44576024       0.58308023 </v>
   <v>       0.55423973       0.67173293       0.58308023 </v>
   <v>       0.55791699       0.44208301       0.58190703 </v>
   <v>       0.44208298       0.55791702       0.41809300 </v>
   <v>       0.44208301       0.44208301       0.58190703 </v>
   <v>       0.67173295       0.44576024       0.58308023 </v>
   <v>       0.44576027       0.67173293       0.58308023 </v>
   <v>       0.55791702       0.55791702       0.41809300 </v>
   <v>       0.38416599       0.50000002       0.50000000 </v>
   <v>       0.61583401       0.50000002       0.50000000 </v>
   <v>       0.50000000       0.61749319       0.34021317 </v>
   <v>       0.50000000       0.61749319       0.65978680 </v>
   <v>       0.50000000       0.50000000       0.50000000 </v>
   <v>       0.44208298       0.55791702       0.58190703 </v>
   <v>       0.55791702       0.55791702       0.58190703 </v>
   <v>       0.50000000       0.61583404       0.50000000 </v>
   <v>       0.41904587       0.48739857       0.70640357 </v>
   <v>       0.40533900       0.48526493       0.74135110 </v>
  </varray>
  <varray name="selective"  type="logical" >
   <v type="logical" >  F  F  F </v>
   <v type="logical" >  F  F  F </v>
   <v type="logical" >  F  F  F </v>
   <v type="logical" >  F  F  F </v>
   <v type="logical" >  F  F  F </v>
   <v type="logical" >  F  F  F </v>
   <v type="logical" >  F  F  F </v>
   <v type="logical" >  F  F  F </v>
   <v type="logical" >  F  F  F </v>
   <v type="logical" >  F  F  F </v>
   <v type="logical" >  F  F  F </v>
   <v type="logical" >  F  F  F </v>
   <v type="logical" >  F  F  F </v>
   <v type="logical" >  F  F  F </v>
   <v type="logical" >  F  F  F </v>
   <v type="logical" >  F  F  F </v>
   <v type="logical" >  F  F  F </v>
   <v type="logical" >  F  F  F </v>
   <v type="logical" >  F  F  F </v>
   <v type="logical" >  F  F  F </v>
   <v type="logical" >  F  F  F </v>
   <v type="logical" >  F  F  F </v>
   <v type="logical" >  F  F  F </v>
   <v type="logical" >  F  F  F </v>
   <v type="logical" >  F  F  F </v>
   <v type="logical" >  F  F  F </v>
   <v type="logical" >  F  F  F </v>
   <v type="logical" >  F  F  F </v>
   <v type="logical" >  F  F  F </v>
   <v type="logical" >  F  F  F </v>
   <v type="logical" >  F  F  F </v>
   <v type="logical" >  F  F  F </v>
   <v type="logical" >  F  F  F </v>
   <v type="logical" >  F  F  F </v>
   <v type="logical" >  F  F  F </v>
   <v type="logical" >  F  F  F </v>
   <v type="logical" >  F  F  F </v>
   <v type="logical" >  F  F  F </v>
   <v type="logical" >  F  F  F </v>
   <v type="logical" >  F  F  F </v>
   <v type="logical" >  F  F  F </v>
   <v type="logical" >  F  F  F </v>
   <v type="logical" >  F  F  F </v>
   <v type="logical" >  F  F  F </v>
   <v type="logical" >  F  F  F </v>
   <v type="logical" >  F  F  F </v>
   <v type="logical" >  F  F  F </v>
   <v type="logical" >  F  F  F </v>
   <v type="logical" >  F  F  F </v>
   <v type="logical" >  F  F  F </v>
   <v type="logical" >  F  F  F </v>
   <v type="logical" >  F  F  F </v>
   <v type="logical" >  F  F  F </v>
   <v type="logical" >  F  F  F </v>
   <v type="logical" >  F  F  F </v>
   <v type="logical" >  F  F  F </v>
   <v type="logical" >  F  F  F </v>
  </varray>
  <nose>
   <v>      -3.00000000       0.00000000       0.00010000       0.00010000 </v>
  </nose>
 </structure>
</modeling>
