   57   57    1    1
  0.4736842E+03  0.3000000E-08  0.3000000E-08  0.3000000E-08  0.5000000E-15
  1.000000000000000E-004
  CAR 
 6_Pd100_top_free_z(O)                   
    560      1    336
 
  0.0000000E+00  0.0000000E+00  0.0000000E+00  0.1000000E+01
    1      -28.330694   1.000000
    2      -13.197839   1.000000
    3      -11.134564   1.000000
    4      -10.881049   1.000000
    5      -10.118921   1.000000
    6       -6.638761   1.000000
    7       -6.143297   1.000000
    8       -6.126179   1.000000
    9       -6.120335   1.000000
   10       -5.919001   1.000000
   11       -5.835133   1.000000
   12       -5.815251   1.000000
   13       -5.809993   1.000000
   14       -5.763041   1.000000
   15       -5.743240   1.000000
   16       -5.699457   1.000000
   17       -5.684939   1.000000
   18       -5.682276   1.000000
   19       -5.678018   1.000000
   20       -5.652382   1.000000
   21       -5.629126   1.000000
   22       -5.615920   1.000000
   23       -5.611213   1.000000
   24       -5.598790   1.000000
   25       -5.591498   1.000000
   26       -5.590079   1.000000
   27       -5.562363   1.000000
   28       -5.554262   1.000000
   29       -5.547548   1.000000
   30       -5.533210   1.000000
   31       -5.525471   1.000000
   32       -5.519877   1.000000
   33       -5.516231   1.000000
   34       -5.513413   1.000000
   35       -5.509829   1.000000
   36       -5.506349   1.000000
   37       -5.500703   1.000000
   38       -5.489275   1.000000
   39       -5.484196   1.000000
   40       -5.481525   1.000000
   41       -5.473251   1.000000
   42       -5.469257   1.000000
   43       -5.465261   1.000000
   44       -5.462787   1.000000
   45       -5.460975   1.000000
   46       -5.452810   1.000000
   47       -5.444394   1.000000
   48       -5.433571   1.000000
   49       -5.427310   1.000000
   50       -5.423915   1.000000
   51       -5.419807   1.000000
   52       -5.403908   1.000000
   53       -5.400353   1.000000
   54       -5.397363   1.000000
   55       -5.389545   1.000000
   56       -5.381239   1.000000
   57       -5.358770   1.000000
   58       -5.349556   1.000000
   59       -5.334816   1.000000
   60       -5.330577   1.000000
   61       -5.316889   1.000000
   62       -5.312097   1.000000
   63       -5.308744   1.000000
   64       -5.307451   1.000000
   65       -5.300678   1.000000
   66       -5.295402   1.000000
   67       -5.288551   1.000000
   68       -5.283000   1.000000
   69       -5.250176   1.000000
   70       -5.243481   1.000000
   71       -5.228175   1.000000
   72       -5.199456   1.000000
   73       -5.191702   1.000000
   74       -5.182166   1.000000
   75       -5.177264   1.000000
   76       -5.174395   1.000000
   77       -5.172097   1.000000
   78       -5.167956   1.000000
   79       -5.162766   1.000000
   80       -5.151458   1.000000
   81       -5.145449   1.000000
   82       -5.143009   1.000000
   83       -5.134368   1.000000
   84       -5.120325   1.000000
   85       -5.112793   1.000000
   86       -5.110642   1.000000
   87       -5.098601   1.000000
   88       -5.095649   1.000000
   89       -5.084116   1.000000
   90       -5.076626   1.000000
   91       -5.066119   1.000000
   92       -5.055388   1.000000
   93       -5.051602   1.000000
   94       -5.047238   1.000000
   95       -5.045758   1.000000
   96       -5.043650   1.000000
   97       -5.042544   1.000000
   98       -5.041558   1.000000
   99       -5.023935   1.000000
  100       -5.020435   1.000000
  101       -5.015014   1.000000
  102       -5.013682   1.000000
  103       -5.008211   1.000000
  104       -5.003325   1.000000
  105       -4.999114   1.000000
  106       -4.996111   1.000000
  107       -4.990765   1.000000
  108       -4.989240   1.000000
  109       -4.984943   1.000000
  110       -4.981736   1.000000
  111       -4.978600   1.000000
  112       -4.975429   1.000000
  113       -4.967913   1.000000
  114       -4.962158   1.000000
  115       -4.952541   0.999999
  116       -4.949974   0.999999
  117       -4.946055   0.999999
  118       -4.932918   0.999999
  119       -4.927931   0.999999
  120       -4.919420   0.999998
  121       -4.917080   0.999998
  122       -4.909932   0.999998
  123       -4.907724   0.999998
  124       -4.899789   0.999997
  125       -4.898276   0.999997
  126       -4.895876   0.999996
  127       -4.886235   0.999995
  128       -4.874043   0.999992
  129       -4.858410   0.999988
  130       -4.856623   0.999987
  131       -4.841578   0.999980
  132       -4.835807   0.999976
  133       -4.833554   0.999974
  134       -4.830557   0.999972
  135       -4.829095   0.999971
  136       -4.823634   0.999966
  137       -4.813580   0.999954
  138       -4.803219   0.999939
  139       -4.800084   0.999934
  140       -4.789574   0.999912
  141       -4.775231   0.999872
  142       -4.766342   0.999840
  143       -4.763536   0.999828
  144       -4.739834   0.999697
  145       -4.736833   0.999676
  146       -4.734325   0.999656
  147       -4.730532   0.999626
  148       -4.729465   0.999617
  149       -4.717531   0.999501
  150       -4.703319   0.999328
  151       -4.699179   0.999269
  152       -4.693624   0.999183
  153       -4.686057   0.999053
  154       -4.682284   0.998983
  155       -4.674357   0.998822
  156       -4.670452   0.998736
  157       -4.668783   0.998698
  158       -4.666472   0.998644
  159       -4.666099   0.998635
  160       -4.661817   0.998530
  161       -4.654435   0.998336
  162       -4.649505   0.998197
  163       -4.647057   0.998125
  164       -4.645595   0.998082
  165       -4.643503   0.998018
  166       -4.640705   0.997932
  167       -4.636216   0.997788
  168       -4.632505   0.997665
  169       -4.630114   0.997584
  170       -4.625793   0.997434
  171       -4.616729   0.997108
  172       -4.615547   0.997065
  173       -4.610582   0.996880
  174       -4.594428   0.996275
  175       -4.592492   0.996203
  176       -4.590367   0.996126
  177       -4.588069   0.996043
  178       -4.584876   0.995930
  179       -4.578908   0.995729
  180       -4.572127   0.995520
  181       -4.564845   0.995329
  182       -4.560350   0.995231
  183       -4.555163   0.995144
  184       -4.553257   0.995119
  185       -4.549651   0.995084
  186       -4.546490   0.995068
  187       -4.545426   0.995066
  188       -4.542553   0.995068
  189       -4.540147   0.995080
  190       -4.532592   0.995184
  191       -4.514330   0.995945
  192       -4.510902   0.996184
  193       -4.504255   0.996748
  194       -4.501791   0.996992
  195       -4.495556   0.997704
  196       -4.493071   0.998026
  197       -4.486994   0.998913
  198       -4.482698   0.999627
  199       -4.477238   1.000643
  200       -4.473449   1.001424
  201       -4.467984   1.002659
  202       -4.461213   1.004376
  203       -4.458273   1.005186
  204       -4.455873   1.005877
  205       -4.452912   1.006765
  206       -4.448991   1.008003
  207       -4.445748   1.009079
  208       -4.441985   1.010387
  209       -4.438136   1.011789
  210       -4.432327   1.014022
  211       -4.428211   1.015686
  212       -4.414220   1.021783
  213       -4.410279   1.023601
  214       -4.406165   1.025533
  215       -4.404679   1.026238
  216       -4.400902   1.028042
  217       -4.397412   1.029719
  218       -4.394687   1.031032
  219       -4.392989   1.031849
  220       -4.387025   1.034703
  221       -4.384458   1.035917
  222       -4.373787   1.040768
  223       -4.357779   1.046971
  224       -4.349342   1.049400
  225       -4.347108   1.049915
  226       -4.339730   1.051165
  227       -4.333168   1.051617
  228       -4.331046   1.051613
  229       -4.328523   1.051507
  230       -4.327173   1.051402
  231       -4.326576   1.051345
  232       -4.322802   1.050825
  233       -4.322338   1.050741
  234       -4.317616   1.049634
  235       -4.316849   1.049408
  236       -4.313512   1.048273
  237       -4.313168   1.048141
  238       -4.309506   1.046563
  239       -4.308091   1.045864
  240       -4.303275   1.043102
  241       -4.296383   1.038053
  242       -4.293250   1.035306
  243       -4.290801   1.032954
  244       -4.287891   1.029919
  245       -4.286187   1.028018
  246       -4.285391   1.027097
  247       -4.277267   1.016510
  248       -4.275488   1.013894
  249       -4.274912   1.013023
  250       -4.272819   1.009761
  251       -4.260641   0.987648
  252       -4.257393   0.980821
  253       -4.255025   0.975593
  254       -4.248610   0.960350
  255       -4.247471   0.957477
  256       -4.243764   0.947780
  257       -4.242588   0.944593
  258       -4.240703   0.939372
  259       -4.236746   0.927965
  260       -4.236091   0.926019
  261       -4.233544   0.918291
  262       -4.230416   0.908459
  263       -4.227577   0.899210
  264       -4.226902   0.896966
  265       -4.225615   0.892640
  266       -4.215003   0.854631
  267       -4.214197   0.851574
  268       -4.211631   0.841699
  269       -4.209627   0.833824
  270       -4.208590   0.829697
  271       -4.206072   0.819522
  272       -4.196024   0.776868
  273       -4.190751   0.753257
  274       -4.185512   0.729037
  275       -4.180182   0.703683
  276       -4.176422   0.685403
  277       -4.171222   0.659640
  278       -4.163201   0.618966
  279       -4.162416   0.614937
  280       -4.159847   0.601684
  281       -4.157907   0.591621
  282       -4.147370   0.536395
  283       -4.141588   0.505846
  284       -4.123148   0.408849
  285       -4.120974   0.397575
  286       -4.118693   0.385809
  287       -4.111220   0.347771
  288       -4.100567   0.295279
  289       -3.991767  -0.031315
  290       -3.961588  -0.050102
  291       -3.901576  -0.038267
  292       -3.820536  -0.004588
  293       -3.812991  -0.002662
  294       -3.754194   0.004658
  295       -3.492716   0.000091
  296       -3.485178   0.000075
  297       -3.305897   0.000000
  298       -3.061299   0.000000
  299       -3.052478   0.000000
  300       -3.033645   0.000000
  301       -3.025892   0.000000
  302       -3.009921   0.000000
  303       -3.001591   0.000000
  304       -2.932305   0.000000
  305       -2.818696   0.000000
  306       -2.565606   0.000000
  307       -2.513169   0.000000
  308       -2.477079   0.000000
  309       -2.205197   0.000000
  310       -2.126144   0.000000
  311       -2.110757   0.000000
  312       -2.091389   0.000000
  313       -2.021614   0.000000
  314       -1.946195   0.000000
  315       -1.940765   0.000000
  316       -1.847061   0.000000
  317       -1.833746   0.000000
  318       -1.755955   0.000000
  319       -1.697793   0.000000
  320       -1.636679   0.000000
  321       -1.596495   0.000000
  322       -1.557454   0.000000
  323       -1.508284   0.000000
  324       -1.425252   0.000000
  325       -1.313930   0.000000
  326       -1.112343   0.000000
  327       -1.033967   0.000000
  328       -0.991364   0.000000
  329       -0.975042   0.000000
  330       -0.953099   0.000000
  331       -0.932713   0.000000
  332       -0.924801   0.000000
  333       -0.902732   0.000000
  334       -0.861433   0.000000
  335       -0.787907   0.000000
  336       -0.543020   0.000000
