 vasp.5.4.4.18Apr17-6-g9f103f2a35 (build Sep 03 2018 23:53:05) complex          
  
 executed on             LinuxIFC date 2021.11.27  09:08:46
 running on    1 total cores
 distrk:  each k-point on    1 cores,    1 groups
 distr:  one band on NCORES_PER_BAND=   1 cores,    1 groups


--------------------------------------------------------------------------------------------------------


 INCAR:
 POTCAR:    PAW_PBE Pd 04Jan2005                  
 POTCAR:    PAW_PBE C 08Apr2002                   
 POTCAR:    PAW_PBE O 08Apr2002                   
 POTCAR:    PAW_PBE Pd 04Jan2005                  
   VRHFIN =Pd : s1 d9                                                           
   LEXCH  = PE                                                                  
   EATOM  =   809.7530 eV,   59.5152 Ry                                         
                                                                                
   TITEL  = PAW_PBE Pd 04Jan2005                                                
   LULTRA =        F    use ultrasoft PP ?                                      
   IUNSCR =        1    unscreen: 0-lin 1-nonlin 2-no                           
   RPACOR =    2.000    partial core radius                                     
   POMASS =  106.420; ZVAL   =   10.000    mass and valenz                      
   RCORE  =    2.600    outmost cutoff radius                                   
   RWIGS  =    2.710; RWIGS  =    1.434    wigner-seitz radius (au A)           
   ENMAX  =  250.925; ENMIN  =  188.194 eV                                      
   ICORE  =        3    local potential                                         
   LCOR   =        T    correct aug charges                                     
   LPAW   =        T    paw PP                                                  
   EAUG   =  416.230                                                            
   DEXC   =    0.000                                                            
   RMAX   =    2.653    core radius for proj-oper                               
   RAUG   =    1.300    factor for augmentation sphere                          
   RDEP   =    2.734    radius for radial grids                                 
   RDEPT  =    2.103    core radius for aug-charge                              
                                                                                
   Atomic configuration                                                         
   12 entries                                                                   
     n  l   j            E        occ.                                          
     1  0  0.50    -24164.6631   2.0000                                         
     2  0  0.50     -3530.9218   2.0000                                         
     2  1  1.50     -3165.6822   6.0000                                         
     3  0  0.50      -639.4577   2.0000                                         
     3  1  1.50      -519.4532   6.0000                                         
     3  2  2.50      -328.9757  10.0000                                         
     4  0  0.50       -88.7014   2.0000                                         
     4  1  1.50       -54.4540   6.0000                                         
     4  2  2.50        -6.6878   9.0000                                         
     5  0  0.50        -4.3543   1.0000                                         
     5  1  0.50        -1.3606   0.0000                                         
     4  3  2.50        -1.3606   0.0000                                         
   Description                                                                  
     l       E           TYP  RCUT    TYP  RCUT                                 
     2     -6.6878251     23  2.400                                             
     2     -8.0484077     23  2.400                                             
     0     -4.3542939     23  2.400                                             
     0      4.3406793     23  2.400                                             
     1     -4.0817478     23  2.600                                             
     1     15.8380318     23  2.600                                             
     3     -4.0817478     23  2.400                                             
  local pseudopotential read in
  partial core-charges read in
  partial kinetic energy density read in
  atomic valenz-charges read in
  non local Contribution for L=           2  read in
    real space projection operators read in
  non local Contribution for L=           2  read in
    real space projection operators read in
  non local Contribution for L=           0  read in
    real space projection operators read in
  non local Contribution for L=           0  read in
    real space projection operators read in
  non local Contribution for L=           1  read in
    real space projection operators read in
  non local Contribution for L=           1  read in
    real space projection operators read in
    PAW grid and wavefunctions read in
 
   number of l-projection  operators is LMAX  =           6
   number of lm-projection operators is LMMAX =          18
 
 POTCAR:    PAW_PBE C 08Apr2002                   
   VRHFIN =C: s2p2                                                              
   LEXCH  = PE                                                                  
   EATOM  =   147.1560 eV,   10.8157 Ry                                         
                                                                                
   TITEL  = PAW_PBE C 08Apr2002                                                 
   LULTRA =        F    use ultrasoft PP ?                                      
   IUNSCR =        1    unscreen: 0-lin 1-nonlin 2-no                           
   RPACOR =    1.200    partial core radius                                     
   POMASS =   12.011; ZVAL   =    4.000    mass and valenz                      
   RCORE  =    1.500    outmost cutoff radius                                   
   RWIGS  =    1.630; RWIGS  =    0.863    wigner-seitz radius (au A)           
   ENMAX  =  400.000; ENMIN  =  300.000 eV                                      
   ICORE  =        2    local potential                                         
   LCOR   =        T    correct aug charges                                     
   LPAW   =        T    paw PP                                                  
   EAUG   =  644.873                                                            
   DEXC   =    0.000                                                            
   RMAX   =    1.529    core radius for proj-oper                               
   RAUG   =    1.300    factor for augmentation sphere                          
   RDEP   =    1.501    radius for radial grids                                 
   RDEPT  =    1.300    core radius for aug-charge                              
                                                                                
   Atomic configuration                                                         
    4 entries                                                                   
     n  l   j            E        occ.                                          
     1  0  0.50      -273.3789   2.0000                                         
     2  0  0.50       -13.7508   2.0000                                         
     2  1  0.50        -5.2854   2.0000                                         
     3  2  1.50        -5.4423   0.0000                                         
   Description                                                                  
     l       E           TYP  RCUT    TYP  RCUT                                 
     0    -13.7508458     23  1.200                                             
     0     -8.2022199     23  1.200                                             
     1     -5.2854383     23  1.500                                             
     1     34.0145650     23  1.500                                             
     2     -5.4423304      7  1.500                                             
  local pseudopotential read in
  partial core-charges read in
  partial kinetic energy density read in
  atomic valenz-charges read in
  non local Contribution for L=           0  read in
    real space projection operators read in
  non local Contribution for L=           0  read in
    real space projection operators read in
  non local Contribution for L=           1  read in
    real space projection operators read in
  non local Contribution for L=           1  read in
    real space projection operators read in
    PAW grid and wavefunctions read in
 
   number of l-projection  operators is LMAX  =           4
   number of lm-projection operators is LMMAX =           8
 
 POTCAR:    PAW_PBE O 08Apr2002                   
   VRHFIN =O: s2p4                                                              
   LEXCH  = PE                                                                  
   EATOM  =   432.3788 eV,   31.7789 Ry                                         
                                                                                
   TITEL  = PAW_PBE O 08Apr2002                                                 
   LULTRA =        F    use ultrasoft PP ?                                      
   IUNSCR =        1    unscreen: 0-lin 1-nonlin 2-no                           
   RPACOR =    1.200    partial core radius                                     
   POMASS =   16.000; ZVAL   =    6.000    mass and valenz                      
   RCORE  =    1.520    outmost cutoff radius                                   
   RWIGS  =    1.550; RWIGS  =    0.820    wigner-seitz radius (au A)           
   ENMAX  =  400.000; ENMIN  =  300.000 eV                                      
   ICORE  =        2    local potential                                         
   LCOR   =        T    correct aug charges                                     
   LPAW   =        T    paw PP                                                  
   EAUG   =  605.392                                                            
   DEXC   =    0.000                                                            
   RMAX   =    1.553    core radius for proj-oper                               
   RAUG   =    1.300    factor for augmentation sphere                          
   RDEP   =    1.550    radius for radial grids                                 
   RDEPT  =    1.329    core radius for aug-charge                              
                                                                                
   Atomic configuration                                                         
    4 entries                                                                   
     n  l   j            E        occ.                                          
     1  0  0.50      -514.6923   2.0000                                         
     2  0  0.50       -23.9615   2.0000                                         
     2  1  0.50        -9.0305   4.0000                                         
     3  2  1.50        -9.5241   0.0000                                         
   Description                                                                  
     l       E           TYP  RCUT    TYP  RCUT                                 
     0    -23.9615318     23  1.200                                             
     0     -9.5240782     23  1.200                                             
     1     -9.0304911     23  1.520                                             
     1      8.1634956     23  1.520                                             
     2     -9.5240782      7  1.500                                             
  local pseudopotential read in
  partial core-charges read in
  partial kinetic energy density read in
  kinetic energy density of atom read in
  atomic valenz-charges read in
  non local Contribution for L=           0  read in
    real space projection operators read in
  non local Contribution for L=           0  read in
    real space projection operators read in
  non local Contribution for L=           1  read in
    real space projection operators read in
  non local Contribution for L=           1  read in
    real space projection operators read in
    PAW grid and wavefunctions read in
 
   number of l-projection  operators is LMAX  =           4
   number of lm-projection operators is LMMAX =           8
 
 Optimization of the real space projectors (new method)

 maximal supplied QI-value         = 14.36
 optimisation between [QCUT,QGAM] = [ 10.20, 20.39] = [ 29.12,116.47] Ry 
 Optimized for a Real-space Cutoff    1.51 Angstroem

   l    n(q)    QCUT    max X(q) W(low)/X(q) W(high)/X(q)  e(spline) 
   2      8    10.197    59.108    0.26E-03    0.14E-03    0.96E-07
   2      8    10.197    58.101    0.27E-03    0.14E-03    0.98E-07
   0      9    10.197   102.235    0.54E-04    0.60E-05    0.72E-07
   0      9    10.197    58.388    0.52E-04    0.60E-05    0.68E-07
   1      9    10.197    22.191    0.18E-03    0.25E-03    0.79E-07
   1      9    10.197    15.590    0.15E-03    0.21E-03    0.69E-07
 Optimization of the real space projectors (new method)

 maximal supplied QI-value         = 25.13
 optimisation between [QCUT,QGAM] = [ 10.05, 20.36] = [ 28.30,116.06] Ry 
 Optimized for a Real-space Cutoff    1.30 Angstroem

   l    n(q)    QCUT    max X(q) W(low)/X(q) W(high)/X(q)  e(spline) 
   0      8    10.053   115.676    0.49E-03    0.72E-03    0.18E-06
   0      8    10.053    87.132    0.49E-03    0.71E-03    0.18E-06
   1      7    10.053     4.429    0.32E-03    0.31E-03    0.18E-06
   1      7    10.053     2.733    0.23E-03    0.19E-03    0.20E-06
 Optimization of the real space projectors (new method)

 maximal supplied QI-value         = 24.76
 optimisation between [QCUT,QGAM] = [ 10.15, 20.30] = [ 28.85,115.39] Ry 
 Optimized for a Real-space Cutoff    1.38 Angstroem

   l    n(q)    QCUT    max X(q) W(low)/X(q) W(high)/X(q)  e(spline) 
   0      8    10.150    20.381    0.22E-03    0.32E-03    0.29E-06
   0      8    10.150    15.268    0.23E-03    0.35E-03    0.30E-06
   1      8    10.150     5.964    0.46E-03    0.53E-03    0.21E-06
   1      8    10.150     5.382    0.38E-03    0.45E-03    0.19E-06

 ----------------------------------------------------------------------------- 
|                                                                             |
|  ADVICE TO THIS USER RUNNING 'VASP/VAMP'   (HEAR YOUR MASTER'S VOICE ...):  |
|                                                                             |
|      You enforced a specific xc-type in the INCAR file,                     |
|      a different type was found on the POTCAR file                          |
|          I HOPE YOU KNOW, WHAT YOU ARE  DOING                               |
|                                                                             |
 ----------------------------------------------------------------------------- 

  PAW_PBE Pd 04Jan2005                  :
 energy of atom  1       EATOM= -809.7530
 kinetic energy error for atom=    0.0091 (will be added to EATOM!!)
  PAW_PBE C 08Apr2002                   :
 energy of atom  2       EATOM= -147.1560
 kinetic energy error for atom=    0.0288 (will be added to EATOM!!)
  PAW_PBE O 08Apr2002                   :
 energy of atom  3       EATOM= -432.3788
 kinetic energy error for atom=    0.1156 (will be added to EATOM!!)
 
 
 POSCAR: Pd55PES                                 
  positions in cartesian coordinates
  No initial velocities read in
 exchange correlation table for  LEXCH =        9
   RHO(1)=    0.500       N(1)  =     2000
   RHO(2)=  100.500       N(2)  =     4000
 


--------------------------------------------------------------------------------------------------------


 ion  position               nearest neighbor table
   1  0.446  0.328  0.417-   3 3.25   5 3.25   7 3.36  15 3.36  29 3.42  28 3.42
   2  0.672  0.554  0.417-  26 3.25  30 3.25  17 3.36   9 3.36  47 3.42  49 3.42
   3  0.554  0.328  0.417-   1 3.25   5 3.25   7 3.36  11 3.36  29 3.42  21 3.42
   4  0.328  0.554  0.417-  32 3.25  22 3.25  13 3.36   8 3.36  43 3.42  48 3.42
   5  0.500  0.383  0.340-   1 3.25   3 3.25  11 3.36  15 3.36  21 3.42  28 3.42
   6  0.500  0.383  0.660-  24 3.25  19 3.25  16 3.36  12 3.36  42 3.42  44 3.42
   7  0.500  0.276  0.500-  29 3.24   3 3.36   1 3.36  19 3.36  24 3.36
   8  0.276  0.500  0.500-  48 3.24  22 3.36  40 3.36   4 3.36  25 3.36
   9  0.724  0.500  0.500-  49 3.24  26 3.36  45 3.36   2 3.36  20 3.36
  10  0.500  0.724  0.500-  55 3.24  27 3.36  23 3.36  46 3.36  41 3.36
  11  0.612  0.388  0.342-  21 3.24   5 3.36   3 3.36  30 3.36  26 3.36
  12  0.612  0.388  0.658-  42 3.24  24 3.36  45 3.36   6 3.36  31 3.36
  13  0.388  0.612  0.342-  43 3.24  32 3.36  50 3.36   4 3.36  27 3.36
  14  0.388  0.612  0.658-  53 3.24  25 3.36  33 3.36  51 3.36  46 3.36
  15  0.388  0.388  0.342-  28 3.24   5 3.36   1 3.36  32 3.36  22 3.36
  16  0.388  0.388  0.658-  44 3.24  19 3.36  40 3.36   6 3.36  33 3.36
  17  0.612  0.612  0.342-  47 3.24  30 3.36  50 3.36   2 3.36  23 3.36
  18  0.612  0.612  0.658-  54 3.24  31 3.36  20 3.36  51 3.36  41 3.36
  19  0.446  0.328  0.583-   6 3.25  24 3.25  16 3.36   7 3.36  44 3.42  29 3.42
  20  0.672  0.554  0.583-  31 3.25  45 3.25  18 3.36   9 3.36  54 3.42  49 3.42
  21  0.558  0.442  0.418-  11 3.24   5 3.42   3 3.42  30 3.42  26 3.42
  22  0.328  0.446  0.417-   4 3.25  32 3.25   8 3.36  15 3.36  48 3.42  28 3.42
  23  0.554  0.672  0.417-  27 3.25  50 3.25  10 3.36  17 3.36  55 3.42  47 3.42
  24  0.554  0.328  0.583-   6 3.25  19 3.25  12 3.36   7 3.36  42 3.42  29 3.42
  25  0.328  0.554  0.583-  33 3.25  40 3.25  14 3.36   8 3.36  53 3.42  48 3.42
  26  0.672  0.446  0.417-   2 3.25  30 3.25   9 3.36  11 3.36  49 3.42  21 3.42
  27  0.446  0.672  0.417-  23 3.25  50 3.25  10 3.36  13 3.36  55 3.42  43 3.42
  28  0.442  0.442  0.418-  15 3.24   5 3.42   1 3.42  32 3.42  22 3.42
  29  0.500  0.384  0.500-   7 3.24   3 3.42   1 3.42  24 3.42  19 3.42
  30  0.617  0.500  0.340-   2 3.25  26 3.25  17 3.36  11 3.36  47 3.42  21 3.42
  31  0.617  0.500  0.660-  56 2.23  20 3.25  45 3.25  18 3.36  12 3.36  54 3.42  42 3.42
  32  0.383  0.500  0.340-   4 3.25  22 3.25  13 3.36  15 3.36  43 3.42  28 3.42
  33  0.383  0.500  0.660-  25 3.25  40 3.25  14 3.36  16 3.36  53 3.42  44 3.42
  34  0.383  0.383  0.500-
  35  0.617  0.617  0.500-
  36  0.617  0.383  0.500-
  37  0.383  0.617  0.500-
  38  0.500  0.500  0.335-
  39  0.500  0.500  0.665-  56 2.11
  40  0.328  0.446  0.583-  33 3.25  25 3.25  16 3.36   8 3.36  44 3.42  48 3.42
  41  0.554  0.672  0.583-  46 3.25  51 3.25  10 3.36  18 3.36  54 3.42  55 3.42
  42  0.558  0.442  0.582-  12 3.24   6 3.42  24 3.42  31 3.42  45 3.42
  43  0.442  0.558  0.418-  13 3.24   4 3.42  32 3.42  27 3.42  50 3.42
  44  0.442  0.442  0.582-  16 3.24   6 3.42  19 3.42  33 3.42  40 3.42
  45  0.672  0.446  0.583-  20 3.25  31 3.25   9 3.36  12 3.36  49 3.42  42 3.42
  46  0.446  0.672  0.583-  41 3.25  51 3.25  10 3.36  14 3.36  53 3.42  55 3.42
  47  0.558  0.558  0.418-  17 3.24   2 3.42  30 3.42  23 3.42  50 3.42
  48  0.384  0.500  0.500-   8 3.24   4 3.42  22 3.42  25 3.42  40 3.42
  49  0.616  0.500  0.500-   9 3.24   2 3.42  26 3.42  20 3.42  45 3.42
  50  0.500  0.617  0.340-  27 3.25  23 3.25  13 3.36  17 3.36  43 3.42  47 3.42
  51  0.500  0.617  0.660-  41 3.25  46 3.25  14 3.36  18 3.36  53 3.42  54 3.42
  52  0.500  0.500  0.500-
  53  0.442  0.558  0.582-  14 3.24  25 3.42  33 3.42  51 3.42  46 3.42
  54  0.558  0.558  0.582-  18 3.24  31 3.42  20 3.42  51 3.42  41 3.42
  55  0.500  0.616  0.500-  10 3.24  23 3.42  27 3.42  41 3.42  46 3.42
  56  0.558  0.476  0.697-  57 1.13  39 2.11  31 2.23
  57  0.568  0.472  0.733-  56 1.13
 
  LATTYP: Found a simple cubic cell.
 ALAT       =    30.0000000000
  
  Lattice vectors:
  
 A1 = (  30.0000000000,   0.0000000000,   0.0000000000)
 A2 = (   0.0000000000,  30.0000000000,   0.0000000000)
 A3 = (   0.0000000000,   0.0000000000,  30.0000000000)


Analysis of symmetry for initial positions (statically):
=====================================================================
 Subroutine PRICEL returns:
 Original cell was already a primitive cell.
 

 Routine SETGRP: Setting up the symmetry group for a 
 simple cubic supercell.


 Subroutine GETGRP returns: Found  1 space group operations
 (whereof  1 operations were pure point group operations)
 out of a pool of 48 trial point group operations.


The static configuration has the point symmetry C_1 .


Analysis of symmetry for dynamics (positions and initial velocities):
=====================================================================
 Subroutine PRICEL returns:
 Original cell was already a primitive cell.
 

 Routine SETGRP: Setting up the symmetry group for a 
 simple cubic supercell.


 Subroutine GETGRP returns: Found  1 space group operations
 (whereof  1 operations were pure point group operations)
 out of a pool of 48 trial point group operations.


The dynamic configuration has the point symmetry C_1 .


Analysis of constrained symmetry for selective dynamics:
=====================================================================
 Subroutine PRICEL returns:
 Original cell was already a primitive cell.
 

 Routine SETGRP: Setting up the symmetry group for a 
 simple cubic supercell.


 Subroutine GETGRP returns: Found  1 space group operations
 (whereof  1 operations were pure point group operations)
 out of a pool of 48 trial point group operations.


The constrained configuration has the point symmetry C_1 .


 Subroutine INISYM returns: Found  1 space group operations
 (whereof  1 operations are pure point group operations),
 and found     1 'primitive' translations

 
 
 KPOINTS: K-points                                

Automatic generation of k-mesh.
Space group operators:
 irot       det(A)        alpha          n_x          n_y          n_z        tau_x        tau_y        tau_z
    1     1.000000     0.000000     1.000000     0.000000     0.000000     0.000000     0.000000     0.000000
 
 Subroutine IBZKPT returns following result:
 ===========================================
 
 Found      1 irreducible k-points:
 
 Following reciprocal coordinates:
            Coordinates               Weight
  0.000000  0.000000  0.000000      1.000000
 
 Following cartesian coordinates:
            Coordinates               Weight
  0.000000  0.000000  0.000000      1.000000
 


--------------------------------------------------------------------------------------------------------




 Dimension of arrays:
   k-points           NKPTS =      1   k-points in BZ     NKDIM =      1   number of bands    NBANDS=    336
   number of dos      NEDOS =    301   number of ions     NIONS =     57
   non local maximal  LDIM  =      6   non local SUM 2l+1 LMDIM =     18
   total plane-waves  NPLWV = ******
   max r-space proj   IRMAX =   1847   max aug-charges    IRDMAX=   6262
   dimension x,y,z NGX =   150 NGY =  150 NGZ =  150
   dimension x,y,z NGXF=   300 NGYF=  300 NGZF=  300
   support grid    NGXF=   300 NGYF=  300 NGZF=  300
   ions per type =              55   1   1
   NGX,Y,Z   is equivalent  to a cutoff of   8.31,  8.31,  8.31 a.u.
   NGXF,Y,Z  is equivalent  to a cutoff of  16.62, 16.62, 16.62 a.u.

 SYSTEM =  6_Pd100_top_free_z(O)                   
 POSCAR =  Pd55PES                                 

 Startparameter for this run:
   NWRITE =      2    write-flag & timer
   PREC   = normal    normal or accurate (medium, high low for compatibility)
   ISTART =      0    job   : 0-new  1-cont  2-samecut
   ICHARG =      2    charge: 1-file 2-atom 10-const
   ISPIN  =      1    spin polarized calculation?
   LNONCOLLINEAR =      F non collinear calculations
   LSORBIT =      F    spin-orbit coupling
   INIWAV =      1    electr: 0-lowe 1-rand  2-diag
   LASPH  =      F    aspherical Exc in radial PAW
   METAGGA=      F    non-selfconsistent MetaGGA calc.

 Electronic Relaxation 1
   ENCUT  =  400.0 eV  29.40 Ry    5.42 a.u.  48.92 48.92 48.92*2*pi/ulx,y,z
   ENINI  =  400.0     initial cutoff
   ENAUG  =  644.9 eV  augmentation charge cutoff
   NELM   =    100;   NELMIN=  6; NELMDL= -5     # of ELM steps 
   EDIFF  = 0.1E-03   stopping-criterion for ELM
   LREAL  =      T    real-space projection
   NLSPLINE    = F    spline interpolate recip. space projectors
   LCOMPAT=      F    compatible to vasp.4.4
   GGA_COMPAT  = T    GGA compatible to vasp.4.4-vasp.4.6
   LMAXPAW     = -100 max onsite density
   LMAXMIX     =    2 max onsite mixed and CHGCAR
   VOSKOWN=      0    Vosko Wilk Nusair interpolation
   ROPT   =   -0.00050  -0.00050  -0.00050
 Ionic relaxation
   EDIFFG = -.5E-01   stopping-criterion for IOM
   NSW    =      0    number of steps for IOM
   NBLOCK =      1;   KBLOCK =      1    inner block; outer block 
   IBRION =     -1    ionic relax: 0-MD 1-quasi-New 2-CG
   NFREE  =      1    steps in history (QN), initial steepest desc. (CG)
   ISIF   =      2    stress and relaxation
   IWAVPR =     10    prediction:  0-non 1-charg 2-wave 3-comb
   ISYM   =      2    0-nonsym 1-usesym 2-fastsym
   LCORR  =      T    Harris-Foulkes like correction to forces

   POTIM  = 0.5000    time-step for ionic-motion
   TEIN   =    0.0    initial temperature
   TEBEG  =    0.0;   TEEND  =   0.0 temperature during run
   SMASS  =  -3.00    Nose mass-parameter (am)
   estimated Nose-frequenzy (Omega)   =  0.10E-29 period in steps =****** mass=  -0.206E-25a.u.
   SCALEE = 1.0000    scale energy and forces
   NPACO  =    256;   APACO  = 16.0  distance and # of slots for P.C.
   PSTRESS=    0.0 pullay stress

  Mass of Ions in am
   POMASS = 106.42 12.01 16.00
  Ionic Valenz
   ZVAL   =  10.00  4.00  6.00
  Atomic Wigner-Seitz radii
   RWIGS  =  -1.00 -1.00 -1.00
  virtual crystal weights 
   VCA    =   1.00  1.00  1.00
   NELECT =     560.0000    total number of electrons
   NUPDOWN=      -1.0000    fix difference up-down

 DOS related values:
   EMIN   =  10.00;   EMAX   =-10.00  energy-range for DOS
   EFERMI =   0.00
   ISMEAR =     2;   SIGMA  =   0.20  broadening in eV -4-tet -1-fermi 0-gaus

 Electronic relaxation 2 (details)
   IALGO  =     68    algorithm
   LDIAG  =      T    sub-space diagonalisation (order eigenvalues)
   LSUBROT=      F    optimize rotation matrix (better conditioning)
   TURBO    =      0    0=normal 1=particle mesh
   IRESTART =      0    0=no restart 2=restart with 2 vectors
   NREBOOT  =      0    no. of reboots
   NMIN     =      0    reboot dimension
   EREF     =   0.00    reference energy to select bands
   IMIX   =      4    mixing-type and parameters
     AMIX     =   0.40;   BMIX     =  1.00
     AMIX_MAG =   1.60;   BMIX_MAG =  1.00
     AMIN     =   0.10
     WC   =   100.;   INIMIX=   1;  MIXPRE=   1;  MAXMIX= -45

 Intra band minimization:
   WEIMIN = 0.0000     energy-eigenvalue tresh-hold
   EBREAK =  0.74E-07  absolut break condition
   DEPER  =   0.30     relativ break condition  

   TIME   =   0.40     timestep for ELM

  volume/ion in A,a.u.               =     473.68      3196.58
  Fermi-wavevector in a.u.,A,eV,Ry     =   0.449797  0.849992  2.752691  0.202317
  Thomas-Fermi vector in A             =   1.430086
 
 Write flags
   LWAVE        =      F    write WAVECAR
   LDOWNSAMPLE  =      F    k-point downsampling of WAVECAR
   LCHARG       =      F    write CHGCAR
   LVTOT        =      F    write LOCPOT, total local potential
   LVHAR        =      F    write LOCPOT, Hartree potential only
   LELF         =      F    write electronic localiz. function (ELF)
   LORBIT       =      0    0 simple, 1 ext, 2 COOP (PROOUT), +10 PAW based schemes


 Dipole corrections
   LMONO  =      F    monopole corrections only (constant potential shift)
   LDIPOL =      F    correct potential (dipole corrections)
   IDIPOL =      0    1-x, 2-y, 3-z, 4-all directions 
   EPSILON=  1.0000000 bulk dielectric constant

 Exchange correlation treatment:
   GGA     =    RP    GGA type
   LEXCH   =     9    internal setting for exchange type
   VOSKOWN=      0    Vosko Wilk Nusair interpolation
   LHFCALC =     F    Hartree Fock is set to
   LHFONE  =     F    Hartree Fock one center treatment
   AEXX    =    0.0000 exact exchange contribution

 Linear response parameters
   LEPSILON=     F    determine dielectric tensor
   LRPA    =     F    only Hartree local field effects (RPA)
   LNABLA  =     F    use nabla operator in PAW spheres
   LVEL    =     F    velocity operator in full k-point grid
   LINTERFAST=   F  fast interpolation
   KINTER  =     0    interpolate to denser k-point grid
   CSHIFT  =0.1000    complex shift for real part using Kramers Kronig
   OMEGAMAX=  -1.0    maximum frequency
   DEG_THRESHOLD= 0.2000000E-02 threshold for treating states as degnerate
   RTIME   =   -0.100 relaxation time in fs
  (WPLASMAI=    0.000 imaginary part of plasma frequency in eV, 0.658/RTIME)
   DFIELD  = 0.0000000 0.0000000 0.0000000 field for delta impulse in time
 
 Orbital magnetization related:
   ORBITALMAG=     F  switch on orbital magnetization
   LCHIMAG   =     F  perturbation theory with respect to B field
   DQ        =  0.001000  dq finite difference perturbation B field
   LLRAUG    =     F  two centre corrections for induced B field



--------------------------------------------------------------------------------------------------------


 Static calculation
 charge density and potential will be updated during run
 non-spin polarized calculation
 RMM-DIIS sequential band-by-band and
  variant of blocked Davidson during initial phase
 perform sub-space diagonalisation
    before iterative eigenvector-optimisation
 modified Broyden-mixing scheme, WC =      100.0
 initial mixing is a Kerker type mixing with AMIX =  0.4000 and BMIX =      1.0000
 Hartree-type preconditioning will be used
 using additional bands           56
 real space projection scheme for non local part
 use partial core corrections
 calculate Harris-corrections to forces 
   (improved forces if not selfconsistent)
 use gradient corrections 
 use of overlap-Matrix (Vanderbilt PP)
 Methfessel and Paxton  Order N= 2 SIGMA  =   0.20


--------------------------------------------------------------------------------------------------------


  energy-cutoff  :      400.00
  volume of cell :    27000.00
      direct lattice vectors                 reciprocal lattice vectors
    30.000000000  0.000000000  0.000000000     0.033333333  0.000000000  0.000000000
     0.000000000 30.000000000  0.000000000     0.000000000  0.033333333  0.000000000
     0.000000000  0.000000000 30.000000000     0.000000000  0.000000000  0.033333333

  length of vectors
    30.000000000 30.000000000 30.000000000     0.033333333  0.033333333  0.033333333


 
 k-points in units of 2pi/SCALE and weight: K-points                                
   0.00000000  0.00000000  0.00000000       1.000
 
 k-points in reciprocal lattice and weights: K-points                                
   0.00000000  0.00000000  0.00000000       1.000
 
 position of ions in fractional coordinates (direct lattice) 
   0.44576020  0.32826710  0.41691983
   0.67173288  0.55423978  0.41691983
   0.55423980  0.32826710  0.41691983
   0.32826712  0.55423978  0.41691983
   0.50000000  0.38250690  0.34021317
   0.50000000  0.38250690  0.65978680
   0.50000000  0.27609440  0.50000000
   0.27609443  0.49999998  0.50000000
   0.72390557  0.49999998  0.50000000
   0.50000000  0.72390555  0.50000000
   0.61195280  0.38804720  0.34167483
   0.61195280  0.38804720  0.65832513
   0.38804722  0.61195278  0.34167483
   0.38804722  0.61195278  0.65832513
   0.38804720  0.38804720  0.34167483
   0.38804720  0.38804720  0.65832513
   0.61195278  0.61195278  0.34167483
   0.61195278  0.61195278  0.65832513
   0.44576020  0.32826710  0.58308023
   0.67173288  0.55423978  0.58308023
   0.55791699  0.44208301  0.41809300
   0.32826705  0.44576024  0.41691983
   0.55423973  0.67173293  0.41691983
   0.55423980  0.32826710  0.58308023
   0.32826712  0.55423978  0.58308023
   0.67173295  0.44576024  0.41691983
   0.44576027  0.67173293  0.41691983
   0.44208301  0.44208301  0.41809300
   0.50000000  0.38416601  0.50000000
   0.61749315  0.50000005  0.34021317
   0.61749315  0.50000005  0.65978680
   0.38250685  0.50000005  0.34021317
   0.38250685  0.50000005  0.65978680
   0.38317830  0.38317830  0.50000000
   0.61682172  0.61682172  0.50000000
   0.61682170  0.38317830  0.50000000
   0.38317828  0.61682172  0.50000000
   0.50000000  0.50000000  0.33478917
   0.50000000  0.50000000  0.66521087
   0.32826705  0.44576024  0.58308023
   0.55423973  0.67173293  0.58308023
   0.55791699  0.44208301  0.58190703
   0.44208298  0.55791702  0.41809300
   0.44208301  0.44208301  0.58190703
   0.67173295  0.44576024  0.58308023
   0.44576027  0.67173293  0.58308023
   0.55791702  0.55791702  0.41809300
   0.38416599  0.50000002  0.50000000
   0.61583401  0.50000002  0.50000000
   0.50000000  0.61749319  0.34021317
   0.50000000  0.61749319  0.65978680
   0.50000000  0.50000000  0.50000000
   0.44208298  0.55791702  0.58190703
   0.55791702  0.55791702  0.58190703
   0.50000000  0.61583404  0.50000000
   0.55794547  0.47615347  0.69746110
   0.56846247  0.47182537  0.73329993
 
 position of ions in cartesian coordinates  (Angst):
  13.37280588  9.84801292 12.50759500
  20.15198637 16.62719342 12.50759500
  16.62719412  9.84801292 12.50759500
   9.84801363 16.62719342 12.50759500
  15.00000000 11.47520705 10.20639500
  15.00000000 11.47520705 19.79360400
  15.00000000  8.28283206 15.00000000
   8.28283277 14.99999929 15.00000000
  21.71716723 14.99999929 15.00000000
  15.00000000 21.71716652 14.99999999
  18.35858397 11.64141603 10.25024500
  18.35858397 11.64141603 19.74975399
  11.64141674 18.35858326 10.25024500
  11.64141674 18.35858326 19.74975400
  11.64141603 11.64141603 10.25024500
  11.64141603 11.64141603 19.74975400
  18.35858326 18.35858326 10.25024500
  18.35858326 18.35858326 19.74975400
  13.37280588  9.84801291 17.49240700
  20.15198638 16.62719341 17.49240700
  16.73750985 13.26249015 12.54279000
   9.84801151 13.37280729 12.50759500
  16.62719200 20.15198779 12.50759500
  16.62719412  9.84801292 17.49240700
   9.84801363 16.62719342 17.49240700
  20.15198849 13.37280729 12.50759500
  13.37280800 20.15198779 12.50759500
  13.26249015 13.26249015 12.54279000
  15.00000000 11.52498029 15.00000000
  18.52479437 15.00000140 10.20639500
  18.52479437 15.00000141 19.79360400
  11.47520562 15.00000141 10.20639501
  11.47520563 15.00000141 19.79360400
  11.49534898 11.49534898 15.00000000
  18.50465172 18.50465172 15.00000000
  18.50465102 11.49534898 15.00000000
  11.49534828 18.50465172 15.00000000
  15.00000000 15.00000000 10.04367500
  15.00000000 15.00000000 19.95632599
   9.84801151 13.37280729 17.49240700
  16.62719200 20.15198779 17.49240700
  16.73750985 13.26249015 17.45721100
  13.26248944 16.73751056 12.54279001
  13.26249015 13.26249015 17.45721100
  20.15198849 13.37280729 17.49240699
  13.37280800 20.15198779 17.49240700
  16.73751056 16.73751056 12.54279000
  11.52497959 15.00000071 15.00000000
  18.47502041 15.00000071 15.00000000
  14.99999999 18.52479579 10.20639500
  15.00000000 18.52479578 19.79360400
  15.00000000 15.00000000 15.00000000
  13.26248944 16.73751057 17.45721101
  16.73751056 16.73751057 17.45721100
  15.00000000 18.47502112 15.00000000
  16.73836400 14.28460400 20.92383300
  17.05387400 14.15476100 21.99899800
 


--------------------------------------------------------------------------------------------------------


 k-point  1 :   0.0000 0.0000 0.0000  plane waves:  490521

 maximum and minimum number of plane-waves per node :    490521   490521

 maximum number of plane-waves:    490521
 maximum index in each direction: 
   IXMAX=   48   IYMAX=   48   IZMAX=   48
   IXMIN=  -48   IYMIN=  -48   IZMIN=  -48


 serial   3D FFT for wavefunctions
 parallel 3D FFT for charge:
    minimum data exchange during FFTs selected (reduces bandwidth)


 total amount of memory used by VASP MPI-rank0  5486940. kBytes
=======================================================================

   base      :      30000. kBytes
   nonlr-proj:      17125. kBytes
   fftplans  :     924480. kBytes
   grid      :    1872000. kBytes
   one-center:        886. kBytes
   wavefun   :    2642449. kBytes
 
     INWAV:  cpu time    0.0001: real time    0.0005
 Broyden mixing: mesh for mixing (old mesh)
   NGX = 97   NGY = 97   NGZ = 97
  (NGX  =300   NGY  =300   NGZ  =300)
  gives a total of 912673 points

 initial charge density was supplied:
 charge density of overlapping atoms calculated
 number of electron     560.0000000 magnetization 
 keeping initial charge density in first step


--------------------------------------------------------------------------------------------------------


 Maximum index for non-local projection operator         1763
 Maximum index for augmentation-charges         5898 (set IRDMAX)


--------------------------------------------------------------------------------------------------------


 First call to EWALD:  gamma=   0.059
 Maximum number of real-space cells 3x 3x 3
 Maximum number of reciprocal cells 3x 3x 3

    FEWALD:  cpu time    0.0157: real time    0.0157


--------------------------------------- Iteration      1(   1)  ---------------------------------------


    POTLOK:  cpu time   15.1832: real time   15.1904
    SETDIJ:  cpu time    0.1225: real time    0.1225
     EDDAV:  cpu time  379.5006: real time  379.5680
       DOS:  cpu time    0.0013: real time    0.0013
    --------------------------------------------
      LOOP:  cpu time  394.8076: real time  394.8822

 eigenvalue-minimisations  :   688
 total energy-change (2. order) : 0.4393523E+04  (-0.1004991E+05)
 number of electron     560.0000000 magnetization 
 augmentation part      560.0000000 magnetization 

 Free energy of the ion-electron system (eV)
  ---------------------------------------------------
  alpha Z        PSCENC =        75.25431677
  Ewald energy   TEWEN  =    139416.66594968
  -Hartree energ DENC   =   -182775.83085298
  -exchange      EXHF   =         0.00000000
  -V(xc)+E(xc)   XCENC  =     -1702.58581618
  PAW double counting   =     44873.02882129   -41398.84523641
  entropy T*S    EENTRO =         0.01213119
  eigenvalues    EBANDS =       819.31816838
  atomic energy  EATOM  =     45086.50549395
  Solvation  Ediel_sol  =         0.00000000
  ---------------------------------------------------
  free energy    TOTEN  =      4393.52297568 eV

  energy without entropy =     4393.51084449  energy(sigma->0) =     4393.51994288


--------------------------------------------------------------------------------------------------------




--------------------------------------- Iteration      1(   2)  ---------------------------------------


     EDDAV:  cpu time  603.7791: real time  603.7886
       DOS:  cpu time    0.0012: real time    0.0012
    --------------------------------------------
      LOOP:  cpu time  603.7804: real time  603.7898

 eigenvalue-minimisations  :  1208
 total energy-change (2. order) :-0.2365410E+04  (-0.2126535E+04)
 number of electron     560.0000000 magnetization 
 augmentation part      560.0000000 magnetization 

 Free energy of the ion-electron system (eV)
  ---------------------------------------------------
  alpha Z        PSCENC =        75.25431677
  Ewald energy   TEWEN  =    139416.66594968
  -Hartree energ DENC   =   -182775.83085298
  -exchange      EXHF   =         0.00000000
  -V(xc)+E(xc)   XCENC  =     -1702.58581618
  PAW double counting   =     44873.02882129   -41398.84523641
  entropy T*S    EENTRO =         0.00718147
  eigenvalues    EBANDS =     -1546.08648832
  atomic energy  EATOM  =     45086.50549395
  Solvation  Ediel_sol  =         0.00000000
  ---------------------------------------------------
  free energy    TOTEN  =      2028.11336927 eV

  energy without entropy =     2028.10618780  energy(sigma->0) =     2028.11157390


--------------------------------------------------------------------------------------------------------




--------------------------------------- Iteration      1(   3)  ---------------------------------------


     EDDAV:  cpu time  523.4527: real time  523.4873
       DOS:  cpu time    0.0011: real time    0.0011
    --------------------------------------------
      LOOP:  cpu time  523.4538: real time  523.4883

 eigenvalue-minimisations  :  1024
 total energy-change (2. order) :-0.1793829E+04  (-0.1685327E+04)
 number of electron     560.0000000 magnetization 
 augmentation part      560.0000000 magnetization 

 Free energy of the ion-electron system (eV)
  ---------------------------------------------------
  alpha Z        PSCENC =        75.25431677
  Ewald energy   TEWEN  =    139416.66594968
  -Hartree energ DENC   =   -182775.83085298
  -exchange      EXHF   =         0.00000000
  -V(xc)+E(xc)   XCENC  =     -1702.58581618
  PAW double counting   =     44873.02882129   -41398.84523641
  entropy T*S    EENTRO =        -0.02790708
  eigenvalues    EBANDS =     -3339.88046814
  atomic energy  EATOM  =     45086.50549395
  Solvation  Ediel_sol  =         0.00000000
  ---------------------------------------------------
  free energy    TOTEN  =       234.28430089 eV

  energy without entropy =      234.31220797  energy(sigma->0) =      234.29127766


--------------------------------------------------------------------------------------------------------




--------------------------------------- Iteration      1(   4)  ---------------------------------------


     EDDAV:  cpu time  443.1522: real time  443.1972
       DOS:  cpu time    0.0012: real time    0.0012
    --------------------------------------------
      LOOP:  cpu time  443.1533: real time  443.1983

 eigenvalue-minimisations  :   824
 total energy-change (2. order) :-0.3673626E+03  (-0.3104818E+03)
 number of electron     560.0000000 magnetization 
 augmentation part      560.0000000 magnetization 

 Free energy of the ion-electron system (eV)
  ---------------------------------------------------
  alpha Z        PSCENC =        75.25431677
  Ewald energy   TEWEN  =    139416.66594968
  -Hartree energ DENC   =   -182775.83085298
  -exchange      EXHF   =         0.00000000
  -V(xc)+E(xc)   XCENC  =     -1702.58581618
  PAW double counting   =     44873.02882129   -41398.84523641
  entropy T*S    EENTRO =         0.00673062
  eigenvalues    EBANDS =     -3707.27766684
  atomic energy  EATOM  =     45086.50549395
  Solvation  Ediel_sol  =         0.00000000
  ---------------------------------------------------
  free energy    TOTEN  =      -133.07826010 eV

  energy without entropy =     -133.08499072  energy(sigma->0) =     -133.07994276


--------------------------------------------------------------------------------------------------------




--------------------------------------- Iteration      1(   5)  ---------------------------------------


     EDDAV:  cpu time  544.3178: real time  544.3573
       DOS:  cpu time    0.0014: real time    0.0014
    CHARGE:  cpu time   27.2050: real time   27.2077
    MIXING:  cpu time    0.4418: real time    0.4418
    --------------------------------------------
      LOOP:  cpu time  571.9660: real time  572.0082

 eigenvalue-minimisations  :  1056
 total energy-change (2. order) :-0.4695143E+02  (-0.3859104E+02)
 number of electron     559.9999849 magnetization 
 augmentation part      245.0006689 magnetization 

 Broyden mixing:
  rms(total) = 0.14920E+01    rms(broyden)= 0.14911E+01
  rms(prec ) = 0.15986E+01
  weight for this iteration     100.00

 Free energy of the ion-electron system (eV)
  ---------------------------------------------------
  alpha Z        PSCENC =        75.25431677
  Ewald energy   TEWEN  =    139416.66594968
  -Hartree energ DENC   =   -182775.83085298
  -exchange      EXHF   =         0.00000000
  -V(xc)+E(xc)   XCENC  =     -1702.58581618
  PAW double counting   =     44873.02882129   -41398.84523641
  entropy T*S    EENTRO =         0.54191012
  eigenvalues    EBANDS =     -3754.76427754
  atomic energy  EATOM  =     45086.50549395
  Solvation  Ediel_sol  =         0.00000000
  ---------------------------------------------------
  free energy    TOTEN  =      -180.02969130 eV

  energy without entropy =     -180.57160142  energy(sigma->0) =     -180.16516883


--------------------------------------------------------------------------------------------------------




--------------------------------------- Iteration      1(   6)  ---------------------------------------


    POTLOK:  cpu time   13.2457: real time   13.2468
    SETDIJ:  cpu time    0.1233: real time    0.1233
    EDDIAG:  cpu time   68.4627: real time   68.4664
  RMM-DIIS:  cpu time  204.9124: real time  204.9252
    ORTHCH:  cpu time   13.7907: real time   13.7918
       DOS:  cpu time    0.0014: real time    0.0014
    CHARGE:  cpu time   26.2595: real time   26.2635
    MIXING:  cpu time    0.4801: real time    0.4801
    --------------------------------------------
      LOOP:  cpu time  327.2757: real time  327.2985

 eigenvalue-minimisations  :   736
 total energy-change (2. order) :-0.2679838E+00  (-0.5893759E+01)
 number of electron     559.9999856 magnetization 
 augmentation part      240.4576594 magnetization 

 Broyden mixing:
  rms(total) = 0.21446E+01    rms(broyden)= 0.21443E+01
  rms(prec ) = 0.24450E+01
  weight for this iteration     100.00

 eigenvalues of (default mixing * dielectric matrix)
  average eigenvalue GAMMA=   0.3627
  0.3627

 Free energy of the ion-electron system (eV)
  ---------------------------------------------------
  alpha Z        PSCENC =        75.25431677
  Ewald energy   TEWEN  =    139416.66594968
  -Hartree energ DENC   =   -183172.23532085
  -exchange      EXHF   =         0.00000000
  -V(xc)+E(xc)   XCENC  =     -1696.27168562
  PAW double counting   =     45635.94036069   -42135.40258363
  entropy T*S    EENTRO =        -0.29728945
  eigenvalues    EBANDS =     -3390.45691666
  atomic energy  EATOM  =     45086.50549395
  Solvation  Ediel_sol  =         0.00000000
  ---------------------------------------------------
  free energy    TOTEN  =      -180.29767512 eV

  energy without entropy =     -180.00038567  energy(sigma->0) =     -180.22335276


--------------------------------------------------------------------------------------------------------




--------------------------------------- Iteration      1(   7)  ---------------------------------------


    POTLOK:  cpu time   13.7735: real time   13.7762
    SETDIJ:  cpu time    0.1233: real time    0.1233
    EDDIAG:  cpu time   69.9806: real time   69.9868
  RMM-DIIS:  cpu time  231.9377: real time  231.9555
    ORTHCH:  cpu time   13.7854: real time   13.7877
       DOS:  cpu time    0.0015: real time    0.0015
    CHARGE:  cpu time   26.9812: real time   26.9837
    MIXING:  cpu time    0.4961: real time    0.4961
    --------------------------------------------
      LOOP:  cpu time  357.0792: real time  357.1107

 eigenvalue-minimisations  :   837
 total energy-change (2. order) :-0.2557956E+00  (-0.1956887E+01)
 number of electron     559.9999835 magnetization 
 augmentation part      240.8407128 magnetization 

 Broyden mixing:
  rms(total) = 0.17551E+01    rms(broyden)= 0.17548E+01
  rms(prec ) = 0.20053E+01
  weight for this iteration     100.00

 eigenvalues of (default mixing * dielectric matrix)
  average eigenvalue GAMMA=   0.3948
  0.6033  0.1862

 Free energy of the ion-electron system (eV)
  ---------------------------------------------------
  alpha Z        PSCENC =        75.25431677
  Ewald energy   TEWEN  =    139416.66594968
  -Hartree energ DENC   =   -183268.78946641
  -exchange      EXHF   =         0.00000000
  -V(xc)+E(xc)   XCENC  =     -1696.55955561
  PAW double counting   =     45712.75152061   -42209.47330618
  entropy T*S    EENTRO =        -0.14753884
  eigenvalues    EBANDS =     -3296.76088466
  atomic energy  EATOM  =     45086.50549395
  Solvation  Ediel_sol  =         0.00000000
  ---------------------------------------------------
  free energy    TOTEN  =      -180.55347070 eV

  energy without entropy =     -180.40593186  energy(sigma->0) =     -180.51658599


--------------------------------------------------------------------------------------------------------




--------------------------------------- Iteration      1(   8)  ---------------------------------------


    POTLOK:  cpu time   13.4932: real time   13.4939
    SETDIJ:  cpu time    0.1205: real time    0.1205
    EDDIAG:  cpu time   68.2425: real time   68.2450
  RMM-DIIS:  cpu time  211.2610: real time  211.2824
    ORTHCH:  cpu time   13.9909: real time   13.9924
       DOS:  cpu time    0.0015: real time    0.0015
    CHARGE:  cpu time   26.0392: real time   26.0426
    MIXING:  cpu time    0.5082: real time    0.5082
    --------------------------------------------
      LOOP:  cpu time  333.6570: real time  333.6865

 eigenvalue-minimisations  :   757
 total energy-change (2. order) :-0.2713898E+01  (-0.6816877E+00)
 number of electron     559.9999871 magnetization 
 augmentation part      240.7015641 magnetization 

 Broyden mixing:
  rms(total) = 0.26295E+01    rms(broyden)= 0.26292E+01
  rms(prec ) = 0.32090E+01
  weight for this iteration     100.00

 eigenvalues of (default mixing * dielectric matrix)
  average eigenvalue GAMMA=   0.3355
  0.6925  0.1873  0.1267

 Free energy of the ion-electron system (eV)
  ---------------------------------------------------
  alpha Z        PSCENC =        75.25431677
  Ewald energy   TEWEN  =    139416.66594968
  -Hartree energ DENC   =   -183307.25517086
  -exchange      EXHF   =         0.00000000
  -V(xc)+E(xc)   XCENC  =     -1696.36104885
  PAW double counting   =     45812.38687796   -42305.05397157
  entropy T*S    EENTRO =        -0.11078082
  eigenvalues    EBANDS =     -3265.29903482
  atomic energy  EATOM  =     45086.50549395
  Solvation  Ediel_sol  =         0.00000000
  ---------------------------------------------------
  free energy    TOTEN  =      -183.26736856 eV

  energy without entropy =     -183.15658774  energy(sigma->0) =     -183.23967336


--------------------------------------------------------------------------------------------------------




--------------------------------------- Iteration      1(   9)  ---------------------------------------


    POTLOK:  cpu time   13.3820: real time   13.3836
    SETDIJ:  cpu time    0.1245: real time    0.1245
    EDDIAG:  cpu time   68.7720: real time   68.7783
  RMM-DIIS:  cpu time  211.9302: real time  211.9403
    ORTHCH:  cpu time   13.7048: real time   13.7059
       DOS:  cpu time    0.0015: real time    0.0015
    CHARGE:  cpu time   25.5374: real time   25.5407
    MIXING:  cpu time    0.5527: real time    0.5527
    --------------------------------------------
      LOOP:  cpu time  334.0052: real time  334.0274

 eigenvalue-minimisations  :   765
 total energy-change (2. order) : 0.1812583E+01  (-0.3457355E+00)
 number of electron     559.9999851 magnetization 
 augmentation part      241.2912931 magnetization 

 Broyden mixing:
  rms(total) = 0.25498E+01    rms(broyden)= 0.25495E+01
  rms(prec ) = 0.29545E+01
  weight for this iteration     100.00

 eigenvalues of (default mixing * dielectric matrix)
  average eigenvalue GAMMA=   0.2985
  0.7581  0.1884  0.1637  0.0840

 Free energy of the ion-electron system (eV)
  ---------------------------------------------------
  alpha Z        PSCENC =        75.25431677
  Ewald energy   TEWEN  =    139416.66594968
  -Hartree energ DENC   =   -183330.66430291
  -exchange      EXHF   =         0.00000000
  -V(xc)+E(xc)   XCENC  =     -1696.23395771
  PAW double counting   =     45859.65324330   -42350.49781134
  entropy T*S    EENTRO =        -0.15587103
  eigenvalues    EBANDS =     -3241.98184598
  atomic energy  EATOM  =     45086.50549395
  Solvation  Ediel_sol  =         0.00000000
  ---------------------------------------------------
  free energy    TOTEN  =      -181.45478528 eV

  energy without entropy =     -181.29891424  energy(sigma->0) =     -181.41581752


--------------------------------------------------------------------------------------------------------




--------------------------------------- Iteration      1(  10)  ---------------------------------------


    POTLOK:  cpu time   13.5269: real time   13.5290
    SETDIJ:  cpu time    0.1218: real time    0.1218
    EDDIAG:  cpu time   69.3848: real time   69.3877
  RMM-DIIS:  cpu time  201.0817: real time  201.0895
    ORTHCH:  cpu time   13.7396: real time   13.7397
       DOS:  cpu time    0.0014: real time    0.0014
    CHARGE:  cpu time   25.2412: real time   25.2435
    MIXING:  cpu time    0.5744: real time    0.5744
    --------------------------------------------
      LOOP:  cpu time  323.6719: real time  323.6871

 eigenvalue-minimisations  :   731
 total energy-change (2. order) : 0.2176454E+01  (-0.2524156E+00)
 number of electron     559.9999862 magnetization 
 augmentation part      241.4362609 magnetization 

 Broyden mixing:
  rms(total) = 0.19594E+01    rms(broyden)= 0.19591E+01
  rms(prec ) = 0.23401E+01
  weight for this iteration     100.00

 eigenvalues of (default mixing * dielectric matrix)
  average eigenvalue GAMMA=   0.2756
  0.8066  0.1987  0.1987  0.0870  0.0870

 Free energy of the ion-electron system (eV)
  ---------------------------------------------------
  alpha Z        PSCENC =        75.25431677
  Ewald energy   TEWEN  =    139416.66594968
  -Hartree energ DENC   =   -183357.36713145
  -exchange      EXHF   =         0.00000000
  -V(xc)+E(xc)   XCENC  =     -1696.07957654
  PAW double counting   =     45898.72215766   -42388.01759594
  entropy T*S    EENTRO =        -0.03513910
  eigenvalues    EBANDS =     -3214.92680637
  atomic energy  EATOM  =     45086.50549395
  Solvation  Ediel_sol  =         0.00000000
  ---------------------------------------------------
  free energy    TOTEN  =      -179.27833134 eV

  energy without entropy =     -179.24319224  energy(sigma->0) =     -179.26954657


--------------------------------------------------------------------------------------------------------




--------------------------------------- Iteration      1(  11)  ---------------------------------------


    POTLOK:  cpu time   13.4659: real time   13.4720
    SETDIJ:  cpu time    0.1175: real time    0.1175
    EDDIAG:  cpu time   68.6587: real time   68.6593
  RMM-DIIS:  cpu time  202.3199: real time  202.3246
    ORTHCH:  cpu time   13.3541: real time   13.3557
       DOS:  cpu time    0.0015: real time    0.0015
    CHARGE:  cpu time   25.8850: real time   25.8844
    MIXING:  cpu time    0.6103: real time    0.6103
    --------------------------------------------
      LOOP:  cpu time  324.4130: real time  324.4254

 eigenvalue-minimisations  :   735
 total energy-change (2. order) : 0.1328700E+01  (-0.1486767E+00)
 number of electron     559.9999864 magnetization 
 augmentation part      241.5498385 magnetization 

 Broyden mixing:
  rms(total) = 0.15587E+01    rms(broyden)= 0.15583E+01
  rms(prec ) = 0.18401E+01
  weight for this iteration     100.00

 eigenvalues of (default mixing * dielectric matrix)
  average eigenvalue GAMMA=   0.2696
  0.8586  0.2444  0.2444  0.0996  0.0996  0.0708

 Free energy of the ion-electron system (eV)
  ---------------------------------------------------
  alpha Z        PSCENC =        75.25431677
  Ewald energy   TEWEN  =    139416.66594968
  -Hartree energ DENC   =   -183374.43672050
  -exchange      EXHF   =         0.00000000
  -V(xc)+E(xc)   XCENC  =     -1695.93233708
  PAW double counting   =     45928.75045285   -42416.73324391
  entropy T*S    EENTRO =        -0.04037678
  eigenvalues    EBANDS =     -3197.98316641
  atomic energy  EATOM  =     45086.50549395
  Solvation  Ediel_sol  =         0.00000000
  ---------------------------------------------------
  free energy    TOTEN  =      -177.94963144 eV

  energy without entropy =     -177.90925466  energy(sigma->0) =     -177.93953725


--------------------------------------------------------------------------------------------------------




--------------------------------------- Iteration      1(  12)  ---------------------------------------


    POTLOK:  cpu time   13.5424: real time   13.5430
    SETDIJ:  cpu time    0.1240: real time    0.1240
    EDDIAG:  cpu time   69.9062: real time   69.9053
  RMM-DIIS:  cpu time  198.4772: real time  198.4768
    ORTHCH:  cpu time   13.6542: real time   13.6539
       DOS:  cpu time    0.0015: real time    0.0015
    CHARGE:  cpu time   26.0798: real time   26.0793
    MIXING:  cpu time    0.6679: real time    0.6679
    --------------------------------------------
      LOOP:  cpu time  322.4531: real time  322.4518

 eigenvalue-minimisations  :   726
 total energy-change (2. order) : 0.8517597E+00  (-0.1326823E+00)
 number of electron     559.9999844 magnetization 
 augmentation part      241.6926734 magnetization 

 Broyden mixing:
  rms(total) = 0.14849E+01    rms(broyden)= 0.14846E+01
  rms(prec ) = 0.17935E+01
  weight for this iteration     100.00

 eigenvalues of (default mixing * dielectric matrix)
  average eigenvalue GAMMA=   0.2759
  0.9147  0.3168  0.3168  0.1230  0.1230  0.0685  0.0685

 Free energy of the ion-electron system (eV)
  ---------------------------------------------------
  alpha Z        PSCENC =        75.25431677
  Ewald energy   TEWEN  =    139416.66594968
  -Hartree energ DENC   =   -183396.46279044
  -exchange      EXHF   =         0.00000000
  -V(xc)+E(xc)   XCENC  =     -1695.69968970
  PAW double counting   =     45963.69744159   -42450.08330529
  entropy T*S    EENTRO =         0.02463425
  eigenvalues    EBANDS =     -3176.99992259
  atomic energy  EATOM  =     45086.50549395
  Solvation  Ediel_sol  =         0.00000000
  ---------------------------------------------------
  free energy    TOTEN  =      -177.09787178 eV

  energy without entropy =     -177.12250603  energy(sigma->0) =     -177.10403034


--------------------------------------------------------------------------------------------------------




--------------------------------------- Iteration      1(  13)  ---------------------------------------


    POTLOK:  cpu time   13.3296: real time   13.3316
    SETDIJ:  cpu time    0.1214: real time    0.1214
    EDDIAG:  cpu time   68.7969: real time   68.7961
  RMM-DIIS:  cpu time  198.9040: real time  198.9037
    ORTHCH:  cpu time   13.4726: real time   13.4723
       DOS:  cpu time    0.0015: real time    0.0015
    CHARGE:  cpu time   25.5323: real time   25.5317
    MIXING:  cpu time    0.6801: real time    0.6801
    --------------------------------------------
      LOOP:  cpu time  320.8384: real time  320.8384

 eigenvalue-minimisations  :   724
 total energy-change (2. order) :-0.5570387E+00  (-0.1120661E+00)
 number of electron     559.9999836 magnetization 
 augmentation part      241.4618997 magnetization 

 Broyden mixing:
  rms(total) = 0.18963E+01    rms(broyden)= 0.18961E+01
  rms(prec ) = 0.22889E+01
  weight for this iteration     100.00

 eigenvalues of (default mixing * dielectric matrix)
  average eigenvalue GAMMA=   0.2869
  1.0069  0.5257  0.2824  0.1353  0.1353  0.0749  0.0749  0.0600

 Free energy of the ion-electron system (eV)
  ---------------------------------------------------
  alpha Z        PSCENC =        75.25431677
  Ewald energy   TEWEN  =    139416.66594968
  -Hartree energ DENC   =   -183428.78103899
  -exchange      EXHF   =         0.00000000
  -V(xc)+E(xc)   XCENC  =     -1695.38785371
  PAW double counting   =     46006.48132392   -42490.83642719
  entropy T*S    EENTRO =         0.03013610
  eigenvalues    EBANDS =     -3147.58681101
  atomic energy  EATOM  =     45086.50549395
  Solvation  Ediel_sol  =         0.00000000
  ---------------------------------------------------
  free energy    TOTEN  =      -177.65491048 eV

  energy without entropy =     -177.68504658  energy(sigma->0) =     -177.66244451


--------------------------------------------------------------------------------------------------------




--------------------------------------- Iteration      1(  14)  ---------------------------------------


    POTLOK:  cpu time   13.3439: real time   13.3443
    SETDIJ:  cpu time    0.1211: real time    0.1211
    EDDIAG:  cpu time   69.2893: real time   69.2908
  RMM-DIIS:  cpu time  197.8881: real time  197.8868
    ORTHCH:  cpu time   13.6591: real time   13.6588
       DOS:  cpu time    0.0015: real time    0.0015
    CHARGE:  cpu time   25.6327: real time   25.6321
    MIXING:  cpu time    0.7212: real time    0.7212
    --------------------------------------------
      LOOP:  cpu time  320.6569: real time  320.6566

 eigenvalue-minimisations  :   720
 total energy-change (2. order) : 0.8503674E-01  (-0.1131026E+00)
 number of electron     559.9999831 magnetization 
 augmentation part      241.2573793 magnetization 

 Broyden mixing:
  rms(total) = 0.20413E+01    rms(broyden)= 0.20410E+01
  rms(prec ) = 0.23993E+01
  weight for this iteration     100.00

 eigenvalues of (default mixing * dielectric matrix)
  average eigenvalue GAMMA=   0.2845
  1.1157  0.5969  0.2832  0.1382  0.1382  0.0839  0.0839  0.0601  0.0601

 Free energy of the ion-electron system (eV)
  ---------------------------------------------------
  alpha Z        PSCENC =        75.25431677
  Ewald energy   TEWEN  =    139416.66594968
  -Hartree energ DENC   =   -183463.48054064
  -exchange      EXHF   =         0.00000000
  -V(xc)+E(xc)   XCENC  =     -1694.97641044
  PAW double counting   =     46058.39676010   -42540.29156157
  entropy T*S    EENTRO =         0.02463115
  eigenvalues    EBANDS =     -3115.66851274
  atomic energy  EATOM  =     45086.50549395
  Solvation  Ediel_sol  =         0.00000000
  ---------------------------------------------------
  free energy    TOTEN  =      -177.56987374 eV

  energy without entropy =     -177.59450489  energy(sigma->0) =     -177.57603153


--------------------------------------------------------------------------------------------------------




--------------------------------------- Iteration      1(  15)  ---------------------------------------


    POTLOK:  cpu time   13.5335: real time   13.5338
    SETDIJ:  cpu time    0.1221: real time    0.1221
    EDDIAG:  cpu time   69.5711: real time   69.5718
  RMM-DIIS:  cpu time  194.9035: real time  194.9015
    ORTHCH:  cpu time   13.5859: real time   13.5856
       DOS:  cpu time    0.0015: real time    0.0015
    CHARGE:  cpu time   25.5015: real time   25.5009
    MIXING:  cpu time    0.8140: real time    0.8139
    --------------------------------------------
      LOOP:  cpu time  318.0332: real time  318.0312

 eigenvalue-minimisations  :   712
 total energy-change (2. order) : 0.8958277E+00  (-0.9673005E-01)
 number of electron     559.9999850 magnetization 
 augmentation part      241.3126143 magnetization 

 Broyden mixing:
  rms(total) = 0.12474E+01    rms(broyden)= 0.12471E+01
  rms(prec ) = 0.14263E+01
  weight for this iteration     100.00

 eigenvalues of (default mixing * dielectric matrix)
  average eigenvalue GAMMA=   0.2918
  1.2774  0.6730  0.2391  0.1933  0.1261  0.1261  0.0804  0.0804  0.0642  0.0578

 Free energy of the ion-electron system (eV)
  ---------------------------------------------------
  alpha Z        PSCENC =        75.25431677
  Ewald energy   TEWEN  =    139416.66594968
  -Hartree energ DENC   =   -183482.86259142
  -exchange      EXHF   =         0.00000000
  -V(xc)+E(xc)   XCENC  =     -1694.67277019
  PAW double counting   =     46093.47060410   -42573.67387824
  entropy T*S    EENTRO =        -0.05897682
  eigenvalues    EBANDS =     -3097.30219386
  atomic energy  EATOM  =     45086.50549395
  Solvation  Ediel_sol  =         0.00000000
  ---------------------------------------------------
  free energy    TOTEN  =      -176.67404603 eV

  energy without entropy =     -176.61506921  energy(sigma->0) =     -176.65930182


--------------------------------------------------------------------------------------------------------




--------------------------------------- Iteration      1(  16)  ---------------------------------------


    POTLOK:  cpu time   13.4676: real time   13.4681
    SETDIJ:  cpu time    0.1243: real time    0.1243
    EDDIAG:  cpu time   69.4066: real time   69.4055
  RMM-DIIS:  cpu time  193.0125: real time  193.0158
    ORTHCH:  cpu time   13.5522: real time   13.5519
       DOS:  cpu time    0.0015: real time    0.0015
    CHARGE:  cpu time   25.4568: real time   25.4564
    MIXING:  cpu time    0.8216: real time    0.8216
    --------------------------------------------
      LOOP:  cpu time  315.8430: real time  315.8450

 eigenvalue-minimisations  :   706
 total energy-change (2. order) : 0.1535883E+00  (-0.8030625E-01)
 number of electron     559.9999865 magnetization 
 augmentation part      241.2904829 magnetization 

 Broyden mixing:
  rms(total) = 0.14478E+01    rms(broyden)= 0.14475E+01
  rms(prec ) = 0.17557E+01
  weight for this iteration     100.00

 eigenvalues of (default mixing * dielectric matrix)
  average eigenvalue GAMMA=   0.2945
  1.3767  0.7157  0.2672  0.2672  0.1279  0.1279  0.0854  0.0854  0.0737  0.0601
  0.0520

 Free energy of the ion-electron system (eV)
  ---------------------------------------------------
  alpha Z        PSCENC =        75.25431677
  Ewald energy   TEWEN  =    139416.66594968
  -Hartree energ DENC   =   -183508.10061170
  -exchange      EXHF   =         0.00000000
  -V(xc)+E(xc)   XCENC  =     -1694.27095863
  PAW double counting   =     46133.82621246   -42611.97535527
  entropy T*S    EENTRO =         0.08058297
  eigenvalues    EBANDS =     -3074.50608792
  atomic energy  EATOM  =     45086.50549395
  Solvation  Ediel_sol  =         0.00000000
  ---------------------------------------------------
  free energy    TOTEN  =      -176.52045770 eV

  energy without entropy =     -176.60104067  energy(sigma->0) =     -176.54060344


--------------------------------------------------------------------------------------------------------




--------------------------------------- Iteration      1(  17)  ---------------------------------------


    POTLOK:  cpu time   13.3984: real time   13.4017
    SETDIJ:  cpu time    0.1206: real time    0.1206
    EDDIAG:  cpu time   68.7223: real time   68.7220
  RMM-DIIS:  cpu time  195.5537: real time  195.5531
    ORTHCH:  cpu time   13.4376: real time   13.4374
       DOS:  cpu time    0.0015: real time    0.0015
    CHARGE:  cpu time   25.4123: real time   25.4120
    MIXING:  cpu time    0.8918: real time    0.8918
    --------------------------------------------
      LOOP:  cpu time  317.5382: real time  317.5402

 eigenvalue-minimisations  :   714
 total energy-change (2. order) : 0.2909582E+00  (-0.4676675E-01)
 number of electron     559.9999867 magnetization 
 augmentation part      241.2526795 magnetization 

 Broyden mixing:
  rms(total) = 0.13301E+01    rms(broyden)= 0.13299E+01
  rms(prec ) = 0.15802E+01
  weight for this iteration     100.00

 eigenvalues of (default mixing * dielectric matrix)
  average eigenvalue GAMMA=   0.3073
  1.5038  0.8067  0.3299  0.3299  0.1361  0.1361  0.0999  0.0999  0.0696  0.0696
  0.0591  0.0465

 Free energy of the ion-electron system (eV)
  ---------------------------------------------------
  alpha Z        PSCENC =        75.25431677
  Ewald energy   TEWEN  =    139416.66594968
  -Hartree energ DENC   =   -183527.71041097
  -exchange      EXHF   =         0.00000000
  -V(xc)+E(xc)   XCENC  =     -1694.01265254
  PAW double counting   =     46157.20506975   -42634.02295265
  entropy T*S    EENTRO =         0.06510256
  eigenvalues    EBANDS =     -3056.17941606
  atomic energy  EATOM  =     45086.50549395
  Solvation  Ediel_sol  =         0.00000000
  ---------------------------------------------------
  free energy    TOTEN  =      -176.22949952 eV

  energy without entropy =     -176.29460208  energy(sigma->0) =     -176.24577516


--------------------------------------------------------------------------------------------------------




--------------------------------------- Iteration      1(  18)  ---------------------------------------


    POTLOK:  cpu time   13.3363: real time   13.3367
    SETDIJ:  cpu time    0.1224: real time    0.1223
    EDDIAG:  cpu time   69.3766: real time   69.3768
  RMM-DIIS:  cpu time  191.2770: real time  191.2763
    ORTHCH:  cpu time   13.4185: real time   13.4182
       DOS:  cpu time    0.0014: real time    0.0014
    CHARGE:  cpu time   25.6709: real time   25.6704
    MIXING:  cpu time    0.9260: real time    0.9260
    --------------------------------------------
      LOOP:  cpu time  314.1290: real time  314.1281

 eigenvalue-minimisations  :   698
 total energy-change (2. order) : 0.3092676E+00  (-0.4871853E-01)
 number of electron     559.9999857 magnetization 
 augmentation part      241.1485497 magnetization 

 Broyden mixing:
  rms(total) = 0.93101E+00    rms(broyden)= 0.93081E+00
  rms(prec ) = 0.10535E+01
  weight for this iteration     100.00

 eigenvalues of (default mixing * dielectric matrix)
  average eigenvalue GAMMA=   0.3197
  1.6486  0.8848  0.3942  0.3942  0.1364  0.1364  0.1076  0.1076  0.1015  0.0692
  0.0692  0.0607  0.0463

 Free energy of the ion-electron system (eV)
  ---------------------------------------------------
  alpha Z        PSCENC =        75.25431677
  Ewald energy   TEWEN  =    139416.66594968
  -Hartree energ DENC   =   -183552.72448029
  -exchange      EXHF   =         0.00000000
  -V(xc)+E(xc)   XCENC  =     -1693.69290786
  PAW double counting   =     46182.25171276   -42657.43955718
  entropy T*S    EENTRO =        -0.00006538
  eigenvalues    EBANDS =     -3032.74069441
  atomic energy  EATOM  =     45086.50549395
  Solvation  Ediel_sol  =         0.00000000
  ---------------------------------------------------
  free energy    TOTEN  =      -175.92023196 eV

  energy without entropy =     -175.92016658  energy(sigma->0) =     -175.92021562


--------------------------------------------------------------------------------------------------------




--------------------------------------- Iteration      1(  19)  ---------------------------------------


    POTLOK:  cpu time   13.3624: real time   13.3630
    SETDIJ:  cpu time    0.1210: real time    0.1211
    EDDIAG:  cpu time   69.7749: real time   69.7748
  RMM-DIIS:  cpu time  192.3511: real time  192.3509
    ORTHCH:  cpu time   13.6928: real time   13.6925
       DOS:  cpu time    0.0015: real time    0.0015
    CHARGE:  cpu time   26.0474: real time   26.0469
    MIXING:  cpu time    1.0542: real time    1.0542
    --------------------------------------------
      LOOP:  cpu time  316.4054: real time  316.4049

 eigenvalue-minimisations  :   699
 total energy-change (2. order) : 0.2824939E+00  (-0.3919556E-01)
 number of electron     559.9999871 magnetization 
 augmentation part      241.1357904 magnetization 

 Broyden mixing:
  rms(total) = 0.68793E+00    rms(broyden)= 0.68769E+00
  rms(prec ) = 0.78843E+00
  weight for this iteration     100.00

 eigenvalues of (default mixing * dielectric matrix)
  average eigenvalue GAMMA=   0.3386
  1.8128  1.0685  0.4260  0.4260  0.1708  0.1353  0.1353  0.1253  0.0992  0.0992
  0.0681  0.0681  0.0592  0.0463

 Free energy of the ion-electron system (eV)
  ---------------------------------------------------
  alpha Z        PSCENC =        75.25431677
  Ewald energy   TEWEN  =    139416.66594968
  -Hartree energ DENC   =   -183576.45513304
  -exchange      EXHF   =         0.00000000
  -V(xc)+E(xc)   XCENC  =     -1693.40564244
  PAW double counting   =     46200.65562400   -42674.38214772
  entropy T*S    EENTRO =         0.02279881
  eigenvalues    EBANDS =     -3010.49899809
  atomic energy  EATOM  =     45086.50549395
  Solvation  Ediel_sol  =         0.00000000
  ---------------------------------------------------
  free energy    TOTEN  =      -175.63773809 eV

  energy without entropy =     -175.66053690  energy(sigma->0) =     -175.64343779


--------------------------------------------------------------------------------------------------------




--------------------------------------- Iteration      1(  20)  ---------------------------------------


    POTLOK:  cpu time   13.2363: real time   13.2369
    SETDIJ:  cpu time    0.1217: real time    0.1217
    EDDIAG:  cpu time   69.2311: real time   69.2305
  RMM-DIIS:  cpu time  195.4720: real time  195.4733
    ORTHCH:  cpu time   13.5381: real time   13.5379
       DOS:  cpu time    0.0015: real time    0.0014
    CHARGE:  cpu time   25.8930: real time   25.8926
    MIXING:  cpu time    1.0563: real time    1.0563
    --------------------------------------------
      LOOP:  cpu time  318.5500: real time  318.5506

 eigenvalue-minimisations  :   704
 total energy-change (2. order) : 0.8045202E-01  (-0.3124719E-01)
 number of electron     559.9999845 magnetization 
 augmentation part      241.0203114 magnetization 

 Broyden mixing:
  rms(total) = 0.68678E+00    rms(broyden)= 0.68656E+00
  rms(prec ) = 0.80805E+00
  weight for this iteration     100.00

 eigenvalues of (default mixing * dielectric matrix)
  average eigenvalue GAMMA=   0.3498
  1.9742  1.1717  0.4866  0.3374  0.3374  0.1372  0.1372  0.1065  0.1065  0.1051
  0.1051  0.0682  0.0682  0.0597  0.0462

 Free energy of the ion-electron system (eV)
  ---------------------------------------------------
  alpha Z        PSCENC =        75.25431677
  Ewald energy   TEWEN  =    139416.66594968
  -Hartree energ DENC   =   -183609.69736928
  -exchange      EXHF   =         0.00000000
  -V(xc)+E(xc)   XCENC  =     -1693.06709935
  PAW double counting   =     46217.10487499   -42689.15428004
  entropy T*S    EENTRO =        -0.02563879
  eigenvalues    EBANDS =     -2979.14353400
  atomic energy  EATOM  =     45086.50549395
  Solvation  Ediel_sol  =         0.00000000
  ---------------------------------------------------
  free energy    TOTEN  =      -175.55728607 eV

  energy without entropy =     -175.53164728  energy(sigma->0) =     -175.55087637


--------------------------------------------------------------------------------------------------------




--------------------------------------- Iteration      1(  21)  ---------------------------------------


    POTLOK:  cpu time   13.5207: real time   13.5213
    SETDIJ:  cpu time    0.1252: real time    0.1252
    EDDIAG:  cpu time   69.5343: real time   69.5340
  RMM-DIIS:  cpu time  196.6871: real time  196.6869
    ORTHCH:  cpu time   13.6666: real time   13.6664
       DOS:  cpu time    0.0015: real time    0.0015
    CHARGE:  cpu time   26.1109: real time   26.1105
    MIXING:  cpu time    1.1504: real time    1.1504
    --------------------------------------------
      LOOP:  cpu time  320.7967: real time  320.7961

 eigenvalue-minimisations  :   718
 total energy-change (2. order) :-0.1578587E+00  (-0.2314817E-01)
 number of electron     559.9999854 magnetization 
 augmentation part      241.0514300 magnetization 

 Broyden mixing:
  rms(total) = 0.10296E+01    rms(broyden)= 0.10294E+01
  rms(prec ) = 0.12376E+01
  weight for this iteration     100.00

 eigenvalues of (default mixing * dielectric matrix)
  average eigenvalue GAMMA=   0.3510
  2.0000  1.2775  0.5277  0.3862  0.3862  0.1359  0.1359  0.1321  0.1321  0.0989
  0.0989  0.0680  0.0680  0.0462  0.0602  0.0628

 Free energy of the ion-electron system (eV)
  ---------------------------------------------------
  alpha Z        PSCENC =        75.25431677
  Ewald energy   TEWEN  =    139416.66594968
  -Hartree energ DENC   =   -183627.23880362
  -exchange      EXHF   =         0.00000000
  -V(xc)+E(xc)   XCENC  =     -1692.85075971
  PAW double counting   =     46221.46743809   -42692.55396229
  entropy T*S    EENTRO =         0.01825970
  eigenvalues    EBANDS =     -2962.98307735
  atomic energy  EATOM  =     45086.50549395
  Solvation  Ediel_sol  =         0.00000000
  ---------------------------------------------------
  free energy    TOTEN  =      -175.71514478 eV

  energy without entropy =     -175.73340448  energy(sigma->0) =     -175.71970970


--------------------------------------------------------------------------------------------------------




--------------------------------------- Iteration      1(  22)  ---------------------------------------


    POTLOK:  cpu time   13.6615: real time   13.6621
    SETDIJ:  cpu time    0.1208: real time    0.1208
    EDDIAG:  cpu time   70.9108: real time   70.9102
  RMM-DIIS:  cpu time  191.6704: real time  191.6706
    ORTHCH:  cpu time   13.7166: real time   13.7164
       DOS:  cpu time    0.0015: real time    0.0015
    CHARGE:  cpu time   25.9929: real time   25.9924
    MIXING:  cpu time    1.1941: real time    1.1941
    --------------------------------------------
      LOOP:  cpu time  317.2685: real time  317.2680

 eigenvalue-minimisations  :   701
 total energy-change (2. order) : 0.2456523E+00  (-0.1565645E-01)
 number of electron     559.9999861 magnetization 
 augmentation part      241.0256816 magnetization 

 Broyden mixing:
  rms(total) = 0.63226E+00    rms(broyden)= 0.63208E+00
  rms(prec ) = 0.72234E+00
  weight for this iteration     100.00

 eigenvalues of (default mixing * dielectric matrix)
  average eigenvalue GAMMA=   0.3513
  2.0871  1.3188  0.6123  0.3991  0.3991  0.1344  0.1344  0.1495  0.1174  0.1174
  0.1012  0.1012  0.0679  0.0679  0.0462  0.0587  0.0587

 Free energy of the ion-electron system (eV)
  ---------------------------------------------------
  alpha Z        PSCENC =        75.25431677
  Ewald energy   TEWEN  =    139416.66594968
  -Hartree energ DENC   =   -183638.02320034
  -exchange      EXHF   =         0.00000000
  -V(xc)+E(xc)   XCENC  =     -1692.75484892
  PAW double counting   =     46219.17337296   -42689.95075234
  entropy T*S    EENTRO =        -0.00643071
  eigenvalues    EBANDS =     -2952.33339356
  atomic energy  EATOM  =     45086.50549395
  Solvation  Ediel_sol  =         0.00000000
  ---------------------------------------------------
  free energy    TOTEN  =      -175.46949251 eV

  energy without entropy =     -175.46306180  energy(sigma->0) =     -175.46788483


--------------------------------------------------------------------------------------------------------




--------------------------------------- Iteration      1(  23)  ---------------------------------------


    POTLOK:  cpu time   13.4229: real time   13.4239
    SETDIJ:  cpu time    0.1210: real time    0.1210
    EDDIAG:  cpu time   70.0408: real time   70.0401
  RMM-DIIS:  cpu time  189.2589: real time  189.2592
    ORTHCH:  cpu time   13.5927: real time   13.5924
       DOS:  cpu time    0.0015: real time    0.0015
    CHARGE:  cpu time   25.8181: real time   25.8175
    MIXING:  cpu time    1.3049: real time    1.3048
    --------------------------------------------
      LOOP:  cpu time  313.5608: real time  313.5604

 eigenvalue-minimisations  :   694
 total energy-change (2. order) : 0.1123533E+00  (-0.1310239E-01)
 number of electron     559.9999864 magnetization 
 augmentation part      241.1195670 magnetization 

 Broyden mixing:
  rms(total) = 0.43796E+00    rms(broyden)= 0.43780E+00
  rms(prec ) = 0.52249E+00
  weight for this iteration     100.00

 eigenvalues of (default mixing * dielectric matrix)
  average eigenvalue GAMMA=   0.3564
[...]
 -0.007  -0.012   0.004   0.004   0.005  -0.006  -0.012   0.004
 -0.011  -0.020   0.006   0.007   0.009  -0.011  -0.020   0.006
 -0.015  -0.005   0.013   0.000   0.022  -0.014  -0.004   0.012
  0.000  -0.023  -0.006  -0.015  -0.000   0.000  -0.022  -0.005
 -0.022   0.000   0.009  -0.005  -0.016  -0.022   0.000   0.008
 -0.017  -0.006   0.015   0.000   0.027  -0.017  -0.006   0.015
  0.000  -0.028  -0.007  -0.018  -0.000   0.000  -0.027  -0.007
 -0.027   0.000   0.010  -0.006  -0.019  -0.026   0.000   0.010
 total augmentation occupancy for first ion, spin component:           1
  1.532  -0.030   0.005   0.015   0.024   0.078  -0.008  -0.002   0.036  -0.010   0.093  -0.032   0.012   0.002   0.003  -0.019
 -0.030   1.395   0.030   0.072  -0.001  -0.007   0.074   0.011  -0.014  -0.007   0.222  -0.066   0.019   0.003   0.003  -0.006
  0.005   0.030   1.539   0.003   0.002  -0.002   0.012   0.075  -0.013   0.017  -0.052   0.017  -0.003  -0.007  -0.005   0.016
  0.015   0.072   0.003   1.337   0.044   0.034  -0.013  -0.013   0.092  -0.023  -0.080   0.021  -0.001  -0.009  -0.004   0.001
  0.024  -0.001   0.002   0.044   1.437  -0.010  -0.008   0.016  -0.022   0.069  -0.093   0.030  -0.002  -0.010  -0.010   0.027
  0.078  -0.007  -0.002   0.034  -0.010   0.218   0.019  -0.002  -0.045   0.004  -0.048   0.002   0.017  -0.010   0.034  -0.004
 -0.008   0.074   0.012  -0.013  -0.008   0.019   0.263  -0.023  -0.003   0.006  -0.110   0.007  -0.001   0.051  -0.010  -0.000
 -0.002   0.011   0.075  -0.013   0.016  -0.002  -0.023   0.216   0.014  -0.020   0.028  -0.001  -0.012   0.009  -0.018   0.003
  0.036  -0.014  -0.013   0.092  -0.022  -0.045  -0.003   0.014   0.262   0.007   0.043  -0.004  -0.009   0.036   0.004   0.000
 -0.010  -0.007   0.017  -0.023   0.069   0.004   0.006  -0.020   0.007   0.259   0.046  -0.003  -0.038   0.002   0.049   0.007
  0.093   0.222  -0.052  -0.080  -0.093  -0.048  -0.110   0.028   0.043   0.046   0.948  -0.141   0.084   0.013   0.064  -0.013
 -0.032  -0.066   0.017   0.021   0.030   0.002   0.007  -0.001  -0.004  -0.003  -0.141   0.023  -0.014  -0.003  -0.010   0.003
  0.012   0.019  -0.003  -0.001  -0.002   0.017  -0.001  -0.012  -0.009  -0.038   0.084  -0.014   0.029  -0.008  -0.004  -0.003
  0.002   0.003  -0.007  -0.009  -0.010  -0.010   0.051   0.009   0.036   0.002   0.013  -0.003  -0.008   0.035   0.004   0.000
  0.003   0.003  -0.005  -0.004  -0.010   0.034  -0.010  -0.018   0.004   0.049   0.064  -0.010  -0.004   0.004   0.034  -0.000
 -0.019  -0.006   0.016   0.001   0.027  -0.004  -0.000   0.003   0.000   0.007  -0.013   0.003  -0.003   0.000  -0.000   0.001
  0.001  -0.028  -0.007  -0.018   0.001   0.001  -0.008  -0.001  -0.006  -0.000  -0.003   0.001   0.000  -0.003  -0.000   0.000
 -0.028   0.001   0.012  -0.005  -0.019  -0.006   0.001   0.003  -0.001  -0.007  -0.008   0.001  -0.000  -0.000  -0.003   0.000


------------------------ aborting loop because EDIFF is reached ----------------------------------------


    CHARGE:  cpu time   25.4439: real time   25.4439
    FORLOC:  cpu time    6.8510: real time    6.8510
    FORNL :  cpu time   67.1816: real time   67.1838
    STRESS:  cpu time  212.9847: real time  213.0051
    FORCOR:  cpu time   22.7150: real time   22.7162
    FORHAR:  cpu time    9.7239: real time    9.7250
    MIXING:  cpu time    3.8717: real time    3.8717
    OFIELD:  cpu time    0.0000: real time    0.0000

  FORCE on cell =-STRESS in cart. coord.  units (eV):
  Direction    XX          YY          ZZ          XY          YZ          ZX
  --------------------------------------------------------------------------------------
  Alpha Z    75.25432    75.25432    75.25432
  Ewald   45276.81188 44844.99743 49294.75072   -97.47079  -436.12840   905.75766
  Hartree 60088.48816 59765.01927 63927.75614   -83.51115  -377.44948   834.03517
  E(xc)   -2904.78056 -2906.37647 -2904.62768    -0.17833    -0.54562     0.44513
  Local  ************************************   178.26990   806.78639 -1728.18909
  n-local  -881.82006  -884.15900  -890.71474     0.60933    -0.30565    -1.99706
  augment  4100.03439  4106.77292  4104.04987     0.52978     1.82007    -1.12678
  Kinetic  7804.37228  7819.53664  7798.60324     1.85381     5.69955    -7.64273
  Fock        0.00000     0.00000     0.00000     0.00000     0.00000     0.00000
  -------------------------------------------------------------------------------------
  Total    -116.19908  -113.25907  -107.31255     0.10255    -0.12315     1.28230
  in kB      -6.89524    -6.72078    -6.36792     0.00609    -0.00731     0.07609
  external pressure =       -6.66 kB  Pullay stress =        0.00 kB


 VOLUME and BASIS-vectors are now :
 -----------------------------------------------------------------------------
  energy-cutoff  :      400.00
  volume of cell :    27000.00
      direct lattice vectors                 reciprocal lattice vectors
    30.000000000  0.000000000  0.000000000     0.033333333  0.000000000  0.000000000
     0.000000000 30.000000000  0.000000000     0.000000000  0.033333333  0.000000000
     0.000000000  0.000000000 30.000000000     0.000000000  0.000000000  0.033333333

  length of vectors
    30.000000000 30.000000000 30.000000000     0.033333333  0.033333333  0.033333333


 FORCES acting on ions
    electron-ion (+dipol)            ewald-force                    non-local-force                 convergence-correction
 -----------------------------------------------------------------------------------------------
   0.397E+03 0.975E+03 0.424E+03   -.395E+03 -.972E+03 -.424E+03   -.148E+01 -.184E+01 -.200E+00   -.449E-02 0.445E-03 0.498E-04
   -.974E+03 -.397E+03 0.427E+03   0.972E+03 0.395E+03 -.426E+03   0.182E+01 0.148E+01 -.191E+00   -.417E-02 -.134E-02 -.265E-02
   -.393E+03 0.976E+03 0.426E+03   0.391E+03 -.973E+03 -.426E+03   0.149E+01 -.182E+01 -.201E+00   0.542E-02 0.105E-02 -.170E-03
   0.975E+03 -.395E+03 0.422E+03   -.972E+03 0.393E+03 -.421E+03   -.184E+01 0.150E+01 -.221E+00   -.152E-02 -.330E-02 -.103E-02
   0.156E+01 0.588E+03 0.970E+03   -.156E+01 -.587E+03 -.966E+03   -.209E-03 -.312E+00 -.235E+01   0.196E-02 0.823E-02 -.469E-02
   0.500E+02 0.658E+03 -.919E+03   -.502E+02 -.658E+03 0.916E+03   0.882E-01 -.134E+00 0.233E+01   0.126E-01 -.212E-02 0.653E-03
   0.346E+01 0.114E+04 0.114E+02   -.345E+01 -.114E+04 -.113E+02   -.103E-01 -.310E+01 -.366E-01   0.239E-02 -.253E-02 0.425E-02
   0.114E+04 -.808E+00 0.622E+01   -.114E+04 0.799E+00 -.621E+01   -.311E+01 0.528E-02 -.295E-02   -.230E-02 -.433E-03 -.913E-03
   -.114E+04 -.200E+01 0.159E+02   0.114E+04 0.196E+01 -.158E+02   0.311E+01 0.195E-01 -.662E-01   -.580E-02 0.332E-02 -.497E-02
   0.240E+01 -.114E+04 0.779E+01   -.239E+01 0.114E+04 -.776E+01   -.812E-02 0.311E+01 -.143E-01   0.649E-02 -.200E-02 -.710E-02
   -.579E+03 0.580E+03 0.818E+03   0.576E+03 -.577E+03 -.815E+03   0.156E+01 -.156E+01 -.220E+01   0.872E-02 0.126E-01 -.223E-02
   -.626E+03 0.664E+03 -.752E+03   0.624E+03 -.662E+03 0.749E+03   0.147E+01 -.140E+01 0.224E+01   0.346E-02 0.144E-02 -.369E-02
   0.580E+03 -.580E+03 0.816E+03   -.578E+03 0.577E+03 -.812E+03   -.156E+01 0.155E+01 -.221E+01   0.473E-02 0.101E-02 -.276E-02
   0.599E+03 -.594E+03 -.804E+03   -.596E+03 0.592E+03 0.801E+03   -.158E+01 0.158E+01 0.221E+01   -.945E-02 0.321E-02 0.176E-02
   0.581E+03 0.579E+03 0.816E+03   -.578E+03 -.577E+03 -.813E+03   -.156E+01 -.155E+01 -.221E+01   -.351E-02 0.390E-02 -.110E-02
   0.609E+03 0.593E+03 -.801E+03   -.606E+03 -.591E+03 0.798E+03   -.157E+01 -.157E+01 0.222E+01   -.100E-02 -.471E-02 0.371E-02
   -.578E+03 -.580E+03 0.817E+03   0.576E+03 0.578E+03 -.814E+03   0.155E+01 0.156E+01 -.221E+01   0.306E-02 -.697E-02 0.631E-02
   -.596E+03 -.632E+03 -.789E+03   0.594E+03 0.629E+03 0.785E+03   0.154E+01 0.154E+01 0.226E+01   0.102E-01 -.195E-02 -.475E-02
   0.408E+03 0.988E+03 -.399E+03   -.406E+03 -.985E+03 0.399E+03   -.154E+01 -.183E+01 0.199E+00   0.512E-02 -.355E-02 -.125E-03
   -.994E+03 -.412E+03 -.386E+03   0.991E+03 0.409E+03 0.385E+03   0.188E+01 0.162E+01 0.204E+00   0.230E-02 -.438E-02 -.929E-02
   -.320E+03 0.322E+03 0.467E+03   0.321E+03 -.323E+03 -.468E+03   -.355E+00 0.354E+00 0.546E+00   0.104E-01 0.159E-01 -.417E-02
   0.976E+03 0.394E+03 0.422E+03   -.973E+03 -.392E+03 -.422E+03   -.184E+01 -.150E+01 -.212E+00   -.196E-02 -.284E-03 -.524E-03
   -.393E+03 -.976E+03 0.424E+03   0.391E+03 0.973E+03 -.423E+03   0.150E+01 0.183E+01 -.204E+00   0.699E-02 -.620E-02 -.230E-02
   -.392E+03 0.999E+03 -.389E+03   0.390E+03 -.996E+03 0.389E+03   0.152E+01 -.181E+01 0.281E+00   0.733E-02 0.242E-02 0.496E-02
   0.985E+03 -.399E+03 -.407E+03   -.982E+03 0.397E+03 0.406E+03   -.184E+01 0.151E+01 0.211E+00   -.102E-01 0.372E-03 -.456E-02
   -.975E+03 0.395E+03 0.428E+03   0.972E+03 -.393E+03 -.427E+03   0.182E+01 -.148E+01 -.197E+00   0.238E-02 0.154E-01 -.174E-02
   0.397E+03 -.975E+03 0.422E+03   -.394E+03 0.972E+03 -.422E+03   -.149E+01 0.184E+01 -.218E+00   0.960E-02 0.113E-02 -.215E-02
   0.326E+03 0.322E+03 0.464E+03   -.326E+03 -.322E+03 -.465E+03   0.374E+00 0.368E+00 0.521E+00   -.155E-03 0.598E-02 -.296E-02
   0.673E+01 0.647E+03 0.225E+02   -.672E+01 -.648E+03 -.224E+02   -.179E-01 0.702E+00 -.548E-01   0.450E-02 0.365E-02 0.264E-02
   -.587E+03 -.719E+00 0.971E+03   0.586E+03 0.708E+00 -.967E+03   0.323E+00 0.205E-03 -.235E+01   0.491E-02 0.104E-01 0.475E-02
   -.739E+03 -.717E+02 -.815E+03   0.736E+03 0.708E+02 0.813E+03   0.169E+01 0.594E+00 0.979E+00   0.628E-02 -.570E-02 -.614E-02
   0.589E+03 -.538E+00 0.968E+03   -.588E+03 0.527E+00 -.965E+03   -.288E+00 0.671E-02 -.238E+01   0.312E-02 -.679E-03 -.192E-02
   0.625E+03 -.567E+01 -.951E+03   -.624E+03 0.571E+01 0.947E+03   -.423E+00 -.234E-01 0.246E+01   -.521E-02 -.125E-04 0.210E-02
   0.769E+03 0.765E+03 0.118E+02   -.767E+03 -.763E+03 -.118E+02   -.114E+01 -.115E+01 -.656E-02   -.418E-02 0.826E-03 -.498E-02
   -.764E+03 -.771E+03 0.170E+02   0.762E+03 0.769E+03 -.169E+02   0.117E+01 0.115E+01 -.450E-01   0.429E-02 -.449E-02 -.103E-01
   -.765E+03 0.769E+03 0.230E+02   0.763E+03 -.767E+03 -.230E+02   0.118E+01 -.116E+01 -.624E-01   0.719E-02 0.894E-02 0.472E-02
   0.767E+03 -.766E+03 0.951E+01   -.766E+03 0.764E+03 -.955E+01   -.113E+01 0.113E+01 0.282E-01   -.357E-03 0.231E-02 -.485E-02
   0.167E+01 -.699E+00 0.107E+04   -.163E+01 0.675E+00 -.107E+04   -.331E-01 0.115E-01 -.162E+01   0.974E-02 0.710E-02 -.962E-03
   0.174E+03 -.721E+02 -.942E+03   -.170E+03 0.700E+02 0.942E+03   -.311E+01 0.141E+01 -.919E+00   0.116E-01 -.755E-02 0.157E-02
   0.987E+03 0.396E+03 -.406E+03   -.984E+03 -.393E+03 0.405E+03   -.182E+01 -.150E+01 0.227E+00   -.771E-02 0.209E-02 -.620E-02
   -.393E+03 -.992E+03 -.401E+03   0.390E+03 0.989E+03 0.400E+03   0.150E+01 0.182E+01 0.246E+00   0.954E-02 0.212E-02 -.117E-01
   -.318E+03 0.340E+03 -.372E+03   0.318E+03 -.341E+03 0.372E+03   -.396E+00 0.549E+00 -.554E-01   0.127E-01 -.205E-03 0.740E-03
   0.325E+03 -.324E+03 0.463E+03   -.326E+03 0.324E+03 -.464E+03   0.376E+00 -.375E+00 0.500E+00   0.996E-02 0.844E-03 -.512E-02
   0.351E+03 0.328E+03 -.419E+03   -.351E+03 -.329E+03 0.420E+03   0.403E+00 0.322E+00 -.518E+00   0.665E-02 -.256E-02 -.416E-02
   -.100E+04 0.402E+03 -.377E+03   0.999E+03 -.400E+03 0.376E+03   0.180E+01 -.158E+01 0.321E+00   0.963E-03 0.393E-02 -.261E-02
   0.403E+03 -.985E+03 -.405E+03   -.401E+03 0.982E+03 0.405E+03   -.153E+01 0.183E+01 0.200E+00   0.264E-02 0.827E-02 -.909E-02
   -.320E+03 -.325E+03 0.466E+03   0.321E+03 0.325E+03 -.466E+03   -.356E+00 -.363E+00 0.537E+00   0.148E-01 0.426E-02 -.648E-02
   0.649E+03 -.172E+01 0.138E+02   -.650E+03 0.173E+01 -.138E+02   0.711E+00 0.202E-02 -.734E-03   -.486E-02 -.176E-02 -.652E-02
   -.645E+03 -.356E+01 0.289E+02   0.646E+03 0.354E+01 -.288E+02   -.720E+00 0.777E-02 -.762E-01   0.108E-01 0.696E-02 -.563E-02
   0.138E+01 -.589E+03 0.969E+03   -.138E+01 0.588E+03 -.965E+03   -.623E-02 0.298E+00 -.237E+01   0.121E-01 -.150E-02 0.221E-02
   0.209E+02 -.633E+03 -.945E+03   -.210E+02 0.632E+03 0.941E+03   0.292E-01 0.293E+00 0.241E+01   0.822E-02 0.195E-02 -.351E-03
   0.831E+01 -.344E+01 0.279E+02   -.831E+01 0.343E+01 -.278E+02   -.413E-02 0.187E-02 -.206E-01   0.121E-01 0.334E-02 -.722E-02
   0.344E+03 -.337E+03 -.426E+03   -.344E+03 0.337E+03 0.427E+03   0.328E+00 -.275E+00 -.670E+00   0.223E-02 -.852E-03 -.881E-02
   -.318E+03 -.354E+03 -.400E+03   0.319E+03 0.354E+03 0.401E+03   -.375E+00 -.516E+00 -.343E+00   0.150E-01 -.369E-02 -.111E-01
   0.500E+01 -.649E+03 0.166E+02   -.501E+01 0.650E+03 -.166E+02   -.988E-02 -.708E+00 -.202E-01   0.134E-01 0.329E-02 -.118E-01
   -.359E+02 0.451E+02 -.273E+03   0.291E+02 -.414E+02 0.252E+03   0.515E+01 -.159E+01 0.147E+02   0.369E-02 -.217E-02 -.105E-02
   -.192E+03 0.925E+02 -.860E+03   0.210E+03 -.100E+03 0.923E+03   -.166E+02 0.645E+01 -.566E+02   0.359E-02 -.215E-02 -.153E-02
 -----------------------------------------------------------------------------------------------
   0.131E+02 -.740E+01 0.455E+02   0.796E-12 -.313E-12 -.318E-11   -.134E+02 0.733E+01 -.453E+02   0.226E+00 0.736E-01 -.152E+00
 
 
 POSITION                                       TOTAL-FORCE (eV/Angst)
 -----------------------------------------------------------------------------------
     13.37281      9.84801     12.50759         0.696727      1.112276      0.283130
     20.15199     16.62719     12.50759        -1.117098     -0.698643      0.284252
     16.62719      9.84801     12.50759        -0.699688      1.113154      0.291982
      9.84801     16.62719     12.50759         1.107405     -0.696689      0.290600
     15.00000     11.47521     10.20639         0.002010      0.412227      1.277550
     15.00000     11.47521     19.79360        -0.041222      0.392385     -1.298994
     15.00000      8.28283     15.00000         0.010063      1.504814      0.014728
      8.28283     15.00000     15.00000         1.511450     -0.004329      0.002435
     21.71717     15.00000     15.00000        -1.509134     -0.014613      0.032588
     15.00000     21.71717     15.00000         0.008813     -1.509564      0.006586
     18.35858     11.64142     10.25025        -0.754157      0.755363      1.071439
     18.35858     11.64142     19.74975        -0.719448      0.692102     -1.059808
     11.64142     18.35858     10.25025         0.752141     -0.747613      1.075972
     11.64142     18.35858     19.74975         0.758858     -0.756021     -1.068467
     11.64142     11.64142     10.25025         0.754719      0.748804      1.073928
     11.64142     11.64142     19.74975         0.752596      0.748681     -1.070925
     18.35858     18.35858     10.25025        -0.751611     -0.755199      1.072772
     18.35858     18.35858     19.74975        -0.727343     -0.706651     -1.066588
     13.37281      9.84801     17.49241         0.705930      1.107346     -0.285605
     20.15199     16.62719     17.49241        -1.067766     -0.684844     -0.333917
     16.73751     13.26249     12.54279         0.111908     -0.114506     -0.155830
      9.84801     13.37281     12.50759         1.107408      0.697872      0.287991
     16.62719     20.15199     12.50759        -0.699907     -1.109935      0.289674
     16.62719      9.84801     17.49241        -0.710896      1.092093     -0.319076
      9.84801     16.62719     17.49241         1.117472     -0.695712     -0.288955
     20.15199     13.37281     12.50759        -1.115000      0.699090      0.291907
     13.37281     20.15199     12.50759         0.696481     -1.109715      0.290133
     13.26249     13.26249     12.54279        -0.112649     -0.113536     -0.151257
     15.00000     11.52498     15.00000         0.003855     -0.223672     -0.000221
     18.52479     15.00000     10.20639        -0.415570     -0.000419      1.278452
     18.52479     15.00000     19.79360        -1.308343     -0.327095     -0.981046
     11.47521     15.00000     10.20640         0.402242     -0.004843      1.281156
     11.47521     15.00000     19.79360         0.392861      0.012918     -1.294438
     11.49535     11.49535     15.00000         0.824244      0.829920     -0.003890
     18.50465     18.50465     15.00000        -0.836609     -0.827873      0.006427
     18.50465     11.49535     15.00000        -0.839436      0.833718      0.008478
     11.49535     18.50465     15.00000         0.815817     -0.821017     -0.018178
     15.00000     15.00000     10.04368         0.015341     -0.005840      1.182254
     15.00000     15.00000     19.95633         1.169057     -0.635908     -0.481073
      9.84801     13.37281     17.49241         1.109857      0.696410     -0.293095
     16.62719     20.15199     17.49241        -0.701836     -1.105996     -0.298197
     16.73751     13.26249     17.45721         0.122785     -0.171013      0.026701
     13.26249     16.73751     12.54279        -0.113469      0.115971     -0.147646
     13.26249     13.26249     17.45721        -0.161672     -0.134856      0.122231
     20.15199     13.37281     17.49241        -1.045301      0.698224     -0.377119
     13.37281     20.15199     17.49241         0.701729     -1.113101     -0.285273
     16.73751     16.73751     12.54279         0.110290      0.113607     -0.157591
     11.52498     15.00000     15.00000        -0.215524      0.003988     -0.000223
     18.47502     15.00000     15.00000         0.227553     -0.002285      0.003178
     15.00000     18.52480     10.20639         0.005677     -0.407781      1.279373
     15.00000     18.52480     19.79360        -0.029942     -0.360855     -1.304612
     15.00000     15.00000     15.00000         0.004478     -0.005362     -0.003484
     13.26249     16.73751     17.45721        -0.128031      0.117565      0.149337
     16.73751     16.73751     17.45721         0.134732      0.173660      0.095407
     15.00000     18.47502     15.00000        -0.004677      0.223155     -0.006109
     16.73836     14.28460     20.92383        -1.658402      2.060960     -6.659811
     17.05387     14.15476     21.99900         1.350231     -1.090818      6.040765
 -----------------------------------------------------------------------------------
    total drift:                               -0.010471      0.005190      0.002586


--------------------------------------------------------------------------------------------------------



  FREE ENERGIE OF THE ION-ELECTRON SYSTEM (eV)
  ---------------------------------------------------
  free  energy   TOTEN  =      -175.22546561 eV

  energy  without entropy=     -175.19427744  energy(sigma->0) =     -175.21766857
 


--------------------------------------------------------------------------------------------------------


    POTLOK:  cpu time   14.1767: real time   14.1767


--------------------------------------------------------------------------------------------------------


     LOOP+:  cpu time18363.7278: real time18364.3298
    4ORBIT:  cpu time    0.0000: real time    0.0000

 total amount of memory used by VASP MPI-rank0  5486940. kBytes
=======================================================================

   base      :      30000. kBytes
   nonlr-proj:      17125. kBytes
   fftplans  :     924480. kBytes
   grid      :    1872000. kBytes
   one-center:        886. kBytes
   wavefun   :    2642449. kBytes
 
  
  
 General timing and accounting informations for this job:
 ========================================================
  
                  Total CPU time used (sec):    18441.908
                            User time (sec):    17434.301
                          System time (sec):     1007.608
                         Elapsed time (sec):    18442.561
  
                   Maximum memory used (kb):     7178876.
                   Average memory used (kb):           0.
  
                          Minor page faults:    790463679
                          Major page faults:            0
                 Voluntary context switches:          426
