 vasp.5.4.4.18Apr17-6-g9f103f2a35 (build Sep 03 2018 23:53:05) complex          
  
 executed on             LinuxIFC date 2021.11.26  23:40:03
 running on    1 total cores
 distrk:  each k-point on    1 cores,    1 groups
 distr:  one band on NCORES_PER_BAND=   1 cores,    1 groups


--------------------------------------------------------------------------------------------------------


 INCAR:
 POTCAR:    PAW_PBE Pd 04Jan2005                  
 POTCAR:    PAW_PBE C 08Apr2002                   
 POTCAR:    PAW_PBE O 08Apr2002                   
 POTCAR:    PAW_PBE Pd 04Jan2005                  
   VRHFIN =Pd : s1 d9                                                           
   LEXCH  = PE                                                                  
   EATOM  =   809.7530 eV,   59.5152 Ry                                         
                                                                                
   TITEL  = PAW_PBE Pd 04Jan2005                                                
   LULTRA =        F    use ultrasoft PP ?                                      
   IUNSCR =        1    unscreen: 0-lin 1-nonlin 2-no                           
   RPACOR =    2.000    partial core radius                                     
   POMASS =  106.420; ZVAL   =   10.000    mass and valenz                      
   RCORE  =    2.600    outmost cutoff radius                                   
   RWIGS  =    2.710; RWIGS  =    1.434    wigner-seitz radius (au A)           
   ENMAX  =  250.925; ENMIN  =  188.194 eV                                      
   ICORE  =        3    local potential                                         
   LCOR   =        T    correct aug charges                                     
   LPAW   =        T    paw PP                                                  
   EAUG   =  416.230                                                            
   DEXC   =    0.000                                                            
   RMAX   =    2.653    core radius for proj-oper                               
   RAUG   =    1.300    factor for augmentation sphere                          
   RDEP   =    2.734    radius for radial grids                                 
   RDEPT  =    2.103    core radius for aug-charge                              
                                                                                
   Atomic configuration                                                         
   12 entries                                                                   
     n  l   j            E        occ.                                          
     1  0  0.50    -24164.6631   2.0000                                         
     2  0  0.50     -3530.9218   2.0000                                         
     2  1  1.50     -3165.6822   6.0000                                         
     3  0  0.50      -639.4577   2.0000                                         
     3  1  1.50      -519.4532   6.0000                                         
     3  2  2.50      -328.9757  10.0000                                         
     4  0  0.50       -88.7014   2.0000                                         
     4  1  1.50       -54.4540   6.0000                                         
     4  2  2.50        -6.6878   9.0000                                         
     5  0  0.50        -4.3543   1.0000                                         
     5  1  0.50        -1.3606   0.0000                                         
     4  3  2.50        -1.3606   0.0000                                         
   Description                                                                  
     l       E           TYP  RCUT    TYP  RCUT                                 
     2     -6.6878251     23  2.400                                             
     2     -8.0484077     23  2.400                                             
     0     -4.3542939     23  2.400                                             
     0      4.3406793     23  2.400                                             
     1     -4.0817478     23  2.600                                             
     1     15.8380318     23  2.600                                             
     3     -4.0817478     23  2.400                                             
  local pseudopotential read in
  partial core-charges read in
  partial kinetic energy density read in
  atomic valenz-charges read in
  non local Contribution for L=           2  read in
    real space projection operators read in
  non local Contribution for L=           2  read in
    real space projection operators read in
  non local Contribution for L=           0  read in
    real space projection operators read in
  non local Contribution for L=           0  read in
    real space projection operators read in
  non local Contribution for L=           1  read in
    real space projection operators read in
  non local Contribution for L=           1  read in
    real space projection operators read in
    PAW grid and wavefunctions read in
 
   number of l-projection  operators is LMAX  =           6
   number of lm-projection operators is LMMAX =          18
 
 POTCAR:    PAW_PBE C 08Apr2002                   
   VRHFIN =C: s2p2                                                              
   LEXCH  = PE                                                                  
   EATOM  =   147.1560 eV,   10.8157 Ry                                         
                                                                                
   TITEL  = PAW_PBE C 08Apr2002                                                 
   LULTRA =        F    use ultrasoft PP ?                                      
   IUNSCR =        1    unscreen: 0-lin 1-nonlin 2-no                           
   RPACOR =    1.200    partial core radius                                     
   POMASS =   12.011; ZVAL   =    4.000    mass and valenz                      
   RCORE  =    1.500    outmost cutoff radius                                   
   RWIGS  =    1.630; RWIGS  =    0.863    wigner-seitz radius (au A)           
   ENMAX  =  400.000; ENMIN  =  300.000 eV                                      
   ICORE  =        2    local potential                                         
   LCOR   =        T    correct aug charges                                     
   LPAW   =        T    paw PP                                                  
   EAUG   =  644.873                                                            
   DEXC   =    0.000                                                            
   RMAX   =    1.529    core radius for proj-oper                               
   RAUG   =    1.300    factor for augmentation sphere                          
   RDEP   =    1.501    radius for radial grids                                 
   RDEPT  =    1.300    core radius for aug-charge                              
                                                                                
   Atomic configuration                                                         
    4 entries                                                                   
     n  l   j            E        occ.                                          
     1  0  0.50      -273.3789   2.0000                                         
     2  0  0.50       -13.7508   2.0000                                         
     2  1  0.50        -5.2854   2.0000                                         
     3  2  1.50        -5.4423   0.0000                                         
   Description                                                                  
     l       E           TYP  RCUT    TYP  RCUT                                 
     0    -13.7508458     23  1.200                                             
     0     -8.2022199     23  1.200                                             
     1     -5.2854383     23  1.500                                             
     1     34.0145650     23  1.500                                             
     2     -5.4423304      7  1.500                                             
  local pseudopotential read in
  partial core-charges read in
  partial kinetic energy density read in
  atomic valenz-charges read in
  non local Contribution for L=           0  read in
    real space projection operators read in
  non local Contribution for L=           0  read in
    real space projection operators read in
  non local Contribution for L=           1  read in
    real space projection operators read in
  non local Contribution for L=           1  read in
    real space projection operators read in
    PAW grid and wavefunctions read in
 
   number of l-projection  operators is LMAX  =           4
   number of lm-projection operators is LMMAX =           8
 
 POTCAR:    PAW_PBE O 08Apr2002                   
   VRHFIN =O: s2p4                                                              
   LEXCH  = PE                                                                  
   EATOM  =   432.3788 eV,   31.7789 Ry                                         
                                                                                
   TITEL  = PAW_PBE O 08Apr2002                                                 
   LULTRA =        F    use ultrasoft PP ?                                      
   IUNSCR =        1    unscreen: 0-lin 1-nonlin 2-no                           
   RPACOR =    1.200    partial core radius                                     
   POMASS =   16.000; ZVAL   =    6.000    mass and valenz                      
   RCORE  =    1.520    outmost cutoff radius                                   
   RWIGS  =    1.550; RWIGS  =    0.820    wigner-seitz radius (au A)           
   ENMAX  =  400.000; ENMIN  =  300.000 eV                                      
   ICORE  =        2    local potential                                         
   LCOR   =        T    correct aug charges                                     
   LPAW   =        T    paw PP                                                  
   EAUG   =  605.392                                                            
   DEXC   =    0.000                                                            
   RMAX   =    1.553    core radius for proj-oper                               
   RAUG   =    1.300    factor for augmentation sphere                          
   RDEP   =    1.550    radius for radial grids                                 
   RDEPT  =    1.329    core radius for aug-charge                              
                                                                                
   Atomic configuration                                                         
    4 entries                                                                   
     n  l   j            E        occ.                                          
     1  0  0.50      -514.6923   2.0000                                         
     2  0  0.50       -23.9615   2.0000                                         
     2  1  0.50        -9.0305   4.0000                                         
     3  2  1.50        -9.5241   0.0000                                         
   Description                                                                  
     l       E           TYP  RCUT    TYP  RCUT                                 
     0    -23.9615318     23  1.200                                             
     0     -9.5240782     23  1.200                                             
     1     -9.0304911     23  1.520                                             
     1      8.1634956     23  1.520                                             
     2     -9.5240782      7  1.500                                             
  local pseudopotential read in
  partial core-charges read in
  partial kinetic energy density read in
  kinetic energy density of atom read in
  atomic valenz-charges read in
  non local Contribution for L=           0  read in
    real space projection operators read in
  non local Contribution for L=           0  read in
    real space projection operators read in
  non local Contribution for L=           1  read in
    real space projection operators read in
  non local Contribution for L=           1  read in
    real space projection operators read in
    PAW grid and wavefunctions read in
 
   number of l-projection  operators is LMAX  =           4
   number of lm-projection operators is LMMAX =           8
 
 Optimization of the real space projectors (new method)

 maximal supplied QI-value         = 14.36
 optimisation between [QCUT,QGAM] = [ 10.20, 20.39] = [ 29.12,116.47] Ry 
 Optimized for a Real-space Cutoff    1.51 Angstroem

   l    n(q)    QCUT    max X(q) W(low)/X(q) W(high)/X(q)  e(spline) 
   2      8    10.197    59.108    0.26E-03    0.14E-03    0.96E-07
   2      8    10.197    58.101    0.27E-03    0.14E-03    0.98E-07
   0      9    10.197   102.235    0.54E-04    0.60E-05    0.72E-07
   0      9    10.197    58.388    0.52E-04    0.60E-05    0.68E-07
   1      9    10.197    22.191    0.18E-03    0.25E-03    0.79E-07
   1      9    10.197    15.590    0.15E-03    0.21E-03    0.69E-07
 Optimization of the real space projectors (new method)

 maximal supplied QI-value         = 25.13
 optimisation between [QCUT,QGAM] = [ 10.05, 20.36] = [ 28.30,116.06] Ry 
 Optimized for a Real-space Cutoff    1.30 Angstroem

   l    n(q)    QCUT    max X(q) W(low)/X(q) W(high)/X(q)  e(spline) 
   0      8    10.053   115.676    0.49E-03    0.72E-03    0.18E-06
   0      8    10.053    87.132    0.49E-03    0.71E-03    0.18E-06
   1      7    10.053     4.429    0.32E-03    0.31E-03    0.18E-06
   1      7    10.053     2.733    0.23E-03    0.19E-03    0.20E-06
 Optimization of the real space projectors (new method)

 maximal supplied QI-value         = 24.76
 optimisation between [QCUT,QGAM] = [ 10.15, 20.30] = [ 28.85,115.39] Ry 
 Optimized for a Real-space Cutoff    1.38 Angstroem

   l    n(q)    QCUT    max X(q) W(low)/X(q) W(high)/X(q)  e(spline) 
   0      8    10.150    20.381    0.22E-03    0.32E-03    0.29E-06
   0      8    10.150    15.268    0.23E-03    0.35E-03    0.30E-06
   1      8    10.150     5.964    0.46E-03    0.53E-03    0.21E-06
   1      8    10.150     5.382    0.38E-03    0.45E-03    0.19E-06

 ----------------------------------------------------------------------------- 
|                                                                             |
|  ADVICE TO THIS USER RUNNING 'VASP/VAMP'   (HEAR YOUR MASTER'S VOICE ...):  |
|                                                                             |
|      You enforced a specific xc-type in the INCAR file,                     |
|      a different type was found on the POTCAR file                          |
|          I HOPE YOU KNOW, WHAT YOU ARE  DOING                               |
|                                                                             |
 ----------------------------------------------------------------------------- 

  PAW_PBE Pd 04Jan2005                  :
 energy of atom  1       EATOM= -809.7530
 kinetic energy error for atom=    0.0091 (will be added to EATOM!!)
  PAW_PBE C 08Apr2002                   :
 energy of atom  2       EATOM= -147.1560
 kinetic energy error for atom=    0.0288 (will be added to EATOM!!)
  PAW_PBE O 08Apr2002                   :
 energy of atom  3       EATOM= -432.3788
 kinetic energy error for atom=    0.1156 (will be added to EATOM!!)
 
 
 POSCAR: Pd55PES                                 
  positions in cartesian coordinates
  No initial velocities read in
 exchange correlation table for  LEXCH =        9
   RHO(1)=    0.500       N(1)  =     2000
   RHO(2)=  100.500       N(2)  =     4000
 


--------------------------------------------------------------------------------------------------------


 ion  position               nearest neighbor table
   1  0.446  0.328  0.417-   3 3.25   5 3.25   7 3.36  15 3.36  29 3.42  28 3.42
   2  0.672  0.554  0.417-  26 3.25  30 3.25  17 3.36   9 3.36  47 3.42  49 3.42
   3  0.554  0.328  0.417-   1 3.25   5 3.25   7 3.36  11 3.36  29 3.42  21 3.42
   4  0.328  0.554  0.417-  32 3.25  22 3.25  13 3.36   8 3.36  43 3.42  48 3.42
   5  0.500  0.383  0.340-   1 3.25   3 3.25  11 3.36  15 3.36  21 3.42  28 3.42
   6  0.500  0.383  0.660-  24 3.25  19 3.25  16 3.36  12 3.36  42 3.42  44 3.42
   7  0.500  0.276  0.500-  29 3.24   3 3.36   1 3.36  19 3.36  24 3.36
   8  0.276  0.500  0.500-  48 3.24  22 3.36  40 3.36   4 3.36  25 3.36
   9  0.724  0.500  0.500-  49 3.24  26 3.36  45 3.36   2 3.36  20 3.36
  10  0.500  0.724  0.500-  55 3.24  27 3.36  23 3.36  46 3.36  41 3.36
  11  0.612  0.388  0.342-  21 3.24   5 3.36   3 3.36  30 3.36  26 3.36
  12  0.612  0.388  0.658-  42 3.24  24 3.36  45 3.36   6 3.36  31 3.36
  13  0.388  0.612  0.342-  43 3.24  32 3.36  50 3.36   4 3.36  27 3.36
  14  0.388  0.612  0.658-  53 3.24  25 3.36  33 3.36  51 3.36  46 3.36
  15  0.388  0.388  0.342-  28 3.24   5 3.36   1 3.36  32 3.36  22 3.36
  16  0.388  0.388  0.658-  44 3.24  19 3.36  40 3.36   6 3.36  33 3.36
  17  0.612  0.612  0.342-  47 3.24  30 3.36  50 3.36   2 3.36  23 3.36
  18  0.612  0.612  0.658-  54 3.24  31 3.36  20 3.36  51 3.36  41 3.36
  19  0.446  0.328  0.583-   6 3.25  24 3.25  16 3.36   7 3.36  44 3.42  29 3.42
  20  0.672  0.554  0.583-  31 3.25  45 3.25  18 3.36   9 3.36  54 3.42  49 3.42
  21  0.558  0.442  0.418-  11 3.24   5 3.42   3 3.42  30 3.42  26 3.42
  22  0.328  0.446  0.417-   4 3.25  32 3.25   8 3.36  15 3.36  48 3.42  28 3.42
  23  0.554  0.672  0.417-  27 3.25  50 3.25  10 3.36  17 3.36  55 3.42  47 3.42
  24  0.554  0.328  0.583-   6 3.25  19 3.25  12 3.36   7 3.36  42 3.42  29 3.42
  25  0.328  0.554  0.583-  56 2.01  33 3.25  40 3.25  14 3.36   8 3.36  53 3.42  48 3.42
  26  0.672  0.446  0.417-   2 3.25  30 3.25   9 3.36  11 3.36  49 3.42  21 3.42
  27  0.446  0.672  0.417-  23 3.25  50 3.25  10 3.36  13 3.36  55 3.42  43 3.42
  28  0.442  0.442  0.418-  15 3.24   5 3.42   1 3.42  32 3.42  22 3.42
  29  0.500  0.384  0.500-   7 3.24   3 3.42   1 3.42  24 3.42  19 3.42
  30  0.617  0.500  0.340-   2 3.25  26 3.25  17 3.36  11 3.36  47 3.42  21 3.42
  31  0.617  0.500  0.660-  20 3.25  45 3.25  18 3.36  12 3.36  54 3.42  42 3.42
  32  0.383  0.500  0.340-   4 3.25  22 3.25  13 3.36  15 3.36  43 3.42  28 3.42
  33  0.383  0.500  0.660-  25 3.25  40 3.25  14 3.36  16 3.36  53 3.42  44 3.42
  34  0.383  0.383  0.500-
  35  0.617  0.617  0.500-
  36  0.617  0.383  0.500-
  37  0.383  0.617  0.500-
  38  0.500  0.500  0.335-
  39  0.500  0.500  0.665-
  40  0.328  0.446  0.583-  33 3.25  25 3.25  16 3.36   8 3.36  44 3.42  48 3.42
  41  0.554  0.672  0.583-  46 3.25  51 3.25  10 3.36  18 3.36  54 3.42  55 3.42
  42  0.558  0.442  0.582-  12 3.24   6 3.42  24 3.42  31 3.42  45 3.42
  43  0.442  0.558  0.418-  13 3.24   4 3.42  32 3.42  27 3.42  50 3.42
  44  0.442  0.442  0.582-  16 3.24   6 3.42  19 3.42  33 3.42  40 3.42
  45  0.672  0.446  0.583-  20 3.25  31 3.25   9 3.36  12 3.36  49 3.42  42 3.42
  46  0.446  0.672  0.583-  41 3.25  51 3.25  10 3.36  14 3.36  53 3.42  55 3.42
  47  0.558  0.558  0.418-  17 3.24   2 3.42  30 3.42  23 3.42  50 3.42
  48  0.384  0.500  0.500-   8 3.24   4 3.42  22 3.42  25 3.42  40 3.42
  49  0.616  0.500  0.500-   9 3.24   2 3.42  26 3.42  20 3.42  45 3.42
  50  0.500  0.617  0.340-  27 3.25  23 3.25  13 3.36  17 3.36  43 3.42  47 3.42
  51  0.500  0.617  0.660-  41 3.25  46 3.25  14 3.36  18 3.36  53 3.42  54 3.42
  52  0.500  0.500  0.500-
  53  0.442  0.558  0.582-  14 3.24  25 3.42  33 3.42  51 3.42  46 3.42
  54  0.558  0.558  0.582-  18 3.24  31 3.42  20 3.42  51 3.42  41 3.42
  55  0.500  0.616  0.500-  10 3.24  23 3.42  27 3.42  41 3.42  46 3.42
  56  0.292  0.555  0.640-  57 1.13  25 2.01
  57  0.262  0.563  0.660-  56 1.13
 
  LATTYP: Found a simple cubic cell.
 ALAT       =    30.0000000000
  
  Lattice vectors:
  
 A1 = (  30.0000000000,   0.0000000000,   0.0000000000)
 A2 = (   0.0000000000,  30.0000000000,   0.0000000000)
 A3 = (   0.0000000000,   0.0000000000,  30.0000000000)


Analysis of symmetry for initial positions (statically):
=====================================================================
 Subroutine PRICEL returns:
 Original cell was already a primitive cell.
 

 Routine SETGRP: Setting up the symmetry group for a 
 simple cubic supercell.


 Subroutine GETGRP returns: Found  1 space group operations
 (whereof  1 operations were pure point group operations)
 out of a pool of 48 trial point group operations.


The static configuration has the point symmetry C_1 .


Analysis of symmetry for dynamics (positions and initial velocities):
=====================================================================
 Subroutine PRICEL returns:
 Original cell was already a primitive cell.
 

 Routine SETGRP: Setting up the symmetry group for a 
 simple cubic supercell.


 Subroutine GETGRP returns: Found  1 space group operations
 (whereof  1 operations were pure point group operations)
 out of a pool of 48 trial point group operations.


The dynamic configuration has the point symmetry C_1 .


Analysis of constrained symmetry for selective dynamics:
=====================================================================
 Subroutine PRICEL returns:
 Original cell was already a primitive cell.
 

 Routine SETGRP: Setting up the symmetry group for a 
 simple cubic supercell.


 Subroutine GETGRP returns: Found  1 space group operations
 (whereof  1 operations were pure point group operations)
 out of a pool of 48 trial point group operations.


The constrained configuration has the point symmetry C_1 .


 Subroutine INISYM returns: Found  1 space group operations
 (whereof  1 operations are pure point group operations),
 and found     1 'primitive' translations

 
 
 KPOINTS: K-points                                

Automatic generation of k-mesh.
Space group operators:
 irot       det(A)        alpha          n_x          n_y          n_z        tau_x        tau_y        tau_z
    1     1.000000     0.000000     1.000000     0.000000     0.000000     0.000000     0.000000     0.000000
 
 Subroutine IBZKPT returns following result:
 ===========================================
 
 Found      1 irreducible k-points:
 
 Following reciprocal coordinates:
            Coordinates               Weight
  0.000000  0.000000  0.000000      1.000000
 
 Following cartesian coordinates:
            Coordinates               Weight
  0.000000  0.000000  0.000000      1.000000
 


--------------------------------------------------------------------------------------------------------




 Dimension of arrays:
   k-points           NKPTS =      1   k-points in BZ     NKDIM =      1   number of bands    NBANDS=    336
   number of dos      NEDOS =    301   number of ions     NIONS =     57
   non local maximal  LDIM  =      6   non local SUM 2l+1 LMDIM =     18
   total plane-waves  NPLWV = ******
   max r-space proj   IRMAX =   1847   max aug-charges    IRDMAX=   6262
   dimension x,y,z NGX =   150 NGY =  150 NGZ =  150
   dimension x,y,z NGXF=   300 NGYF=  300 NGZF=  300
   support grid    NGXF=   300 NGYF=  300 NGZF=  300
   ions per type =              55   1   1
   NGX,Y,Z   is equivalent  to a cutoff of   8.31,  8.31,  8.31 a.u.
   NGXF,Y,Z  is equivalent  to a cutoff of  16.62, 16.62, 16.62 a.u.

 SYSTEM =  6_Pd100_top_free_z(O)                   
 POSCAR =  Pd55PES                                 

 Startparameter for this run:
   NWRITE =      2    write-flag & timer
   PREC   = normal    normal or accurate (medium, high low for compatibility)
   ISTART =      0    job   : 0-new  1-cont  2-samecut
   ICHARG =      2    charge: 1-file 2-atom 10-const
   ISPIN  =      1    spin polarized calculation?
   LNONCOLLINEAR =      F non collinear calculations
   LSORBIT =      F    spin-orbit coupling
   INIWAV =      1    electr: 0-lowe 1-rand  2-diag
   LASPH  =      F    aspherical Exc in radial PAW
   METAGGA=      F    non-selfconsistent MetaGGA calc.

 Electronic Relaxation 1
   ENCUT  =  400.0 eV  29.40 Ry    5.42 a.u.  48.92 48.92 48.92*2*pi/ulx,y,z
   ENINI  =  400.0     initial cutoff
   ENAUG  =  644.9 eV  augmentation charge cutoff
   NELM   =    100;   NELMIN=  6; NELMDL= -5     # of ELM steps 
   EDIFF  = 0.1E-03   stopping-criterion for ELM
   LREAL  =      T    real-space projection
   NLSPLINE    = F    spline interpolate recip. space projectors
   LCOMPAT=      F    compatible to vasp.4.4
   GGA_COMPAT  = T    GGA compatible to vasp.4.4-vasp.4.6
   LMAXPAW     = -100 max onsite density
   LMAXMIX     =    2 max onsite mixed and CHGCAR
   VOSKOWN=      0    Vosko Wilk Nusair interpolation
   ROPT   =   -0.00050  -0.00050  -0.00050
 Ionic relaxation
   EDIFFG = -.5E-01   stopping-criterion for IOM
   NSW    =      0    number of steps for IOM
   NBLOCK =      1;   KBLOCK =      1    inner block; outer block 
   IBRION =     -1    ionic relax: 0-MD 1-quasi-New 2-CG
   NFREE  =      1    steps in history (QN), initial steepest desc. (CG)
   ISIF   =      2    stress and relaxation
   IWAVPR =     10    prediction:  0-non 1-charg 2-wave 3-comb
   ISYM   =      2    0-nonsym 1-usesym 2-fastsym
   LCORR  =      T    Harris-Foulkes like correction to forces

   POTIM  = 0.5000    time-step for ionic-motion
   TEIN   =    0.0    initial temperature
   TEBEG  =    0.0;   TEEND  =   0.0 temperature during run
   SMASS  =  -3.00    Nose mass-parameter (am)
   estimated Nose-frequenzy (Omega)   =  0.10E-29 period in steps =****** mass=  -0.206E-25a.u.
   SCALEE = 1.0000    scale energy and forces
   NPACO  =    256;   APACO  = 16.0  distance and # of slots for P.C.
   PSTRESS=    0.0 pullay stress

  Mass of Ions in am
   POMASS = 106.42 12.01 16.00
  Ionic Valenz
   ZVAL   =  10.00  4.00  6.00
  Atomic Wigner-Seitz radii
   RWIGS  =  -1.00 -1.00 -1.00
  virtual crystal weights 
   VCA    =   1.00  1.00  1.00
   NELECT =     560.0000    total number of electrons
   NUPDOWN=      -1.0000    fix difference up-down

 DOS related values:
   EMIN   =  10.00;   EMAX   =-10.00  energy-range for DOS
   EFERMI =   0.00
   ISMEAR =     2;   SIGMA  =   0.20  broadening in eV -4-tet -1-fermi 0-gaus

 Electronic relaxation 2 (details)
   IALGO  =     68    algorithm
   LDIAG  =      T    sub-space diagonalisation (order eigenvalues)
   LSUBROT=      F    optimize rotation matrix (better conditioning)
   TURBO    =      0    0=normal 1=particle mesh
   IRESTART =      0    0=no restart 2=restart with 2 vectors
   NREBOOT  =      0    no. of reboots
   NMIN     =      0    reboot dimension
   EREF     =   0.00    reference energy to select bands
   IMIX   =      4    mixing-type and parameters
     AMIX     =   0.40;   BMIX     =  1.00
     AMIX_MAG =   1.60;   BMIX_MAG =  1.00
     AMIN     =   0.10
     WC   =   100.;   INIMIX=   1;  MIXPRE=   1;  MAXMIX= -45

 Intra band minimization:
   WEIMIN = 0.0000     energy-eigenvalue tresh-hold
   EBREAK =  0.74E-07  absolut break condition
   DEPER  =   0.30     relativ break condition  

   TIME   =   0.40     timestep for ELM

  volume/ion in A,a.u.               =     473.68      3196.58
  Fermi-wavevector in a.u.,A,eV,Ry     =   0.449797  0.849992  2.752691  0.202317
  Thomas-Fermi vector in A             =   1.430086
 
 Write flags
   LWAVE        =      F    write WAVECAR
   LDOWNSAMPLE  =      F    k-point downsampling of WAVECAR
   LCHARG       =      F    write CHGCAR
   LVTOT        =      F    write LOCPOT, total local potential
   LVHAR        =      F    write LOCPOT, Hartree potential only
   LELF         =      F    write electronic localiz. function (ELF)
   LORBIT       =      0    0 simple, 1 ext, 2 COOP (PROOUT), +10 PAW based schemes


 Dipole corrections
   LMONO  =      F    monopole corrections only (constant potential shift)
   LDIPOL =      F    correct potential (dipole corrections)
   IDIPOL =      0    1-x, 2-y, 3-z, 4-all directions 
   EPSILON=  1.0000000 bulk dielectric constant

 Exchange correlation treatment:
   GGA     =    RP    GGA type
   LEXCH   =     9    internal setting for exchange type
   VOSKOWN=      0    Vosko Wilk Nusair interpolation
   LHFCALC =     F    Hartree Fock is set to
   LHFONE  =     F    Hartree Fock one center treatment
   AEXX    =    0.0000 exact exchange contribution

 Linear response parameters
   LEPSILON=     F    determine dielectric tensor
   LRPA    =     F    only Hartree local field effects (RPA)
   LNABLA  =     F    use nabla operator in PAW spheres
   LVEL    =     F    velocity operator in full k-point grid
   LINTERFAST=   F  fast interpolation
   KINTER  =     0    interpolate to denser k-point grid
   CSHIFT  =0.1000    complex shift for real part using Kramers Kronig
   OMEGAMAX=  -1.0    maximum frequency
   DEG_THRESHOLD= 0.2000000E-02 threshold for treating states as degnerate
   RTIME   =   -0.100 relaxation time in fs
  (WPLASMAI=    0.000 imaginary part of plasma frequency in eV, 0.658/RTIME)
   DFIELD  = 0.0000000 0.0000000 0.0000000 field for delta impulse in time
 
 Orbital magnetization related:
   ORBITALMAG=     F  switch on orbital magnetization
   LCHIMAG   =     F  perturbation theory with respect to B field
   DQ        =  0.001000  dq finite difference perturbation B field
   LLRAUG    =     F  two centre corrections for induced B field



--------------------------------------------------------------------------------------------------------


 Static calculation
 charge density and potential will be updated during run
 non-spin polarized calculation
 RMM-DIIS sequential band-by-band and
  variant of blocked Davidson during initial phase
 perform sub-space diagonalisation
    before iterative eigenvector-optimisation
 modified Broyden-mixing scheme, WC =      100.0
 initial mixing is a Kerker type mixing with AMIX =  0.4000 and BMIX =      1.0000
 Hartree-type preconditioning will be used
 using additional bands           56
 real space projection scheme for non local part
 use partial core corrections
 calculate Harris-corrections to forces 
   (improved forces if not selfconsistent)
 use gradient corrections 
 use of overlap-Matrix (Vanderbilt PP)
 Methfessel and Paxton  Order N= 2 SIGMA  =   0.20


--------------------------------------------------------------------------------------------------------


  energy-cutoff  :      400.00
  volume of cell :    27000.00
      direct lattice vectors                 reciprocal lattice vectors
    30.000000000  0.000000000  0.000000000     0.033333333  0.000000000  0.000000000
     0.000000000 30.000000000  0.000000000     0.000000000  0.033333333  0.000000000
     0.000000000  0.000000000 30.000000000     0.000000000  0.000000000  0.033333333

  length of vectors
    30.000000000 30.000000000 30.000000000     0.033333333  0.033333333  0.033333333


 
 k-points in units of 2pi/SCALE and weight: K-points                                
   0.00000000  0.00000000  0.00000000       1.000
 
 k-points in reciprocal lattice and weights: K-points                                
   0.00000000  0.00000000  0.00000000       1.000
 
 position of ions in fractional coordinates (direct lattice) 
   0.44576020  0.32826710  0.41691983
   0.67173288  0.55423978  0.41691983
   0.55423980  0.32826710  0.41691983
   0.32826712  0.55423978  0.41691983
   0.50000000  0.38250690  0.34021317
   0.50000000  0.38250690  0.65978680
   0.50000000  0.27609440  0.50000000
   0.27609443  0.49999998  0.50000000
   0.72390557  0.49999998  0.50000000
   0.50000000  0.72390555  0.50000000
   0.61195280  0.38804720  0.34167483
   0.61195280  0.38804720  0.65832513
   0.38804722  0.61195278  0.34167483
   0.38804722  0.61195278  0.65832513
   0.38804720  0.38804720  0.34167483
   0.38804720  0.38804720  0.65832513
   0.61195278  0.61195278  0.34167483
   0.61195278  0.61195278  0.65832513
   0.44576020  0.32826710  0.58308023
   0.67173288  0.55423978  0.58308023
   0.55791699  0.44208301  0.41809300
   0.32826705  0.44576024  0.41691983
   0.55423973  0.67173293  0.41691983
   0.55423980  0.32826710  0.58308023
   0.32826712  0.55423978  0.58308023
   0.67173295  0.44576024  0.41691983
   0.44576027  0.67173293  0.41691983
   0.44208301  0.44208301  0.41809300
   0.50000000  0.38416601  0.50000000
   0.61749315  0.50000005  0.34021317
   0.61749315  0.50000005  0.65978680
   0.38250685  0.50000005  0.34021317
   0.38250685  0.50000005  0.65978680
   0.38317830  0.38317830  0.50000000
   0.61682172  0.61682172  0.50000000
   0.61682170  0.38317830  0.50000000
   0.38317828  0.61682172  0.50000000
   0.50000000  0.50000000  0.33478917
   0.50000000  0.50000000  0.66521087
   0.32826705  0.44576024  0.58308023
   0.55423973  0.67173293  0.58308023
   0.55791699  0.44208301  0.58190703
   0.44208298  0.55791702  0.41809300
   0.44208301  0.44208301  0.58190703
   0.67173295  0.44576024  0.58308023
   0.44576027  0.67173293  0.58308023
   0.55791702  0.55791702  0.41809300
   0.38416599  0.50000002  0.50000000
   0.61583401  0.50000002  0.50000000
   0.50000000  0.61749319  0.34021317
   0.50000000  0.61749319  0.65978680
   0.50000000  0.50000000  0.50000000
   0.44208298  0.55791702  0.58190703
   0.55791702  0.55791702  0.58190703
   0.50000000  0.61583404  0.50000000
   0.29223597  0.55478057  0.63969400
   0.26175437  0.56281757  0.66018887
 
 position of ions in cartesian coordinates  (Angst):
  13.37280588  9.84801292 12.50759500
  20.15198637 16.62719342 12.50759500
  16.62719412  9.84801292 12.50759500
   9.84801363 16.62719342 12.50759500
  15.00000000 11.47520705 10.20639500
  15.00000000 11.47520705 19.79360400
  15.00000000  8.28283206 15.00000000
   8.28283277 14.99999929 15.00000000
  21.71716723 14.99999929 15.00000000
  15.00000000 21.71716652 14.99999999
  18.35858397 11.64141603 10.25024500
  18.35858397 11.64141603 19.74975399
  11.64141674 18.35858326 10.25024500
  11.64141674 18.35858326 19.74975400
  11.64141603 11.64141603 10.25024500
  11.64141603 11.64141603 19.74975400
  18.35858326 18.35858326 10.25024500
  18.35858326 18.35858326 19.74975400
  13.37280588  9.84801291 17.49240700
  20.15198638 16.62719341 17.49240700
  16.73750985 13.26249015 12.54279000
   9.84801151 13.37280729 12.50759500
  16.62719200 20.15198779 12.50759500
  16.62719412  9.84801292 17.49240700
   9.84801363 16.62719342 17.49240700
  20.15198849 13.37280729 12.50759500
  13.37280800 20.15198779 12.50759500
  13.26249015 13.26249015 12.54279000
  15.00000000 11.52498029 15.00000000
  18.52479437 15.00000140 10.20639500
  18.52479437 15.00000141 19.79360400
  11.47520562 15.00000141 10.20639501
  11.47520563 15.00000141 19.79360400
  11.49534898 11.49534898 15.00000000
  18.50465172 18.50465172 15.00000000
  18.50465102 11.49534898 15.00000000
  11.49534828 18.50465172 15.00000000
  15.00000000 15.00000000 10.04367500
  15.00000000 15.00000000 19.95632599
   9.84801151 13.37280729 17.49240700
  16.62719200 20.15198779 17.49240700
  16.73750985 13.26249015 17.45721100
  13.26248944 16.73751056 12.54279001
  13.26249015 13.26249015 17.45721100
  20.15198849 13.37280729 17.49240699
  13.37280800 20.15198779 17.49240700
  16.73751056 16.73751056 12.54279000
  11.52497959 15.00000071 15.00000000
  18.47502041 15.00000071 15.00000000
  14.99999999 18.52479579 10.20639500
  15.00000000 18.52479578 19.79360400
  15.00000000 15.00000000 15.00000000
  13.26248944 16.73751057 17.45721101
  16.73751056 16.73751057 17.45721100
  15.00000000 18.47502112 15.00000000
   8.76707900 16.64341700 19.19082000
   7.85263100 16.88452700 19.80566600
 


--------------------------------------------------------------------------------------------------------


 k-point  1 :   0.0000 0.0000 0.0000  plane waves:  490521

 maximum and minimum number of plane-waves per node :    490521   490521

 maximum number of plane-waves:    490521
 maximum index in each direction: 
   IXMAX=   48   IYMAX=   48   IZMAX=   48
   IXMIN=  -48   IYMIN=  -48   IZMIN=  -48


 serial   3D FFT for wavefunctions
 parallel 3D FFT for charge:
    minimum data exchange during FFTs selected (reduces bandwidth)


 total amount of memory used by VASP MPI-rank0  5486941. kBytes
=======================================================================

   base      :      30000. kBytes
   nonlr-proj:      17126. kBytes
   fftplans  :     924480. kBytes
   grid      :    1872000. kBytes
   one-center:        886. kBytes
   wavefun   :    2642449. kBytes
 
     INWAV:  cpu time    0.0001: real time    0.0005
 Broyden mixing: mesh for mixing (old mesh)
   NGX = 97   NGY = 97   NGZ = 97
  (NGX  =300   NGY  =300   NGZ  =300)
  gives a total of 912673 points

 initial charge density was supplied:
 charge density of overlapping atoms calculated
 number of electron     560.0000000 magnetization 
 keeping initial charge density in first step


--------------------------------------------------------------------------------------------------------


 Maximum index for non-local projection operator         1763
 Maximum index for augmentation-charges         5898 (set IRDMAX)


--------------------------------------------------------------------------------------------------------


 First call to EWALD:  gamma=   0.059
 Maximum number of real-space cells 3x 3x 3
 Maximum number of reciprocal cells 3x 3x 3

    FEWALD:  cpu time    0.0153: real time    0.0153


--------------------------------------- Iteration      1(   1)  ---------------------------------------


    POTLOK:  cpu time   14.1836: real time   14.1884
    SETDIJ:  cpu time    0.1204: real time    0.1204
     EDDAV:  cpu time  363.9807: real time  364.0534
       DOS:  cpu time    0.0013: real time    0.0013
    --------------------------------------------
      LOOP:  cpu time  378.2860: real time  378.3636

 eigenvalue-minimisations  :   688
 total energy-change (2. order) : 0.4389525E+04  (-0.1004886E+05)
 number of electron     560.0000000 magnetization 
 augmentation part      560.0000000 magnetization 

 Free energy of the ion-electron system (eV)
  ---------------------------------------------------
  alpha Z        PSCENC =        75.25431677
  Ewald energy   TEWEN  =    138049.69718540
  -Hartree energ DENC   =   -181411.63745259
  -exchange      EXHF   =         0.00000000
  -V(xc)+E(xc)   XCENC  =     -1703.16418552
  PAW double counting   =     44873.02882129   -41398.84523641
  entropy T*S    EENTRO =         0.02885269
  eigenvalues    EBANDS =       818.65689732
  atomic energy  EATOM  =     45086.50549395
  Solvation  Ediel_sol  =         0.00000000
  ---------------------------------------------------
  free energy    TOTEN  =      4389.52469290 eV

  energy without entropy =     4389.49584020  energy(sigma->0) =     4389.51747972


--------------------------------------------------------------------------------------------------------




--------------------------------------- Iteration      1(   2)  ---------------------------------------


     EDDAV:  cpu time  577.3512: real time  577.3798
       DOS:  cpu time    0.0012: real time    0.0012
    --------------------------------------------
      LOOP:  cpu time  577.3524: real time  577.3810

 eigenvalue-minimisations  :  1208
 total energy-change (2. order) :-0.2358884E+04  (-0.2118781E+04)
 number of electron     560.0000000 magnetization 
 augmentation part      560.0000000 magnetization 

 Free energy of the ion-electron system (eV)
  ---------------------------------------------------
  alpha Z        PSCENC =        75.25431677
  Ewald energy   TEWEN  =    138049.69718540
  -Hartree energ DENC   =   -181411.63745259
  -exchange      EXHF   =         0.00000000
  -V(xc)+E(xc)   XCENC  =     -1703.16418552
  PAW double counting   =     44873.02882129   -41398.84523641
  entropy T*S    EENTRO =        -0.03254621
  eigenvalues    EBANDS =     -1540.16585572
  atomic energy  EATOM  =     45086.50549395
  Solvation  Ediel_sol  =         0.00000000
  ---------------------------------------------------
  free energy    TOTEN  =      2030.64054096 eV

  energy without entropy =     2030.67308717  energy(sigma->0) =     2030.64867751


--------------------------------------------------------------------------------------------------------




--------------------------------------- Iteration      1(   3)  ---------------------------------------


     EDDAV:  cpu time  487.0839: real time  487.0975
       DOS:  cpu time    0.0011: real time    0.0011
    --------------------------------------------
      LOOP:  cpu time  487.0850: real time  487.0986

 eigenvalue-minimisations  :   992
 total energy-change (2. order) :-0.1786442E+04  (-0.1674942E+04)
 number of electron     560.0000000 magnetization 
 augmentation part      560.0000000 magnetization 

 Free energy of the ion-electron system (eV)
  ---------------------------------------------------
  alpha Z        PSCENC =        75.25431677
  Ewald energy   TEWEN  =    138049.69718540
  -Hartree energ DENC   =   -181411.63745259
  -exchange      EXHF   =         0.00000000
  -V(xc)+E(xc)   XCENC  =     -1703.16418552
  PAW double counting   =     44873.02882129   -41398.84523641
  entropy T*S    EENTRO =         0.01124908
  eigenvalues    EBANDS =     -3326.65137667
  atomic energy  EATOM  =     45086.50549395
  Solvation  Ediel_sol  =         0.00000000
  ---------------------------------------------------
  free energy    TOTEN  =       244.19881529 eV

  energy without entropy =      244.18756622  energy(sigma->0) =      244.19600302


--------------------------------------------------------------------------------------------------------




--------------------------------------- Iteration      1(   4)  ---------------------------------------


     EDDAV:  cpu time  426.6032: real time  426.6180
       DOS:  cpu time    0.0011: real time    0.0011
    --------------------------------------------
      LOOP:  cpu time  426.6044: real time  426.6192

 eigenvalue-minimisations  :   832
 total energy-change (2. order) :-0.3782455E+03  (-0.3234674E+03)
 number of electron     560.0000000 magnetization 
 augmentation part      560.0000000 magnetization 

 Free energy of the ion-electron system (eV)
  ---------------------------------------------------
  alpha Z        PSCENC =        75.25431677
  Ewald energy   TEWEN  =    138049.69718540
  -Hartree energ DENC   =   -181411.63745259
  -exchange      EXHF   =         0.00000000
  -V(xc)+E(xc)   XCENC  =     -1703.16418552
  PAW double counting   =     44873.02882129   -41398.84523641
  entropy T*S    EENTRO =         0.04606721
  eigenvalues    EBANDS =     -3704.93174465
  atomic energy  EATOM  =     45086.50549395
  Solvation  Ediel_sol  =         0.00000000
  ---------------------------------------------------
  free energy    TOTEN  =      -134.04673456 eV

  energy without entropy =     -134.09280177  energy(sigma->0) =     -134.05825136


--------------------------------------------------------------------------------------------------------




--------------------------------------- Iteration      1(   5)  ---------------------------------------


     EDDAV:  cpu time  518.0009: real time  518.0299
       DOS:  cpu time    0.0014: real time    0.0014
    CHARGE:  cpu time   26.8885: real time   26.8951
    MIXING:  cpu time    0.4433: real time    0.4433
    --------------------------------------------
      LOOP:  cpu time  545.3341: real time  545.3696

 eigenvalue-minimisations  :  1048
 total energy-change (2. order) :-0.4568056E+02  (-0.3794143E+02)
 number of electron     559.9999866 magnetization 
 augmentation part      245.0200385 magnetization 

 Broyden mixing:
  rms(total) = 0.15025E+01    rms(broyden)= 0.15016E+01
  rms(prec ) = 0.16083E+01
  weight for this iteration     100.00

 Free energy of the ion-electron system (eV)
  ---------------------------------------------------
  alpha Z        PSCENC =        75.25431677
  Ewald energy   TEWEN  =    138049.69718540
  -Hartree energ DENC   =   -181411.63745259
  -exchange      EXHF   =         0.00000000
  -V(xc)+E(xc)   XCENC  =     -1703.16418552
  PAW double counting   =     44873.02882129   -41398.84523641
  entropy T*S    EENTRO =         0.46596772
  eigenvalues    EBANDS =     -3751.03220349
  atomic energy  EATOM  =     45086.50549395
  Solvation  Ediel_sol  =         0.00000000
  ---------------------------------------------------
  free energy    TOTEN  =      -179.72729289 eV

  energy without entropy =     -180.19326061  energy(sigma->0) =     -179.84378482


--------------------------------------------------------------------------------------------------------




--------------------------------------- Iteration      1(   6)  ---------------------------------------


    POTLOK:  cpu time   13.8445: real time   13.8470
    SETDIJ:  cpu time    0.1212: real time    0.1212
    EDDIAG:  cpu time   69.5144: real time   69.5204
  RMM-DIIS:  cpu time  190.3312: real time  190.3380
    ORTHCH:  cpu time   13.9417: real time   13.9419
       DOS:  cpu time    0.0015: real time    0.0015
    CHARGE:  cpu time   26.5029: real time   26.5032
    MIXING:  cpu time    0.4894: real time    0.4894
    --------------------------------------------
      LOOP:  cpu time  314.7468: real time  314.7625

 eigenvalue-minimisations  :   727
 total energy-change (2. order) : 0.2349337E+00  (-0.5703909E+01)
 number of electron     559.9999886 magnetization 
 augmentation part      240.5948500 magnetization 

 Broyden mixing:
  rms(total) = 0.21062E+01    rms(broyden)= 0.21061E+01
  rms(prec ) = 0.24075E+01
  weight for this iteration     100.00

 eigenvalues of (default mixing * dielectric matrix)
  average eigenvalue GAMMA=   0.3635
  0.3635

 Free energy of the ion-electron system (eV)
  ---------------------------------------------------
  alpha Z        PSCENC =        75.25431677
  Ewald energy   TEWEN  =    138049.69718540
  -Hartree energ DENC   =   -181812.84305401
  -exchange      EXHF   =         0.00000000
  -V(xc)+E(xc)   XCENC  =     -1696.94536811
  PAW double counting   =     45634.47948596   -42133.89367979
  entropy T*S    EENTRO =        -0.17015673
  eigenvalues    EBANDS =     -3381.57658263
  atomic energy  EATOM  =     45086.50549395
  Solvation  Ediel_sol  =         0.00000000
  ---------------------------------------------------
  free energy    TOTEN  =      -179.49235919 eV

  energy without entropy =     -179.32220246  energy(sigma->0) =     -179.44982001


--------------------------------------------------------------------------------------------------------




--------------------------------------- Iteration      1(   7)  ---------------------------------------


    POTLOK:  cpu time   13.8631: real time   13.8657
    SETDIJ:  cpu time    0.1233: real time    0.1233
    EDDIAG:  cpu time   69.1361: real time   69.1376
  RMM-DIIS:  cpu time  225.1512: real time  225.1576
    ORTHCH:  cpu time   14.1101: real time   14.1101
       DOS:  cpu time    0.0016: real time    0.0016
    CHARGE:  cpu time   26.2568: real time   26.2567
    MIXING:  cpu time    0.5094: real time    0.5094
    --------------------------------------------
      LOOP:  cpu time  349.1516: real time  349.1620

 eigenvalue-minimisations  :   853
 total energy-change (2. order) :-0.2128757E+01  (-0.1972310E+01)
 number of electron     559.9999853 magnetization 
 augmentation part      240.4547354 magnetization 

 Broyden mixing:
  rms(total) = 0.22159E+01    rms(broyden)= 0.22156E+01
  rms(prec ) = 0.26629E+01
  weight for this iteration     100.00

 eigenvalues of (default mixing * dielectric matrix)
  average eigenvalue GAMMA=   0.3312
  0.5015  0.1608

 Free energy of the ion-electron system (eV)
  ---------------------------------------------------
  alpha Z        PSCENC =        75.25431677
  Ewald energy   TEWEN  =    138049.69718540
  -Hartree energ DENC   =   -181904.96442697
  -exchange      EXHF   =         0.00000000
  -V(xc)+E(xc)   XCENC  =     -1697.13888432
  PAW double counting   =     45710.42274115   -42206.93722338
  entropy T*S    EENTRO =        -0.03563449
  eigenvalues    EBANDS =     -3294.42468400
  atomic energy  EATOM  =     45086.50549395
  Solvation  Ediel_sol  =         0.00000000
  ---------------------------------------------------
  free energy    TOTEN  =      -181.62111590 eV

  energy without entropy =     -181.58548141  energy(sigma->0) =     -181.61220728


--------------------------------------------------------------------------------------------------------




--------------------------------------- Iteration      1(   8)  ---------------------------------------


    POTLOK:  cpu time   13.3802: real time   13.3835
    SETDIJ:  cpu time    0.1312: real time    0.1312
    EDDIAG:  cpu time   68.7147: real time   68.7158
  RMM-DIIS:  cpu time  209.8647: real time  209.8672
    ORTHCH:  cpu time   14.0382: real time   14.0383
       DOS:  cpu time    0.0014: real time    0.0014
    CHARGE:  cpu time   25.4822: real time   25.4821
    MIXING:  cpu time    0.5380: real time    0.5380
    --------------------------------------------
      LOOP:  cpu time  332.1507: real time  332.1575

 eigenvalue-minimisations  :   790
 total energy-change (2. order) :-0.2790916E+01  (-0.6561805E+00)
 number of electron     559.9999865 magnetization 
 augmentation part      240.2182409 magnetization 

 Broyden mixing:
  rms(total) = 0.27628E+01    rms(broyden)= 0.27625E+01
  rms(prec ) = 0.33375E+01
  weight for this iteration     100.00

 eigenvalues of (default mixing * dielectric matrix)
  average eigenvalue GAMMA=   0.3041
  0.6271  0.1683  0.1169

 Free energy of the ion-electron system (eV)
  ---------------------------------------------------
  alpha Z        PSCENC =        75.25431677
  Ewald energy   TEWEN  =    138049.69718540
  -Hartree energ DENC   =   -181934.09058611
  -exchange      EXHF   =         0.00000000
  -V(xc)+E(xc)   XCENC  =     -1697.08298274
  PAW double counting   =     45771.55505093   -42265.63376684
  entropy T*S    EENTRO =        -0.09263671
  eigenvalues    EBANDS =     -3270.52410686
  atomic energy  EATOM  =     45086.50549395
  Solvation  Ediel_sol  =         0.00000000
  ---------------------------------------------------
  free energy    TOTEN  =      -184.41203222 eV

  energy without entropy =     -184.31939551  energy(sigma->0) =     -184.38887304


--------------------------------------------------------------------------------------------------------




--------------------------------------- Iteration      1(   9)  ---------------------------------------


    POTLOK:  cpu time   13.4699: real time   13.4729
    SETDIJ:  cpu time    0.1206: real time    0.1206
    EDDIAG:  cpu time   68.0079: real time   68.0088
  RMM-DIIS:  cpu time  197.2280: real time  197.2306
    ORTHCH:  cpu time   13.6982: real time   13.6982
       DOS:  cpu time    0.0014: real time    0.0014
    CHARGE:  cpu time   25.5590: real time   25.5588
    MIXING:  cpu time    0.5547: real time    0.5547
    --------------------------------------------
      LOOP:  cpu time  318.6396: real time  318.6459

 eigenvalue-minimisations  :   740
 total energy-change (2. order) : 0.1635335E+01  (-0.4730237E+00)
 number of electron     559.9999868 magnetization 
 augmentation part      240.8694170 magnetization 

 Broyden mixing:
  rms(total) = 0.27511E+01    rms(broyden)= 0.27508E+01
  rms(prec ) = 0.31803E+01
  weight for this iteration     100.00

 eigenvalues of (default mixing * dielectric matrix)
  average eigenvalue GAMMA=   0.2787
  0.7097  0.1559  0.1559  0.0932

 Free energy of the ion-electron system (eV)
  ---------------------------------------------------
  alpha Z        PSCENC =        75.25431677
  Ewald energy   TEWEN  =    138049.69718540
  -Hartree energ DENC   =   -181952.09844840
  -exchange      EXHF   =         0.00000000
  -V(xc)+E(xc)   XCENC  =     -1697.04883628
  PAW double counting   =     45823.39991924   -42315.46243209
  entropy T*S    EENTRO =        -0.10175150
  eigenvalues    EBANDS =     -3252.92214428
  atomic energy  EATOM  =     45086.50549395
  Solvation  Ediel_sol  =         0.00000000
  ---------------------------------------------------
  free energy    TOTEN  =      -182.77669719 eV

  energy without entropy =     -182.67494569  energy(sigma->0) =     -182.75125932


--------------------------------------------------------------------------------------------------------




--------------------------------------- Iteration      1(  10)  ---------------------------------------


    POTLOK:  cpu time   13.4387: real time   13.4442
    SETDIJ:  cpu time    0.1214: real time    0.1214
    EDDIAG:  cpu time   68.0025: real time   68.0029
  RMM-DIIS:  cpu time  197.4725: real time  197.4751
    ORTHCH:  cpu time   13.3618: real time   13.3617
       DOS:  cpu time    0.0014: real time    0.0014
    CHARGE:  cpu time   25.7890: real time   25.7889
    MIXING:  cpu time    0.6271: real time    0.6271
    --------------------------------------------
      LOOP:  cpu time  318.8144: real time  318.8228

 eigenvalue-minimisations  :   736
 total energy-change (2. order) : 0.2864079E+01  (-0.3250955E+00)
 number of electron     559.9999839 magnetization 
 augmentation part      241.2200204 magnetization 

 Broyden mixing:
  rms(total) = 0.20698E+01    rms(broyden)= 0.20695E+01
  rms(prec ) = 0.24133E+01
  weight for this iteration     100.00

 eigenvalues of (default mixing * dielectric matrix)
  average eigenvalue GAMMA=   0.2679
  0.7884  0.1812  0.1812  0.0943  0.0943

 Free energy of the ion-electron system (eV)
  ---------------------------------------------------
  alpha Z        PSCENC =        75.25431677
  Ewald energy   TEWEN  =    138049.69718540
  -Hartree energ DENC   =   -181976.86779739
  -exchange      EXHF   =         0.00000000
  -V(xc)+E(xc)   XCENC  =     -1696.94358155
  PAW double counting   =     45863.95971747   -42354.50755762
  entropy T*S    EENTRO =        -0.14018221
  eigenvalues    EBANDS =     -3226.87021292
  atomic energy  EATOM  =     45086.50549395
  Solvation  Ediel_sol  =         0.00000000
  ---------------------------------------------------
  free energy    TOTEN  =      -179.91261811 eV

  energy without entropy =     -179.77243589  energy(sigma->0) =     -179.87757255


--------------------------------------------------------------------------------------------------------




--------------------------------------- Iteration      1(  11)  ---------------------------------------


    POTLOK:  cpu time   13.3801: real time   13.3809
    SETDIJ:  cpu time    0.1213: real time    0.1213
    EDDIAG:  cpu time   67.4228: real time   67.4241
  RMM-DIIS:  cpu time  197.3884: real time  197.3938
    ORTHCH:  cpu time   13.5064: real time   13.5064
       DOS:  cpu time    0.0015: real time    0.0015
    CHARGE:  cpu time   25.7922: real time   25.7922
    MIXING:  cpu time    0.6284: real time    0.6284
    --------------------------------------------
      LOOP:  cpu time  318.2410: real time  318.2485

 eigenvalue-minimisations  :   734
 total energy-change (2. order) : 0.1693512E+01  (-0.2069859E+00)
 number of electron     559.9999860 magnetization 
 augmentation part      241.4704134 magnetization 

 Broyden mixing:
  rms(total) = 0.16855E+01    rms(broyden)= 0.16852E+01
  rms(prec ) = 0.20065E+01
  weight for this iteration     100.00

 eigenvalues of (default mixing * dielectric matrix)
  average eigenvalue GAMMA=   0.2613
  0.8605  0.2045  0.2045  0.1095  0.1095  0.0797

 Free energy of the ion-electron system (eV)
  ---------------------------------------------------
  alpha Z        PSCENC =        75.25431677
  Ewald energy   TEWEN  =    138049.69718540
  -Hartree energ DENC   =   -181995.29759461
  -exchange      EXHF   =         0.00000000
  -V(xc)+E(xc)   XCENC  =     -1696.79744535
  PAW double counting   =     45899.42637129   -42388.47949728
  entropy T*S    EENTRO =        -0.10603511
  eigenvalues    EBANDS =     -3208.42190141
  atomic energy  EATOM  =     45086.50549395
  Solvation  Ediel_sol  =         0.00000000
  ---------------------------------------------------
  free energy    TOTEN  =      -178.21910634 eV

  energy without entropy =     -178.11307124  energy(sigma->0) =     -178.19259757


--------------------------------------------------------------------------------------------------------




--------------------------------------- Iteration      1(  12)  ---------------------------------------


    POTLOK:  cpu time   13.3240: real time   13.3249
    SETDIJ:  cpu time    0.1225: real time    0.1225
    EDDIAG:  cpu time   67.5294: real time   67.5328
  RMM-DIIS:  cpu time  196.2692: real time  196.2718
    ORTHCH:  cpu time   13.6444: real time   13.6444
       DOS:  cpu time    0.0015: real time    0.0015
    CHARGE:  cpu time   25.6043: real time   25.6043
    MIXING:  cpu time    0.6889: real time    0.6889
    --------------------------------------------
      LOOP:  cpu time  317.1842: real time  317.1910

 eigenvalue-minimisations  :   730
 total energy-change (2. order) : 0.6883996E+00  (-0.1558128E+00)
 number of electron     559.9999869 magnetization 
 augmentation part      241.5438096 magnetization 

 Broyden mixing:
  rms(total) = 0.16690E+01    rms(broyden)= 0.16687E+01
  rms(prec ) = 0.19776E+01
  weight for this iteration     100.00

 eigenvalues of (default mixing * dielectric matrix)
  average eigenvalue GAMMA=   0.2598
  0.9285  0.2440  0.2440  0.1283  0.1283  0.0728  0.0728

 Free energy of the ion-electron system (eV)
  ---------------------------------------------------
  alpha Z        PSCENC =        75.25431677
  Ewald energy   TEWEN  =    138049.69718540
  -Hartree energ DENC   =   -182016.35295362
  -exchange      EXHF   =         0.00000000
  -V(xc)+E(xc)   XCENC  =     -1696.58528838
  PAW double counting   =     45934.07799956   -42421.59884856
  entropy T*S    EENTRO =        -0.14650338
  eigenvalues    EBANDS =     -3188.38210850
  atomic energy  EATOM  =     45086.50549395
  Solvation  Ediel_sol  =         0.00000000
  ---------------------------------------------------
  free energy    TOTEN  =      -177.53070677 eV

  energy without entropy =     -177.38420338  energy(sigma->0) =     -177.49408092


--------------------------------------------------------------------------------------------------------




--------------------------------------- Iteration      1(  13)  ---------------------------------------


    POTLOK:  cpu time   13.0720: real time   13.0728
    SETDIJ:  cpu time    0.1194: real time    0.1194
    EDDIAG:  cpu time   67.8519: real time   67.8527
  RMM-DIIS:  cpu time  194.5932: real time  194.5958
    ORTHCH:  cpu time   13.6483: real time   13.6483
       DOS:  cpu time    0.0015: real time    0.0015
    CHARGE:  cpu time   25.5721: real time   25.5721
    MIXING:  cpu time    0.6755: real time    0.6755
    --------------------------------------------
      LOOP:  cpu time  315.5340: real time  315.5382

 eigenvalue-minimisations  :   716
 total energy-change (2. order) : 0.7781188E+00  (-0.1388394E+00)
 number of electron     559.9999850 magnetization 
 augmentation part      241.6192568 magnetization 

 Broyden mixing:
  rms(total) = 0.15108E+01    rms(broyden)= 0.15105E+01
  rms(prec ) = 0.17559E+01
  weight for this iteration     100.00

 eigenvalues of (default mixing * dielectric matrix)
  average eigenvalue GAMMA=   0.2843
  1.1155  0.3251  0.3251  0.1368  0.1368  0.0840  0.0840  0.0667

 Free energy of the ion-electron system (eV)
  ---------------------------------------------------
  alpha Z        PSCENC =        75.25431677
  Ewald energy   TEWEN  =    138049.69718540
  -Hartree energ DENC   =   -182038.46963589
  -exchange      EXHF   =         0.00000000
  -V(xc)+E(xc)   XCENC  =     -1696.34170734
  PAW double counting   =     45969.15539321   -42455.06907766
  entropy T*S    EENTRO =        -0.07906289
  eigenvalues    EBANDS =     -3167.40549351
  atomic energy  EATOM  =     45086.50549395
  Solvation  Ediel_sol  =         0.00000000
  ---------------------------------------------------
  free energy    TOTEN  =      -176.75258795 eV

  energy without entropy =     -176.67352506  energy(sigma->0) =     -176.73282223


--------------------------------------------------------------------------------------------------------




--------------------------------------- Iteration      1(  14)  ---------------------------------------


    POTLOK:  cpu time   13.1204: real time   13.1213
    SETDIJ:  cpu time    0.1234: real time    0.1234
    EDDIAG:  cpu time   67.7190: real time   67.7210
  RMM-DIIS:  cpu time  193.9449: real time  193.9465
    ORTHCH:  cpu time   13.7495: real time   13.7495
       DOS:  cpu time    0.0016: real time    0.0016
    CHARGE:  cpu time   25.5323: real time   25.5322
    MIXING:  cpu time    0.6853: real time    0.6853
    --------------------------------------------
      LOOP:  cpu time  314.8762: real time  314.8808

 eigenvalue-minimisations  :   709
 total energy-change (2. order) : 0.3454252E+00  (-0.1713812E+00)
 number of electron     559.9999877 magnetization 
 augmentation part      241.3837477 magnetization 

 Broyden mixing:
  rms(total) = 0.12056E+01    rms(broyden)= 0.12052E+01
  rms(prec ) = 0.13781E+01
  weight for this iteration     100.00

 eigenvalues of (default mixing * dielectric matrix)
  average eigenvalue GAMMA=   0.3148
  1.3715  0.5480  0.2176  0.1831  0.1349  0.1349  0.0899  0.0899  0.0635

 Free energy of the ion-electron system (eV)
  ---------------------------------------------------
  alpha Z        PSCENC =        75.25431677
  Ewald energy   TEWEN  =    138049.69718540
  -Hartree energ DENC   =   -182082.31054757
  -exchange      EXHF   =         0.00000000
  -V(xc)+E(xc)   XCENC  =     -1695.78831686
  PAW double counting   =     46039.30049282   -42521.97466680
  entropy T*S    EENTRO =        -0.13603077
  eigenvalues    EBANDS =     -3126.95508966
  atomic energy  EATOM  =     45086.50549395
  Solvation  Ediel_sol  =         0.00000000
  ---------------------------------------------------
  free energy    TOTEN  =      -176.40716272 eV

  energy without entropy =     -176.27113195  energy(sigma->0) =     -176.37315503


--------------------------------------------------------------------------------------------------------




--------------------------------------- Iteration      1(  15)  ---------------------------------------


    POTLOK:  cpu time   13.1267: real time   13.1276
    SETDIJ:  cpu time    0.1208: real time    0.1208
    EDDIAG:  cpu time   67.2680: real time   67.2708
  RMM-DIIS:  cpu time  191.6244: real time  191.6262
    ORTHCH:  cpu time   13.6993: real time   13.6993
       DOS:  cpu time    0.0015: real time    0.0015
    CHARGE:  cpu time   25.7668: real time   25.7668
    MIXING:  cpu time    0.7315: real time    0.7315
    --------------------------------------------
      LOOP:  cpu time  312.3390: real time  312.3445

 eigenvalue-minimisations  :   703
 total energy-change (2. order) : 0.2809567E+00  (-0.1195469E+00)
 number of electron     559.9999854 magnetization 
 augmentation part      241.1843482 magnetization 

 Broyden mixing:
  rms(total) = 0.12277E+01    rms(broyden)= 0.12274E+01
  rms(prec ) = 0.14440E+01
  weight for this iteration     100.00

 eigenvalues of (default mixing * dielectric matrix)
  average eigenvalue GAMMA=   0.3202
  1.4706  0.6350  0.2495  0.2495  0.1337  0.1337  0.0918  0.0918  0.0834  0.0630

 Free energy of the ion-electron system (eV)
  ---------------------------------------------------
  alpha Z        PSCENC =        75.25431677
  Ewald energy   TEWEN  =    138049.69718540
  -Hartree energ DENC   =   -182135.17119246
  -exchange      EXHF   =         0.00000000
  -V(xc)+E(xc)   XCENC  =     -1695.05002150
  PAW double counting   =     46117.82980223   -42596.63869533
  entropy T*S    EENTRO =        -0.02582683
  eigenvalues    EBANDS =     -3078.52726822
  atomic energy  EATOM  =     45086.50549395
  Solvation  Ediel_sol  =         0.00000000
  ---------------------------------------------------
  free energy    TOTEN  =      -176.12620599 eV

  energy without entropy =     -176.10037916  energy(sigma->0) =     -176.11974928


--------------------------------------------------------------------------------------------------------




--------------------------------------- Iteration      1(  16)  ---------------------------------------


    POTLOK:  cpu time   12.9526: real time   12.9536
    SETDIJ:  cpu time    0.1211: real time    0.1211
    EDDIAG:  cpu time   67.4794: real time   67.4801
  RMM-DIIS:  cpu time  192.4255: real time  192.4298
    ORTHCH:  cpu time   13.6569: real time   13.6569
       DOS:  cpu time    0.0016: real time    0.0016
    CHARGE:  cpu time   25.8227: real time   25.8226
    MIXING:  cpu time    0.8008: real time    0.8008
    --------------------------------------------
      LOOP:  cpu time  313.2606: real time  313.2664

 eigenvalue-minimisations  :   706
 total energy-change (2. order) : 0.3397635E+00  (-0.5595169E-01)
 number of electron     559.9999871 magnetization 
 augmentation part      241.1841497 magnetization 

 Broyden mixing:
  rms(total) = 0.10401E+01    rms(broyden)= 0.10398E+01
  rms(prec ) = 0.12207E+01
  weight for this iteration     100.00

 eigenvalues of (default mixing * dielectric matrix)
  average eigenvalue GAMMA=   0.3247
  1.5506  0.7347  0.2921  0.2921  0.1380  0.1380  0.0969  0.0969  0.0851  0.0851
  0.0617

 Free energy of the ion-electron system (eV)
  ---------------------------------------------------
  alpha Z        PSCENC =        75.25431677
  Ewald energy   TEWEN  =    138049.69718540
  -Hartree energ DENC   =   -182153.10025510
  -exchange      EXHF   =         0.00000000
  -V(xc)+E(xc)   XCENC  =     -1694.77100588
  PAW double counting   =     46142.10495809   -42619.57092770
  entropy T*S    EENTRO =        -0.05618909
  eigenvalues    EBANDS =     -3061.85001891
  atomic energy  EATOM  =     45086.50549395
  Solvation  Ediel_sol  =         0.00000000
  ---------------------------------------------------
  free energy    TOTEN  =      -175.78644247 eV

  energy without entropy =     -175.73025339  energy(sigma->0) =     -175.77239520


--------------------------------------------------------------------------------------------------------




--------------------------------------- Iteration      1(  17)  ---------------------------------------


    POTLOK:  cpu time   12.9067: real time   12.9076
    SETDIJ:  cpu time    0.1224: real time    0.1224
    EDDIAG:  cpu time   67.2628: real time   67.2632
  RMM-DIIS:  cpu time  195.1659: real time  195.1704
    ORTHCH:  cpu time   13.7666: real time   13.7667
       DOS:  cpu time    0.0014: real time    0.0014
    CHARGE:  cpu time   25.8526: real time   25.8528
    MIXING:  cpu time    0.8499: real time    0.8499
    --------------------------------------------
      LOOP:  cpu time  315.9284: real time  315.9344

 eigenvalue-minimisations  :   713
 total energy-change (2. order) : 0.1224002E+00  (-0.4424609E-01)
 number of electron     559.9999874 magnetization 
 augmentation part      241.1499325 magnetization 

 Broyden mixing:
  rms(total) = 0.12639E+01    rms(broyden)= 0.12637E+01
  rms(prec ) = 0.15073E+01
  weight for this iteration     100.00

 eigenvalues of (default mixing * dielectric matrix)
  average eigenvalue GAMMA=   0.3237
  1.5755  0.8553  0.3285  0.3285  0.1389  0.1389  0.1074  0.1074  0.0906  0.0906
  0.0647  0.0579

 Free energy of the ion-electron system (eV)
  ---------------------------------------------------
  alpha Z        PSCENC =        75.25431677
  Ewald energy   TEWEN  =    138049.69718540
  -Hartree energ DENC   =   -182173.48054798
  -exchange      EXHF   =         0.00000000
  -V(xc)+E(xc)   XCENC  =     -1694.53191647
  PAW double counting   =     46162.42455016   -42638.58792496
  entropy T*S    EENTRO =         0.01464006
  eigenvalues    EBANDS =     -3042.95983919
  atomic energy  EATOM  =     45086.50549395
  Solvation  Ediel_sol  =         0.00000000
  ---------------------------------------------------
  free energy    TOTEN  =      -175.66404225 eV

  energy without entropy =     -175.67868232  energy(sigma->0) =     -175.66770227


--------------------------------------------------------------------------------------------------------




--------------------------------------- Iteration      1(  18)  ---------------------------------------


    POTLOK:  cpu time   13.1351: real time   13.1361
    SETDIJ:  cpu time    0.1195: real time    0.1195
    EDDIAG:  cpu time   67.4230: real time   67.4234
  RMM-DIIS:  cpu time  193.9278: real time  193.9306
    ORTHCH:  cpu time   13.7843: real time   13.7843
       DOS:  cpu time    0.0015: real time    0.0015
    CHARGE:  cpu time   25.6337: real time   25.6336
    MIXING:  cpu time    0.9606: real time    0.9606
    --------------------------------------------
      LOOP:  cpu time  314.9855: real time  314.9896

 eigenvalue-minimisations  :   714
 total energy-change (2. order) :-0.3986832E-01  (-0.3235211E-01)
 number of electron     559.9999866 magnetization 
 augmentation part      241.0663175 magnetization 

 Broyden mixing:
  rms(total) = 0.13556E+01    rms(broyden)= 0.13554E+01
  rms(prec ) = 0.16381E+01
  weight for this iteration     100.00

 eigenvalues of (default mixing * dielectric matrix)
  average eigenvalue GAMMA=   0.3267
  1.6446  0.9714  0.3688  0.3688  0.1403  0.1403  0.1244  0.1244  0.0900  0.0900
  0.0778  0.0620  0.0445

 Free energy of the ion-electron system (eV)
  ---------------------------------------------------
  alpha Z        PSCENC =        75.25431677
  Ewald energy   TEWEN  =    138049.69718540
  -Hartree energ DENC   =   -182188.71848070
  -exchange      EXHF   =         0.00000000
  -V(xc)+E(xc)   XCENC  =     -1694.37048247
  PAW double counting   =     46172.68153980   -42648.02309601
  entropy T*S    EENTRO =         0.00739634
  eigenvalues    EBANDS =     -3028.73778365
  atomic energy  EATOM  =     45086.50549395
  Solvation  Ediel_sol  =         0.00000000
  ---------------------------------------------------
  free energy    TOTEN  =      -175.70391058 eV

  energy without entropy =     -175.71130691  energy(sigma->0) =     -175.70575966


--------------------------------------------------------------------------------------------------------




--------------------------------------- Iteration      1(  19)  ---------------------------------------


    POTLOK:  cpu time   13.2573: real time   13.2581
    SETDIJ:  cpu time    0.1207: real time    0.1207
    EDDIAG:  cpu time   67.4200: real time   67.4293
  RMM-DIIS:  cpu time  193.3099: real time  193.3139
    ORTHCH:  cpu time   13.9432: real time   13.9453
       DOS:  cpu time    0.0016: real time    0.0016
    CHARGE:  cpu time   25.6427: real time   25.6426
    MIXING:  cpu time    0.9978: real time    0.9978
    --------------------------------------------
      LOOP:  cpu time  314.6932: real time  314.7093

 eigenvalue-minimisations  :   714
 total energy-change (2. order) : 0.8441578E-01  (-0.3684975E-01)
 number of electron     559.9999878 magnetization 
 augmentation part      241.0645737 magnetization 

 Broyden mixing:
  rms(total) = 0.11789E+01    rms(broyden)= 0.11786E+01
  rms(prec ) = 0.14022E+01
  weight for this iteration     100.00

 eigenvalues of (default mixing * dielectric matrix)
  average eigenvalue GAMMA=   0.3335
  1.7544  1.0961  0.4044  0.4044  0.1412  0.1412  0.1606  0.1064  0.1064  0.0914
  0.0914  0.0703  0.0612  0.0396

 Free energy of the ion-electron system (eV)
  ---------------------------------------------------
  alpha Z        PSCENC =        75.25431677
  Ewald energy   TEWEN  =    138049.69718540
  -Hartree energ DENC   =   -182205.27441894
  -exchange      EXHF   =         0.00000000
  -V(xc)+E(xc)   XCENC  =     -1694.19148299
  PAW double counting   =     46183.53495385   -42657.93198075
  entropy T*S    EENTRO =        -0.05077034
  eigenvalues    EBANDS =     -3013.16279175
  atomic energy  EATOM  =     45086.50549395
  Solvation  Ediel_sol  =         0.00000000
  ---------------------------------------------------
  free energy    TOTEN  =      -175.61949479 eV

  energy without entropy =     -175.56872445  energy(sigma->0) =     -175.60680221


--------------------------------------------------------------------------------------------------------




--------------------------------------- Iteration      1(  20)  ---------------------------------------


    POTLOK:  cpu time   13.4220: real time   13.4246
    SETDIJ:  cpu time    0.1212: real time    0.1212
    EDDIAG:  cpu time   67.1725: real time   67.1726
  RMM-DIIS:  cpu time  191.5420: real time  191.5634
    ORTHCH:  cpu time   13.7294: real time   13.7293
       DOS:  cpu time    0.0016: real time    0.0016
    CHARGE:  cpu time   25.6482: real time   25.6480
    MIXING:  cpu time    1.0597: real time    1.0597
    --------------------------------------------
      LOOP:  cpu time  312.6966: real time  312.7205

 eigenvalue-minimisations  :   706
 total energy-change (2. order) : 0.1369711E+00  (-0.3838005E-01)
 number of electron     559.9999873 magnetization 
 augmentation part      241.0366205 magnetization 

 Broyden mixing:
  rms(total) = 0.85855E+00    rms(broyden)= 0.85830E+00
  rms(prec ) = 0.10062E+01
  weight for this iteration     100.00

 eigenvalues of (default mixing * dielectric matrix)
  average eigenvalue GAMMA=   0.3383
  1.8173  1.2733  0.3840  0.3840  0.2697  0.1424  0.1424  0.1140  0.1140  0.0841
  0.0841  0.0825  0.0825  0.0615  0.0380

 Free energy of the ion-electron system (eV)
  ---------------------------------------------------
  alpha Z        PSCENC =        75.25431677
  Ewald energy   TEWEN  =    138049.69718540
  -Hartree energ DENC   =   -182225.50554626
  -exchange      EXHF   =         0.00000000
  -V(xc)+E(xc)   XCENC  =     -1693.98240420
  PAW double counting   =     46194.10560151   -42667.44575528
  entropy T*S    EENTRO =        -0.10819113
  eigenvalues    EBANDS =     -2994.00322447
  atomic energy  EATOM  =     45086.50549395
  Solvation  Ediel_sol  =         0.00000000
  ---------------------------------------------------
  free energy    TOTEN  =      -175.48252371 eV

  energy without entropy =     -175.37433259  energy(sigma->0) =     -175.45547593


--------------------------------------------------------------------------------------------------------




--------------------------------------- Iteration      1(  21)  ---------------------------------------


    POTLOK:  cpu time   13.4042: real time   13.4051
    SETDIJ:  cpu time    0.1184: real time    0.1184
    EDDIAG:  cpu time   67.6517: real time   67.6579
  RMM-DIIS:  cpu time  190.3643: real time  190.3687
    ORTHCH:  cpu time   13.6431: real time   13.6430
       DOS:  cpu time    0.0014: real time    0.0014
    CHARGE:  cpu time   26.0472: real time   26.0490
    MIXING:  cpu time    1.1648: real time    1.1651
    --------------------------------------------
      LOOP:  cpu time  312.3949: real time  312.4086

 eigenvalue-minimisations  :   698
 total energy-change (2. order) : 0.1528208E+00  (-0.2655172E-01)
 number of electron     559.9999858 magnetization 
 augmentation part      240.9960584 magnetization 

 Broyden mixing:
  rms(total) = 0.69096E+00    rms(broyden)= 0.69073E+00
  rms(prec ) = 0.79252E+00
  weight for this iteration     100.00

 eigenvalues of (default mixing * dielectric matrix)
  average eigenvalue GAMMA=   0.3568
  1.9859  1.3672  0.5927  0.3463  0.3463  0.1408  0.1408  0.1331  0.1331  0.0939
  0.0939  0.0831  0.0831  0.0692  0.0612  0.0379

 Free energy of the ion-electron system (eV)
  ---------------------------------------------------
  alpha Z        PSCENC =        75.25431677
  Ewald energy   TEWEN  =    138049.69718540
  -Hartree energ DENC   =   -182244.62621029
  -exchange      EXHF   =         0.00000000
  -V(xc)+E(xc)   XCENC  =     -1693.78967394
  PAW double counting   =     46199.55651860   -42672.04313905
  entropy T*S    EENTRO =        -0.12935286
  eigenvalues    EBANDS =     -2975.75484151
  atomic energy  EATOM  =     45086.50549395
  Solvation  Ediel_sol  =         0.00000000
  ---------------------------------------------------
  free energy    TOTEN  =      -175.32970294 eV

  energy without entropy =     -175.20035007  energy(sigma->0) =     -175.29736472


--------------------------------------------------------------------------------------------------------




--------------------------------------- Iteration      1(  22)  ---------------------------------------


    POTLOK:  cpu time   13.3452: real time   13.3461
    SETDIJ:  cpu time    0.1255: real time    0.1255
    EDDIAG:  cpu time   67.4036: real time   67.4049
  RMM-DIIS:  cpu time  189.3827: real time  189.3882
    ORTHCH:  cpu time   13.5110: real time   13.5110
       DOS:  cpu time    0.0015: real time    0.0015
    CHARGE:  cpu time   25.6539: real time   25.6541
    MIXING:  cpu time    1.1913: real time    1.1916
    --------------------------------------------
      LOOP:  cpu time  310.6147: real time  310.6228

 eigenvalue-minimisations  :   696
 total energy-change (2. order) : 0.9433554E-01  (-0.2039259E-01)
 number of electron     559.9999872 magnetization 
 augmentation part      241.0960025 magnetization 

 Broyden mixing:
  rms(total) = 0.66345E+00    rms(broyden)= 0.66330E+00
  rms(prec ) = 0.77052E+00
  weight for this iteration     100.00

 eigenvalues of (default mixing * dielectric matrix)
  average eigenvalue GAMMA=   0.3555
  2.0257  1.4423  0.6561  0.3650  0.3650  0.1407  0.1407  0.1464  0.1464  0.0996
  0.0996  0.0851  0.0851  0.0730  0.0730  0.0614  0.0378

 Free energy of the ion-electron system (eV)
  ---------------------------------------------------
  alpha Z        PSCENC =        75.25431677
  Ewald energy   TEWEN  =    138049.69718540
  -Hartree energ DENC   =   -182258.96964671
  -exchange      EXHF   =         0.00000000
  -V(xc)+E(xc)   XCENC  =     -1693.58114842
  PAW double counting   =     46200.11296390   -42671.85705079
  entropy T*S    EENTRO =        -0.10876518
  eigenvalues    EBANDS =     -2962.28871631
  atomic energy  EATOM  =     45086.50549395
  Solvation  Ediel_sol  =         0.00000000
  ---------------------------------------------------
  free energy    TOTEN  =      -175.23536739 eV

  energy without entropy =     -175.12660221  energy(sigma->0) =     -175.20817609


--------------------------------------------------------------------------------------------------------




--------------------------------------- Iteration      1(  23)  ---------------------------------------


    POTLOK:  cpu time   13.4161: real time   13.4169
    SETDIJ:  cpu time    0.1279: real time    0.1278
    EDDIAG:  cpu time   67.5080: real time   67.5090
  RMM-DIIS:  cpu time  190.1105: real time  190.1264
    ORTHCH:  cpu time   13.3953: real time   13.3953
       DOS:  cpu time    0.0015: real time    0.0015
    CHARGE:  cpu time   26.0773: real time   26.0771
    MIXING:  cpu time    1.3491: real time    1.3491
    --------------------------------------------
      LOOP:  cpu time  311.9857: real time  312.0032

 eigenvalue-minimisations  :   698
 total energy-change (2. order) : 0.1810546E+00  (-0.9214814E-02)
 number of electron     559.9999869 magnetization 
 augmentation part      241.0583194 magnetization 

 Broyden mixing:
  rms(total) = 0.39244E+00    rms(broyden)= 0.39231E+00
  rms(prec ) = 0.44819E+00
  weight for this iteration     100.00

 eigenvalues of (default mixing * dielectric matrix)
  average eigenvalue GAMMA=   0.3592
  2.1624  1.4822  0.6835  0.3790  0.3790  0.2149  0.1410  0.1410  0.1289  0.1289
[...]
 -0.006  -0.012   0.003   0.005   0.006  -0.006  -0.012   0.003
 -0.010  -0.021   0.006   0.008   0.010  -0.010  -0.020   0.006
 -0.015  -0.004   0.012   0.000   0.022  -0.014  -0.004   0.012
  0.000  -0.022  -0.005  -0.016  -0.000   0.000  -0.022  -0.005
 -0.022   0.000   0.009  -0.004  -0.016  -0.021   0.000   0.009
 -0.018  -0.006   0.015   0.000   0.027  -0.017  -0.005   0.015
  0.000  -0.027  -0.007  -0.019  -0.000   0.000  -0.026  -0.007
 -0.027   0.000   0.011  -0.006  -0.019  -0.026   0.000   0.010
 total augmentation occupancy for first ion, spin component:           1
  1.540  -0.032   0.008   0.018   0.023   0.074  -0.008  -0.003   0.035  -0.009   0.082  -0.028   0.012   0.002   0.003  -0.019
 -0.032   1.412   0.029   0.071  -0.001  -0.007   0.067   0.011  -0.014  -0.008   0.232  -0.069   0.019   0.001   0.003  -0.006
  0.008   0.029   1.548   0.000   0.001  -0.003   0.013   0.071  -0.012   0.017  -0.047   0.016  -0.003  -0.007  -0.006   0.016
  0.018   0.071   0.000   1.344   0.047   0.033  -0.013  -0.012   0.089  -0.023  -0.088   0.023  -0.001  -0.008  -0.005   0.001
  0.023  -0.001   0.001   0.047   1.447  -0.010  -0.008   0.016  -0.023   0.065  -0.102   0.033  -0.003  -0.010  -0.009   0.026
  0.074  -0.007  -0.003   0.033  -0.010   0.214   0.018  -0.001  -0.045   0.004  -0.048   0.002   0.017  -0.010   0.034  -0.004
 -0.008   0.067   0.013  -0.013  -0.008   0.018   0.261  -0.023  -0.003   0.006  -0.111   0.007  -0.001   0.051  -0.010  -0.000
 -0.003   0.011   0.071  -0.012   0.016  -0.001  -0.023   0.213   0.014  -0.020   0.028  -0.001  -0.012   0.009  -0.017   0.003
  0.035  -0.014  -0.012   0.089  -0.023  -0.045  -0.003   0.014   0.258   0.008   0.044  -0.004  -0.009   0.036   0.004   0.000
 -0.009  -0.008   0.017  -0.023   0.065   0.004   0.006  -0.020   0.008   0.256   0.047  -0.002  -0.038   0.002   0.049   0.007
  0.082   0.232  -0.047  -0.088  -0.102  -0.048  -0.111   0.028   0.044   0.047   0.961  -0.142   0.084   0.013   0.065  -0.013
 -0.028  -0.069   0.016   0.023   0.033   0.002   0.007  -0.001  -0.004  -0.002  -0.142   0.023  -0.014  -0.003  -0.010   0.003
  0.012   0.019  -0.003  -0.001  -0.003   0.017  -0.001  -0.012  -0.009  -0.038   0.084  -0.014   0.029  -0.008  -0.004  -0.003
  0.002   0.001  -0.007  -0.008  -0.010  -0.010   0.051   0.009   0.036   0.002   0.013  -0.003  -0.008   0.036   0.004   0.000
  0.003   0.003  -0.006  -0.005  -0.009   0.034  -0.010  -0.017   0.004   0.049   0.065  -0.010  -0.004   0.004   0.034  -0.000
 -0.019  -0.006   0.016   0.001   0.026  -0.004  -0.000   0.003   0.000   0.007  -0.013   0.003  -0.003   0.000  -0.000   0.001
  0.001  -0.028  -0.006  -0.019   0.001   0.001  -0.008  -0.001  -0.006  -0.000  -0.003   0.001   0.000  -0.003  -0.000   0.000
 -0.028   0.001   0.012  -0.005  -0.020  -0.006   0.001   0.003  -0.001  -0.007  -0.008   0.001  -0.000  -0.000  -0.003   0.000


------------------------ aborting loop because EDIFF is reached ----------------------------------------


    CHARGE:  cpu time   25.5448: real time   25.5446
    FORLOC:  cpu time    6.8242: real time    6.8242
    FORNL :  cpu time   66.1801: real time   66.1796
    STRESS:  cpu time  199.1393: real time  199.1422
    FORCOR:  cpu time   22.2513: real time   22.2528
    FORHAR:  cpu time    9.6775: real time    9.6775
    MIXING:  cpu time    3.7031: real time    3.7038
    OFIELD:  cpu time    0.0000: real time    0.0000

  FORCE on cell =-STRESS in cart. coord.  units (eV):
  Direction    XX          YY          ZZ          XY          YZ          ZX
  --------------------------------------------------------------------------------------
  Alpha Z    75.25432    75.25432    75.25432
  Ewald   48111.28758 44114.16188 45824.14202  -747.54230   617.26632 -1983.02042
  Hartree 62776.31197 59038.40838 60587.78282  -687.98566   566.70319 -1784.83012
  E(xc)   -2903.83440 -2905.49262 -2904.06033    -0.33531     0.18905    -1.46144
  Local  ************************************  1428.87114 -1180.03706  3745.29846
  n-local  -883.58536  -880.51906  -882.72297     1.46192    -0.90663     1.12385
  augment  4102.51571  4106.21697  4102.25822     0.49027    -0.12211     4.15128
  Kinetic  7795.54210  7815.15017  7798.96774     4.38665    -2.43674    17.92061
  Fock        0.00000     0.00000     0.00000     0.00000     0.00000     0.00000
  -------------------------------------------------------------------------------------
  Total    -111.57779  -113.51126  -114.45956    -0.65330     0.65602    -0.81779
  in kB      -6.62101    -6.73575    -6.79202    -0.03877     0.03893    -0.04853
  external pressure =       -6.72 kB  Pullay stress =        0.00 kB


 VOLUME and BASIS-vectors are now :
 -----------------------------------------------------------------------------
  energy-cutoff  :      400.00
  volume of cell :    27000.00
      direct lattice vectors                 reciprocal lattice vectors
    30.000000000  0.000000000  0.000000000     0.033333333  0.000000000  0.000000000
     0.000000000 30.000000000  0.000000000     0.000000000  0.033333333  0.000000000
     0.000000000  0.000000000 30.000000000     0.000000000  0.000000000  0.033333333

  length of vectors
    30.000000000 30.000000000 30.000000000     0.033333333  0.033333333  0.033333333


 FORCES acting on ions
    electron-ion (+dipol)            ewald-force                    non-local-force                 convergence-correction
 -----------------------------------------------------------------------------------------------
   0.389E+03 0.976E+03 0.422E+03   -.387E+03 -.973E+03 -.421E+03   -.152E+01 -.181E+01 -.196E+00   0.115E-02 0.104E-02 0.220E-02
   -.973E+03 -.393E+03 0.419E+03   0.970E+03 0.391E+03 -.418E+03   0.182E+01 0.150E+01 -.225E+00   -.219E-02 -.338E-02 0.303E-02
   -.398E+03 0.974E+03 0.419E+03   0.395E+03 -.971E+03 -.419E+03   0.152E+01 -.181E+01 -.228E+00   -.279E-02 0.277E-02 0.902E-03
   0.964E+03 -.393E+03 0.441E+03   -.961E+03 0.391E+03 -.440E+03   -.183E+01 0.151E+01 -.268E+00   -.415E-02 -.267E-02 0.770E-02
   -.386E+01 0.589E+03 0.968E+03   0.381E+01 -.588E+03 -.964E+03   0.293E-01 -.302E+00 -.236E+01   0.168E-02 -.530E-02 0.640E-02
   -.138E+02 0.597E+03 -.964E+03   0.138E+02 -.596E+03 0.960E+03   0.229E-01 -.329E+00 0.234E+01   0.334E-02 0.449E-02 -.204E-02
   -.487E+01 0.114E+04 0.342E+01   0.487E+01 -.113E+04 -.344E+01   -.457E-02 -.311E+01 0.137E-01   0.300E-03 0.620E-02 -.309E-02
   0.113E+04 0.215E+02 0.546E+02   -.113E+04 -.216E+02 -.548E+02   -.315E+01 0.285E-01 0.114E+00   0.736E-03 -.144E-02 0.409E-02
   -.113E+04 0.918E+00 0.225E+01   0.113E+04 -.919E+00 -.225E+01   0.310E+01 0.141E-02 -.682E-03   -.114E-02 0.106E-03 0.250E-02
   -.980E+01 -.114E+04 0.678E+01   0.982E+01 0.113E+04 -.680E+01   -.139E-01 0.310E+01 0.898E-02   0.846E-03 -.251E-02 0.504E-02
   -.580E+03 0.579E+03 0.814E+03   0.578E+03 -.577E+03 -.811E+03   0.155E+01 -.156E+01 -.220E+01   -.106E-02 0.584E-03 0.421E-02
   -.585E+03 0.582E+03 -.812E+03   0.582E+03 -.580E+03 0.808E+03   0.154E+01 -.156E+01 0.220E+01   -.461E-02 0.283E-02 -.201E-02
   0.573E+03 -.579E+03 0.822E+03   -.571E+03 0.577E+03 -.819E+03   -.157E+01 0.155E+01 -.219E+01   -.349E-02 0.157E-02 -.106E-02
   0.487E+03 -.621E+03 -.819E+03   -.485E+03 0.619E+03 0.816E+03   -.158E+01 0.133E+01 0.196E+01   0.505E-02 -.195E-02 -.211E-02
   0.574E+03 0.582E+03 0.819E+03   -.572E+03 -.580E+03 -.816E+03   -.158E+01 -.154E+01 -.219E+01   0.165E-02 -.694E-02 0.374E-02
   0.558E+03 0.608E+03 -.813E+03   -.555E+03 -.605E+03 0.810E+03   -.161E+01 -.154E+01 0.220E+01   0.328E-02 0.346E-02 -.137E-02
   -.581E+03 -.578E+03 0.815E+03   0.579E+03 0.576E+03 -.812E+03   0.156E+01 0.155E+01 -.219E+01   0.345E-02 -.175E-02 0.123E-02
   -.588E+03 -.579E+03 -.812E+03   0.586E+03 0.577E+03 0.808E+03   0.152E+01 0.156E+01 0.219E+01   -.385E-02 -.527E-02 -.224E-02
   0.384E+03 0.983E+03 -.412E+03   -.382E+03 -.980E+03 0.411E+03   -.148E+01 -.183E+01 0.220E+00   0.348E-02 0.408E-02 -.319E-02
   -.976E+03 -.393E+03 -.414E+03   0.973E+03 0.391E+03 0.414E+03   0.183E+01 0.150E+01 0.195E+00   -.412E-02 -.683E-03 -.166E-03
   -.327E+03 0.323E+03 0.458E+03   0.327E+03 -.324E+03 -.458E+03   -.376E+00 0.347E+00 0.515E+00   0.108E-02 -.276E-02 0.492E-02
   0.966E+03 0.403E+03 0.434E+03   -.963E+03 -.400E+03 -.433E+03   -.181E+01 -.152E+01 -.253E+00   -.953E-04 -.610E-02 0.594E-02
   -.400E+03 -.973E+03 0.421E+03   0.398E+03 0.970E+03 -.421E+03   0.152E+01 0.180E+01 -.199E+00   0.443E-02 -.574E-03 0.762E-02
   -.401E+03 0.976E+03 -.414E+03   0.398E+03 -.973E+03 0.413E+03   0.149E+01 -.182E+01 0.230E+00   -.841E-03 0.396E-02 -.287E-03
   0.829E+03 -.384E+03 -.221E+03   -.831E+03 0.383E+03 0.226E+03   0.225E+01 0.862E+00 -.429E+01   0.524E-02 0.533E-03 0.299E-02
   -.973E+03 0.395E+03 0.418E+03   0.970E+03 -.393E+03 -.418E+03   0.183E+01 -.151E+01 -.215E+00   -.317E-02 -.111E-02 0.482E-03
   0.385E+03 -.976E+03 0.426E+03   -.383E+03 0.973E+03 -.426E+03   -.154E+01 0.179E+01 -.172E+00   0.324E-02 0.227E-02 0.943E-02
   0.312E+03 0.326E+03 0.463E+03   -.313E+03 -.327E+03 -.464E+03   0.339E+00 0.391E+00 0.566E+00   0.412E-02 -.879E-02 0.876E-02
   -.928E+01 0.645E+03 0.642E+01   0.931E+01 -.646E+03 -.645E+01   -.250E-01 0.746E+00 0.189E-01   0.296E-03 0.265E-02 -.105E-02
   -.589E+03 0.831E+00 0.967E+03   0.588E+03 -.835E+00 -.963E+03   0.307E+00 0.789E-02 -.236E+01   0.143E-02 -.447E-02 0.205E-02
   -.595E+03 0.208E+01 -.964E+03   0.595E+03 -.209E+01 0.960E+03   0.262E+00 0.102E-02 0.236E+01   -.525E-02 0.244E-02 -.302E-02
   0.581E+03 0.234E+01 0.974E+03   -.581E+03 -.232E+01 -.971E+03   -.316E+00 -.435E-02 -.234E+01   -.167E-02 -.721E-02 0.607E-03
   0.494E+03 0.515E+02 -.973E+03   -.493E+03 -.518E+02 0.970E+03   -.471E+00 0.256E+00 0.198E+01   0.513E-02 0.684E-02 -.238E-02
   0.750E+03 0.775E+03 0.135E+02   -.748E+03 -.773E+03 -.135E+02   -.111E+01 -.118E+01 -.412E-01   0.292E-02 -.925E-03 -.106E-02
   -.767E+03 -.761E+03 0.395E+01   0.765E+03 0.759E+03 -.396E+01   0.114E+01 0.114E+01 0.192E-02   -.290E-02 -.343E-02 0.482E-02
   -.765E+03 0.763E+03 0.298E+01   0.763E+03 -.761E+03 -.297E+01   0.115E+01 -.114E+01 -.629E-02   -.532E-02 0.164E-02 -.976E-03
   0.737E+03 -.772E+03 0.320E+02   -.735E+03 0.770E+03 -.319E+02   -.114E+01 0.134E+01 -.106E+00   0.322E-02 -.221E-02 0.115E-01
   -.492E+01 0.141E+01 0.107E+04   0.491E+01 -.140E+01 -.107E+04   0.865E-02 0.206E-03 -.161E+01   0.717E-02 -.654E-02 0.332E-02
   -.268E+02 0.717E+01 -.107E+04   0.267E+02 -.718E+01 0.107E+04   0.576E-01 -.112E-02 0.164E+01   0.834E-03 0.357E-02 -.447E-02
   0.942E+03 0.456E+03 -.379E+03   -.939E+03 -.454E+03 0.378E+03   -.183E+01 -.121E+01 0.294E+00   0.201E-02 0.276E-02 -.264E-02
   -.407E+03 -.976E+03 -.412E+03   0.404E+03 0.973E+03 0.412E+03   0.151E+01 0.182E+01 0.222E+00   -.428E-02 -.707E-02 0.260E-03
   -.333E+03 0.326E+03 -.449E+03   0.333E+03 -.326E+03 0.450E+03   -.384E+00 0.375E+00 -.518E+00   -.464E-02 0.444E-02 0.513E-04
   0.310E+03 -.320E+03 0.467E+03   -.310E+03 0.321E+03 -.467E+03   0.370E+00 -.362E+00 0.518E+00   0.567E-02 -.467E-02 0.136E-01
   0.295E+03 0.339E+03 -.442E+03   -.295E+03 -.339E+03 0.442E+03   0.384E+00 0.347E+00 -.542E+00   0.577E-02 0.531E-02 -.213E-02
   -.975E+03 0.396E+03 -.414E+03   0.972E+03 -.394E+03 0.414E+03   0.182E+01 -.151E+01 0.194E+00   -.351E-02 0.446E-02 -.229E-03
   0.368E+03 -.988E+03 -.405E+03   -.365E+03 0.985E+03 0.405E+03   -.151E+01 0.187E+01 0.237E+00   0.410E-03 -.705E-02 0.411E-02
   -.328E+03 -.320E+03 0.459E+03   0.328E+03 0.321E+03 -.459E+03   -.374E+00 -.362E+00 0.521E+00   0.276E-02 -.454E-02 0.957E-02
   0.615E+03 0.127E+02 0.319E+02   -.616E+03 -.125E+02 -.317E+02   0.854E+00 -.191E+00 -.163E+00   0.351E-02 -.248E-02 0.835E-02
   -.645E+03 0.160E+01 0.396E+01   0.646E+03 -.160E+01 -.399E+01   -.730E+00 -.100E-02 0.215E-01   -.492E-02 0.618E-03 0.398E-02
   -.509E+01 -.587E+03 0.970E+03   0.509E+01 0.586E+03 -.966E+03   0.126E-02 0.284E+00 -.235E+01   0.671E-02 0.151E-03 0.118E-02
   -.268E+02 -.593E+03 -.965E+03   0.268E+02 0.592E+03 0.961E+03   0.434E-01 0.315E+00 0.238E+01   -.426E-02 -.556E-02 -.251E-02
   -.154E+02 0.419E+01 0.106E+02   0.153E+02 -.418E+01 -.105E+02   0.192E-01 -.119E-01 -.153E-01   0.319E-02 -.264E-03 0.766E-02
   0.276E+03 -.320E+03 -.434E+03   -.276E+03 0.321E+03 0.435E+03   0.285E+00 -.371E+00 -.380E+00   0.482E-02 0.823E-03 0.421E-02
   -.336E+03 -.320E+03 -.448E+03   0.337E+03 0.321E+03 0.449E+03   -.381E+00 -.383E+00 -.529E+00   -.468E-02 -.336E-02 0.729E-03
   -.154E+02 -.642E+03 0.106E+02   0.154E+02 0.643E+03 -.106E+02   0.238E-01 -.726E+00 -.301E-01   0.274E-02 -.560E-02 0.101E-01
   0.209E+03 -.490E+02 -.168E+03   -.190E+03 0.443E+02 0.154E+03   -.146E+02 0.403E+01 0.953E+01   0.214E-02 0.528E-03 -.283E-03
   0.620E+03 -.168E+03 -.422E+03   -.673E+03 0.182E+03 0.458E+03   0.496E+02 -.134E+02 -.327E+02   0.240E-02 0.457E-03 -.372E-03
 -----------------------------------------------------------------------------------------------
   -.389E+02 0.973E+01 0.281E+02   0.909E-12 0.568E-13 -.102E-11   0.389E+02 -.969E+01 -.282E+02   0.332E-01 -.460E-01 0.129E+00
 
 
 POSITION                                       TOTAL-FORCE (eV/Angst)
 -----------------------------------------------------------------------------------
     13.37281      9.84801     12.50759         0.713517      1.106641      0.279987
     20.15199     16.62719     12.50759        -1.107072     -0.707626      0.289264
     16.62719      9.84801     12.50759        -0.717119      1.106724      0.301106
      9.84801     16.62719     12.50759         1.104632     -0.709512      0.296927
     15.00000     11.47521     10.20639        -0.016298      0.410789      1.285336
     15.00000     11.47521     19.79360        -0.006768      0.413019     -1.279495
     15.00000      8.28283     15.00000         0.000561      1.521058     -0.007931
      8.28283     15.00000     15.00000         1.537777     -0.014177     -0.048510
     21.71717     15.00000     15.00000        -1.520702      0.000577      0.004920
     15.00000     21.71717     15.00000         0.005474     -1.520847     -0.006635
     18.35858     11.64142     10.25025        -0.756329      0.755785      1.071774
     18.35858     11.64142     19.74975        -0.751755      0.764628     -1.077235
     11.64142     18.35858     10.25025         0.765097     -0.755438      1.070613
     11.64142     18.35858     19.74975         0.738612     -0.749165     -1.051580
     11.64142     11.64142     10.25025         0.771641      0.751782      1.074686
     11.64142     11.64142     19.74975         0.774648      0.774669     -1.084243
     18.35858     18.35858     10.25025        -0.764261     -0.750988      1.074548
     18.35858     18.35858     19.74975        -0.742023     -0.768414     -1.079102
     13.37281      9.84801     17.49241         0.699579      1.110882     -0.287953
     20.15199     16.62719     17.49241        -1.116864     -0.706461     -0.280869
     16.73751     13.26249     12.54279         0.116309     -0.104606     -0.154793
      9.84801     13.37281     12.50759         1.099280      0.711953      0.299646
     16.62719     20.15199     12.50759        -0.715748     -1.110767      0.286042
     16.62719      9.84801     17.49241        -0.702097      1.108586     -0.293599
      9.84801     16.62719     17.49241         0.181035     -0.698428      1.160620
     20.15199     13.37281     12.50759        -1.109008      0.709028      0.288686
     13.37281     20.15199     12.50759         0.740207     -1.105772      0.262139
     13.26249     13.26249     12.54279        -0.100427     -0.136076     -0.181246
     15.00000     11.52498     15.00000         0.004246     -0.234362     -0.009155
     18.52479     15.00000     10.20639        -0.411105     -0.001136      1.285942
     18.52479     15.00000     19.79360        -0.396508      0.000978     -1.293425
     11.47521     15.00000     10.20640         0.413401      0.002175      1.282387
     11.47521     15.00000     19.79360         0.342252     -0.008847     -1.206701
     11.49535     11.49535     15.00000         0.818205      0.834831      0.020978
     18.50465     18.50465     15.00000        -0.824900     -0.826381     -0.002008
     18.50465     11.49535     15.00000        -0.826323      0.827153      0.000801
     11.49535     18.50465     15.00000         0.834381     -0.873966     -0.009098
     15.00000     15.00000     10.04368        -0.000566      0.002741      1.174708
     15.00000     15.00000     19.95633        -0.010105     -0.014535     -1.175793
      9.84801     13.37281     17.49241         1.131062      0.575596     -0.341152
     16.62719     20.15199     17.49241        -0.714866     -1.108331     -0.288153
     16.73751     13.26249     17.45721         0.111645     -0.110367      0.159887
     13.26249     16.73751     12.54279        -0.122863      0.116244     -0.149338
     13.26249     13.26249     17.45721        -0.101828     -0.116889      0.151021
     20.15199     13.37281     17.49241        -1.113570      0.709251     -0.282196
     13.37281     20.15199     17.49241         0.723150     -1.094652     -0.287701
     16.73751     16.73751     12.54279         0.109438      0.112955     -0.158337
     11.52498     15.00000     15.00000        -0.238602      0.055028      0.009898
     18.47502     15.00000     15.00000         0.230248     -0.001448     -0.002753
     15.00000     18.52480     10.20639        -0.000566     -0.404843      1.288820
     15.00000     18.52480     19.79360        -0.000190     -0.396689     -1.283598
     15.00000     15.00000     15.00000        -0.016326     -0.000786      0.015155
     13.26249     16.73751     17.45721        -0.029950      0.116368      0.106387
     16.73751     16.73751     17.45721         0.132687      0.106823      0.159014
     15.00000     18.47502     15.00000        -0.006432      0.229806      0.004524
      8.76708     16.64342     19.19082         4.180264     -0.621674     -3.982040
      7.85263     16.88453     19.80567        -3.338175      0.717117      2.598824
 -----------------------------------------------------------------------------------
    total drift:                               -0.003672     -0.005004      0.010931


--------------------------------------------------------------------------------------------------------



  FREE ENERGIE OF THE ION-ELECTRON SYSTEM (eV)
  ---------------------------------------------------
  free  energy   TOTEN  =      -174.93268939 eV

  energy  without entropy=     -174.80963909  energy(sigma->0) =     -174.90192682
 


--------------------------------------------------------------------------------------------------------


    POTLOK:  cpu time   14.1048: real time   14.1053


--------------------------------------------------------------------------------------------------------


     LOOP+:  cpu time18257.6490: real time18258.4067
    4ORBIT:  cpu time    0.0000: real time    0.0000

 total amount of memory used by VASP MPI-rank0  5486941. kBytes
=======================================================================

   base      :      30000. kBytes
   nonlr-proj:      17126. kBytes
   fftplans  :     924480. kBytes
   grid      :    1872000. kBytes
   one-center:        886. kBytes
   wavefun   :    2642449. kBytes
 
  
  
 General timing and accounting informations for this job:
 ========================================================
  
                  Total CPU time used (sec):    18332.793
                            User time (sec):    17299.827
                          System time (sec):     1032.967
                         Elapsed time (sec):    18333.876
  
                   Maximum memory used (kb):     7179188.
                   Average memory used (kb):           0.
  
                          Minor page faults:    811504326
                          Major page faults:            0
                 Voluntary context switches:          467
