       N       E                     dE             d eps       ncg     rms          rms(c)
DAV:   1     0.440700106784E+04    0.44070E+04   -0.10058E+05   688   0.815E+02
DAV:   2     0.203164056797E+04   -0.23754E+04   -0.21347E+04  1208   0.106E+02
DAV:   3     0.244043090491E+03   -0.17876E+04   -0.16802E+04  1000   0.921E+01
DAV:   4    -0.132431933645E+03   -0.37648E+03   -0.31770E+03   848   0.439E+01
DAV:   5    -0.180584253501E+03   -0.48152E+02   -0.39864E+02  1040   0.149E+01    0.194E+01
RMM:   6    -0.180976593246E+03   -0.39234E+00   -0.73402E+01   734   0.981E+00    0.308E+01
RMM:   7    -0.185004899545E+03   -0.40283E+01   -0.25537E+01   876   0.481E+00    0.260E+01
RMM:   8    -0.187835081460E+03   -0.28302E+01   -0.11663E+01   768   0.432E+00    0.274E+01
RMM:   9    -0.185298236888E+03    0.25368E+01   -0.95055E+00   719   0.440E+00    0.287E+01
RMM:  10    -0.183153849380E+03    0.21444E+01   -0.49606E+00   737   0.313E+00    0.261E+01
RMM:  11    -0.180500044852E+03    0.26538E+01   -0.32958E+00   731   0.266E+00    0.198E+01
RMM:  12    -0.178240695843E+03    0.22593E+01   -0.37019E+00   706   0.286E+00    0.165E+01
RMM:  13    -0.177883021230E+03    0.35767E+00   -0.25629E+00   705   0.236E+00    0.244E+01
RMM:  14    -0.177819991942E+03    0.63029E-01   -0.18599E+00   706   0.182E+00    0.217E+01
RMM:  15    -0.177396778572E+03    0.42321E+00   -0.16004E+00   713   0.169E+00    0.196E+01
RMM:  16    -0.176989286628E+03    0.40749E+00   -0.82880E-01   726   0.133E+00    0.158E+01
RMM:  17    -0.176226867618E+03    0.76242E+00   -0.60769E-01   712   0.115E+00    0.148E+01
RMM:  18    -0.176259780572E+03   -0.32913E-01   -0.57522E-01   715   0.112E+00    0.163E+01
RMM:  19    -0.175764294803E+03    0.49549E+00   -0.43108E-01   706   0.975E-01    0.104E+01
RMM:  20    -0.175390953656E+03    0.37334E+00   -0.29876E-01   706   0.796E-01    0.829E+00
RMM:  21    -0.175296662360E+03    0.94291E-01   -0.23802E-01   700   0.729E-01    0.864E+00
RMM:  22    -0.175162562121E+03    0.13410E+00   -0.17219E-01   695   0.623E-01    0.760E+00
RMM:  23    -0.175024121504E+03    0.13844E+00   -0.12902E-01   711   0.546E-01    0.745E+00
RMM:  24    -0.174955486990E+03    0.68635E-01   -0.16628E-01   695   0.602E-01    0.628E+00
RMM:  25    -0.175033846992E+03   -0.78360E-01   -0.19827E-01   700   0.642E-01    0.861E+00
RMM:  26    -0.174923366480E+03    0.11048E+00   -0.11200E-01   699   0.527E-01    0.664E+00
RMM:  27    -0.174857936265E+03    0.65430E-01   -0.11825E-01   696   0.533E-01    0.525E+00
RMM:  28    -0.174776351018E+03    0.81585E-01   -0.83307E-02   691   0.464E-01    0.365E+00
RMM:  29    -0.174763926234E+03    0.12425E-01   -0.71436E-02   691   0.417E-01    0.387E+00
RMM:  30    -0.174728032373E+03    0.35894E-01   -0.44615E-02   691   0.333E-01    0.309E+00
RMM:  31    -0.174700244954E+03    0.27787E-01   -0.36199E-02   691   0.293E-01    0.229E+00
RMM:  32    -0.174682599528E+03    0.17645E-01   -0.19953E-02   693   0.231E-01    0.158E+00
RMM:  33    -0.174680837396E+03    0.17621E-02   -0.13889E-02   692   0.184E-01    0.166E+00
RMM:  34    -0.174671118106E+03    0.97193E-02   -0.80443E-03   689   0.151E-01    0.990E-01
RMM:  35    -0.174668246685E+03    0.28714E-02   -0.57105E-03   690   0.124E-01    0.797E-01
RMM:  36    -0.174667606380E+03    0.64030E-03   -0.37150E-03   691   0.972E-02    0.778E-01
RMM:  37    -0.174666544165E+03    0.10622E-02   -0.27424E-03   689   0.834E-02    0.621E-01
RMM:  38    -0.174666077782E+03    0.46638E-03   -0.15257E-03   686   0.637E-02    0.535E-01
RMM:  39    -0.174667486899E+03   -0.14091E-02   -0.13154E-03   686   0.571E-02    0.491E-01
RMM:  40    -0.174667760678E+03   -0.27378E-03   -0.93402E-04   684   0.518E-02    0.271E-01
RMM:  41    -0.174670335999E+03   -0.25753E-02   -0.97251E-04   682   0.484E-02    0.369E-01
RMM:  42    -0.174673364019E+03   -0.30280E-02   -0.87137E-04   686   0.457E-02    0.277E-01
RMM:  43    -0.174674891206E+03   -0.15272E-02   -0.44562E-04   526   0.331E-02    0.226E-01
RMM:  44    -0.174677782051E+03   -0.28908E-02   -0.52634E-04   573   0.333E-02    0.231E-01
RMM:  45    -0.174679700835E+03   -0.19188E-02   -0.36000E-04   458   0.284E-02    0.209E-01
RMM:  46    -0.174681494988E+03   -0.17942E-02   -0.29165E-04   430   0.246E-02    0.136E-01
RMM:  47    -0.174683407852E+03   -0.19129E-02   -0.28244E-04   431   0.232E-02    0.117E-01
RMM:  48    -0.174685286237E+03   -0.18784E-02   -0.26114E-04   427   0.207E-02    0.132E-01
RMM:  49    -0.174687241402E+03   -0.19552E-02   -0.34179E-04   477   0.212E-02    0.785E-02
RMM:  50    -0.174688035643E+03   -0.79424E-03   -0.12104E-04   411   0.142E-02    0.756E-02
RMM:  51    -0.174689647481E+03   -0.16118E-02   -0.13487E-04   403   0.135E-02    0.517E-02
RMM:  52    -0.174690156275E+03   -0.50879E-03   -0.68901E-05   408   0.954E-03    0.444E-02
RMM:  53    -0.174690893845E+03   -0.73757E-03   -0.51418E-05   407   0.829E-03    0.426E-02
RMM:  54    -0.174691415261E+03   -0.52142E-03   -0.33087E-05   379   0.658E-03    0.256E-02
RMM:  55    -0.174691837913E+03   -0.42265E-03   -0.18449E-05   304   0.519E-03    0.272E-02
RMM:  56    -0.174692068042E+03   -0.23013E-03   -0.72035E-06   216   0.441E-03    0.176E-02
RMM:  57    -0.174692407056E+03   -0.33901E-03   -0.77622E-06   235   0.450E-03    0.193E-02
RMM:  58    -0.174692759740E+03   -0.35268E-03   -0.10461E-05   234   0.438E-03    0.104E-02
RMM:  59    -0.174692976800E+03   -0.21706E-03   -0.41419E-06   155   0.379E-03    0.131E-02
RMM:  60    -0.174693221820E+03   -0.24502E-03   -0.73695E-06   179   0.407E-03    0.112E-02
RMM:  61    -0.174693379544E+03   -0.15772E-03   -0.95252E-06   199   0.398E-03    0.101E-02
RMM:  62    -0.174693559434E+03   -0.17989E-03   -0.90624E-06   179   0.382E-03    0.715E-03
RMM:  63    -0.174693678026E+03   -0.11859E-03   -0.45985E-06   138   0.375E-03    0.486E-03
RMM:  64    -0.174693740652E+03   -0.62626E-04   -0.72063E-06   160   0.372E-03
   1 F= -.17469374E+03 E0= -.17468286E+03  d E =-.435056E-01
