<?xml version="1.0" encoding="ISO-8859-1"?>
<modeling>
 <generator>
  <i name="program" type="string">vasp </i>
  <i name="version" type="string">5.4.4.18Apr17-6-g9f103f2a35  </i>
  <i name="subversion" type="string">(build Sep 03 2018 23:53:05) complex            parallel </i>
  <i name="platform" type="string">LinuxIFC </i>
  <i name="date" type="string">2021 11 25 </i>
  <i name="time" type="string">16:48:02 </i>
 </generator>
 <incar>
  <i type="string" name="SYSTEM"> 6_Pd100_top_free_z(O)</i>
  <i type="int" name="ISTART">     0</i>
  <i type="string" name="PREC">normal   			! encut=max(enmax), ngx,y,z</i>
  <i type="string" name="ALGO"> Fast     			! Mix RMM-DIIS and Dav</i>
  <i type="logical" name="ADDGRID"> F  </i>
  <i type="int" name="ISPIN">     1</i>
  <i type="int" name="ICHARG">     2</i>
  <i type="int" name="NELM">   100</i>
  <i type="int" name="NELMIN">     6</i>
  <i type="int" name="IBRION">     2</i>
  <i name="EDIFF">      0.00010000</i>
  <i name="EDIFFG">     -0.05000000</i>
  <i type="int" name="NSW">     0</i>
  <i type="int" name="ISIF">     2</i>
  <i type="int" name="ISYM">     2</i>
  <i name="ENCUT">    400.00000000</i>
  <i type="string" name="LREAL"> Auto     			! Auto or A projection done</i>
  <i type="int" name="ISMEAR">     2</i>
  <i name="SIGMA">      0.20000000</i>
  <i type="logical" name="LWAVE"> F  </i>
  <i type="logical" name="LCHARG"> F  </i>
  <v type="int" name="KPOINT_BSE">    -1     0     0     0</v>
  <i type="int" name="MAXMEM"> 10000</i>
  <i type="int" name="NELM">   100</i>
  <i type="string" name="GGA"> RP         			! Revised PBE</i>
 </incar>
 <structure name="primitive_cell" >
  <crystal>
   <varray name="basis" >
    <v>      30.00000000       0.00000000       0.00000000 </v>
    <v>       0.00000000      30.00000000       0.00000000 </v>
    <v>       0.00000000       0.00000000      30.00000000 </v>
   </varray>
   <i name="volume">  27000.00000000 </i>
   <varray name="rec_basis" >
    <v>       0.03333333       0.00000000       0.00000000 </v>
    <v>       0.00000000       0.03333333       0.00000000 </v>
    <v>       0.00000000       0.00000000       0.03333333 </v>
   </varray>
  </crystal>
  <varray name="positions" >
   <v>       0.44576020       0.32826710       0.41691983 </v>
   <v>      -0.44576020       0.32826710       0.41691983 </v>
   <v>      -0.50000000       0.38250690       0.34021317 </v>
   <v>      -0.50000000       0.27609440      -0.50000000 </v>
   <v>       0.38804720       0.38804720       0.34167483 </v>
   <v>      -0.50000000       0.38416601      -0.50000000 </v>
   <v>       0.44208300       0.44208300       0.41809300 </v>
   <v>       0.38317830       0.38317830      -0.50000000 </v>
   <v>      -0.44208300       0.44208300       0.41809300 </v>
   <v>       0.44576020       0.32826710      -0.41691977 </v>
   <v>       0.32826705       0.44576024       0.41691983 </v>
   <v>      -0.38804720       0.38804720       0.34167483 </v>
   <v>      -0.38317830       0.38317830      -0.50000000 </v>
   <v>      -0.50000000      -0.50000000       0.33478917 </v>
   <v>      -0.50000000      -0.50000000      -0.50000000 </v>
   <v>      -0.44576020       0.32826710      -0.41691977 </v>
   <v>       0.38250685      -0.49999995       0.34021317 </v>
   <v>       0.44208300       0.44208300      -0.41809297 </v>
   <v>       0.38416599      -0.49999998      -0.50000000 </v>
   <v>      -0.44208300       0.44208300      -0.41809297 </v>
   <v>       0.44208298      -0.44208298       0.41809300 </v>
   <v>       0.32826705       0.44576024      -0.41691977 </v>
   <v>      -0.50000000       0.38250690      -0.34021320 </v>
   <v>       0.32826712      -0.44576022       0.41691983 </v>
   <v>      -0.38250685      -0.49999995       0.34021317 </v>
   <v>      -0.32826705       0.44576024       0.41691983 </v>
   <v>       0.27609443       0.49999998      -0.50000000 </v>
   <v>       0.38804720       0.38804720      -0.34167487 </v>
   <v>      -0.38416599      -0.49999998      -0.50000000 </v>
   <v>      -0.44208298      -0.44208298       0.41809300 </v>
   <v>       0.44208298      -0.44208298      -0.41809297 </v>
   <v>      -0.38804720       0.38804720      -0.34167487 </v>
   <v>       0.38804722      -0.38804722       0.34167483 </v>
   <v>       0.38250685      -0.49999995      -0.34021320 </v>
   <v>       0.32826712      -0.44576022      -0.41691977 </v>
   <v>      -0.32826705       0.44576024      -0.41691977 </v>
   <v>       0.50000000      -0.38250681       0.34021317 </v>
   <v>      -0.50000000      -0.38416596      -0.50000000 </v>
   <v>      -0.44208298      -0.44208298      -0.41809297 </v>
   <v>      -0.50000000      -0.50000000      -0.33478913 </v>
   <v>       0.38317828      -0.38317828      -0.50000000 </v>
   <v>      -0.32826712      -0.44576022       0.41691983 </v>
   <v>      -0.27609443       0.49999998      -0.50000000 </v>
   <v>      -0.38804722      -0.38804722       0.34167483 </v>
   <v>      -0.38250685      -0.49999995      -0.34021320 </v>
   <v>       0.44576027      -0.32826707       0.41691983 </v>
   <v>      -0.38317828      -0.38317828      -0.50000000 </v>
   <v>      -0.32826712      -0.44576022      -0.41691977 </v>
   <v>      -0.44576027      -0.32826707       0.41691983 </v>
   <v>       0.38804722      -0.38804722      -0.34167487 </v>
   <v>      -0.50000000      -0.38250681      -0.34021320 </v>
   <v>       0.44576027      -0.32826707      -0.41691977 </v>
   <v>      -0.44576027      -0.32826707      -0.41691977 </v>
   <v>      -0.50000000      -0.27609445       0.50000000 </v>
   <v>      -0.38804722      -0.38804722      -0.34167487 </v>
   <v>      -0.29922407      -0.42336927      -0.35571787 </v>
   <v>      -0.27005920      -0.41223783      -0.33475933 </v>
  </varray>
 </structure>
 <varray name="primitive_index" >
  <v type="int" >        1 </v>
  <v type="int" >        3 </v>
  <v type="int" >        5 </v>
  <v type="int" >        7 </v>
  <v type="int" >       15 </v>
  <v type="int" >       29 </v>
  <v type="int" >       28 </v>
  <v type="int" >       34 </v>
  <v type="int" >       21 </v>
  <v type="int" >       19 </v>
  <v type="int" >       22 </v>
  <v type="int" >       11 </v>
  <v type="int" >       36 </v>
  <v type="int" >       38 </v>
  <v type="int" >       52 </v>
  <v type="int" >       24 </v>
  <v type="int" >       32 </v>
  <v type="int" >       44 </v>
  <v type="int" >       48 </v>
  <v type="int" >       42 </v>
  <v type="int" >       43 </v>
  <v type="int" >       40 </v>
  <v type="int" >        6 </v>
  <v type="int" >        4 </v>
  <v type="int" >       30 </v>
  <v type="int" >       26 </v>
  <v type="int" >        8 </v>
  <v type="int" >       16 </v>
  <v type="int" >       49 </v>
  <v type="int" >       47 </v>
  <v type="int" >       53 </v>
  <v type="int" >       12 </v>
  <v type="int" >       13 </v>
  <v type="int" >       33 </v>
  <v type="int" >       25 </v>
  <v type="int" >       45 </v>
  <v type="int" >       50 </v>
  <v type="int" >       55 </v>
  <v type="int" >       54 </v>
  <v type="int" >       39 </v>
  <v type="int" >       37 </v>
  <v type="int" >        2 </v>
  <v type="int" >        9 </v>
  <v type="int" >       17 </v>
  <v type="int" >       31 </v>
  <v type="int" >       27 </v>
  <v type="int" >       35 </v>
  <v type="int" >       20 </v>
  <v type="int" >       23 </v>
  <v type="int" >       14 </v>
  <v type="int" >       51 </v>
  <v type="int" >       46 </v>
  <v type="int" >       41 </v>
  <v type="int" >       10 </v>
  <v type="int" >       18 </v>
  <v type="int" >       56 </v>
  <v type="int" >       57 </v>
 </varray>
 <kpoints>
  <generation param="Monkhorst-Pack">
   <v type="int" name="divisions">       1        1        1 </v>
   <v name="usershift">      0.00000000       0.00000000       0.00000000 </v>
   <v name="genvec1">      1.00000000       0.00000000       0.00000000 </v>
   <v name="genvec2">      0.00000000       1.00000000       0.00000000 </v>
   <v name="genvec3">      0.00000000       0.00000000       1.00000000 </v>
   <v name="shift">      0.00000000       0.00000000       0.00000000 </v>
  </generation>
  <varray name="kpointlist" >
   <v>       0.00000000       0.00000000       0.00000000 </v>
  </varray>
  <varray name="weights" >
   <v>       1.00000000 </v>
  </varray>
 </kpoints>
 <parameters>
  <separator name="general" >
   <i type="string" name="SYSTEM">6_Pd100_top_free_z(O)</i>
   <i type="logical" name="LCOMPAT"> F  </i>
  </separator>
  <separator name="electronic" >
   <i type="string" name="PREC">normal</i>
   <i name="ENMAX">    400.00000000</i>
   <i name="ENAUG">    644.87300000</i>
   <i name="EDIFF">      0.00010000</i>
   <i type="int" name="IALGO">    68</i>
   <i type="int" name="IWAVPR">    10</i>
   <i type="int" name="NBANDS">   336</i>
   <i name="NELECT">    560.00000000</i>
   <i type="int" name="TURBO">     0</i>
   <i type="int" name="IRESTART">     0</i>
   <i type="int" name="NREBOOT">     0</i>
   <i type="int" name="NMIN">     0</i>
   <i name="EREF">      0.00000000</i>
   <separator name="electronic smearing" >
    <i type="int" name="ISMEAR">     2</i>
    <i name="SIGMA">      0.20000000</i>
    <i name="KSPACING">      0.50000000</i>
    <i type="logical" name="KGAMMA"> T  </i>
   </separator>
   <separator name="electronic projectors" >
    <i type="logical" name="LREAL"> T  </i>
    <v name="ROPT">     -0.00050000     -0.00050000     -0.00050000</v>
    <i type="int" name="LMAXPAW">  -100</i>
    <i type="int" name="LMAXMIX">     2</i>
    <i type="logical" name="NLSPLINE"> F  </i>
   </separator>
   <separator name="electronic startup" >
    <i type="int" name="ISTART">     0</i>
    <i type="int" name="ICHARG">     2</i>
    <i type="int" name="INIWAV">     1</i>
   </separator>
   <separator name="electronic spin" >
    <i type="int" name="ISPIN">     1</i>
    <i type="logical" name="LNONCOLLINEAR"> F  </i>
    <v name="MAGMOM">      1.00000000      1.00000000      1.00000000      1.00000000      1.00000000      1.00000000      1.00000000      1.00000000      1.00000000      1.00000000      1.00000000      1.00000000      1.00000000      1.00000000      1.00000000      1.00000000      1.00000000      1.00000000      1.00000000      1.00000000
      1.00000000      1.00000000      1.00000000      1.00000000      1.00000000      1.00000000      1.00000000      1.00000000      1.00000000      1.00000000      1.00000000      1.00000000      1.00000000      1.00000000      1.00000000      1.00000000      1.00000000      1.00000000      1.00000000      1.00000000
      1.00000000      1.00000000      1.00000000      1.00000000      1.00000000      1.00000000      1.00000000      1.00000000      1.00000000      1.00000000      1.00000000      1.00000000      1.00000000      1.00000000      1.00000000      1.00000000      1.00000000</v>
    <i name="NUPDOWN">     -1.00000000</i>
    <i type="logical" name="LSORBIT"> F  </i>
    <v name="SAXIS">      0.00000000      0.00000000      1.00000000</v>
    <i type="logical" name="LSPIRAL"> F  </i>
    <v name="QSPIRAL">      0.00000000      0.00000000      0.00000000</v>
    <i type="logical" name="LZEROZ"> F  </i>
   </separator>
   <separator name="electronic exchange-correlation" >
    <i type="logical" name="LASPH"> F  </i>
    <i type="logical" name="LMETAGGA"> F  </i>
   </separator>
   <separator name="electronic convergence" >
    <i type="int" name="NELM">   100</i>
    <i type="int" name="NELMDL">    -5</i>
    <i type="int" name="NELMIN">     6</i>
    <i name="ENINI">    400.00000000</i>
    <separator name="electronic convergence detail" >
     <i type="logical" name="LDIAG"> T  </i>
     <i type="logical" name="LSUBROT"> F  </i>
     <i name="WEIMIN">      0.00000000</i>
     <i name="EBREAK">      0.00000007</i>
     <i name="DEPER">      0.30000000</i>
     <i type="int" name="NRMM">     4</i>
     <i name="TIME">      0.40000000</i>
    </separator>
   </separator>
   <separator name="electronic mixer" >
    <i name="AMIX">      0.40000000</i>
    <i name="BMIX">      1.00000000</i>
    <i name="AMIN">      0.10000000</i>
    <i name="AMIX_MAG">      1.60000000</i>
    <i name="BMIX_MAG">      1.00000000</i>
    <separator name="electronic mixer details" >
     <i type="int" name="IMIX">     4</i>
     <i type="logical" name="MIXFIRST"> F  </i>
     <i type="int" name="MAXMIX">   -45</i>
     <i name="WC">    100.00000000</i>
     <i type="int" name="INIMIX">     1</i>
     <i type="int" name="MIXPRE">     1</i>
     <i type="int" name="MREMOVE">     5</i>
    </separator>
   </separator>
   <separator name="electronic dipolcorrection" >
    <i type="logical" name="LDIPOL"> F  </i>
    <i type="logical" name="LMONO"> F  </i>
    <i type="int" name="IDIPOL">     0</i>
    <i name="EPSILON">      1.00000000</i>
    <v name="DIPOL">   -100.00000000   -100.00000000   -100.00000000</v>
    <i name="EFIELD">      0.00000000</i>
   </separator>
  </separator>
  <separator name="grids" >
   <i type="int" name="NGX">   150</i>
   <i type="int" name="NGY">   150</i>
   <i type="int" name="NGZ">   150</i>
   <i type="int" name="NGXF">   300</i>
   <i type="int" name="NGYF">   300</i>
   <i type="int" name="NGZF">   300</i>
   <i type="logical" name="ADDGRID"> F  </i>
  </separator>
  <separator name="ionic" >
   <i type="int" name="NSW">     0</i>
   <i type="int" name="IBRION">    -1</i>
   <i type="int" name="MDALGO">     0</i>
   <i type="int" name="ISIF">     2</i>
   <i name="PSTRESS">      0.00000000</i>
   <i name="EDIFFG">     -0.05000000</i>
   <i type="int" name="NFREE">     1</i>
   <i name="POTIM">      0.50000000</i>
   <i name="SMASS">     -3.00000000</i>
   <i name="SCALEE">      1.00000000</i>
  </separator>
  <separator name="ionic md" >
   <i name="TEBEG">      0.00010000</i>
   <i name="TEEND">      0.00010000</i>
   <i type="int" name="NBLOCK">     1</i>
   <i type="int" name="KBLOCK">     1</i>
   <i type="int" name="NPACO">   256</i>
   <i name="APACO">     16.00000000</i>
  </separator>
  <separator name="symmetry" >
   <i type="int" name="ISYM">     2</i>
   <i name="SYMPREC">      0.00001000</i>
  </separator>
  <separator name="dos" >
   <i type="int" name="LORBIT">     0</i>
   <v name="RWIGS">     -1.00000000     -1.00000000     -1.00000000</v>
   <i type="int" name="NEDOS">   301</i>
   <i name="EMIN">     10.00000000</i>
   <i name="EMAX">    -10.00000000</i>
   <i name="EFERMI">      0.00000000</i>
  </separator>
  <separator name="writing" >
   <i type="int" name="NWRITE">     2</i>
   <i type="logical" name="LWAVE"> F  </i>
   <i type="logical" name="LDOWNSAMPLE"> F  </i>
   <i type="logical" name="LCHARG"> F  </i>
   <i type="logical" name="LPARD"> F  </i>
   <i type="logical" name="LVTOT"> F  </i>
   <i type="logical" name="LVHAR"> F  </i>
   <i type="logical" name="LELF"> F  </i>
   <i type="logical" name="LOPTICS"> F  </i>
   <v name="STM">      0.00000000      0.00000000      0.00000000      0.00000000      0.00000000      0.00000000      0.00000000</v>
  </separator>
  <separator name="performance" >
   <i type="int" name="NPAR">     1</i>
   <i type="int" name="NSIM">     4</i>
   <i type="int" name="NBLK">    -1</i>
   <i type="logical" name="LPLANE"> T  </i>
   <i type="logical" name="LSCALAPACK"> T  </i>
   <i type="logical" name="LSCAAWARE"> F  </i>
   <i type="logical" name="LSCALU"> F  </i>
   <i type="logical" name="LASYNC"> F  </i>
   <i type="logical" name="LORBITALREAL"> F  </i>
  </separator>
  <separator name="miscellaneous" >
   <i type="int" name="IDIOT">     3</i>
   <i type="int" name="ISPECIAL">     0</i>
   <i type="logical" name="LMUSIC"> F  </i>
   <v name="POMASS">    106.42000000     12.01100000     16.00000000</v>
   <v name="DARWINR">      0.00000000      0.00000000      0.00000000</v>
   <v name="DARWINV">      1.00000000      1.00000000      1.00000000</v>
   <i type="logical" name="LCORR"> T  </i>
  </separator>
  <i type="logical" name="GGA_COMPAT"> T  </i>
  <i type="logical" name="LBERRY"> F  </i>
  <i type="int" name="ICORELEVEL">     0</i>
  <i type="logical" name="LDAU"> F  </i>
  <i type="int" name="I_CONSTRAINED_M">     0</i>
  <separator name="electronic exchange-correlation" >
   <i type="string" name="GGA">RP</i>
   <i type="int" name="VOSKOWN">     0</i>
   <i type="logical" name="LHFCALC"> F  </i>
   <i type="string" name="PRECFOCK"></i>
   <i type="logical" name="LSYMGRAD"> F  </i>
   <i type="logical" name="LHFONE"> F  </i>
   <i type="logical" name="LRHFCALC"> F  </i>
   <i type="logical" name="LTHOMAS"> F  </i>
   <i type="logical" name="LMODELHF"> F  </i>
   <i name="ENCUT4O">     -1.00000000</i>
   <i type="int" name="EXXOEP">     0</i>
   <i type="int" name="FOURORBIT">     0</i>
   <i name="AEXX">      0.00000000</i>
   <i name="HFALPHA">      0.00000000</i>
   <i name="MCALPHA">      0.00000000</i>
   <i name="ALDAX">      1.00000000</i>
   <i name="AGGAX">      1.00000000</i>
   <i name="ALDAC">      1.00000000</i>
   <i name="AGGAC">      1.00000000</i>
   <i type="int" name="NKREDX">     1</i>
   <i type="int" name="NKREDY">     1</i>
   <i type="int" name="NKREDZ">     1</i>
   <i type="logical" name="SHIFTRED"> F  </i>
   <i type="logical" name="ODDONLY"> F  </i>
   <i type="logical" name="EVENONLY"> F  </i>
   <i type="int" name="LMAXFOCK">     0</i>
   <i type="int" name="NMAXFOCKAE">     0</i>
   <i type="logical" name="LFOCKAEDFT"> F  </i>
   <i name="HFSCREEN">      0.00000000</i>
   <i name="HFSCREENC">      0.00000000</i>
   <i type="int" name="NBANDSGWLOW">     0</i>
  </separator>
  <separator name="vdW DFT" >
   <i type="logical" name="LUSE_VDW"> F  </i>
   <i name="Zab_VDW">     -0.84910000</i>
   <i name="PARAM1">      0.12340000</i>
   <i name="PARAM2">      1.00000000</i>
   <i name="PARAM3">      0.00000000</i>
  </separator>
  <separator name="model GW" >
   <i type="int" name="MODEL_GW">     0</i>
   <i name="MODEL_EPS0">    284.21052632</i>
   <i name="MODEL_ALPHA">      1.00000000</i>
  </separator>
  <separator name="linear response parameters" >
   <i type="logical" name="LEPSILON"> F  </i>
   <i type="logical" name="LRPA"> F  </i>
   <i type="logical" name="LNABLA"> F  </i>
   <i type="logical" name="LVEL"> F  </i>
   <i type="int" name="KINTER">     0</i>
   <i name="CSHIFT">      0.10000000</i>
   <i name="OMEGAMAX">     -1.00000000</i>
   <i name="DEG_THRESHOLD">      0.00200000</i>
   <i name="RTIME">     -0.10000000</i>
   <i name="WPLASMAI">      0.00000000</i>
   <v name="DFIELD">      0.00000000      0.00000000      0.00000000</v>
   <v name="WPLASMA">      0.00000000      0.00000000      0.00000000      0.00000000      0.00000000      0.00000000      0.00000000      0.00000000      0.00000000</v>
  </separator>
  <separator name="orbital magnetization" >
   <i type="logical" name="NUCIND"> F  </i>
   <v name="MAGPOS">      0.00000000      0.00000000      0.00000000</v>
   <i type="logical" name="LNICSALL"> T  </i>
   <i type="logical" name="ORBITALMAG"> F  </i>
   <i type="logical" name="LMAGBLOCH"> F  </i>
   <i type="logical" name="LCHIMAG"> F  </i>
   <i type="logical" name="LGAUGE"> T  </i>
   <i type="int" name="MAGATOM">     0</i>
   <v name="MAGDIPOL">      0.00000000      0.00000000      0.00000000</v>
   <v name="AVECCONST">      0.00000000      0.00000000      0.00000000</v>
  </separator>
  <separator name="response functions" >
   <i type="logical" name="LADDER"> F  </i>
   <i type="logical" name="LRPAFORCE"> F  </i>
   <i type="logical" name="LFXC"> F  </i>
   <i type="logical" name="LHARTREE"> T  </i>
   <i type="int" name="IBSE">     0</i>
   <v type="int" name="KPOINT">    -1     0     0     0</v>
   <i type="logical" name="LTCTE"> F  </i>
   <i type="logical" name="LTETE"> F  </i>
   <i type="logical" name="LTRIPLET"> F  </i>
   <i type="logical" name="LFXCEPS"> F  </i>
   <i type="logical" name="LFXHEG"> F  </i>
   <i type="int" name="NATURALO">     2</i>
   <i type="logical" name="L2ORDER"> F  </i>
   <i type="logical" name="LMP2LT"> F  </i>
   <i type="logical" name="LUSEW"> F  </i>
   <i name="ENCUTGW">     -2.00000000</i>
   <i name="ENCUTGWSOFT">     -2.00000000</i>
   <i name="ENCUTLF">     -1.00000000</i>
   <i type="int" name="LMAXMP2">    -1</i>
   <i name="SCISSOR">      0.00000000</i>
   <i type="int" name="NOMEGA">     0</i>
   <i type="int" name="NOMEGAR">     0</i>
   <i type="int" name="NBANDSGW">    -1</i>
   <i type="int" name="NBANDSO">    -1</i>
   <i type="int" name="NBANDSV">    -1</i>
   <i type="int" name="NELM">   100</i>
   <i type="int" name="NELMHF">     1</i>
   <i type="int" name="DIM">     3</i>
   <i type="int" name="ANTIRES">     0</i>
   <i name="OMEGAMAX">    -30.00000000</i>
   <i name="OMEGAMIN">    -30.00000000</i>
   <i name="OMEGATL">   -200.00000000</i>
   <i type="int" name="OMEGAGRID">   140</i>
   <i name="CSHIFT">     -0.10000000</i>
   <i type="logical" name="SELFENERGY"> F  </i>
   <i type="logical" name="LSPECTRAL"> F  </i>
   <i type="logical" name="LSPECTRALGW"> F  </i>
   <i type="logical" name="LSINGLES"> F  </i>
   <i type="logical" name="LFERMIGW"> F  </i>
   <i type="logical" name="ODDONLYGW"> F  </i>
   <i type="logical" name="EVENONLYGW"> F  </i>
   <i type="int" name="NKREDLFX">     1</i>
   <i type="int" name="NKREDLFY">     1</i>
   <i type="int" name="NKREDLFZ">     1</i>
   <i type="int" name="MAXMEM"> 10000</i>
   <i type="int" name="TELESCOPE">     0</i>
   <i type="int" name="TAUPAR">     1</i>
   <i type="int" name="OMEGAPAR">    -1</i>
   <i name="LAMBDA">      1.00000000</i>
  </separator>
  <separator name="External order field" >
   <i name="OFIELD_KAPPA">      0.00000000</i>
   <v name="OFIELD_K">      0.00000000      0.00000000      0.00000000</v>
   <i name="OFIELD_Q6_NEAR">      0.00000000</i>
   <i name="OFIELD_Q6_FAR">      0.00000000</i>
   <i name="OFIELD_A">      0.00000000</i>
  </separator>
 </parameters>
 <atominfo>
  <atoms>      57 </atoms>
  <types>       3 </types>
  <array name="atoms" >
   <dimension dim="1">ion</dimension>
   <field type="string">element</field>
   <field type="int">atomtype</field>
   <set>
    <rc><c>Pd</c><c>   1</c></rc>
    <rc><c>Pd</c><c>   1</c></rc>
    <rc><c>Pd</c><c>   1</c></rc>
    <rc><c>Pd</c><c>   1</c></rc>
    <rc><c>Pd</c><c>   1</c></rc>
    <rc><c>Pd</c><c>   1</c></rc>
    <rc><c>Pd</c><c>   1</c></rc>
    <rc><c>Pd</c><c>   1</c></rc>
    <rc><c>Pd</c><c>   1</c></rc>
    <rc><c>Pd</c><c>   1</c></rc>
    <rc><c>Pd</c><c>   1</c></rc>
    <rc><c>Pd</c><c>   1</c></rc>
    <rc><c>Pd</c><c>   1</c></rc>
    <rc><c>Pd</c><c>   1</c></rc>
    <rc><c>Pd</c><c>   1</c></rc>
    <rc><c>Pd</c><c>   1</c></rc>
    <rc><c>Pd</c><c>   1</c></rc>
    <rc><c>Pd</c><c>   1</c></rc>
    <rc><c>Pd</c><c>   1</c></rc>
    <rc><c>Pd</c><c>   1</c></rc>
    <rc><c>Pd</c><c>   1</c></rc>
    <rc><c>Pd</c><c>   1</c></rc>
    <rc><c>Pd</c><c>   1</c></rc>
    <rc><c>Pd</c><c>   1</c></rc>
    <rc><c>Pd</c><c>   1</c></rc>
    <rc><c>Pd</c><c>   1</c></rc>
    <rc><c>Pd</c><c>   1</c></rc>
    <rc><c>Pd</c><c>   1</c></rc>
    <rc><c>Pd</c><c>   1</c></rc>
    <rc><c>Pd</c><c>   1</c></rc>
    <rc><c>Pd</c><c>   1</c></rc>
    <rc><c>Pd</c><c>   1</c></rc>
    <rc><c>Pd</c><c>   1</c></rc>
    <rc><c>Pd</c><c>   1</c></rc>
    <rc><c>Pd</c><c>   1</c></rc>
    <rc><c>Pd</c><c>   1</c></rc>
    <rc><c>Pd</c><c>   1</c></rc>
    <rc><c>Pd</c><c>   1</c></rc>
    <rc><c>Pd</c><c>   1</c></rc>
    <rc><c>Pd</c><c>   1</c></rc>
    <rc><c>Pd</c><c>   1</c></rc>
    <rc><c>Pd</c><c>   1</c></rc>
    <rc><c>Pd</c><c>   1</c></rc>
    <rc><c>Pd</c><c>   1</c></rc>
    <rc><c>Pd</c><c>   1</c></rc>
    <rc><c>Pd</c><c>   1</c></rc>
    <rc><c>Pd</c><c>   1</c></rc>
    <rc><c>Pd</c><c>   1</c></rc>
    <rc><c>Pd</c><c>   1</c></rc>
    <rc><c>Pd</c><c>   1</c></rc>
    <rc><c>Pd</c><c>   1</c></rc>
    <rc><c>Pd</c><c>   1</c></rc>
    <rc><c>Pd</c><c>   1</c></rc>
    <rc><c>Pd</c><c>   1</c></rc>
    <rc><c>Pd</c><c>   1</c></rc>
    <rc><c>C </c><c>   2</c></rc>
    <rc><c>O </c><c>   3</c></rc>
   </set>
  </array>
  <array name="atomtypes" >
   <dimension dim="1">type</dimension>
   <field type="int">atomspertype</field>
   <field type="string">element</field>
   <field>mass</field>
   <field>valence</field>
   <field type="string">pseudopotential</field>
   <set>
    <rc><c>  55</c><c>Pd</c><c>    106.42000000</c><c>     10.00000000</c><c>  PAW_PBE Pd 04Jan2005                  </c></rc>
    <rc><c>   1</c><c>C </c><c>     12.01100000</c><c>      4.00000000</c><c>  PAW_PBE C 08Apr2002                   </c></rc>
    <rc><c>   1</c><c>O </c><c>     16.00000000</c><c>      6.00000000</c><c>  PAW_PBE O 08Apr2002                   </c></rc>
   </set>
  </array>
 </atominfo>
 <structure name="initialpos" >
  <crystal>
   <varray name="basis" >
    <v>      30.00000000       0.00000000       0.00000000 </v>
    <v>       0.00000000      30.00000000       0.00000000 </v>
    <v>       0.00000000       0.00000000      30.00000000 </v>
   </varray>
   <i name="volume">  27000.00000000 </i>
   <varray name="rec_basis" >
    <v>       0.03333333       0.00000000       0.00000000 </v>
    <v>       0.00000000       0.03333333       0.00000000 </v>
    <v>       0.00000000       0.00000000       0.03333333 </v>
   </varray>
  </crystal>
  <varray name="positions" >
   <v>       0.44576020       0.32826710       0.41691983 </v>
   <v>       0.67173288       0.55423978       0.41691983 </v>
   <v>       0.55423980       0.32826710       0.41691983 </v>
   <v>       0.32826712       0.55423978       0.41691983 </v>
   <v>       0.50000000       0.38250690       0.34021317 </v>
   <v>       0.50000000       0.38250690       0.65978680 </v>
   <v>       0.50000000       0.27609440       0.50000000 </v>
   <v>       0.27609443       0.49999998       0.50000000 </v>
   <v>       0.72390557       0.49999998       0.50000000 </v>
   <v>       0.50000000       0.72390555       0.50000000 </v>
   <v>       0.61195280       0.38804720       0.34167483 </v>
   <v>       0.61195280       0.38804720       0.65832513 </v>
   <v>       0.38804722       0.61195278       0.34167483 </v>
   <v>       0.38804722       0.61195278       0.65832513 </v>
   <v>       0.38804720       0.38804720       0.34167483 </v>
   <v>       0.38804720       0.38804720       0.65832513 </v>
   <v>       0.61195278       0.61195278       0.34167483 </v>
   <v>       0.61195278       0.61195278       0.65832513 </v>
   <v>       0.44576020       0.32826710       0.58308023 </v>
   <v>       0.67173288       0.55423978       0.58308023 </v>
   <v>       0.55791699       0.44208301       0.41809300 </v>
   <v>       0.32826705       0.44576024       0.41691983 </v>
   <v>       0.55423973       0.67173293       0.41691983 </v>
   <v>       0.55423980       0.32826710       0.58308023 </v>
   <v>       0.32826712       0.55423978       0.58308023 </v>
   <v>       0.67173295       0.44576024       0.41691983 </v>
   <v>       0.44576027       0.67173293       0.41691983 </v>
   <v>       0.44208301       0.44208301       0.41809300 </v>
   <v>       0.50000000       0.38416601       0.50000000 </v>
   <v>       0.61749315       0.50000005       0.34021317 </v>
   <v>       0.61749315       0.50000005       0.65978680 </v>
   <v>       0.38250685       0.50000005       0.34021317 </v>
   <v>       0.38250685       0.50000005       0.65978680 </v>
   <v>       0.38317830       0.38317830       0.50000000 </v>
   <v>       0.61682172       0.61682172       0.50000000 </v>
   <v>       0.61682170       0.38317830       0.50000000 </v>
   <v>       0.38317828       0.61682172       0.50000000 </v>
   <v>       0.50000000       0.50000000       0.33478917 </v>
   <v>       0.50000000       0.50000000       0.66521087 </v>
   <v>       0.32826705       0.44576024       0.58308023 </v>
   <v>       0.55423973       0.67173293       0.58308023 </v>
   <v>       0.55791699       0.44208301       0.58190703 </v>
   <v>       0.44208298       0.55791702       0.41809300 </v>
   <v>       0.44208301       0.44208301       0.58190703 </v>
   <v>       0.67173295       0.44576024       0.58308023 </v>
   <v>       0.44576027       0.67173293       0.58308023 </v>
   <v>       0.55791702       0.55791702       0.41809300 </v>
   <v>       0.38416599       0.50000002       0.50000000 </v>
   <v>       0.61583401       0.50000002       0.50000000 </v>
   <v>       0.50000000       0.61749319       0.34021317 </v>
   <v>       0.50000000       0.61749319       0.65978680 </v>
   <v>       0.50000000       0.50000000       0.50000000 </v>
   <v>       0.44208298       0.55791702       0.58190703 </v>
   <v>       0.55791702       0.55791702       0.58190703 </v>
   <v>       0.50000000       0.61583404       0.50000000 </v>
   <v>       0.70077593       0.57663073       0.64428213 </v>
   <v>       0.72994080       0.58776217       0.66524067 </v>
  </varray>
  <varray name="selective"  type="logical" >
   <v type="logical" >  F  F  F </v>
   <v type="logical" >  F  F  F </v>
   <v type="logical" >  F  F  F </v>
   <v type="logical" >  F  F  F </v>
   <v type="logical" >  F  F  F </v>
   <v type="logical" >  F  F  F </v>
   <v type="logical" >  F  F  F </v>
   <v type="logical" >  F  F  F </v>
   <v type="logical" >  F  F  F </v>
   <v type="logical" >  F  F  F </v>
   <v type="logical" >  F  F  F </v>
   <v type="logical" >  F  F  F </v>
   <v type="logical" >  F  F  F </v>
   <v type="logical" >  F  F  F </v>
   <v type="logical" >  F  F  F </v>
   <v type="logical" >  F  F  F </v>
   <v type="logical" >  F  F  F </v>
   <v type="logical" >  F  F  F </v>
   <v type="logical" >  F  F  F </v>
   <v type="logical" >  F  F  F </v>
   <v type="logical" >  F  F  F </v>
   <v type="logical" >  F  F  F </v>
   <v type="logical" >  F  F  F </v>
   <v type="logical" >  F  F  F </v>
   <v type="logical" >  F  F  F </v>
   <v type="logical" >  F  F  F </v>
   <v type="logical" >  F  F  F </v>
   <v type="logical" >  F  F  F </v>
   <v type="logical" >  F  F  F </v>
   <v type="logical" >  F  F  F </v>
   <v type="logical" >  F  F  F </v>
   <v type="logical" >  F  F  F </v>
   <v type="logical" >  F  F  F </v>
   <v type="logical" >  F  F  F </v>
   <v type="logical" >  F  F  F </v>
   <v type="logical" >  F  F  F </v>
   <v type="logical" >  F  F  F </v>
   <v type="logical" >  F  F  F </v>
   <v type="logical" >  F  F  F </v>
   <v type="logical" >  F  F  F </v>
   <v type="logical" >  F  F  F </v>
   <v type="logical" >  F  F  F </v>
   <v type="logical" >  F  F  F </v>
   <v type="logical" >  F  F  F </v>
   <v type="logical" >  F  F  F </v>
   <v type="logical" >  F  F  F </v>
   <v type="logical" >  F  F  F </v>
   <v type="logical" >  F  F  F </v>
   <v type="logical" >  F  F  F </v>
   <v type="logical" >  F  F  F </v>
   <v type="logical" >  F  F  F </v>
   <v type="logical" >  F  F  F </v>
   <v type="logical" >  F  F  F </v>
   <v type="logical" >  F  F  F </v>
   <v type="logical" >  F  F  F </v>
   <v type="logical" >  F  F  F </v>
   <v type="logical" >  F  F  F </v>
  </varray>
  <nose>
   <v>      -3.00000000       0.00000000       0.00010000       0.00010000 </v>
  </nose>
 </structure>
 <calculation>
  <scstep>
   <time name="dav">  359.89  359.94</time>
   <time name="total">  374.03  374.08</time>
   <energy>
    <i name="alphaZ">     75.25431677 </i>
    <i name="ewald"> 137959.88980132 </i>
    <i name="hartreedc">-181323.46371389 </i>
    <i name="XCdc">  -1703.29046138 </i>
    <i name="pawpsdc">  44873.02882129 </i>
    <i name="pawaedc"> -41398.84523641 </i>
    <i name="eentropy">      0.01423643 </i>
    <i name="bandstr">    818.25429305 </i>
    <i name="atom">  45086.50549395 </i>
    <i name="e_fr_energy">   4387.34755114 </i>
    <i name="e_wo_entrp">   4387.33331471 </i>
    <i name="e_0_energy">   4387.34399203 </i>
   </energy>
  </scstep>
  <scstep>
   <time name="dav">  568.21  568.21</time>
   <time name="total">  568.21  568.21</time>
   <energy>
    <i name="e_fr_energy">   2030.40311624 </i>
    <i name="e_wo_entrp">   2030.46347592 </i>
    <i name="e_0_energy">   2030.41820616 </i>
   </energy>
  </scstep>
  <scstep>
   <time name="dav">  482.26  482.26</time>
   <time name="total">  482.26  482.27</time>
   <energy>
    <i name="e_fr_energy">    240.79235496 </i>
    <i name="e_wo_entrp">    240.77380431 </i>
    <i name="e_0_energy">    240.78771730 </i>
   </energy>
  </scstep>
  <scstep>
   <time name="dav">  411.73  411.73</time>
   <time name="total">  411.73  411.73</time>
   <energy>
    <i name="e_fr_energy">   -132.40176805 </i>
    <i name="e_wo_entrp">   -132.39361489 </i>
    <i name="e_0_energy">   -132.39972976 </i>
   </energy>
  </scstep>
  <scstep>
   <time name="dav">  505.84  505.84</time>
   <time name="total">  531.60  531.60</time>
   <energy>
    <i name="e_fr_energy">   -179.27894343 </i>
    <i name="e_wo_entrp">   -179.73584545 </i>
    <i name="e_0_energy">   -179.39316894 </i>
   </energy>
  </scstep>
  <scstep>
   <time name="diag">   66.32   66.32</time>
   <time name="diis">  204.27  204.28</time>
   <time name="orth">   13.65   13.65</time>
   <time name="total">  322.96  322.97</time>
   <energy>
    <i name="e_fr_energy">   -179.75739751 </i>
    <i name="e_wo_entrp">   -179.37903752 </i>
    <i name="e_0_energy">   -179.66280751 </i>
   </energy>
  </scstep>
  <scstep>
   <time name="diag">   66.35   66.36</time>
   <time name="diis">  237.64  237.65</time>
   <time name="orth">   13.53   13.54</time>
   <time name="total">  356.09  356.10</time>
   <energy>
    <i name="e_fr_energy">   -181.83252753 </i>
    <i name="e_wo_entrp">   -181.82888279 </i>
    <i name="e_0_energy">   -181.83161635 </i>
   </energy>
  </scstep>
  <scstep>
   <time name="diag">   66.39   66.39</time>
   <time name="diis">  221.62  221.63</time>
   <time name="orth">   13.27   13.27</time>
   <time name="total">  339.89  339.90</time>
   <energy>
    <i name="e_fr_energy">   -183.07738594 </i>
    <i name="e_wo_entrp">   -182.98568563 </i>
    <i name="e_0_energy">   -183.05446086 </i>
   </energy>
  </scstep>
  <scstep>
   <time name="diag">   66.30   66.31</time>
   <time name="diis">  200.56  200.57</time>
   <time name="orth">   13.25   13.25</time>
   <time name="total">  319.04  319.05</time>
   <energy>
    <i name="e_fr_energy">   -182.33545586 </i>
    <i name="e_wo_entrp">   -182.26824591 </i>
    <i name="e_0_energy">   -182.31865337 </i>
   </energy>
  </scstep>
  <scstep>
   <time name="diag">   66.24   66.24</time>
   <time name="diis">  205.58  205.58</time>
   <time name="orth">   13.19   13.19</time>
   <time name="total">  323.84  323.84</time>
   <energy>
    <i name="e_fr_energy">   -180.28275274 </i>
    <i name="e_wo_entrp">   -180.05465843 </i>
    <i name="e_0_energy">   -180.22572916 </i>
   </energy>
  </scstep>
  <scstep>
   <time name="diag">   66.29   66.29</time>
   <time name="diis">  204.51  204.51</time>
   <time name="orth">   13.19   13.19</time>
   <time name="total">  323.06  323.07</time>
   <energy>
    <i name="e_fr_energy">   -178.30801353 </i>
    <i name="e_wo_entrp">   -178.20768866 </i>
    <i name="e_0_energy">   -178.28293231 </i>
   </energy>
  </scstep>
  <scstep>
   <time name="diag">   66.22   66.22</time>
   <time name="diis">  199.59  199.60</time>
   <time name="orth">   13.25   13.25</time>
   <time name="total">  318.04  318.05</time>
   <energy>
    <i name="e_fr_energy">   -177.06979178 </i>
    <i name="e_wo_entrp">   -176.89058192 </i>
    <i name="e_0_energy">   -177.02498932 </i>
   </energy>
  </scstep>
  <scstep>
   <time name="diag">   66.23   66.23</time>
   <time name="diis">  198.00  198.01</time>
   <time name="orth">   13.23   13.23</time>
   <time name="total">  316.31  316.32</time>
   <energy>
    <i name="e_fr_energy">   -176.22501858 </i>
    <i name="e_wo_entrp">   -176.12750910 </i>
    <i name="e_0_energy">   -176.20064121 </i>
   </energy>
  </scstep>
  <scstep>
   <time name="diag">   66.27   66.27</time>
   <time name="diis">  195.63  195.64</time>
   <time name="orth">   13.25   13.25</time>
   <time name="total">  313.93  313.94</time>
   <energy>
    <i name="e_fr_energy">   -176.58962592 </i>
    <i name="e_wo_entrp">   -176.52324005 </i>
    <i name="e_0_energy">   -176.57302945 </i>
   </energy>
  </scstep>
  <scstep>
   <time name="diag">   66.41   66.41</time>
   <time name="diis">  195.69  195.70</time>
   <time name="orth">   13.25   13.25</time>
   <time name="total">  314.75  314.76</time>
   <energy>
    <i name="e_fr_energy">   -176.21263811 </i>
    <i name="e_wo_entrp">   -176.07930083 </i>
    <i name="e_0_energy">   -176.17930379 </i>
   </energy>
  </scstep>
  <scstep>
   <time name="diag">   66.34   66.34</time>
   <time name="diis">  193.85  193.86</time>
   <time name="orth">   13.45   13.45</time>
   <time name="total">  312.76  312.77</time>
   <energy>
    <i name="e_fr_energy">   -175.85049929 </i>
    <i name="e_wo_entrp">   -175.79986394 </i>
    <i name="e_0_energy">   -175.83784045 </i>
   </energy>
  </scstep>
  <scstep>
   <time name="diag">   66.22   66.22</time>
   <time name="diis">  196.28  196.28</time>
   <time name="orth">   13.46   13.46</time>
   <time name="total">  315.34  315.36</time>
   <energy>
    <i name="e_fr_energy">   -175.94693804 </i>
    <i name="e_wo_entrp">   -175.99910122 </i>
    <i name="e_0_energy">   -175.95997883 </i>
   </energy>
  </scstep>
  <scstep>
   <time name="diag">   66.16   66.16</time>
   <time name="diis">  196.95  196.96</time>
   <time name="orth">   13.33   13.33</time>
   <time name="total">  315.94  315.94</time>
   <energy>
    <i name="e_fr_energy">   -175.87599888 </i>
    <i name="e_wo_entrp">   -175.93788815 </i>
    <i name="e_0_energy">   -175.89147120 </i>
   </energy>
  </scstep>
  <scstep>
   <time name="diag">   66.35   66.35</time>
   <time name="diis">  194.13  194.14</time>
   <time name="orth">   13.27   13.27</time>
   <time name="total">  313.06  313.07</time>
   <energy>
    <i name="e_fr_energy">   -175.54535388 </i>
    <i name="e_wo_entrp">   -175.50426713 </i>
    <i name="e_0_energy">   -175.53508219 </i>
   </energy>
  </scstep>
  <scstep>
   <time name="diag">   66.35   66.35</time>
   <time name="diis">  190.84  190.84</time>
   <time name="orth">   13.31   13.31</time>
   <time name="total">  309.51  309.52</time>
   <energy>
    <i name="e_fr_energy">   -175.33735091 </i>
    <i name="e_wo_entrp">   -175.26184006 </i>
    <i name="e_0_energy">   -175.31847320 </i>
   </energy>
  </scstep>
  <scstep>
   <time name="diag">   66.35   66.35</time>
   <time name="diis">  193.39  193.40</time>
   <time name="orth">   13.43   13.43</time>
   <time name="total">  312.77  312.79</time>
   <energy>
    <i name="e_fr_energy">   -175.35045794 </i>
    <i name="e_wo_entrp">   -175.32283032 </i>
    <i name="e_0_energy">   -175.34355103 </i>
   </energy>
  </scstep>
  <scstep>
   <time name="diag">   66.24   66.24</time>
   <time name="diis">  193.17  193.17</time>
   <time name="orth">   13.33   13.33</time>
   <time name="total">  312.19  312.20</time>
   <energy>
    <i name="e_fr_energy">   -175.27338079 </i>
    <i name="e_wo_entrp">   -175.18521336 </i>
    <i name="e_0_energy">   -175.25133893 </i>
   </energy>
  </scstep>
  <scstep>
   <time name="diag">   66.27   66.27</time>
   <time name="diis">  192.54  192.55</time>
   <time name="orth">   13.45   13.45</time>
   <time name="total">  311.85  311.86</time>
   <energy>
    <i name="e_fr_energy">   -174.99697766 </i>
    <i name="e_wo_entrp">   -174.87396880 </i>
    <i name="e_0_energy">   -174.96622544 </i>
   </energy>
  </scstep>
  <scstep>
   <time name="diag">   66.32   66.32</time>
   <time name="diis">  192.72  192.72</time>
   <time name="orth">   13.39   13.39</time>
   <time name="total">  311.87  311.88</time>
   <energy>
    <i name="e_fr_energy">   -174.94356284 </i>
    <i name="e_wo_entrp">   -174.84795822 </i>
    <i name="e_0_energy">   -174.91966168 </i>
   </energy>
  </scstep>
  <scstep>
   <time name="diag">   66.43   66.43</time>
   <time name="diis">  191.63  191.64</time>
   <time name="orth">   13.38   13.38</time>
   <time name="total">  310.95  310.97</time>
   <energy>
    <i name="e_fr_energy">   -174.89273329 </i>
    <i name="e_wo_entrp">   -174.78762844 </i>
    <i name="e_0_energy">   -174.86645708 </i>
   </energy>
  </scstep>
  <scstep>
   <time name="diag">   66.45   66.45</time>
   <time name="diis">  191.14  191.15</time>
   <time name="orth">   13.39   13.39</time>
   <time name="total">  310.70  310.71</time>
   <energy>
    <i name="e_fr_energy">   -174.83512252 </i>
    <i name="e_wo_entrp">   -174.73315745 </i>
    <i name="e_0_energy">   -174.80963126 </i>
   </energy>
  </scstep>
  <scstep>
   <time name="diag">   66.39   66.39</time>
   <time name="diis">  190.03  190.03</time>
   <time name="orth">   13.37   13.36</time>
   <time name="total">  309.78  309.79</time>
   <energy>
    <i name="e_fr_energy">   -174.82208589 </i>
    <i name="e_wo_entrp">   -174.71955996 </i>
    <i name="e_0_energy">   -174.79645441 </i>
   </energy>
  </scstep>
  <scstep>
   <time name="diag">   66.26   66.26</time>
   <time name="diis">  192.37  192.38</time>
   <time name="orth">   13.40   13.40</time>
   <time name="total">  311.92  311.93</time>
   <energy>
    <i name="e_fr_energy">   -174.82041565 </i>
    <i name="e_wo_entrp">   -174.71323746 </i>
    <i name="e_0_energy">   -174.79362111 </i>
   </energy>
  </scstep>
  <scstep>
   <time name="diag">   66.31   66.31</time>
   <time name="diis">  190.50  190.50</time>
   <time name="orth">   13.36   13.36</time>
   <time name="total">  310.61  310.62</time>
   <energy>
    <i name="e_fr_energy">   -174.80419799 </i>
    <i name="e_wo_entrp">   -174.68527568 </i>
    <i name="e_0_energy">   -174.77446741 </i>
   </energy>
  </scstep>
  <scstep>
   <time name="diag">   66.39   66.39</time>
   <time name="diis">  191.16  191.17</time>
   <time name="orth">   13.39   13.39</time>
   <time name="total">  311.05  311.06</time>
   <energy>
    <i name="e_fr_energy">   -174.80293573 </i>
    <i name="e_wo_entrp">   -174.68684175 </i>
    <i name="e_0_energy">   -174.77391223 </i>
   </energy>
  </scstep>
  <scstep>
   <time name="diag">   66.34   66.34</time>
   <time name="diis">  188.68  188.69</time>
   <time name="orth">   13.35   13.35</time>
   <time name="total">  308.57  308.58</time>
   <energy>
    <i name="e_fr_energy">   -174.79990323 </i>
    <i name="e_wo_entrp">   -174.69422369 </i>
    <i name="e_0_energy">   -174.77348334 </i>
   </energy>
  </scstep>
  <scstep>
   <time name="diag">   66.25   66.25</time>
   <time name="diis">  191.09  191.10</time>
   <time name="orth">   13.52   13.52</time>
   <time name="total">  311.44  311.45</time>
   <energy>
    <i name="e_fr_energy">   -174.79546113 </i>
    <i name="e_wo_entrp">   -174.68690117 </i>
    <i name="e_0_energy">   -174.76832114 </i>
   </energy>
  </scstep>
  <scstep>
   <time name="diag">   66.36   66.36</time>
   <time name="diis">  189.73  189.73</time>
   <time name="orth">   13.59   13.59</time>
   <time name="total">  310.36  310.37</time>
   <energy>
    <i name="e_fr_energy">   -174.79442753 </i>
    <i name="e_wo_entrp">   -174.68315059 </i>
    <i name="e_0_energy">   -174.76660829 </i>
   </energy>
  </scstep>
  <scstep>
   <time name="diag">   66.44   66.44</time>
   <time name="diis">  189.93  189.94</time>
   <time name="orth">   13.57   13.57</time>
   <time name="total">  310.54  310.55</time>
   <energy>
    <i name="e_fr_energy">   -174.79471676 </i>
    <i name="e_wo_entrp">   -174.68270570 </i>
    <i name="e_0_energy">   -174.76671399 </i>
   </energy>
  </scstep>
  <scstep>
   <time name="diag">   66.34   66.34</time>
   <time name="diis">  189.04  189.04</time>
   <time name="orth">   13.68   13.68</time>
   <time name="total">  309.84  309.84</time>
   <energy>
    <i name="e_fr_energy">   -174.79529694 </i>
    <i name="e_wo_entrp">   -174.68340787 </i>
    <i name="e_0_energy">   -174.76732467 </i>
   </energy>
  </scstep>
  <scstep>
   <time name="diag">   66.28   66.28</time>
   <time name="diis">  188.23  188.23</time>
   <time name="orth">   13.67   13.67</time>
   <time name="total">  309.05  309.05</time>
   <energy>
    <i name="e_fr_energy">   -174.79583160 </i>
    <i name="e_wo_entrp">   -174.68353836 </i>
    <i name="e_0_energy">   -174.76775829 </i>
   </energy>
  </scstep>
  <scstep>
   <time name="diag">   66.31   66.31</time>
   <time name="diis">  189.38  189.39</time>
   <time name="orth">   13.71   13.71</time>
   <time name="total">  310.34  310.35</time>
   <energy>
    <i name="e_fr_energy">   -174.79753961 </i>
    <i name="e_wo_entrp">   -174.68440280 </i>
    <i name="e_0_energy">   -174.76925541 </i>
   </energy>
  </scstep>
  <scstep>
   <time name="diag">   66.48   66.48</time>
   <time name="diis">  184.57  184.58</time>
   <time name="orth">   13.33   13.33</time>
   <time name="total">  305.59  305.61</time>
   <energy>
    <i name="e_fr_energy">   -174.80031682 </i>
    <i name="e_wo_entrp">   -174.68769697 </i>
    <i name="e_0_energy">   -174.77216186 </i>
   </energy>
  </scstep>
  <scstep>
   <time name="diag">   66.29   66.29</time>
   <time name="diis">  136.01  136.02</time>
   <time name="orth">   14.12   14.12</time>
   <time name="total">  259.70  259.70</time>
   <energy>
    <i name="e_fr_energy">   -174.80175637 </i>
    <i name="e_wo_entrp">   -174.68953737 </i>
    <i name="e_0_energy">   -174.77370162 </i>
   </energy>
  </scstep>
  <scstep>
   <time name="diag">   67.86   67.86</time>
   <time name="diis">  166.79  166.79</time>
   <time name="orth">   14.03   14.03</time>
   <time name="total">  292.34  292.35</time>
   <energy>
    <i name="e_fr_energy">   -174.80538494 </i>
    <i name="e_wo_entrp">   -174.69328024 </i>
    <i name="e_0_energy">   -174.77735876 </i>
   </energy>
  </scstep>
  <scstep>
   <time name="diag">   67.94   67.94</time>
   <time name="diis">  167.76  167.76</time>
   <time name="orth">   14.06   14.06</time>
   <time name="total">  293.28  293.29</time>
   <energy>
    <i name="e_fr_energy">   -174.80887814 </i>
    <i name="e_wo_entrp">   -174.69713467 </i>
    <i name="e_0_energy">   -174.78094227 </i>
   </energy>
  </scstep>
  <scstep>
   <time name="diag">   67.96   67.96</time>
   <time name="diis">  124.86  124.86</time>
   <time name="orth">   14.04   14.04</time>
   <time name="total">  250.33  250.34</time>
   <energy>
    <i name="e_fr_energy">   -174.81027839 </i>
    <i name="e_wo_entrp">   -174.69913751 </i>
    <i name="e_0_energy">   -174.78249317 </i>
   </energy>
  </scstep>
  <scstep>
   <time name="diag">   68.43   68.43</time>
   <time name="diis">  139.05  139.06</time>
   <time name="orth">   13.67   13.67</time>
   <time name="total">  264.82  264.82</time>
   <energy>
    <i name="e_fr_energy">   -174.81301777 </i>
    <i name="e_wo_entrp">   -174.70014222 </i>
    <i name="e_0_energy">   -174.78479888 </i>
   </energy>
  </scstep>
  <scstep>
   <time name="diag">   67.91   67.92</time>
   <time name="diis">  118.54  118.54</time>
   <time name="orth">   13.64   13.64</time>
   <time name="total">  243.60  243.60</time>
   <energy>
    <i name="e_fr_energy">   -174.81418511 </i>
    <i name="e_wo_entrp">   -174.70137462 </i>
    <i name="e_0_energy">   -174.78598248 </i>
   </energy>
  </scstep>
  <scstep>
   <time name="diag">   68.10   68.10</time>
   <time name="diis">  118.03  118.03</time>
   <time name="orth">   13.66   13.66</time>
   <time name="total">  243.63  243.64</time>
   <energy>
    <i name="e_fr_energy">   -174.81534712 </i>
    <i name="e_wo_entrp">   -174.70319848 </i>
    <i name="e_0_energy">   -174.78730996 </i>
   </energy>
  </scstep>
  <scstep>
   <time name="diag">   67.95   67.96</time>
   <time name="diis">  115.07  115.08</time>
   <time name="orth">   13.48   13.48</time>
   <time name="total">  240.19  240.19</time>
   <energy>
    <i name="e_fr_energy">   -174.81660242 </i>
    <i name="e_wo_entrp">   -174.70491514 </i>
    <i name="e_0_energy">   -174.78868060 </i>
   </energy>
  </scstep>
  <scstep>
   <time name="diag">   68.28   68.28</time>
   <time name="diis">  116.24  116.25</time>
   <time name="orth">   13.55   13.55</time>
   <time name="total">  241.85  241.85</time>
   <energy>
    <i name="e_fr_energy">   -174.81747376 </i>
    <i name="e_wo_entrp">   -174.70553302 </i>
    <i name="e_0_energy">   -174.78948857 </i>
   </energy>
  </scstep>
  <scstep>
   <time name="diag">   68.00   68.00</time>
   <time name="diis">  116.61  116.61</time>
   <time name="orth">   13.51   13.51</time>
   <time name="total">  241.96  241.96</time>
   <energy>
    <i name="e_fr_energy">   -174.81840477 </i>
    <i name="e_wo_entrp">   -174.70661193 </i>
    <i name="e_0_energy">   -174.79045656 </i>
   </energy>
  </scstep>
  <scstep>
   <time name="diag">   67.89   67.89</time>
   <time name="diis">  114.10  114.11</time>
   <time name="orth">   13.44   13.44</time>
   <time name="total">  239.75  239.76</time>
   <energy>
    <i name="e_fr_energy">   -174.81885357 </i>
    <i name="e_wo_entrp">   -174.70710370 </i>
    <i name="e_0_energy">   -174.79091610 </i>
   </energy>
  </scstep>
  <scstep>
   <time name="diag">   67.90   67.90</time>
   <time name="diis">  113.67  113.68</time>
   <time name="orth">   13.40   13.40</time>
   <time name="total">  238.80  238.81</time>
   <energy>
    <i name="e_fr_energy">   -174.81976773 </i>
    <i name="e_wo_entrp">   -174.70794388 </i>
    <i name="e_0_energy">   -174.79181176 </i>
   </energy>
  </scstep>
  <scstep>
   <time name="diag">   67.85   67.85</time>
   <time name="diis">  112.73  112.77</time>
   <time name="orth">   13.75   13.75</time>
   <time name="total">  238.05  238.10</time>
   <energy>
    <i name="e_fr_energy">   -174.82030055 </i>
    <i name="e_wo_entrp">   -174.70845484 </i>
    <i name="e_0_energy">   -174.79233912 </i>
   </energy>
  </scstep>
  <scstep>
   <time name="diag">   67.70   67.71</time>
   <time name="diis">   99.31   99.32</time>
   <time name="orth">   13.72   13.72</time>
   <time name="total">  224.17  224.19</time>
   <energy>
    <i name="e_fr_energy">   -174.82074011 </i>
    <i name="e_wo_entrp">   -174.70887449 </i>
    <i name="e_0_energy">   -174.79277370 </i>
   </energy>
  </scstep>
  <scstep>
   <time name="diag">   68.04   68.04</time>
   <time name="diis">   89.11   89.17</time>
   <time name="orth">   13.64   13.64</time>
   <time name="total">  214.77  214.83</time>
   <energy>
    <i name="e_fr_energy">   -174.82114495 </i>
    <i name="e_wo_entrp">   -174.70927327 </i>
    <i name="e_0_energy">   -174.79317703 </i>
   </energy>
  </scstep>
  <scstep>
   <time name="diag">   68.16   68.16</time>
   <time name="diis">   90.39   90.40</time>
   <time name="orth">   13.43   13.43</time>
   <time name="total">  215.36  215.37</time>
   <energy>
    <i name="e_fr_energy">   -174.82140255 </i>
    <i name="e_wo_entrp">   -174.70956276 </i>
    <i name="e_0_energy">   -174.79344260 </i>
   </energy>
  </scstep>
  <scstep>
   <time name="diag">   68.12   68.12</time>
   <time name="diis">   92.28   92.28</time>
   <time name="orth">   13.55   13.55</time>
   <time name="total">  217.07  217.07</time>
   <energy>
    <i name="e_fr_energy">   -174.82186707 </i>
    <i name="e_wo_entrp">   -174.70996518 </i>
    <i name="e_0_energy">   -174.79389160 </i>
   </energy>
  </scstep>
  <scstep>
   <time name="diag">   68.71   68.72</time>
   <time name="diis">   79.20   79.20</time>
   <time name="orth">   13.60   13.60</time>
   <time name="total">  175.67  175.67</time>
   <energy>
    <i name="alphaZ">     75.25431677 </i>
    <i name="ewald"> 137959.88980132 </i>
    <i name="hartreedc">-182316.62026751 </i>
    <i name="XCdc">  -1692.72609377 </i>
    <i name="pawpsdc">  46102.37996967 </i>
    <i name="pawaedc"> -42572.78868450 </i>
    <i name="eentropy">     -0.11189570 </i>
    <i name="bandstr">  -2816.60460400 </i>
    <i name="atom">  45086.50549395 </i>
    <i name="e_fr_energy">   -174.82196377 </i>
    <i name="e_wo_entrp">   -174.71006807 </i>
    <i name="e_0_energy">   -174.79398984 </i>
   </energy>
  </scstep>
  <structure>
   <crystal>
    <varray name="basis" >
     <v>      30.00000000       0.00000000       0.00000000 </v>
     <v>       0.00000000      30.00000000       0.00000000 </v>
     <v>       0.00000000       0.00000000      30.00000000 </v>
    </varray>
    <i name="volume">  27000.00000000 </i>
    <varray name="rec_basis" >
     <v>       0.03333333       0.00000000       0.00000000 </v>
     <v>       0.00000000       0.03333333       0.00000000 </v>
     <v>       0.00000000       0.00000000       0.03333333 </v>
    </varray>
   </crystal>
   <varray name="positions" >
    <v>       0.44576020       0.32826710       0.41691983 </v>
    <v>       0.67173288       0.55423978       0.41691983 </v>
    <v>       0.55423980       0.32826710       0.41691983 </v>
    <v>       0.32826712       0.55423978       0.41691983 </v>
    <v>       0.50000000       0.38250690       0.34021317 </v>
    <v>       0.50000000       0.38250690       0.65978680 </v>
    <v>       0.50000000       0.27609440       0.50000000 </v>
    <v>       0.27609443       0.49999998       0.50000000 </v>
    <v>       0.72390557       0.49999998       0.50000000 </v>
    <v>       0.50000000       0.72390555       0.50000000 </v>
    <v>       0.61195280       0.38804720       0.34167483 </v>
    <v>       0.61195280       0.38804720       0.65832513 </v>
    <v>       0.38804722       0.61195278       0.34167483 </v>
    <v>       0.38804722       0.61195278       0.65832513 </v>
    <v>       0.38804720       0.38804720       0.34167483 </v>
    <v>       0.38804720       0.38804720       0.65832513 </v>
    <v>       0.61195278       0.61195278       0.34167483 </v>
    <v>       0.61195278       0.61195278       0.65832513 </v>
    <v>       0.44576020       0.32826710       0.58308023 </v>
    <v>       0.67173288       0.55423978       0.58308023 </v>
    <v>       0.55791699       0.44208301       0.41809300 </v>
    <v>       0.32826705       0.44576024       0.41691983 </v>
    <v>       0.55423973       0.67173293       0.41691983 </v>
    <v>       0.55423980       0.32826710       0.58308023 </v>
    <v>       0.32826712       0.55423978       0.58308023 </v>
    <v>       0.67173295       0.44576024       0.41691983 </v>
    <v>       0.44576027       0.67173293       0.41691983 </v>
    <v>       0.44208301       0.44208301       0.41809300 </v>
    <v>       0.50000000       0.38416601       0.50000000 </v>
    <v>       0.61749315       0.50000005       0.34021317 </v>
    <v>       0.61749315       0.50000005       0.65978680 </v>
    <v>       0.38250685       0.50000005       0.34021317 </v>
    <v>       0.38250685       0.50000005       0.65978680 </v>
    <v>       0.38317830       0.38317830       0.50000000 </v>
    <v>       0.61682172       0.61682172       0.50000000 </v>
    <v>       0.61682170       0.38317830       0.50000000 </v>
    <v>       0.38317828       0.61682172       0.50000000 </v>
    <v>       0.50000000       0.50000000       0.33478917 </v>
    <v>       0.50000000       0.50000000       0.66521087 </v>
    <v>       0.32826705       0.44576024       0.58308023 </v>
    <v>       0.55423973       0.67173293       0.58308023 </v>
    <v>       0.55791699       0.44208301       0.58190703 </v>
    <v>       0.44208298       0.55791702       0.41809300 </v>
    <v>       0.44208301       0.44208301       0.58190703 </v>
    <v>       0.67173295       0.44576024       0.58308023 </v>
    <v>       0.44576027       0.67173293       0.58308023 </v>
    <v>       0.55791702       0.55791702       0.41809300 </v>
    <v>       0.38416599       0.50000002       0.50000000 </v>
    <v>       0.61583401       0.50000002       0.50000000 </v>
    <v>       0.50000000       0.61749319       0.34021317 </v>
    <v>       0.50000000       0.61749319       0.65978680 </v>
    <v>       0.50000000       0.50000000       0.50000000 </v>
    <v>       0.44208298       0.55791702       0.58190703 </v>
    <v>       0.55791702       0.55791702       0.58190703 </v>
    <v>       0.50000000       0.61583404       0.50000000 </v>
    <v>       0.70077593       0.57663073       0.64428213 </v>
    <v>       0.72994080       0.58776217       0.66524067 </v>
   </varray>
  </structure>
  <varray name="forces" >
   <v>       0.71396795       1.10621513       0.30186927 </v>
   <v>      -1.10989880      -0.70977602       0.29578302 </v>
   <v>      -0.70988387       1.10481898       0.28084128 </v>
   <v>       1.10641675      -0.70545129       0.28923379 </v>
   <v>       0.01499324       0.41297707       1.28248276 </v>
   <v>       0.00382272       0.41162545      -1.28065551 </v>
   <v>       0.00000444       1.51887867      -0.00453434 </v>
   <v>       1.52015211       0.00143524       0.00482356 </v>
   <v>      -1.54168070      -0.00438965      -0.02217664 </v>
   <v>      -0.00472317      -1.52020942      -0.00487455 </v>
   <v>      -0.76779664       0.75365871       1.07351760 </v>
   <v>      -0.76781506       0.78690613      -1.07238650 </v>
   <v>       0.76182082      -0.75073264       1.07300322 </v>
   <v>       0.73599170      -0.76862858      -1.07649862 </v>
   <v>       0.75572356       0.75503827       1.06974920 </v>
   <v>       0.75314814       0.76324898      -1.07590755 </v>
   <v>      -0.76175608      -0.75570149       1.07248519 </v>
   <v>      -0.36718188      -0.87815330      -1.07205622 </v>
   <v>       0.70206096       1.10804420      -0.29396989 </v>
   <v>      -0.16410169      -0.13216824       1.42222736 </v>
   <v>       0.10377752      -0.13597265      -0.18280285 </v>
   <v>       1.10797208       0.70835051       0.29038535 </v>
   <v>      -0.72486925      -1.11050308       0.27444214 </v>
   <v>      -0.70127421       1.10930573      -0.29220544 </v>
   <v>       1.11427868      -0.70765287      -0.28377485 </v>
   <v>      -1.10452198       0.70710850       0.29941213 </v>
   <v>       0.71105571      -1.11084692       0.28413170 </v>
   <v>      -0.11595889      -0.10490194      -0.15355613 </v>
   <v>      -0.00582310      -0.23299136      -0.00829436 </v>
   <v>      -0.41451945       0.00178009       1.28068333 </v>
   <v>      -0.41255641      -0.07917790      -1.21546992 </v>
   <v>       0.41264782       0.00106182       1.28460309 </v>
   <v>       0.40349256       0.00147866      -1.29106697 </v>
   <v>       0.82789738       0.82794078       0.00100622 </v>
   <v>      -0.85506962      -0.82498259      -0.04961759 </v>
   <v>      -0.81778621       0.83713529       0.01796070 </v>
   <v>       0.82448918      -0.82918597      -0.00436993 </v>
   <v>       0.00109654       0.00256049       1.17580982 </v>
   <v>      -0.00334324      -0.01119149      -1.17672906 </v>
   <v>       1.11038212       0.70807819      -0.28442742 </v>
   <v>      -0.74265614      -1.08454672      -0.29650699 </v>
   <v>       0.10952600      -0.11191899       0.15258409 </v>
   <v>      -0.10747111       0.11075638      -0.15921096 </v>
   <v>      -0.11123591      -0.11023488       0.15971525 </v>
   <v>      -1.13072245       0.60735501      -0.34415225 </v>
   <v>       0.72408724      -1.10698548      -0.28218243 </v>
   <v>       0.12173035       0.11524625      -0.15165755 </v>
   <v>      -0.22989351      -0.00219743      -0.00047132 </v>
   <v>       0.26480818       0.05311465       0.04279974 </v>
   <v>      -0.00111224      -0.40778213       1.28517008 </v>
   <v>      -0.01824888      -0.38698527      -1.28364823 </v>
   <v>       0.01201407       0.00037180       0.01198808 </v>
   <v>      -0.12318374       0.10598058       0.15610250 </v>
   <v>       0.01241291       0.10444102       0.10958700 </v>
   <v>       0.00191145       0.22945065       0.00426980 </v>
   <v>      -4.29930925      -1.49333043      -4.11209399 </v>
   <v>       3.18271133       1.12223551       2.47863080 </v>
  </varray>
  <varray name="stress" >
   <v>      -6.65940126       0.04754407       0.04584194 </v>
   <v>       0.04754409      -6.74619782      -0.02496375 </v>
   <v>       0.04584192      -0.02496375      -6.83665139 </v>
  </varray>
  <energy>
   <i name="e_fr_energy">   -174.82196377 </i>
   <i name="e_wo_entrp">   -174.79398984 </i>
   <i name="e_0_energy">     -0.11189570 </i>
  </energy>
  <time name="totalsc">17453.3417453.98</time>
  <eigenvalues>
   <array>
    <dimension dim="1">band</dimension>
    <dimension dim="2">kpoint</dimension>
    <dimension dim="3">spin</dimension>
    <field>eigene</field>
    <field>occ</field>
    <set>
     <set comment="spin 1">
      <set comment="kpoint 1">
       <r>  -28.7372    1.0000 </r>
       <r>  -13.4254    1.0000 </r>
       <r>  -11.1746    1.0000 </r>
       <r>  -11.1223    1.0000 </r>
       <r>  -10.1907    1.0000 </r>
       <r>   -6.6514    1.0000 </r>
       <r>   -6.1425    1.0000 </r>
       <r>   -6.1330    1.0000 </r>
       <r>   -6.1281    1.0000 </r>
       <r>   -5.9254    1.0000 </r>
       <r>   -5.8484    1.0000 </r>
       <r>   -5.8199    1.0000 </r>
       <r>   -5.8159    1.0000 </r>
       <r>   -5.7654    1.0000 </r>
       <r>   -5.7493    1.0000 </r>
       <r>   -5.6998    1.0000 </r>
       <r>   -5.6930    1.0000 </r>
       <r>   -5.6904    1.0000 </r>
       <r>   -5.6753    1.0000 </r>
       <r>   -5.6374    1.0000 </r>
       <r>   -5.6292    1.0000 </r>
       <r>   -5.6192    1.0000 </r>
       <r>   -5.6048    1.0000 </r>
       <r>   -5.5966    1.0000 </r>
       <r>   -5.5815    1.0000 </r>
       <r>   -5.5566    1.0000 </r>
       <r>   -5.5546    1.0000 </r>
       <r>   -5.5531    1.0000 </r>
       <r>   -5.5509    1.0000 </r>
       <r>   -5.5397    1.0000 </r>
       <r>   -5.5282    1.0000 </r>
       <r>   -5.5257    1.0000 </r>
       <r>   -5.5242    1.0000 </r>
       <r>   -5.5196    1.0000 </r>
       <r>   -5.5173    1.0000 </r>
       <r>   -5.5145    1.0000 </r>
       <r>   -5.5012    1.0000 </r>
       <r>   -5.4944    1.0000 </r>
       <r>   -5.4879    1.0000 </r>
       <r>   -5.4803    1.0000 </r>
       <r>   -5.4776    1.0000 </r>
       <r>   -5.4765    1.0000 </r>
       <r>   -5.4757    1.0000 </r>
       <r>   -5.4734    1.0000 </r>
       <r>   -5.4586    1.0000 </r>
       <r>   -5.4487    1.0000 </r>
       <r>   -5.4384    1.0000 </r>
       <r>   -5.4365    1.0000 </r>
       <r>   -5.4347    1.0000 </r>
       <r>   -5.4315    1.0000 </r>
       <r>   -5.4282    1.0000 </r>
       <r>   -5.4253    1.0000 </r>
       <r>   -5.4127    1.0000 </r>
       <r>   -5.4119    1.0000 </r>
       <r>   -5.4056    1.0000 </r>
       <r>   -5.3869    1.0000 </r>
       <r>   -5.3614    1.0000 </r>
       <r>   -5.3492    1.0000 </r>
       <r>   -5.3369    1.0000 </r>
       <r>   -5.3326    1.0000 </r>
       <r>   -5.3288    1.0000 </r>
       <r>   -5.3252    1.0000 </r>
       <r>   -5.3236    1.0000 </r>
       <r>   -5.3087    1.0000 </r>
       <r>   -5.3070    1.0000 </r>
       <r>   -5.3050    1.0000 </r>
       <r>   -5.2977    1.0000 </r>
       <r>   -5.2732    1.0000 </r>
       <r>   -5.2561    1.0000 </r>
       <r>   -5.2335    1.0000 </r>
       <r>   -5.2135    1.0000 </r>
       <r>   -5.2088    1.0000 </r>
       <r>   -5.2001    1.0000 </r>
       <r>   -5.1918    1.0000 </r>
       <r>   -5.1876    1.0000 </r>
       <r>   -5.1856    1.0000 </r>
       <r>   -5.1852    1.0000 </r>
       <r>   -5.1724    1.0000 </r>
       <r>   -5.1699    1.0000 </r>
       <r>   -5.1626    1.0000 </r>
       <r>   -5.1597    1.0000 </r>
       <r>   -5.1503    1.0000 </r>
       <r>   -5.1351    1.0000 </r>
       <r>   -5.1318    1.0000 </r>
       <r>   -5.1223    1.0000 </r>
       <r>   -5.1151    1.0000 </r>
       <r>   -5.1123    1.0000 </r>
       <r>   -5.1080    1.0000 </r>
       <r>   -5.0821    1.0000 </r>
       <r>   -5.0732    1.0000 </r>
       <r>   -5.0646    1.0000 </r>
       <r>   -5.0621    1.0000 </r>
       <r>   -5.0616    1.0000 </r>
       <r>   -5.0575    1.0000 </r>
       <r>   -5.0571    1.0000 </r>
       <r>   -5.0495    1.0000 </r>
       <r>   -5.0445    1.0000 </r>
       <r>   -5.0370    1.0000 </r>
       <r>   -5.0355    1.0000 </r>
       <r>   -5.0318    1.0000 </r>
       <r>   -5.0266    1.0000 </r>
       <r>   -5.0205    1.0000 </r>
       <r>   -5.0173    1.0000 </r>
       <r>   -5.0095    1.0000 </r>
       <r>   -5.0071    1.0000 </r>
       <r>   -5.0012    1.0000 </r>
       <r>   -5.0003    1.0000 </r>
       <r>   -4.9956    1.0000 </r>
       <r>   -4.9918    1.0000 </r>
       <r>   -4.9819    1.0000 </r>
       <r>   -4.9811    1.0000 </r>
       <r>   -4.9757    1.0000 </r>
       <r>   -4.9683    1.0000 </r>
       <r>   -4.9630    1.0000 </r>
       <r>   -4.9610    1.0000 </r>
       <r>   -4.9587    1.0000 </r>
       <r>   -4.9563    1.0000 </r>
       <r>   -4.9358    1.0000 </r>
       <r>   -4.9320    1.0000 </r>
       <r>   -4.9296    1.0000 </r>
       <r>   -4.9239    1.0000 </r>
       <r>   -4.9159    1.0000 </r>
       <r>   -4.9123    1.0000 </r>
       <r>   -4.9087    1.0000 </r>
       <r>   -4.9083    1.0000 </r>
       <r>   -4.9054    1.0000 </r>
       <r>   -4.8727    1.0000 </r>
       <r>   -4.8654    1.0000 </r>
       <r>   -4.8548    1.0000 </r>
       <r>   -4.8519    1.0000 </r>
       <r>   -4.8477    1.0000 </r>
       <r>   -4.8466    1.0000 </r>
       <r>   -4.8413    1.0000 </r>
       <r>   -4.8404    1.0000 </r>
       <r>   -4.8362    1.0000 </r>
       <r>   -4.8161    0.9999 </r>
       <r>   -4.8047    0.9999 </r>
       <r>   -4.7991    0.9999 </r>
       <r>   -4.7945    0.9999 </r>
       <r>   -4.7809    0.9998 </r>
       <r>   -4.7803    0.9998 </r>
       <r>   -4.7706    0.9998 </r>
       <r>   -4.7576    0.9997 </r>
       <r>   -4.7525    0.9997 </r>
       <r>   -4.7447    0.9996 </r>
       <r>   -4.7431    0.9996 </r>
       <r>   -4.7379    0.9996 </r>
       <r>   -4.7273    0.9994 </r>
       <r>   -4.7237    0.9994 </r>
       <r>   -4.7091    0.9992 </r>
       <r>   -4.6941    0.9989 </r>
       <r>   -4.6918    0.9989 </r>
       <r>   -4.6885    0.9988 </r>
       <r>   -4.6869    0.9988 </r>
       <r>   -4.6821    0.9987 </r>
       <r>   -4.6814    0.9986 </r>
       <r>   -4.6766    0.9985 </r>
       <r>   -4.6757    0.9985 </r>
       <r>   -4.6741    0.9985 </r>
       <r>   -4.6666    0.9983 </r>
       <r>   -4.6586    0.9980 </r>
       <r>   -4.6548    0.9979 </r>
       <r>   -4.6534    0.9979 </r>
       <r>   -4.6530    0.9978 </r>
       <r>   -4.6523    0.9978 </r>
       <r>   -4.6504    0.9978 </r>
       <r>   -4.6479    0.9977 </r>
       <r>   -4.6416    0.9975 </r>
       <r>   -4.6369    0.9973 </r>
       <r>   -4.6255    0.9969 </r>
       <r>   -4.6174    0.9966 </r>
       <r>   -4.6106    0.9963 </r>
       <r>   -4.6068    0.9962 </r>
       <r>   -4.6044    0.9961 </r>
       <r>   -4.6020    0.9960 </r>
       <r>   -4.5999    0.9959 </r>
       <r>   -4.5955    0.9958 </r>
       <r>   -4.5933    0.9957 </r>
       <r>   -4.5866    0.9955 </r>
       <r>   -4.5849    0.9955 </r>
       <r>   -4.5813    0.9954 </r>
       <r>   -4.5752    0.9952 </r>
       <r>   -4.5657    0.9951 </r>
       <r>   -4.5635    0.9951 </r>
       <r>   -4.5623    0.9951 </r>
       <r>   -4.5598    0.9951 </r>
       <r>   -4.5587    0.9951 </r>
       <r>   -4.5546    0.9951 </r>
       <r>   -4.5527    0.9951 </r>
       <r>   -4.5467    0.9952 </r>
       <r>   -4.5361    0.9956 </r>
       <r>   -4.5164    0.9971 </r>
       <r>   -4.5127    0.9975 </r>
       <r>   -4.5121    0.9975 </r>
       <r>   -4.5109    0.9977 </r>
       <r>   -4.5040    0.9986 </r>
       <r>   -4.4961    0.9999 </r>
       <r>   -4.4935    1.0004 </r>
       <r>   -4.4855    1.0021 </r>
       <r>   -4.4836    1.0026 </r>
       <r>   -4.4781    1.0039 </r>
       <r>   -4.4740    1.0050 </r>
       <r>   -4.4660    1.0074 </r>
       <r>   -4.4637    1.0082 </r>
       <r>   -4.4619    1.0088 </r>
       <r>   -4.4545    1.0114 </r>
       <r>   -4.4535    1.0117 </r>
       <r>   -4.4516    1.0124 </r>
       <r>   -4.4493    1.0133 </r>
       <r>   -4.4425    1.0161 </r>
       <r>   -4.4291    1.0219 </r>
       <r>   -4.4279    1.0225 </r>
       <r>   -4.4220    1.0252 </r>
       <r>   -4.4161    1.0281 </r>
       <r>   -4.4139    1.0291 </r>
       <r>   -4.4124    1.0299 </r>
       <r>   -4.4111    1.0305 </r>
       <r>   -4.4099    1.0311 </r>
       <r>   -4.4079    1.0320 </r>
       <r>   -4.3838    1.0430 </r>
       <r>   -4.3736    1.0468 </r>
       <r>   -4.3718    1.0474 </r>
       <r>   -4.3688    1.0483 </r>
       <r>   -4.3670    1.0488 </r>
       <r>   -4.3548    1.0512 </r>
       <r>   -4.3475    1.0516 </r>
       <r>   -4.3421    1.0514 </r>
       <r>   -4.3420    1.0514 </r>
       <r>   -4.3398    1.0511 </r>
       <r>   -4.3383    1.0509 </r>
       <r>   -4.3382    1.0509 </r>
       <r>   -4.3372    1.0507 </r>
       <r>   -4.3339    1.0499 </r>
       <r>   -4.3313    1.0492 </r>
       <r>   -4.3301    1.0488 </r>
       <r>   -4.3289    1.0483 </r>
       <r>   -4.3262    1.0472 </r>
       <r>   -4.3240    1.0462 </r>
       <r>   -4.3223    1.0453 </r>
       <r>   -4.3175    1.0425 </r>
       <r>   -4.3106    1.0372 </r>
       <r>   -4.3051    1.0320 </r>
       <r>   -4.2996    1.0259 </r>
       <r>   -4.2957    1.0210 </r>
       <r>   -4.2922    1.0162 </r>
       <r>   -4.2913    1.0148 </r>
       <r>   -4.2888    1.0109 </r>
       <r>   -4.2860    1.0064 </r>
       <r>   -4.2848    1.0044 </r>
       <r>   -4.2746    0.9850 </r>
       <r>   -4.2711    0.9774 </r>
       <r>   -4.2665    0.9668 </r>
       <r>   -4.2636    0.9598 </r>
       <r>   -4.2605    0.9519 </r>
       <r>   -4.2597    0.9496 </r>
       <r>   -4.2581    0.9454 </r>
       <r>   -4.2536    0.9328 </r>
       <r>   -4.2530    0.9310 </r>
       <r>   -4.2497    0.9212 </r>
       <r>   -4.2488    0.9183 </r>
       <r>   -4.2470    0.9128 </r>
       <r>   -4.2458    0.9090 </r>
       <r>   -4.2437    0.9023 </r>
       <r>   -4.2429    0.8996 </r>
       <r>   -4.2412    0.8940 </r>
       <r>   -4.2319    0.8608 </r>
       <r>   -4.2299    0.8533 </r>
       <r>   -4.2279    0.8457 </r>
       <r>   -4.2257    0.8374 </r>
       <r>   -4.2245    0.8323 </r>
       <r>   -4.2226    0.8249 </r>
       <r>   -4.2161    0.7977 </r>
       <r>   -4.2056    0.7517 </r>
       <r>   -4.1994    0.7226 </r>
       <r>   -4.1885    0.6700 </r>
       <r>   -4.1857    0.6557 </r>
       <r>   -4.1813    0.6336 </r>
       <r>   -4.1804    0.6292 </r>
       <r>   -4.1787    0.6203 </r>
       <r>   -4.1758    0.6054 </r>
       <r>   -4.1667    0.5581 </r>
       <r>   -4.1623    0.5348 </r>
       <r>   -4.1390    0.4121 </r>
       <r>   -4.1337    0.3848 </r>
       <r>   -4.1325    0.3784 </r>
       <r>   -4.1318    0.3751 </r>
       <r>   -4.1219    0.3253 </r>
       <r>   -4.1202    0.3168 </r>
       <r>   -4.1144    0.2887 </r>
       <r>   -3.9688   -0.0514 </r>
       <r>   -3.8731   -0.0178 </r>
       <r>   -3.8259   -0.0021 </r>
       <r>   -3.8188   -0.0006 </r>
       <r>   -3.7244    0.0045 </r>
       <r>   -3.5065    0.0001 </r>
       <r>   -3.4916    0.0001 </r>
       <r>   -3.4126    0.0000 </r>
       <r>   -3.0788    0.0000 </r>
       <r>   -3.0616    0.0000 </r>
       <r>   -3.0542    0.0000 </r>
       <r>   -3.0403    0.0000 </r>
       <r>   -3.0188    0.0000 </r>
       <r>   -2.9539    0.0000 </r>
       <r>   -2.9377    0.0000 </r>
       <r>   -2.8223    0.0000 </r>
       <r>   -2.5481    0.0000 </r>
       <r>   -2.5230    0.0000 </r>
       <r>   -2.4785    0.0000 </r>
       <r>   -2.3305    0.0000 </r>
       <r>   -2.1653    0.0000 </r>
       <r>   -2.1169    0.0000 </r>
       <r>   -2.0862    0.0000 </r>
       <r>   -2.0640    0.0000 </r>
       <r>   -1.9655    0.0000 </r>
       <r>   -1.9341    0.0000 </r>
       <r>   -1.8828    0.0000 </r>
       <r>   -1.7934    0.0000 </r>
       <r>   -1.7448    0.0000 </r>
       <r>   -1.6971    0.0000 </r>
       <r>   -1.6426    0.0000 </r>
       <r>   -1.6312    0.0000 </r>
       <r>   -1.5679    0.0000 </r>
       <r>   -1.5306    0.0000 </r>
       <r>   -1.3966    0.0000 </r>
       <r>   -1.3052    0.0000 </r>
       <r>   -1.2389    0.0000 </r>
       <r>   -1.1750    0.0000 </r>
       <r>   -1.0683    0.0000 </r>
       <r>   -0.9900    0.0000 </r>
       <r>   -0.9804    0.0000 </r>
       <r>   -0.9573    0.0000 </r>
       <r>   -0.9385    0.0000 </r>
       <r>   -0.9263    0.0000 </r>
       <r>   -0.9159    0.0000 </r>
       <r>   -0.8505    0.0000 </r>
       <r>   -0.6277    0.0000 </r>
      </set>
     </set>
    </set>
   </array>
  </eigenvalues>
  <separator name="orbital magnetization" >
   <v name="MAGDIPOLOUT">      0.00000000      0.00000000      0.00000000</v>
  </separator>
  <dos>
   <i name="efermi">     -4.15570531 </i>
   <total>
    <array>
     <dimension dim="1">gridpoints</dimension>
     <dimension dim="2">spin</dimension>
     <field>energy</field>
     <field>total</field>
     <field>integrated</field>
     <set>
      <set comment="spin 1">
       <r>   -30.7372     0.0000     0.0000 </r>
       <r>   -30.6301     0.0000     0.0000 </r>
       <r>   -30.5231     0.0000     0.0000 </r>
       <r>   -30.4161     0.0000     0.0000 </r>
       <r>   -30.3090     0.0000     0.0000 </r>
       <r>   -30.2020     0.0000     0.0000 </r>
       <r>   -30.0950     0.0000     0.0000 </r>
       <r>   -29.9879     0.0000     0.0000 </r>
       <r>   -29.8809     0.0000     0.0000 </r>
       <r>   -29.7739     0.0000     0.0000 </r>
       <r>   -29.6668     0.0000     0.0000 </r>
       <r>   -29.5598     0.0000     0.0000 </r>
       <r>   -29.4528     0.0002     0.0000 </r>
       <r>   -29.3458     0.0043     0.0005 </r>
       <r>   -29.2387     0.0333     0.0041 </r>
       <r>   -29.1317     0.0530     0.0097 </r>
       <r>   -29.0247    -0.3857    -0.0316 </r>
       <r>   -28.9176    -0.6481    -0.1009 </r>
       <r>   -28.8106     3.7365     0.2990 </r>
       <r>   -28.7036     9.7985     1.3477 </r>
       <r>   -28.5965     6.5014     2.0436 </r>
       <r>   -28.4895     0.2312     2.0683 </r>
       <r>   -28.3825    -0.6805     1.9955 </r>
       <r>   -28.2754    -0.0222     1.9931 </r>
       <r>   -28.1684     0.0531     1.9988 </r>
       <r>   -28.0614     0.0103     1.9999 </r>
       <r>   -27.9543     0.0008     2.0000 </r>
       <r>   -27.8473     0.0000     2.0000 </r>
       <r>   -27.7403     0.0000     2.0000 </r>
       <r>   -27.6333     0.0000     2.0000 </r>
       <r>   -27.5262     0.0000     2.0000 </r>
       <r>   -27.4192     0.0000     2.0000 </r>
       <r>   -27.3122     0.0000     2.0000 </r>
       <r>   -27.2051     0.0000     2.0000 </r>
       <r>   -27.0981     0.0000     2.0000 </r>
       <r>   -26.9911     0.0000     2.0000 </r>
       <r>   -26.8840     0.0000     2.0000 </r>
       <r>   -26.7770     0.0000     2.0000 </r>
       <r>   -26.6700     0.0000     2.0000 </r>
       <r>   -26.5629     0.0000     2.0000 </r>
       <r>   -26.4559     0.0000     2.0000 </r>
       <r>   -26.3489     0.0000     2.0000 </r>
       <r>   -26.2418     0.0000     2.0000 </r>
       <r>   -26.1348     0.0000     2.0000 </r>
       <r>   -26.0278     0.0000     2.0000 </r>
       <r>   -25.9207     0.0000     2.0000 </r>
       <r>   -25.8137     0.0000     2.0000 </r>
       <r>   -25.7067     0.0000     2.0000 </r>
       <r>   -25.5997     0.0000     2.0000 </r>
       <r>   -25.4926     0.0000     2.0000 </r>
       <r>   -25.3856     0.0000     2.0000 </r>
       <r>   -25.2786     0.0000     2.0000 </r>
       <r>   -25.1715     0.0000     2.0000 </r>
       <r>   -25.0645     0.0000     2.0000 </r>
       <r>   -24.9575     0.0000     2.0000 </r>
       <r>   -24.8504     0.0000     2.0000 </r>
       <r>   -24.7434     0.0000     2.0000 </r>
       <r>   -24.6364     0.0000     2.0000 </r>
       <r>   -24.5293     0.0000     2.0000 </r>
       <r>   -24.4223     0.0000     2.0000 </r>
       <r>   -24.3153     0.0000     2.0000 </r>
       <r>   -24.2082     0.0000     2.0000 </r>
       <r>   -24.1012     0.0000     2.0000 </r>
       <r>   -23.9942     0.0000     2.0000 </r>
       <r>   -23.8871     0.0000     2.0000 </r>
       <r>   -23.7801     0.0000     2.0000 </r>
       <r>   -23.6731     0.0000     2.0000 </r>
       <r>   -23.5661     0.0000     2.0000 </r>
       <r>   -23.4590     0.0000     2.0000 </r>
       <r>   -23.3520     0.0000     2.0000 </r>
       <r>   -23.2450     0.0000     2.0000 </r>
       <r>   -23.1379     0.0000     2.0000 </r>
       <r>   -23.0309     0.0000     2.0000 </r>
       <r>   -22.9239     0.0000     2.0000 </r>
       <r>   -22.8168     0.0000     2.0000 </r>
       <r>   -22.7098     0.0000     2.0000 </r>
       <r>   -22.6028     0.0000     2.0000 </r>
       <r>   -22.4957     0.0000     2.0000 </r>
       <r>   -22.3887     0.0000     2.0000 </r>
       <r>   -22.2817     0.0000     2.0000 </r>
       <r>   -22.1746     0.0000     2.0000 </r>
       <r>   -22.0676     0.0000     2.0000 </r>
       <r>   -21.9606     0.0000     2.0000 </r>
       <r>   -21.8535     0.0000     2.0000 </r>
       <r>   -21.7465     0.0000     2.0000 </r>
       <r>   -21.6395     0.0000     2.0000 </r>
       <r>   -21.5325     0.0000     2.0000 </r>
       <r>   -21.4254     0.0000     2.0000 </r>
       <r>   -21.3184     0.0000     2.0000 </r>
       <r>   -21.2114     0.0000     2.0000 </r>
       <r>   -21.1043     0.0000     2.0000 </r>
       <r>   -20.9973     0.0000     2.0000 </r>
       <r>   -20.8903     0.0000     2.0000 </r>
       <r>   -20.7832     0.0000     2.0000 </r>
       <r>   -20.6762     0.0000     2.0000 </r>
       <r>   -20.5692     0.0000     2.0000 </r>
       <r>   -20.4621     0.0000     2.0000 </r>
       <r>   -20.3551     0.0000     2.0000 </r>
       <r>   -20.2481     0.0000     2.0000 </r>
       <r>   -20.1410     0.0000     2.0000 </r>
       <r>   -20.0340     0.0000     2.0000 </r>
       <r>   -19.9270     0.0000     2.0000 </r>
       <r>   -19.8200     0.0000     2.0000 </r>
       <r>   -19.7129     0.0000     2.0000 </r>
       <r>   -19.6059     0.0000     2.0000 </r>
       <r>   -19.4989     0.0000     2.0000 </r>
       <r>   -19.3918     0.0000     2.0000 </r>
       <r>   -19.2848     0.0000     2.0000 </r>
       <r>   -19.1778     0.0000     2.0000 </r>
       <r>   -19.0707     0.0000     2.0000 </r>
       <r>   -18.9637     0.0000     2.0000 </r>
       <r>   -18.8567     0.0000     2.0000 </r>
       <r>   -18.7496     0.0000     2.0000 </r>
       <r>   -18.6426     0.0000     2.0000 </r>
       <r>   -18.5356     0.0000     2.0000 </r>
       <r>   -18.4285     0.0000     2.0000 </r>
       <r>   -18.3215     0.0000     2.0000 </r>
       <r>   -18.2145     0.0000     2.0000 </r>
       <r>   -18.1074     0.0000     2.0000 </r>
       <r>   -18.0004     0.0000     2.0000 </r>
       <r>   -17.8934     0.0000     2.0000 </r>
       <r>   -17.7864     0.0000     2.0000 </r>
       <r>   -17.6793     0.0000     2.0000 </r>
       <r>   -17.5723     0.0000     2.0000 </r>
       <r>   -17.4653     0.0000     2.0000 </r>
       <r>   -17.3582     0.0000     2.0000 </r>
       <r>   -17.2512     0.0000     2.0000 </r>
       <r>   -17.1442     0.0000     2.0000 </r>
       <r>   -17.0371     0.0000     2.0000 </r>
       <r>   -16.9301     0.0000     2.0000 </r>
       <r>   -16.8231     0.0000     2.0000 </r>
       <r>   -16.7160     0.0000     2.0000 </r>
       <r>   -16.6090     0.0000     2.0000 </r>
       <r>   -16.5020     0.0000     2.0000 </r>
       <r>   -16.3949     0.0000     2.0000 </r>
       <r>   -16.2879     0.0000     2.0000 </r>
       <r>   -16.1809     0.0000     2.0000 </r>
       <r>   -16.0738     0.0000     2.0000 </r>
       <r>   -15.9668     0.0000     2.0000 </r>
       <r>   -15.8598     0.0000     2.0000 </r>
       <r>   -15.7528     0.0000     2.0000 </r>
       <r>   -15.6457     0.0000     2.0000 </r>
       <r>   -15.5387     0.0000     2.0000 </r>
       <r>   -15.4317     0.0000     2.0000 </r>
       <r>   -15.3246     0.0000     2.0000 </r>
       <r>   -15.2176     0.0000     2.0000 </r>
       <r>   -15.1106     0.0000     2.0000 </r>
       <r>   -15.0035     0.0000     2.0000 </r>
       <r>   -14.8965     0.0000     2.0000 </r>
       <r>   -14.7895     0.0000     2.0000 </r>
       <r>   -14.6824     0.0000     2.0000 </r>
       <r>   -14.5754     0.0000     2.0000 </r>
       <r>   -14.4684     0.0000     2.0000 </r>
       <r>   -14.3613     0.0000     2.0000 </r>
       <r>   -14.2543     0.0000     2.0000 </r>
       <r>   -14.1473     0.0002     2.0000 </r>
       <r>   -14.0402     0.0037     2.0004 </r>
       <r>   -13.9332     0.0304     2.0037 </r>
       <r>   -13.8262     0.0577     2.0099 </r>
       <r>   -13.7192    -0.3399     1.9735 </r>
       <r>   -13.6121    -0.7128     1.8972 </r>
       <r>   -13.5051     3.3194     2.2525 </r>
       <r>   -13.3981     9.6449     3.2848 </r>
       <r>   -13.2910     6.9233     4.0258 </r>
       <r>   -13.1840     0.4529     4.0743 </r>
       <r>   -13.0770    -0.7196     3.9972 </r>
       <r>   -12.9699    -0.0428     3.9927 </r>
       <r>   -12.8629     0.0559     3.9986 </r>
       <r>   -12.7559     0.0117     3.9999 </r>
       <r>   -12.6488     0.0009     4.0000 </r>
       <r>   -12.5418     0.0000     4.0000 </r>
       <r>   -12.4348     0.0000     4.0000 </r>
       <r>   -12.3277     0.0000     4.0000 </r>
       <r>   -12.2207     0.0000     4.0000 </r>
       <r>   -12.1137     0.0000     4.0000 </r>
       <r>   -12.0066     0.0000     4.0000 </r>
       <r>   -11.8996     0.0002     4.0000 </r>
       <r>   -11.7926     0.0043     4.0005 </r>
       <r>   -11.6856     0.0405     4.0048 </r>
       <r>   -11.5785     0.1152     4.0172 </r>
       <r>   -11.4715    -0.3577     3.9789 </r>
       <r>   -11.3645    -1.4538     3.8233 </r>
       <r>   -11.2574     3.5394     4.2021 </r>
       <r>   -11.1504    16.4246     5.9601 </r>
       <r>   -11.0434    16.7958     7.7577 </r>
       <r>   -10.9363     3.9437     8.1798 </r>
       <r>   -10.8293    -1.4410     8.0256 </r>
       <r>   -10.7223    -0.3789     7.9850 </r>
       <r>   -10.6152     0.1787     8.0042 </r>
       <r>   -10.5082    -0.1427     7.9889 </r>
       <r>   -10.4012    -0.8123     7.9020 </r>
       <r>   -10.2941     1.8860     8.1038 </r>
       <r>   -10.1871     8.7323     9.0385 </r>
       <r>   -10.0801     8.3592     9.9331 </r>
       <r>    -9.9731     1.4998    10.0937 </r>
       <r>    -9.8660    -0.8129    10.0067 </r>
       <r>    -9.7590    -0.1460     9.9910 </r>
       <r>    -9.6520     0.0635     9.9978 </r>
       <r>    -9.5449     0.0183     9.9998 </r>
       <r>    -9.4379     0.0017    10.0000 </r>
       <r>    -9.3309     0.0001    10.0000 </r>
       <r>    -9.2238     0.0000    10.0000 </r>
       <r>    -9.1168     0.0000    10.0000 </r>
       <r>    -9.0098     0.0000    10.0000 </r>
       <r>    -8.9027     0.0000    10.0000 </r>
       <r>    -8.7957     0.0000    10.0000 </r>
       <r>    -8.6887     0.0000    10.0000 </r>
       <r>    -8.5816     0.0000    10.0000 </r>
       <r>    -8.4746     0.0000    10.0000 </r>
       <r>    -8.3676     0.0000    10.0000 </r>
       <r>    -8.2605     0.0000    10.0000 </r>
       <r>    -8.1535     0.0000    10.0000 </r>
       <r>    -8.0465     0.0000    10.0000 </r>
       <r>    -7.9395     0.0000    10.0000 </r>
       <r>    -7.8324     0.0000    10.0000 </r>
       <r>    -7.7254     0.0000    10.0000 </r>
       <r>    -7.6184     0.0000    10.0000 </r>
       <r>    -7.5113     0.0000    10.0000 </r>
       <r>    -7.4043     0.0001    10.0000 </r>
       <r>    -7.2973     0.0017    10.0002 </r>
       <r>    -7.1902     0.0183    10.0021 </r>
       <r>    -7.0832     0.0635    10.0089 </r>
       <r>    -6.9762    -0.1456     9.9934 </r>
       <r>    -6.8691    -0.8124     9.9064 </r>
       <r>    -6.7621     1.5047    10.0675 </r>
       <r>    -6.6551     8.4309    10.9698 </r>
       <r>    -6.5480     8.9274    11.9253 </r>
       <r>    -6.4410     1.1686    12.0504 </r>
       <r>    -6.3340    -2.9960    11.7298 </r>
       <r>    -6.2269     7.4666    12.5289 </r>
       <r>    -6.1199    26.3643    15.3507 </r>
       <r>    -6.0129    23.2682    17.8412 </r>
       <r>    -5.9059    18.7861    19.8519 </r>
       <r>    -5.7988    41.2966    24.2719 </r>
       <r>    -5.6918    80.0738    32.8423 </r>
       <r>    -5.5848   168.2388    50.8492 </r>
       <r>    -5.4777   282.7059    81.1076 </r>
       <r>    -5.3707   289.5266   112.0961 </r>
       <r>    -5.2637   217.5510   135.3809 </r>
       <r>    -5.1566   224.2368   159.3813 </r>
       <r>    -5.0496   316.8169   193.2907 </r>
       <r>    -4.9426   361.6190   231.9953 </r>
       <r>    -4.8355   307.4229   264.8993 </r>
       <r>    -4.7285   303.4339   297.3763 </r>
       <r>    -4.6215   394.8841   339.6413 </r>
       <r>    -4.5144   429.3991   385.6005 </r>
       <r>    -4.4074   435.1810   432.1786 </r>
       <r>    -4.3004   530.2760   488.9349 </r>
       <r>    -4.1933   529.1865   545.5745 </r>
       <r>    -4.0863   283.1497   575.8804 </r>
       <r>    -3.9793    49.3263   581.1599 </r>
       <r>    -3.8723     7.7786   581.9924 </r>
       <r>    -3.7652    31.1743   585.3291 </r>
       <r>    -3.6582    21.2833   587.6071 </r>
       <r>    -3.5512    14.1058   589.1168 </r>
       <r>    -3.4441    25.3302   591.8280 </r>
       <r>    -3.3371    17.6247   593.7144 </r>
       <r>    -3.2301    -0.3854   593.6731 </r>
       <r>    -3.1230    16.2021   595.4072 </r>
       <r>    -3.0160    55.0305   601.2972 </r>
       <r>    -2.9090    54.6302   607.1444 </r>
       <r>    -2.8019    22.4069   609.5426 </r>
       <r>    -2.6949     3.1431   609.8790 </r>
       <r>    -2.5879    10.7806   611.0329 </r>
       <r>    -2.4808    27.6592   613.9933 </r>
       <r>    -2.3738    22.7790   616.4314 </r>
       <r>    -2.2668    11.4699   617.6590 </r>
       <r>    -2.1598    21.4360   619.9533 </r>
       <r>    -2.0527    39.2305   624.1523 </r>
       <r>    -1.9457    39.7230   628.4039 </r>
       <r>    -1.8387    32.6421   631.8976 </r>
       <r>    -1.7316    36.0261   635.7535 </r>
       <r>    -1.6246    45.1965   640.5910 </r>
       <r>    -1.5176    38.2928   644.6895 </r>
       <r>    -1.4105    22.1307   647.0582 </r>
       <r>    -1.3035    20.6839   649.2720 </r>
       <r>    -1.1965    23.5264   651.7901 </r>
       <r>    -1.0894    26.1224   654.5860 </r>
       <r>    -0.9824    51.3197   660.0788 </r>
       <r>    -0.8754    64.1417   666.9440 </r>
       <r>    -0.7683    30.8805   670.2492 </r>
       <r>    -0.6613     6.3991   670.9341 </r>
       <r>    -0.5543     6.8844   671.6710 </r>
       <r>    -0.4472     3.6918   672.0661 </r>
       <r>    -0.3402    -0.3863   672.0248 </r>
       <r>    -0.2332    -0.3276   671.9897 </r>
       <r>    -0.1262     0.0582   671.9959 </r>
       <r>    -0.0191     0.0336   671.9995 </r>
       <r>     0.0879     0.0043   672.0000 </r>
       <r>     0.1949     0.0002   672.0000 </r>
       <r>     0.3020     0.0000   672.0000 </r>
       <r>     0.4090     0.0000   672.0000 </r>
       <r>     0.5160     0.0000   672.0000 </r>
       <r>     0.6231     0.0000   672.0000 </r>
       <r>     0.7301     0.0000   672.0000 </r>
       <r>     0.8371     0.0000   672.0000 </r>
       <r>     0.9442     0.0000   672.0000 </r>
       <r>     1.0512     0.0000   672.0000 </r>
       <r>     1.1582     0.0000   672.0000 </r>
       <r>     1.2653     0.0000   672.0000 </r>
       <r>     1.3723     0.0000   672.0000 </r>
      </set>
     </set>
    </array>
   </total>
  </dos>
 </calculation>
 <structure name="finalpos" >
  <crystal>
   <varray name="basis" >
    <v>      30.00000000       0.00000000       0.00000000 </v>
    <v>       0.00000000      30.00000000       0.00000000 </v>
    <v>       0.00000000       0.00000000      30.00000000 </v>
   </varray>
   <i name="volume">  27000.00000000 </i>
   <varray name="rec_basis" >
    <v>       0.03333333       0.00000000       0.00000000 </v>
    <v>       0.00000000       0.03333333       0.00000000 </v>
    <v>       0.00000000       0.00000000       0.03333333 </v>
   </varray>
  </crystal>
  <varray name="positions" >
   <v>       0.44576020       0.32826710       0.41691983 </v>
   <v>       0.67173288       0.55423978       0.41691983 </v>
   <v>       0.55423980       0.32826710       0.41691983 </v>
   <v>       0.32826712       0.55423978       0.41691983 </v>
   <v>       0.50000000       0.38250690       0.34021317 </v>
   <v>       0.50000000       0.38250690       0.65978680 </v>
   <v>       0.50000000       0.27609440       0.50000000 </v>
   <v>       0.27609443       0.49999998       0.50000000 </v>
   <v>       0.72390557       0.49999998       0.50000000 </v>
   <v>       0.50000000       0.72390555       0.50000000 </v>
   <v>       0.61195280       0.38804720       0.34167483 </v>
   <v>       0.61195280       0.38804720       0.65832513 </v>
   <v>       0.38804722       0.61195278       0.34167483 </v>
   <v>       0.38804722       0.61195278       0.65832513 </v>
   <v>       0.38804720       0.38804720       0.34167483 </v>
   <v>       0.38804720       0.38804720       0.65832513 </v>
   <v>       0.61195278       0.61195278       0.34167483 </v>
   <v>       0.61195278       0.61195278       0.65832513 </v>
   <v>       0.44576020       0.32826710       0.58308023 </v>
   <v>       0.67173288       0.55423978       0.58308023 </v>
   <v>       0.55791699       0.44208301       0.41809300 </v>
   <v>       0.32826705       0.44576024       0.41691983 </v>
   <v>       0.55423973       0.67173293       0.41691983 </v>
   <v>       0.55423980       0.32826710       0.58308023 </v>
   <v>       0.32826712       0.55423978       0.58308023 </v>
   <v>       0.67173295       0.44576024       0.41691983 </v>
   <v>       0.44576027       0.67173293       0.41691983 </v>
   <v>       0.44208301       0.44208301       0.41809300 </v>
   <v>       0.50000000       0.38416601       0.50000000 </v>
   <v>       0.61749315       0.50000005       0.34021317 </v>
   <v>       0.61749315       0.50000005       0.65978680 </v>
   <v>       0.38250685       0.50000005       0.34021317 </v>
   <v>       0.38250685       0.50000005       0.65978680 </v>
   <v>       0.38317830       0.38317830       0.50000000 </v>
   <v>       0.61682172       0.61682172       0.50000000 </v>
   <v>       0.61682170       0.38317830       0.50000000 </v>
   <v>       0.38317828       0.61682172       0.50000000 </v>
   <v>       0.50000000       0.50000000       0.33478917 </v>
   <v>       0.50000000       0.50000000       0.66521087 </v>
   <v>       0.32826705       0.44576024       0.58308023 </v>
   <v>       0.55423973       0.67173293       0.58308023 </v>
   <v>       0.55791699       0.44208301       0.58190703 </v>
   <v>       0.44208298       0.55791702       0.41809300 </v>
   <v>       0.44208301       0.44208301       0.58190703 </v>
   <v>       0.67173295       0.44576024       0.58308023 </v>
   <v>       0.44576027       0.67173293       0.58308023 </v>
   <v>       0.55791702       0.55791702       0.41809300 </v>
   <v>       0.38416599       0.50000002       0.50000000 </v>
   <v>       0.61583401       0.50000002       0.50000000 </v>
   <v>       0.50000000       0.61749319       0.34021317 </v>
   <v>       0.50000000       0.61749319       0.65978680 </v>
   <v>       0.50000000       0.50000000       0.50000000 </v>
   <v>       0.44208298       0.55791702       0.58190703 </v>
   <v>       0.55791702       0.55791702       0.58190703 </v>
   <v>       0.50000000       0.61583404       0.50000000 </v>
   <v>       0.70077593       0.57663073       0.64428213 </v>
   <v>       0.72994080       0.58776217       0.66524067 </v>
  </varray>
  <varray name="selective"  type="logical" >
   <v type="logical" >  F  F  F </v>
   <v type="logical" >  F  F  F </v>
   <v type="logical" >  F  F  F </v>
   <v type="logical" >  F  F  F </v>
   <v type="logical" >  F  F  F </v>
   <v type="logical" >  F  F  F </v>
   <v type="logical" >  F  F  F </v>
   <v type="logical" >  F  F  F </v>
   <v type="logical" >  F  F  F </v>
   <v type="logical" >  F  F  F </v>
   <v type="logical" >  F  F  F </v>
   <v type="logical" >  F  F  F </v>
   <v type="logical" >  F  F  F </v>
   <v type="logical" >  F  F  F </v>
   <v type="logical" >  F  F  F </v>
   <v type="logical" >  F  F  F </v>
   <v type="logical" >  F  F  F </v>
   <v type="logical" >  F  F  F </v>
   <v type="logical" >  F  F  F </v>
   <v type="logical" >  F  F  F </v>
   <v type="logical" >  F  F  F </v>
   <v type="logical" >  F  F  F </v>
   <v type="logical" >  F  F  F </v>
   <v type="logical" >  F  F  F </v>
   <v type="logical" >  F  F  F </v>
   <v type="logical" >  F  F  F </v>
   <v type="logical" >  F  F  F </v>
   <v type="logical" >  F  F  F </v>
   <v type="logical" >  F  F  F </v>
   <v type="logical" >  F  F  F </v>
   <v type="logical" >  F  F  F </v>
   <v type="logical" >  F  F  F </v>
   <v type="logical" >  F  F  F </v>
   <v type="logical" >  F  F  F </v>
   <v type="logical" >  F  F  F </v>
   <v type="logical" >  F  F  F </v>
   <v type="logical" >  F  F  F </v>
   <v type="logical" >  F  F  F </v>
   <v type="logical" >  F  F  F </v>
   <v type="logical" >  F  F  F </v>
   <v type="logical" >  F  F  F </v>
   <v type="logical" >  F  F  F </v>
   <v type="logical" >  F  F  F </v>
   <v type="logical" >  F  F  F </v>
   <v type="logical" >  F  F  F </v>
   <v type="logical" >  F  F  F </v>
   <v type="logical" >  F  F  F </v>
   <v type="logical" >  F  F  F </v>
   <v type="logical" >  F  F  F </v>
   <v type="logical" >  F  F  F </v>
   <v type="logical" >  F  F  F </v>
   <v type="logical" >  F  F  F </v>
   <v type="logical" >  F  F  F </v>
   <v type="logical" >  F  F  F </v>
   <v type="logical" >  F  F  F </v>
   <v type="logical" >  F  F  F </v>
   <v type="logical" >  F  F  F </v>
  </varray>
  <nose>
   <v>      -3.00000000       0.00000000       0.00010000       0.00010000 </v>
  </nose>
 </structure>
</modeling>
