 vasp.5.4.4.18Apr17-6-g9f103f2a35 (build Sep 03 2018 23:53:05) complex          
  
 executed on             LinuxIFC date 2021.11.25  16:48:02
 running on    1 total cores
 distrk:  each k-point on    1 cores,    1 groups
 distr:  one band on NCORES_PER_BAND=   1 cores,    1 groups


--------------------------------------------------------------------------------------------------------


 INCAR:
 POTCAR:    PAW_PBE Pd 04Jan2005                  
 POTCAR:    PAW_PBE C 08Apr2002                   
 POTCAR:    PAW_PBE O 08Apr2002                   
 POTCAR:    PAW_PBE Pd 04Jan2005                  
   VRHFIN =Pd : s1 d9                                                           
   LEXCH  = PE                                                                  
   EATOM  =   809.7530 eV,   59.5152 Ry                                         
                                                                                
   TITEL  = PAW_PBE Pd 04Jan2005                                                
   LULTRA =        F    use ultrasoft PP ?                                      
   IUNSCR =        1    unscreen: 0-lin 1-nonlin 2-no                           
   RPACOR =    2.000    partial core radius                                     
   POMASS =  106.420; ZVAL   =   10.000    mass and valenz                      
   RCORE  =    2.600    outmost cutoff radius                                   
   RWIGS  =    2.710; RWIGS  =    1.434    wigner-seitz radius (au A)           
   ENMAX  =  250.925; ENMIN  =  188.194 eV                                      
   ICORE  =        3    local potential                                         
   LCOR   =        T    correct aug charges                                     
   LPAW   =        T    paw PP                                                  
   EAUG   =  416.230                                                            
   DEXC   =    0.000                                                            
   RMAX   =    2.653    core radius for proj-oper                               
   RAUG   =    1.300    factor for augmentation sphere                          
   RDEP   =    2.734    radius for radial grids                                 
   RDEPT  =    2.103    core radius for aug-charge                              
                                                                                
   Atomic configuration                                                         
   12 entries                                                                   
     n  l   j            E        occ.                                          
     1  0  0.50    -24164.6631   2.0000                                         
     2  0  0.50     -3530.9218   2.0000                                         
     2  1  1.50     -3165.6822   6.0000                                         
     3  0  0.50      -639.4577   2.0000                                         
     3  1  1.50      -519.4532   6.0000                                         
     3  2  2.50      -328.9757  10.0000                                         
     4  0  0.50       -88.7014   2.0000                                         
     4  1  1.50       -54.4540   6.0000                                         
     4  2  2.50        -6.6878   9.0000                                         
     5  0  0.50        -4.3543   1.0000                                         
     5  1  0.50        -1.3606   0.0000                                         
     4  3  2.50        -1.3606   0.0000                                         
   Description                                                                  
     l       E           TYP  RCUT    TYP  RCUT                                 
     2     -6.6878251     23  2.400                                             
     2     -8.0484077     23  2.400                                             
     0     -4.3542939     23  2.400                                             
     0      4.3406793     23  2.400                                             
     1     -4.0817478     23  2.600                                             
     1     15.8380318     23  2.600                                             
     3     -4.0817478     23  2.400                                             
  local pseudopotential read in
  partial core-charges read in
  partial kinetic energy density read in
  atomic valenz-charges read in
  non local Contribution for L=           2  read in
    real space projection operators read in
  non local Contribution for L=           2  read in
    real space projection operators read in
  non local Contribution for L=           0  read in
    real space projection operators read in
  non local Contribution for L=           0  read in
    real space projection operators read in
  non local Contribution for L=           1  read in
    real space projection operators read in
  non local Contribution for L=           1  read in
    real space projection operators read in
    PAW grid and wavefunctions read in
 
   number of l-projection  operators is LMAX  =           6
   number of lm-projection operators is LMMAX =          18
 
 POTCAR:    PAW_PBE C 08Apr2002                   
   VRHFIN =C: s2p2                                                              
   LEXCH  = PE                                                                  
   EATOM  =   147.1560 eV,   10.8157 Ry                                         
                                                                                
   TITEL  = PAW_PBE C 08Apr2002                                                 
   LULTRA =        F    use ultrasoft PP ?                                      
   IUNSCR =        1    unscreen: 0-lin 1-nonlin 2-no                           
   RPACOR =    1.200    partial core radius                                     
   POMASS =   12.011; ZVAL   =    4.000    mass and valenz                      
   RCORE  =    1.500    outmost cutoff radius                                   
   RWIGS  =    1.630; RWIGS  =    0.863    wigner-seitz radius (au A)           
   ENMAX  =  400.000; ENMIN  =  300.000 eV                                      
   ICORE  =        2    local potential                                         
   LCOR   =        T    correct aug charges                                     
   LPAW   =        T    paw PP                                                  
   EAUG   =  644.873                                                            
   DEXC   =    0.000                                                            
   RMAX   =    1.529    core radius for proj-oper                               
   RAUG   =    1.300    factor for augmentation sphere                          
   RDEP   =    1.501    radius for radial grids                                 
   RDEPT  =    1.300    core radius for aug-charge                              
                                                                                
   Atomic configuration                                                         
    4 entries                                                                   
     n  l   j            E        occ.                                          
     1  0  0.50      -273.3789   2.0000                                         
     2  0  0.50       -13.7508   2.0000                                         
     2  1  0.50        -5.2854   2.0000                                         
     3  2  1.50        -5.4423   0.0000                                         
   Description                                                                  
     l       E           TYP  RCUT    TYP  RCUT                                 
     0    -13.7508458     23  1.200                                             
     0     -8.2022199     23  1.200                                             
     1     -5.2854383     23  1.500                                             
     1     34.0145650     23  1.500                                             
     2     -5.4423304      7  1.500                                             
  local pseudopotential read in
  partial core-charges read in
  partial kinetic energy density read in
  atomic valenz-charges read in
  non local Contribution for L=           0  read in
    real space projection operators read in
  non local Contribution for L=           0  read in
    real space projection operators read in
  non local Contribution for L=           1  read in
    real space projection operators read in
  non local Contribution for L=           1  read in
    real space projection operators read in
    PAW grid and wavefunctions read in
 
   number of l-projection  operators is LMAX  =           4
   number of lm-projection operators is LMMAX =           8
 
 POTCAR:    PAW_PBE O 08Apr2002                   
   VRHFIN =O: s2p4                                                              
   LEXCH  = PE                                                                  
   EATOM  =   432.3788 eV,   31.7789 Ry                                         
                                                                                
   TITEL  = PAW_PBE O 08Apr2002                                                 
   LULTRA =        F    use ultrasoft PP ?                                      
   IUNSCR =        1    unscreen: 0-lin 1-nonlin 2-no                           
   RPACOR =    1.200    partial core radius                                     
   POMASS =   16.000; ZVAL   =    6.000    mass and valenz                      
   RCORE  =    1.520    outmost cutoff radius                                   
   RWIGS  =    1.550; RWIGS  =    0.820    wigner-seitz radius (au A)           
   ENMAX  =  400.000; ENMIN  =  300.000 eV                                      
   ICORE  =        2    local potential                                         
   LCOR   =        T    correct aug charges                                     
   LPAW   =        T    paw PP                                                  
   EAUG   =  605.392                                                            
   DEXC   =    0.000                                                            
   RMAX   =    1.553    core radius for proj-oper                               
   RAUG   =    1.300    factor for augmentation sphere                          
   RDEP   =    1.550    radius for radial grids                                 
   RDEPT  =    1.329    core radius for aug-charge                              
                                                                                
   Atomic configuration                                                         
    4 entries                                                                   
     n  l   j            E        occ.                                          
     1  0  0.50      -514.6923   2.0000                                         
     2  0  0.50       -23.9615   2.0000                                         
     2  1  0.50        -9.0305   4.0000                                         
     3  2  1.50        -9.5241   0.0000                                         
   Description                                                                  
     l       E           TYP  RCUT    TYP  RCUT                                 
     0    -23.9615318     23  1.200                                             
     0     -9.5240782     23  1.200                                             
     1     -9.0304911     23  1.520                                             
     1      8.1634956     23  1.520                                             
     2     -9.5240782      7  1.500                                             
  local pseudopotential read in
  partial core-charges read in
  partial kinetic energy density read in
  kinetic energy density of atom read in
  atomic valenz-charges read in
  non local Contribution for L=           0  read in
    real space projection operators read in
  non local Contribution for L=           0  read in
    real space projection operators read in
  non local Contribution for L=           1  read in
    real space projection operators read in
  non local Contribution for L=           1  read in
    real space projection operators read in
    PAW grid and wavefunctions read in
 
   number of l-projection  operators is LMAX  =           4
   number of lm-projection operators is LMMAX =           8
 
 Optimization of the real space projectors (new method)

 maximal supplied QI-value         = 14.36
 optimisation between [QCUT,QGAM] = [ 10.20, 20.39] = [ 29.12,116.47] Ry 
 Optimized for a Real-space Cutoff    1.51 Angstroem

   l    n(q)    QCUT    max X(q) W(low)/X(q) W(high)/X(q)  e(spline) 
   2      8    10.197    59.108    0.26E-03    0.14E-03    0.96E-07
   2      8    10.197    58.101    0.27E-03    0.14E-03    0.98E-07
   0      9    10.197   102.235    0.54E-04    0.60E-05    0.72E-07
   0      9    10.197    58.388    0.52E-04    0.60E-05    0.68E-07
   1      9    10.197    22.191    0.18E-03    0.25E-03    0.79E-07
   1      9    10.197    15.590    0.15E-03    0.21E-03    0.69E-07
 Optimization of the real space projectors (new method)

 maximal supplied QI-value         = 25.13
 optimisation between [QCUT,QGAM] = [ 10.05, 20.36] = [ 28.30,116.06] Ry 
 Optimized for a Real-space Cutoff    1.30 Angstroem

   l    n(q)    QCUT    max X(q) W(low)/X(q) W(high)/X(q)  e(spline) 
   0      8    10.053   115.676    0.49E-03    0.72E-03    0.18E-06
   0      8    10.053    87.132    0.49E-03    0.71E-03    0.18E-06
   1      7    10.053     4.429    0.32E-03    0.31E-03    0.18E-06
   1      7    10.053     2.733    0.23E-03    0.19E-03    0.20E-06
 Optimization of the real space projectors (new method)

 maximal supplied QI-value         = 24.76
 optimisation between [QCUT,QGAM] = [ 10.15, 20.30] = [ 28.85,115.39] Ry 
 Optimized for a Real-space Cutoff    1.38 Angstroem

   l    n(q)    QCUT    max X(q) W(low)/X(q) W(high)/X(q)  e(spline) 
   0      8    10.150    20.381    0.22E-03    0.32E-03    0.29E-06
   0      8    10.150    15.268    0.23E-03    0.35E-03    0.30E-06
   1      8    10.150     5.964    0.46E-03    0.53E-03    0.21E-06
   1      8    10.150     5.382    0.38E-03    0.45E-03    0.19E-06

 ----------------------------------------------------------------------------- 
|                                                                             |
|  ADVICE TO THIS USER RUNNING 'VASP/VAMP'   (HEAR YOUR MASTER'S VOICE ...):  |
|                                                                             |
|      You enforced a specific xc-type in the INCAR file,                     |
|      a different type was found on the POTCAR file                          |
|          I HOPE YOU KNOW, WHAT YOU ARE  DOING                               |
|                                                                             |
 ----------------------------------------------------------------------------- 

  PAW_PBE Pd 04Jan2005                  :
 energy of atom  1       EATOM= -809.7530
 kinetic energy error for atom=    0.0091 (will be added to EATOM!!)
  PAW_PBE C 08Apr2002                   :
 energy of atom  2       EATOM= -147.1560
 kinetic energy error for atom=    0.0288 (will be added to EATOM!!)
  PAW_PBE O 08Apr2002                   :
 energy of atom  3       EATOM= -432.3788
 kinetic energy error for atom=    0.1156 (will be added to EATOM!!)
 
 
 POSCAR: Pd55PES                                 
  positions in cartesian coordinates
  No initial velocities read in
 exchange correlation table for  LEXCH =        9
   RHO(1)=    0.500       N(1)  =     2000
   RHO(2)=  100.500       N(2)  =     4000
 


--------------------------------------------------------------------------------------------------------


 ion  position               nearest neighbor table
   1  0.446  0.328  0.417-   3 3.25   5 3.25   7 3.36  15 3.36  29 3.42  28 3.42
   2  0.672  0.554  0.417-  26 3.25  30 3.25  17 3.36   9 3.36  47 3.42  49 3.42
   3  0.554  0.328  0.417-   1 3.25   5 3.25   7 3.36  11 3.36  29 3.42  21 3.42
   4  0.328  0.554  0.417-  32 3.25  22 3.25  13 3.36   8 3.36  43 3.42  48 3.42
   5  0.500  0.383  0.340-   1 3.25   3 3.25  11 3.36  15 3.36  21 3.42  28 3.42
   6  0.500  0.383  0.660-  24 3.25  19 3.25  16 3.36  12 3.36  42 3.42  44 3.42
   7  0.500  0.276  0.500-  29 3.24   3 3.36   1 3.36  19 3.36  24 3.36
   8  0.276  0.500  0.500-  48 3.24  22 3.36  40 3.36   4 3.36  25 3.36
   9  0.724  0.500  0.500-  49 3.24  26 3.36  45 3.36   2 3.36  20 3.36
  10  0.500  0.724  0.500-  56 2.54  55 3.24  23 3.36  27 3.36  41 3.36  46 3.36
  11  0.612  0.388  0.342-  21 3.24   5 3.36   3 3.36  30 3.36  26 3.36
  12  0.612  0.388  0.658-  42 3.24  24 3.36  45 3.36   6 3.36  31 3.36
  13  0.388  0.612  0.342-  43 3.24  32 3.36  50 3.36   4 3.36  27 3.36
  14  0.388  0.612  0.658-  53 3.24  25 3.36  33 3.36  51 3.36  46 3.36
  15  0.388  0.388  0.342-  28 3.24   5 3.36   1 3.36  32 3.36  22 3.36
  16  0.388  0.388  0.658-  44 3.24  19 3.36  40 3.36   6 3.36  33 3.36
  17  0.612  0.612  0.342-  47 3.24  30 3.36  50 3.36   2 3.36  23 3.36
  18  0.612  0.612  0.658-  54 3.24  31 3.36  20 3.36  51 3.36  41 3.36
  19  0.446  0.328  0.583-   6 3.25  24 3.25  16 3.36   7 3.36  44 3.42  29 3.42
  20  0.672  0.554  0.583-  31 3.25  45 3.25  18 3.36   9 3.36  54 3.42  49 3.42
  21  0.558  0.442  0.418-  11 3.24   5 3.42   3 3.42  30 3.42  26 3.42
  22  0.328  0.446  0.417-   4 3.25  32 3.25   8 3.36  15 3.36  48 3.42  28 3.42
  23  0.554  0.672  0.417-  27 3.25  50 3.25  10 3.36  17 3.36  55 3.42  47 3.42
  24  0.554  0.328  0.583-   6 3.25  19 3.25  12 3.36   7 3.36  42 3.42  29 3.42
  25  0.328  0.554  0.583-  33 3.25  40 3.25  14 3.36   8 3.36  53 3.42  48 3.42
  26  0.672  0.446  0.417-   2 3.25  30 3.25   9 3.36  11 3.36  49 3.42  21 3.42
  27  0.446  0.672  0.417-  23 3.25  50 3.25  10 3.36  13 3.36  55 3.42  43 3.42
  28  0.442  0.442  0.418-  15 3.24   5 3.42   1 3.42  32 3.42  22 3.42
  29  0.500  0.384  0.500-   7 3.24   3 3.42   1 3.42  24 3.42  19 3.42
  30  0.617  0.500  0.340-   2 3.25  26 3.25  17 3.36  11 3.36  47 3.42  21 3.42
  31  0.617  0.500  0.660-  20 3.25  45 3.25  18 3.36  12 3.36  54 3.42  42 3.42
  32  0.383  0.500  0.340-   4 3.25  22 3.25  13 3.36  15 3.36  43 3.42  28 3.42
  33  0.383  0.500  0.660-  25 3.25  40 3.25  14 3.36  16 3.36  53 3.42  44 3.42
  34  0.383  0.383  0.500-
  35  0.617  0.617  0.500-
  36  0.617  0.383  0.500-
  37  0.383  0.617  0.500-
  38  0.500  0.500  0.335-
  39  0.500  0.500  0.665-
  40  0.328  0.446  0.583-  33 3.25  25 3.25  16 3.36   8 3.36  44 3.42  48 3.42
  41  0.554  0.672  0.583-  46 3.25  51 3.25  10 3.36  18 3.36  54 3.42  55 3.42
  42  0.558  0.442  0.582-  12 3.24   6 3.42  24 3.42  31 3.42  45 3.42
  43  0.442  0.558  0.418-  13 3.24   4 3.42  32 3.42  27 3.42  50 3.42
  44  0.442  0.442  0.582-  16 3.24   6 3.42  19 3.42  33 3.42  40 3.42
  45  0.672  0.446  0.583-  20 3.25  31 3.25   9 3.36  12 3.36  49 3.42  42 3.42
  46  0.446  0.672  0.583-  41 3.25  51 3.25  10 3.36  14 3.36  53 3.42  55 3.42
  47  0.558  0.558  0.418-  17 3.24   2 3.42  30 3.42  23 3.42  50 3.42
  48  0.384  0.500  0.500-   8 3.24   4 3.42  22 3.42  25 3.42  40 3.42
  49  0.616  0.500  0.500-   9 3.24   2 3.42  26 3.42  20 3.42  45 3.42
  50  0.500  0.617  0.340-  27 3.25  23 3.25  13 3.36  17 3.36  43 3.42  47 3.42
  51  0.500  0.617  0.660-  41 3.25  46 3.25  14 3.36  18 3.36  53 3.42  54 3.42
  52  0.500  0.500  0.500-
  53  0.442  0.558  0.582-  14 3.24  25 3.42  33 3.42  51 3.42  46 3.42
  54  0.558  0.558  0.582-  18 3.24  31 3.42  20 3.42  51 3.42  41 3.42
  55  0.500  0.616  0.500-  10 3.24  23 3.42  27 3.42  41 3.42  46 3.42
  56  0.508  0.806  0.483-  57 1.13  10 2.54
  57  0.509  0.844  0.481-  56 1.13
 
  LATTYP: Found a simple cubic cell.
 ALAT       =    30.0000000000
  
  Lattice vectors:
  
 A1 = (  30.0000000000,   0.0000000000,   0.0000000000)
 A2 = (   0.0000000000,  30.0000000000,   0.0000000000)
 A3 = (   0.0000000000,   0.0000000000,  30.0000000000)


Analysis of symmetry for initial positions (statically):
=====================================================================
 Subroutine PRICEL returns:
 Original cell was already a primitive cell.
 

 Routine SETGRP: Setting up the symmetry group for a 
 simple cubic supercell.


 Subroutine GETGRP returns: Found  1 space group operations
 (whereof  1 operations were pure point group operations)
 out of a pool of 48 trial point group operations.


The static configuration has the point symmetry C_1 .


Analysis of symmetry for dynamics (positions and initial velocities):
=====================================================================
 Subroutine PRICEL returns:
 Original cell was already a primitive cell.
 

 Routine SETGRP: Setting up the symmetry group for a 
 simple cubic supercell.


 Subroutine GETGRP returns: Found  1 space group operations
 (whereof  1 operations were pure point group operations)
 out of a pool of 48 trial point group operations.


The dynamic configuration has the point symmetry C_1 .


Analysis of constrained symmetry for selective dynamics:
=====================================================================
 Subroutine PRICEL returns:
 Original cell was already a primitive cell.
 

 Routine SETGRP: Setting up the symmetry group for a 
 simple cubic supercell.


 Subroutine GETGRP returns: Found  1 space group operations
 (whereof  1 operations were pure point group operations)
 out of a pool of 48 trial point group operations.


The constrained configuration has the point symmetry C_1 .


 Subroutine INISYM returns: Found  1 space group operations
 (whereof  1 operations are pure point group operations),
 and found     1 'primitive' translations

 
 
 KPOINTS: K-points                                

Automatic generation of k-mesh.
Space group operators:
 irot       det(A)        alpha          n_x          n_y          n_z        tau_x        tau_y        tau_z
    1     1.000000     0.000000     1.000000     0.000000     0.000000     0.000000     0.000000     0.000000
 
 Subroutine IBZKPT returns following result:
 ===========================================
 
 Found      1 irreducible k-points:
 
 Following reciprocal coordinates:
            Coordinates               Weight
  0.000000  0.000000  0.000000      1.000000
 
 Following cartesian coordinates:
            Coordinates               Weight
  0.000000  0.000000  0.000000      1.000000
 


--------------------------------------------------------------------------------------------------------




 Dimension of arrays:
   k-points           NKPTS =      1   k-points in BZ     NKDIM =      1   number of bands    NBANDS=    336
   number of dos      NEDOS =    301   number of ions     NIONS =     57
   non local maximal  LDIM  =      6   non local SUM 2l+1 LMDIM =     18
   total plane-waves  NPLWV = ******
   max r-space proj   IRMAX =   1847   max aug-charges    IRDMAX=   6262
   dimension x,y,z NGX =   150 NGY =  150 NGZ =  150
   dimension x,y,z NGXF=   300 NGYF=  300 NGZF=  300
   support grid    NGXF=   300 NGYF=  300 NGZF=  300
   ions per type =              55   1   1
   NGX,Y,Z   is equivalent  to a cutoff of   8.31,  8.31,  8.31 a.u.
   NGXF,Y,Z  is equivalent  to a cutoff of  16.62, 16.62, 16.62 a.u.

 SYSTEM =  6_Pd100_top_free_z(O)                   
 POSCAR =  Pd55PES                                 

 Startparameter for this run:
   NWRITE =      2    write-flag & timer
   PREC   = normal    normal or accurate (medium, high low for compatibility)
   ISTART =      0    job   : 0-new  1-cont  2-samecut
   ICHARG =      2    charge: 1-file 2-atom 10-const
   ISPIN  =      1    spin polarized calculation?
   LNONCOLLINEAR =      F non collinear calculations
   LSORBIT =      F    spin-orbit coupling
   INIWAV =      1    electr: 0-lowe 1-rand  2-diag
   LASPH  =      F    aspherical Exc in radial PAW
   METAGGA=      F    non-selfconsistent MetaGGA calc.

 Electronic Relaxation 1
   ENCUT  =  400.0 eV  29.40 Ry    5.42 a.u.  48.92 48.92 48.92*2*pi/ulx,y,z
   ENINI  =  400.0     initial cutoff
   ENAUG  =  644.9 eV  augmentation charge cutoff
   NELM   =    100;   NELMIN=  6; NELMDL= -5     # of ELM steps 
   EDIFF  = 0.1E-03   stopping-criterion for ELM
   LREAL  =      T    real-space projection
   NLSPLINE    = F    spline interpolate recip. space projectors
   LCOMPAT=      F    compatible to vasp.4.4
   GGA_COMPAT  = T    GGA compatible to vasp.4.4-vasp.4.6
   LMAXPAW     = -100 max onsite density
   LMAXMIX     =    2 max onsite mixed and CHGCAR
   VOSKOWN=      0    Vosko Wilk Nusair interpolation
   ROPT   =   -0.00050  -0.00050  -0.00050
 Ionic relaxation
   EDIFFG = -.5E-01   stopping-criterion for IOM
   NSW    =      0    number of steps for IOM
   NBLOCK =      1;   KBLOCK =      1    inner block; outer block 
   IBRION =     -1    ionic relax: 0-MD 1-quasi-New 2-CG
   NFREE  =      1    steps in history (QN), initial steepest desc. (CG)
   ISIF   =      2    stress and relaxation
   IWAVPR =     10    prediction:  0-non 1-charg 2-wave 3-comb
   ISYM   =      2    0-nonsym 1-usesym 2-fastsym
   LCORR  =      T    Harris-Foulkes like correction to forces

   POTIM  = 0.5000    time-step for ionic-motion
   TEIN   =    0.0    initial temperature
   TEBEG  =    0.0;   TEEND  =   0.0 temperature during run
   SMASS  =  -3.00    Nose mass-parameter (am)
   estimated Nose-frequenzy (Omega)   =  0.10E-29 period in steps =****** mass=  -0.206E-25a.u.
   SCALEE = 1.0000    scale energy and forces
   NPACO  =    256;   APACO  = 16.0  distance and # of slots for P.C.
   PSTRESS=    0.0 pullay stress

  Mass of Ions in am
   POMASS = 106.42 12.01 16.00
  Ionic Valenz
   ZVAL   =  10.00  4.00  6.00
  Atomic Wigner-Seitz radii
   RWIGS  =  -1.00 -1.00 -1.00
  virtual crystal weights 
   VCA    =   1.00  1.00  1.00
   NELECT =     560.0000    total number of electrons
   NUPDOWN=      -1.0000    fix difference up-down

 DOS related values:
   EMIN   =  10.00;   EMAX   =-10.00  energy-range for DOS
   EFERMI =   0.00
   ISMEAR =     2;   SIGMA  =   0.20  broadening in eV -4-tet -1-fermi 0-gaus

 Electronic relaxation 2 (details)
   IALGO  =     68    algorithm
   LDIAG  =      T    sub-space diagonalisation (order eigenvalues)
   LSUBROT=      F    optimize rotation matrix (better conditioning)
   TURBO    =      0    0=normal 1=particle mesh
   IRESTART =      0    0=no restart 2=restart with 2 vectors
   NREBOOT  =      0    no. of reboots
   NMIN     =      0    reboot dimension
   EREF     =   0.00    reference energy to select bands
   IMIX   =      4    mixing-type and parameters
     AMIX     =   0.40;   BMIX     =  1.00
     AMIX_MAG =   1.60;   BMIX_MAG =  1.00
     AMIN     =   0.10
     WC   =   100.;   INIMIX=   1;  MIXPRE=   1;  MAXMIX= -45

 Intra band minimization:
   WEIMIN = 0.0000     energy-eigenvalue tresh-hold
   EBREAK =  0.74E-07  absolut break condition
   DEPER  =   0.30     relativ break condition  

   TIME   =   0.40     timestep for ELM

  volume/ion in A,a.u.               =     473.68      3196.58
  Fermi-wavevector in a.u.,A,eV,Ry     =   0.449797  0.849992  2.752691  0.202317
  Thomas-Fermi vector in A             =   1.430086
 
 Write flags
   LWAVE        =      F    write WAVECAR
   LDOWNSAMPLE  =      F    k-point downsampling of WAVECAR
   LCHARG       =      F    write CHGCAR
   LVTOT        =      F    write LOCPOT, total local potential
   LVHAR        =      F    write LOCPOT, Hartree potential only
   LELF         =      F    write electronic localiz. function (ELF)
   LORBIT       =      0    0 simple, 1 ext, 2 COOP (PROOUT), +10 PAW based schemes


 Dipole corrections
   LMONO  =      F    monopole corrections only (constant potential shift)
   LDIPOL =      F    correct potential (dipole corrections)
   IDIPOL =      0    1-x, 2-y, 3-z, 4-all directions 
   EPSILON=  1.0000000 bulk dielectric constant

 Exchange correlation treatment:
   GGA     =    RP    GGA type
   LEXCH   =     9    internal setting for exchange type
   VOSKOWN=      0    Vosko Wilk Nusair interpolation
   LHFCALC =     F    Hartree Fock is set to
   LHFONE  =     F    Hartree Fock one center treatment
   AEXX    =    0.0000 exact exchange contribution

 Linear response parameters
   LEPSILON=     F    determine dielectric tensor
   LRPA    =     F    only Hartree local field effects (RPA)
   LNABLA  =     F    use nabla operator in PAW spheres
   LVEL    =     F    velocity operator in full k-point grid
   LINTERFAST=   F  fast interpolation
   KINTER  =     0    interpolate to denser k-point grid
   CSHIFT  =0.1000    complex shift for real part using Kramers Kronig
   OMEGAMAX=  -1.0    maximum frequency
   DEG_THRESHOLD= 0.2000000E-02 threshold for treating states as degnerate
   RTIME   =   -0.100 relaxation time in fs
  (WPLASMAI=    0.000 imaginary part of plasma frequency in eV, 0.658/RTIME)
   DFIELD  = 0.0000000 0.0000000 0.0000000 field for delta impulse in time
 
 Orbital magnetization related:
   ORBITALMAG=     F  switch on orbital magnetization
   LCHIMAG   =     F  perturbation theory with respect to B field
   DQ        =  0.001000  dq finite difference perturbation B field
   LLRAUG    =     F  two centre corrections for induced B field



--------------------------------------------------------------------------------------------------------


 Static calculation
 charge density and potential will be updated during run
 non-spin polarized calculation
 RMM-DIIS sequential band-by-band and
  variant of blocked Davidson during initial phase
 perform sub-space diagonalisation
    before iterative eigenvector-optimisation
 modified Broyden-mixing scheme, WC =      100.0
 initial mixing is a Kerker type mixing with AMIX =  0.4000 and BMIX =      1.0000
 Hartree-type preconditioning will be used
 using additional bands           56
 real space projection scheme for non local part
 use partial core corrections
 calculate Harris-corrections to forces 
   (improved forces if not selfconsistent)
 use gradient corrections 
 use of overlap-Matrix (Vanderbilt PP)
 Methfessel and Paxton  Order N= 2 SIGMA  =   0.20


--------------------------------------------------------------------------------------------------------


  energy-cutoff  :      400.00
  volume of cell :    27000.00
      direct lattice vectors                 reciprocal lattice vectors
    30.000000000  0.000000000  0.000000000     0.033333333  0.000000000  0.000000000
     0.000000000 30.000000000  0.000000000     0.000000000  0.033333333  0.000000000
     0.000000000  0.000000000 30.000000000     0.000000000  0.000000000  0.033333333

  length of vectors
    30.000000000 30.000000000 30.000000000     0.033333333  0.033333333  0.033333333


 
 k-points in units of 2pi/SCALE and weight: K-points                                
   0.00000000  0.00000000  0.00000000       1.000
 
 k-points in reciprocal lattice and weights: K-points                                
   0.00000000  0.00000000  0.00000000       1.000
 
 position of ions in fractional coordinates (direct lattice) 
   0.44576020  0.32826710  0.41691983
   0.67173288  0.55423978  0.41691983
   0.55423980  0.32826710  0.41691983
   0.32826712  0.55423978  0.41691983
   0.50000000  0.38250690  0.34021317
   0.50000000  0.38250690  0.65978680
   0.50000000  0.27609440  0.50000000
   0.27609443  0.49999998  0.50000000
   0.72390557  0.49999998  0.50000000
   0.50000000  0.72390555  0.50000000
   0.61195280  0.38804720  0.34167483
   0.61195280  0.38804720  0.65832513
   0.38804722  0.61195278  0.34167483
   0.38804722  0.61195278  0.65832513
   0.38804720  0.38804720  0.34167483
   0.38804720  0.38804720  0.65832513
   0.61195278  0.61195278  0.34167483
   0.61195278  0.61195278  0.65832513
   0.44576020  0.32826710  0.58308023
   0.67173288  0.55423978  0.58308023
   0.55791699  0.44208301  0.41809300
   0.32826705  0.44576024  0.41691983
   0.55423973  0.67173293  0.41691983
   0.55423980  0.32826710  0.58308023
   0.32826712  0.55423978  0.58308023
   0.67173295  0.44576024  0.41691983
   0.44576027  0.67173293  0.41691983
   0.44208301  0.44208301  0.41809300
   0.50000000  0.38416601  0.50000000
   0.61749315  0.50000005  0.34021317
   0.61749315  0.50000005  0.65978680
   0.38250685  0.50000005  0.34021317
   0.38250685  0.50000005  0.65978680
   0.38317830  0.38317830  0.50000000
   0.61682172  0.61682172  0.50000000
   0.61682170  0.38317830  0.50000000
   0.38317828  0.61682172  0.50000000
   0.50000000  0.50000000  0.33478917
   0.50000000  0.50000000  0.66521087
   0.32826705  0.44576024  0.58308023
   0.55423973  0.67173293  0.58308023
   0.55791699  0.44208301  0.58190703
   0.44208298  0.55791702  0.41809300
   0.44208301  0.44208301  0.58190703
   0.67173295  0.44576024  0.58308023
   0.44576027  0.67173293  0.58308023
   0.55791702  0.55791702  0.41809300
   0.38416599  0.50000002  0.50000000
   0.61583401  0.50000002  0.50000000
   0.50000000  0.61749319  0.34021317
   0.50000000  0.61749319  0.65978680
   0.50000000  0.50000000  0.50000000
   0.44208298  0.55791702  0.58190703
   0.55791702  0.55791702  0.58190703
   0.50000000  0.61583404  0.50000000
   0.50758227  0.80646847  0.48331383
   0.50851087  0.84400140  0.48127030
 
 position of ions in cartesian coordinates  (Angst):
  13.37280588  9.84801292 12.50759500
  20.15198637 16.62719342 12.50759500
  16.62719412  9.84801292 12.50759500
   9.84801363 16.62719342 12.50759500
  15.00000000 11.47520705 10.20639500
  15.00000000 11.47520705 19.79360400
  15.00000000  8.28283206 15.00000000
   8.28283277 14.99999929 15.00000000
  21.71716723 14.99999929 15.00000000
  15.00000000 21.71716652 14.99999999
  18.35858397 11.64141603 10.25024500
  18.35858397 11.64141603 19.74975399
  11.64141674 18.35858326 10.25024500
  11.64141674 18.35858326 19.74975400
  11.64141603 11.64141603 10.25024500
  11.64141603 11.64141603 19.74975400
  18.35858326 18.35858326 10.25024500
  18.35858326 18.35858326 19.74975400
  13.37280588  9.84801291 17.49240700
  20.15198638 16.62719341 17.49240700
  16.73750985 13.26249015 12.54279000
   9.84801151 13.37280729 12.50759500
  16.62719200 20.15198779 12.50759500
  16.62719412  9.84801292 17.49240700
   9.84801363 16.62719342 17.49240700
  20.15198849 13.37280729 12.50759500
  13.37280800 20.15198779 12.50759500
  13.26249015 13.26249015 12.54279000
  15.00000000 11.52498029 15.00000000
  18.52479437 15.00000140 10.20639500
  18.52479437 15.00000141 19.79360400
  11.47520562 15.00000141 10.20639501
  11.47520563 15.00000141 19.79360400
  11.49534898 11.49534898 15.00000000
  18.50465172 18.50465172 15.00000000
  18.50465102 11.49534898 15.00000000
  11.49534828 18.50465172 15.00000000
  15.00000000 15.00000000 10.04367500
  15.00000000 15.00000000 19.95632599
   9.84801151 13.37280729 17.49240700
  16.62719200 20.15198779 17.49240700
  16.73750985 13.26249015 17.45721100
  13.26248944 16.73751056 12.54279001
  13.26249015 13.26249015 17.45721100
  20.15198849 13.37280729 17.49240699
  13.37280800 20.15198779 17.49240700
  16.73751056 16.73751056 12.54279000
  11.52497959 15.00000071 15.00000000
  18.47502041 15.00000071 15.00000000
  14.99999999 18.52479579 10.20639500
  15.00000000 18.52479578 19.79360400
  15.00000000 15.00000000 15.00000000
  13.26248944 16.73751057 17.45721101
  16.73751056 16.73751057 17.45721100
  15.00000000 18.47502112 15.00000000
  15.22746800 24.19405400 14.49941500
  15.25532600 25.32004200 14.43810900
 


--------------------------------------------------------------------------------------------------------


 k-point  1 :   0.0000 0.0000 0.0000  plane waves:  490521

 maximum and minimum number of plane-waves per node :    490521   490521

 maximum number of plane-waves:    490521
 maximum index in each direction: 
   IXMAX=   48   IYMAX=   48   IZMAX=   48
   IXMIN=  -48   IYMIN=  -48   IZMIN=  -48


 serial   3D FFT for wavefunctions
 parallel 3D FFT for charge:
    minimum data exchange during FFTs selected (reduces bandwidth)


 total amount of memory used by VASP MPI-rank0  5486941. kBytes
=======================================================================

   base      :      30000. kBytes
   nonlr-proj:      17126. kBytes
   fftplans  :     924480. kBytes
   grid      :    1872000. kBytes
   one-center:        886. kBytes
   wavefun   :    2642449. kBytes
 
     INWAV:  cpu time    0.0002: real time    0.0006
 Broyden mixing: mesh for mixing (old mesh)
   NGX = 97   NGY = 97   NGZ = 97
  (NGX  =300   NGY  =300   NGZ  =300)
  gives a total of 912673 points

 initial charge density was supplied:
 charge density of overlapping atoms calculated
 number of electron     560.0000000 magnetization 
 keeping initial charge density in first step


--------------------------------------------------------------------------------------------------------


 Maximum index for non-local projection operator         1763
 Maximum index for augmentation-charges         5898 (set IRDMAX)


--------------------------------------------------------------------------------------------------------


 First call to EWALD:  gamma=   0.059
 Maximum number of real-space cells 3x 3x 3
 Maximum number of reciprocal cells 3x 3x 3

    FEWALD:  cpu time    0.0170: real time    0.0170


--------------------------------------- Iteration      1(   1)  ---------------------------------------


    POTLOK:  cpu time   18.0809: real time   18.0858
    SETDIJ:  cpu time    0.1315: real time    0.1315
     EDDAV:  cpu time  491.6577: real time  491.7737
       DOS:  cpu time    0.0016: real time    0.0016
    --------------------------------------------
      LOOP:  cpu time  509.8717: real time  509.9925

 eigenvalue-minimisations  :   688
 total energy-change (2. order) : 0.4379121E+04  (-0.1005092E+05)
 number of electron     560.0000000 magnetization 
 augmentation part      560.0000000 magnetization 

 Free energy of the ion-electron system (eV)
  ---------------------------------------------------
  alpha Z        PSCENC =        75.25431677
  Ewald energy   TEWEN  =    136876.12845523
  -Hartree energ DENC   =   -180243.70951515
  -exchange      EXHF   =         0.00000000
  -V(xc)+E(xc)   XCENC  =     -1703.95035431
  PAW double counting   =     44873.02882129   -41398.84523641
  entropy T*S    EENTRO =         0.03179862
  eigenvalues    EBANDS =       814.67731691
  atomic energy  EATOM  =     45086.50549395
  Solvation  Ediel_sol  =         0.00000000
  ---------------------------------------------------
  free energy    TOTEN  =      4379.12109691 eV

  energy without entropy =     4379.08929829  energy(sigma->0) =     4379.11314725


--------------------------------------------------------------------------------------------------------




--------------------------------------- Iteration      1(   2)  ---------------------------------------


     EDDAV:  cpu time  726.0435: real time  726.0967
       DOS:  cpu time    0.0015: real time    0.0015
    --------------------------------------------
      LOOP:  cpu time  726.0450: real time  726.0982

 eigenvalue-minimisations  :  1224
 total energy-change (2. order) :-0.2372983E+04  (-0.2134804E+04)
 number of electron     560.0000000 magnetization 
 augmentation part      560.0000000 magnetization 

 Free energy of the ion-electron system (eV)
  ---------------------------------------------------
  alpha Z        PSCENC =        75.25431677
  Ewald energy   TEWEN  =    136876.12845523
  -Hartree energ DENC   =   -180243.70951515
  -exchange      EXHF   =         0.00000000
  -V(xc)+E(xc)   XCENC  =     -1703.95035431
  PAW double counting   =     44873.02882129   -41398.84523641
  entropy T*S    EENTRO =         0.01808304
  eigenvalues    EBANDS =     -1558.29212977
  atomic energy  EATOM  =     45086.50549395
  Solvation  Ediel_sol  =         0.00000000
  ---------------------------------------------------
  free energy    TOTEN  =      2006.13793464 eV

  energy without entropy =     2006.11985160  energy(sigma->0) =     2006.13341388


--------------------------------------------------------------------------------------------------------




--------------------------------------- Iteration      1(   3)  ---------------------------------------


     EDDAV:  cpu time  617.4390: real time  617.4880
       DOS:  cpu time    0.0013: real time    0.0013
    --------------------------------------------
      LOOP:  cpu time  617.4403: real time  617.4893

 eigenvalue-minimisations  :   992
 total energy-change (2. order) :-0.1772662E+04  (-0.1668367E+04)
 number of electron     560.0000000 magnetization 
 augmentation part      560.0000000 magnetization 

 Free energy of the ion-electron system (eV)
  ---------------------------------------------------
  alpha Z        PSCENC =        75.25431677
  Ewald energy   TEWEN  =    136876.12845523
  -Hartree energ DENC   =   -180243.70951515
  -exchange      EXHF   =         0.00000000
  -V(xc)+E(xc)   XCENC  =     -1703.95035431
  PAW double counting   =     44873.02882129   -41398.84523641
  entropy T*S    EENTRO =        -0.00448289
  eigenvalues    EBANDS =     -3330.93155371
  atomic energy  EATOM  =     45086.50549395
  Solvation  Ediel_sol  =         0.00000000
  ---------------------------------------------------
  free energy    TOTEN  =       233.47594478 eV

  energy without entropy =      233.48042767  energy(sigma->0) =      233.47706550


--------------------------------------------------------------------------------------------------------




--------------------------------------- Iteration      1(   4)  ---------------------------------------


     EDDAV:  cpu time  549.3411: real time  549.4102
       DOS:  cpu time    0.0014: real time    0.0014
    --------------------------------------------
      LOOP:  cpu time  549.3425: real time  549.4116

 eigenvalue-minimisations  :   832
 total energy-change (2. order) :-0.3683371E+03  (-0.3131054E+03)
 number of electron     560.0000000 magnetization 
 augmentation part      560.0000000 magnetization 

 Free energy of the ion-electron system (eV)
  ---------------------------------------------------
  alpha Z        PSCENC =        75.25431677
  Ewald energy   TEWEN  =    136876.12845523
  -Hartree energ DENC   =   -180243.70951515
  -exchange      EXHF   =         0.00000000
  -V(xc)+E(xc)   XCENC  =     -1703.95035431
  PAW double counting   =     44873.02882129   -41398.84523641
  entropy T*S    EENTRO =         0.00664894
  eigenvalues    EBANDS =     -3699.27974052
  atomic energy  EATOM  =     45086.50549395
  Solvation  Ediel_sol  =         0.00000000
  ---------------------------------------------------
  free energy    TOTEN  =      -134.86111021 eV

  energy without entropy =     -134.86775915  energy(sigma->0) =     -134.86277244


--------------------------------------------------------------------------------------------------------




--------------------------------------- Iteration      1(   5)  ---------------------------------------


     EDDAV:  cpu time  638.6236: real time  638.7169
       DOS:  cpu time    0.0017: real time    0.0017
    CHARGE:  cpu time   27.8248: real time   27.8291
    MIXING:  cpu time    0.4673: real time    0.4674
    --------------------------------------------
      LOOP:  cpu time  666.9175: real time  667.0151

 eigenvalue-minimisations  :  1024
 total energy-change (2. order) :-0.4404357E+02  (-0.3664047E+02)
 number of electron     559.9999837 magnetization 
 augmentation part      245.2239505 magnetization 

 Broyden mixing:
  rms(total) = 0.13808E+01    rms(broyden)= 0.13797E+01
  rms(prec ) = 0.14841E+01
  weight for this iteration     100.00

 Free energy of the ion-electron system (eV)
  ---------------------------------------------------
  alpha Z        PSCENC =        75.25431677
  Ewald energy   TEWEN  =    136876.12845523
  -Hartree energ DENC   =   -180243.70951515
  -exchange      EXHF   =         0.00000000
  -V(xc)+E(xc)   XCENC  =     -1703.95035431
  PAW double counting   =     44873.02882129   -41398.84523641
  entropy T*S    EENTRO =         0.53315918
  eigenvalues    EBANDS =     -3743.84981685
  atomic energy  EATOM  =     45086.50549395
  Solvation  Ediel_sol  =         0.00000000
  ---------------------------------------------------
  free energy    TOTEN  =      -178.90467629 eV

  energy without entropy =     -179.43783547  energy(sigma->0) =     -179.03796608


--------------------------------------------------------------------------------------------------------




--------------------------------------- Iteration      1(   6)  ---------------------------------------


    POTLOK:  cpu time   14.2914: real time   14.2963
    SETDIJ:  cpu time    0.1324: real time    0.1324
    EDDIAG:  cpu time   89.4571: real time   89.4716
  RMM-DIIS:  cpu time  198.7939: real time  198.8228
    ORTHCH:  cpu time   24.3373: real time   24.3408
       DOS:  cpu time    0.0017: real time    0.0017
    CHARGE:  cpu time   28.0525: real time   28.0563
    MIXING:  cpu time    0.5049: real time    0.5049
    --------------------------------------------
      LOOP:  cpu time  355.5712: real time  355.6268

 eigenvalue-minimisations  :   718
 total energy-change (2. order) : 0.1254530E+01  (-0.4711912E+01)
 number of electron     559.9999848 magnetization 
 augmentation part      240.8800733 magnetization 

 Broyden mixing:
  rms(total) = 0.19347E+01    rms(broyden)= 0.19345E+01
  rms(prec ) = 0.22396E+01
  weight for this iteration     100.00

 eigenvalues of (default mixing * dielectric matrix)
  average eigenvalue GAMMA=   0.3681
  0.3681

 Free energy of the ion-electron system (eV)
  ---------------------------------------------------
  alpha Z        PSCENC =        75.25431677
  Ewald energy   TEWEN  =    136876.12845523
  -Hartree energ DENC   =   -180655.73154861
  -exchange      EXHF   =         0.00000000
  -V(xc)+E(xc)   XCENC  =     -1697.70887158
  PAW double counting   =     45622.73519017   -42121.36660086
  entropy T*S    EENTRO =        -0.13666305
  eigenvalues    EBANDS =     -3363.32991864
  atomic energy  EATOM  =     45086.50549395
  Solvation  Ediel_sol  =         0.00000000
  ---------------------------------------------------
  free energy    TOTEN  =      -177.65014661 eV

  energy without entropy =     -177.51348357  energy(sigma->0) =     -177.61598085


--------------------------------------------------------------------------------------------------------




--------------------------------------- Iteration      1(   7)  ---------------------------------------


    POTLOK:  cpu time   14.3380: real time   14.3428
    SETDIJ:  cpu time    0.1327: real time    0.1327
    EDDIAG:  cpu time   89.0934: real time   89.1063
  RMM-DIIS:  cpu time  234.4074: real time  234.4401
    ORTHCH:  cpu time   24.3249: real time   24.3287
       DOS:  cpu time    0.0017: real time    0.0017
    CHARGE:  cpu time   28.0949: real time   28.0988
    MIXING:  cpu time    0.5164: real time    0.5164
    --------------------------------------------
      LOOP:  cpu time  390.9095: real time  390.9676

 eigenvalue-minimisations  :   851
 total energy-change (2. order) :-0.3080250E+01  (-0.1810803E+01)
 number of electron     559.9999823 magnetization 
 augmentation part      240.4506057 magnetization 

 Broyden mixing:
  rms(total) = 0.23397E+01    rms(broyden)= 0.23394E+01
  rms(prec ) = 0.28577E+01
  weight for this iteration     100.00

 eigenvalues of (default mixing * dielectric matrix)
  average eigenvalue GAMMA=   0.3271
  0.5173  0.1369

 Free energy of the ion-electron system (eV)
  ---------------------------------------------------
  alpha Z        PSCENC =        75.25431677
  Ewald energy   TEWEN  =    136876.12845523
  -Hartree energ DENC   =   -180749.40055459
  -exchange      EXHF   =         0.00000000
  -V(xc)+E(xc)   XCENC  =     -1697.79384183
  PAW double counting   =     45691.64974858   -42187.09659379
  entropy T*S    EENTRO =        -0.04602481
  eigenvalues    EBANDS =     -3275.93139646
  atomic energy  EATOM  =     45086.50549395
  Solvation  Ediel_sol  =         0.00000000
  ---------------------------------------------------
  free energy    TOTEN  =      -180.73039693 eV

  energy without entropy =     -180.68437213  energy(sigma->0) =     -180.71889073


--------------------------------------------------------------------------------------------------------




--------------------------------------- Iteration      1(   8)  ---------------------------------------


    POTLOK:  cpu time   14.3291: real time   14.3339
    SETDIJ:  cpu time    0.1420: real time    0.1420
    EDDIAG:  cpu time   89.2877: real time   89.3006
  RMM-DIIS:  cpu time  221.7175: real time  221.7500
    ORTHCH:  cpu time   24.3296: real time   24.3328
       DOS:  cpu time    0.0017: real time    0.0017
    CHARGE:  cpu time   28.0833: real time   28.0869
    MIXING:  cpu time    0.5522: real time    0.5523
    --------------------------------------------
      LOOP:  cpu time  378.4431: real time  378.5002

 eigenvalue-minimisations  :   798
 total energy-change (2. order) :-0.2467705E+01  (-0.5883012E+00)
 number of electron     559.9999834 magnetization 
 augmentation part      240.0651909 magnetization 

 Broyden mixing:
  rms(total) = 0.26201E+01    rms(broyden)= 0.26198E+01
  rms(prec ) = 0.31236E+01
  weight for this iteration     100.00

 eigenvalues of (default mixing * dielectric matrix)
  average eigenvalue GAMMA=   0.3211
  0.7058  0.1288  0.1288

 Free energy of the ion-electron system (eV)
  ---------------------------------------------------
  alpha Z        PSCENC =        75.25431677
  Ewald energy   TEWEN  =    136876.12845523
  -Hartree energ DENC   =   -180782.12874123
  -exchange      EXHF   =         0.00000000
  -V(xc)+E(xc)   XCENC  =     -1697.74633281
  PAW double counting   =     45742.11520197   -42235.12538098
  entropy T*S    EENTRO =        -0.08325480
  eigenvalues    EBANDS =     -3248.11785976
  atomic energy  EATOM  =     45086.50549395
  Solvation  Ediel_sol  =         0.00000000
  ---------------------------------------------------
  free energy    TOTEN  =      -183.19810166 eV

  energy without entropy =     -183.11484686  energy(sigma->0) =     -183.17728796


--------------------------------------------------------------------------------------------------------




--------------------------------------- Iteration      1(   9)  ---------------------------------------


    POTLOK:  cpu time   14.3194: real time   14.3241
    SETDIJ:  cpu time    0.1325: real time    0.1325
    EDDIAG:  cpu time   89.6230: real time   89.6351
  RMM-DIIS:  cpu time  211.2193: real time  211.2510
    ORTHCH:  cpu time   24.7256: real time   24.7296
       DOS:  cpu time    0.0017: real time    0.0017
    CHARGE:  cpu time   28.8753: real time   28.8801
    MIXING:  cpu time    0.5827: real time    0.5831
    --------------------------------------------
      LOOP:  cpu time  369.4795: real time  369.5372

 eigenvalue-minimisations  :   729
 total energy-change (2. order) : 0.3314569E+00  (-0.4834836E+00)
 number of electron     559.9999840 magnetization 
 augmentation part      240.5825896 magnetization 

 Broyden mixing:
  rms(total) = 0.28716E+01    rms(broyden)= 0.28713E+01
  rms(prec ) = 0.33407E+01
  weight for this iteration     100.00

 eigenvalues of (default mixing * dielectric matrix)
  average eigenvalue GAMMA=   0.2915
  0.7976  0.1350  0.1350  0.0985

 Free energy of the ion-electron system (eV)
  ---------------------------------------------------
  alpha Z        PSCENC =        75.25431677
  Ewald energy   TEWEN  =    136876.12845523
  -Hartree energ DENC   =   -180804.40972281
  -exchange      EXHF   =         0.00000000
  -V(xc)+E(xc)   XCENC  =     -1697.69308269
  PAW double counting   =     45800.66786314   -42290.88475136
  entropy T*S    EENTRO =        -0.11190320
  eigenvalues    EBANDS =     -3228.32331382
  atomic energy  EATOM  =     45086.50549395
  Solvation  Ediel_sol  =         0.00000000
  ---------------------------------------------------
  free energy    TOTEN  =      -182.86664477 eV

  energy without entropy =     -182.75474157  energy(sigma->0) =     -182.83866897


--------------------------------------------------------------------------------------------------------




--------------------------------------- Iteration      1(  10)  ---------------------------------------


    POTLOK:  cpu time   14.9387: real time   14.9427
    SETDIJ:  cpu time    0.1331: real time    0.1331
    EDDIAG:  cpu time   90.4200: real time   90.4327
  RMM-DIIS:  cpu time  216.4191: real time  216.4518
    ORTHCH:  cpu time   25.0817: real time   25.0853
       DOS:  cpu time    0.0017: real time    0.0017
    CHARGE:  cpu time   29.4613: real time   29.4658
    MIXING:  cpu time    0.6561: real time    0.6562
    --------------------------------------------
      LOOP:  cpu time  377.1116: real time  377.1693

 eigenvalue-minimisations  :   735
 total energy-change (2. order) : 0.2330336E+01  (-0.2848522E+00)
 number of electron     559.9999850 magnetization 
 augmentation part      241.0095725 magnetization 

 Broyden mixing:
  rms(total) = 0.23588E+01    rms(broyden)= 0.23585E+01
  rms(prec ) = 0.28093E+01
  weight for this iteration     100.00

 eigenvalues of (default mixing * dielectric matrix)
  average eigenvalue GAMMA=   0.2648
  0.8482  0.1475  0.1475  0.0903  0.0903

 Free energy of the ion-electron system (eV)
  ---------------------------------------------------
  alpha Z        PSCENC =        75.25431677
  Ewald energy   TEWEN  =    136876.12845523
  -Hartree energ DENC   =   -180828.25579548
  -exchange      EXHF   =         0.00000000
  -V(xc)+E(xc)   XCENC  =     -1697.61246515
  PAW double counting   =     45836.03957484   -42324.69396500
  entropy T*S    EENTRO =        -0.10753688
  eigenvalues    EBANDS =     -3203.79438696
  atomic energy  EATOM  =     45086.50549395
  Solvation  Ediel_sol  =         0.00000000
  ---------------------------------------------------
  free energy    TOTEN  =      -180.53630868 eV

  energy without entropy =     -180.42877180  energy(sigma->0) =     -180.50942446


--------------------------------------------------------------------------------------------------------




--------------------------------------- Iteration      1(  11)  ---------------------------------------


    POTLOK:  cpu time   15.1369: real time   15.1420
    SETDIJ:  cpu time    0.1342: real time    0.1342
    EDDIAG:  cpu time   93.1475: real time   93.1652
  RMM-DIIS:  cpu time  229.1613: real time  229.2034
    ORTHCH:  cpu time   24.2022: real time   24.2053
       DOS:  cpu time    0.0017: real time    0.0017
    CHARGE:  cpu time   27.8129: real time   27.8166
    MIXING:  cpu time    0.6336: real time    0.6337
    --------------------------------------------
      LOOP:  cpu time  390.2303: real time  390.3021

 eigenvalue-minimisations  :   735
 total energy-change (2. order) : 0.1731568E+01  (-0.1477109E+00)
 number of electron     559.9999856 magnetization 
 augmentation part      241.3246088 magnetization 

 Broyden mixing:
  rms(total) = 0.23622E+01    rms(broyden)= 0.23619E+01
  rms(prec ) = 0.28414E+01
  weight for this iteration     100.00

 eigenvalues of (default mixing * dielectric matrix)
  average eigenvalue GAMMA=   0.2413
  0.8803  0.1532  0.1532  0.1031  0.1031  0.0550

 Free energy of the ion-electron system (eV)
  ---------------------------------------------------
  alpha Z        PSCENC =        75.25431677
  Ewald energy   TEWEN  =    136876.12845523
  -Hartree energ DENC   =   -180844.15384828
  -exchange      EXHF   =         0.00000000
  -V(xc)+E(xc)   XCENC  =     -1697.52420253
  PAW double counting   =     45859.33147324   -42346.89476315
  entropy T*S    EENTRO =        -0.07321402
  eigenvalues    EBANDS =     -3187.37845191
  atomic energy  EATOM  =     45086.50549395
  Solvation  Ediel_sol  =         0.00000000
  ---------------------------------------------------
  free energy    TOTEN  =      -178.80474071 eV

  energy without entropy =     -178.73152669  energy(sigma->0) =     -178.78643720


--------------------------------------------------------------------------------------------------------




--------------------------------------- Iteration      1(  12)  ---------------------------------------


    POTLOK:  cpu time   14.3771: real time   14.3816
    SETDIJ:  cpu time    0.1328: real time    0.1328
    EDDIAG:  cpu time   89.9441: real time   89.9591
  RMM-DIIS:  cpu time  201.0592: real time  201.0881
    ORTHCH:  cpu time   24.1968: real time   24.1998
       DOS:  cpu time    0.0017: real time    0.0017
    CHARGE:  cpu time   27.7966: real time   27.8003
    MIXING:  cpu time    0.6649: real time    0.6650
    --------------------------------------------
      LOOP:  cpu time  358.1732: real time  358.2284

 eigenvalue-minimisations  :   729
 total energy-change (2. order) : 0.1907179E+01  (-0.9893837E-01)
 number of electron     559.9999839 magnetization 
 augmentation part      241.5254832 magnetization 

 Broyden mixing:
  rms(total) = 0.16660E+01    rms(broyden)= 0.16658E+01
  rms(prec ) = 0.19554E+01
  weight for this iteration     100.00

 eigenvalues of (default mixing * dielectric matrix)
  average eigenvalue GAMMA=   0.2274
  0.9080  0.1715  0.1715  0.0994  0.0994  0.0935  0.0484

 Free energy of the ion-electron system (eV)
  ---------------------------------------------------
  alpha Z        PSCENC =        75.25431677
  Ewald energy   TEWEN  =    136876.12845523
  -Hartree energ DENC   =   -180854.99793506
  -exchange      EXHF   =         0.00000000
  -V(xc)+E(xc)   XCENC  =     -1697.43119377
  PAW double counting   =     45876.21483470   -42362.92154490
  entropy T*S    EENTRO =        -0.06594971
  eigenvalues    EBANDS =     -3175.58403845
  atomic energy  EATOM  =     45086.50549395
  Solvation  Ediel_sol  =         0.00000000
  ---------------------------------------------------
  free energy    TOTEN  =      -176.89756124 eV

  energy without entropy =     -176.83161153  energy(sigma->0) =     -176.88107381


--------------------------------------------------------------------------------------------------------




--------------------------------------- Iteration      1(  13)  ---------------------------------------


    POTLOK:  cpu time   14.3617: real time   14.3666
    SETDIJ:  cpu time    0.1328: real time    0.1328
    EDDIAG:  cpu time   90.8002: real time   90.8131
  RMM-DIIS:  cpu time  200.4511: real time  200.4794
    ORTHCH:  cpu time   24.3153: real time   24.3185
       DOS:  cpu time    0.0017: real time    0.0017
    CHARGE:  cpu time   28.0882: real time   28.0919
    MIXING:  cpu time    0.7047: real time    0.7049
    --------------------------------------------
      LOOP:  cpu time  358.8558: real time  358.9088

 eigenvalue-minimisations  :   723
 total energy-change (2. order) : 0.7645641E+00  (-0.8143543E-01)
 number of electron     559.9999836 magnetization 
 augmentation part      241.6438871 magnetization 

 Broyden mixing:
  rms(total) = 0.14056E+01    rms(broyden)= 0.14053E+01
  rms(prec ) = 0.17133E+01
  weight for this iteration     100.00

 eigenvalues of (default mixing * dielectric matrix)
  average eigenvalue GAMMA=   0.2229
  0.9236  0.2115  0.2115  0.1194  0.1194  0.0952  0.0514  0.0514

 Free energy of the ion-electron system (eV)
  ---------------------------------------------------
  alpha Z        PSCENC =        75.25431677
  Ewald energy   TEWEN  =    136876.12845523
  -Hartree energ DENC   =   -180864.41892699
  -exchange      EXHF   =         0.00000000
  -V(xc)+E(xc)   XCENC  =     -1697.27950886
  PAW double counting   =     45893.96275704   -42379.72607322
  entropy T*S    EENTRO =        -0.07332285
  eigenvalues    EBANDS =     -3166.48618821
  atomic energy  EATOM  =     45086.50549395
  Solvation  Ediel_sol  =         0.00000000
  ---------------------------------------------------
  free energy    TOTEN  =      -176.13299714 eV

  energy without entropy =     -176.05967429  energy(sigma->0) =     -176.11466642


--------------------------------------------------------------------------------------------------------




--------------------------------------- Iteration      1(  14)  ---------------------------------------


    POTLOK:  cpu time   14.2294: real time   14.2341
    SETDIJ:  cpu time    0.1320: real time    0.1321
    EDDIAG:  cpu time   89.5732: real time   89.5868
  RMM-DIIS:  cpu time  200.8170: real time  200.8462
    ORTHCH:  cpu time   24.3297: real time   24.3330
       DOS:  cpu time    0.0017: real time    0.0017
    CHARGE:  cpu time   28.0333: real time   28.0371
    MIXING:  cpu time    0.7379: real time    0.7380
    --------------------------------------------
      LOOP:  cpu time  357.8542: real time  357.9092

 eigenvalue-minimisations  :   726
 total energy-change (2. order) : 0.3911014E+00  (-0.5340075E-01)
 number of electron     559.9999845 magnetization 
 augmentation part      241.6539866 magnetization 

 Broyden mixing:
  rms(total) = 0.12633E+01    rms(broyden)= 0.12631E+01
  rms(prec ) = 0.14814E+01
  weight for this iteration     100.00

 eigenvalues of (default mixing * dielectric matrix)
  average eigenvalue GAMMA=   0.2341
  0.9726  0.3055  0.3055  0.1249  0.1096  0.1096  0.0772  0.0569  0.0453

 Free energy of the ion-electron system (eV)
  ---------------------------------------------------
  alpha Z        PSCENC =        75.25431677
  Ewald energy   TEWEN  =    136876.12845523
  -Hartree energ DENC   =   -180878.23636300
  -exchange      EXHF   =         0.00000000
  -V(xc)+E(xc)   XCENC  =     -1697.09686302
  PAW double counting   =     45910.89421773   -42395.69624505
  entropy T*S    EENTRO =        -0.08670808
  eigenvalues    EBANDS =     -3153.40820030
  atomic energy  EATOM  =     45086.50549395
  Solvation  Ediel_sol  =         0.00000000
  ---------------------------------------------------
  free energy    TOTEN  =      -175.74189575 eV

  energy without entropy =     -175.65518767  energy(sigma->0) =     -175.72021873


--------------------------------------------------------------------------------------------------------




--------------------------------------- Iteration      1(  15)  ---------------------------------------


    POTLOK:  cpu time   14.2241: real time   14.2296
    SETDIJ:  cpu time    0.1320: real time    0.1320
    EDDIAG:  cpu time   88.6543: real time   88.6672
  RMM-DIIS:  cpu time  201.5682: real time  201.5985
    ORTHCH:  cpu time   24.2979: real time   24.3011
       DOS:  cpu time    0.0018: real time    0.0018
    CHARGE:  cpu time   28.0194: real time   28.0231
    MIXING:  cpu time    0.7846: real time    0.7848
    --------------------------------------------
      LOOP:  cpu time  357.6822: real time  357.7381

 eigenvalue-minimisations  :   722
 total energy-change (2. order) :-0.4252117E+00  (-0.8103082E-01)
 number of electron     559.9999843 magnetization 
 augmentation part      241.5350252 magnetization 

 Broyden mixing:
  rms(total) = 0.25425E+01    rms(broyden)= 0.25423E+01
  rms(prec ) = 0.29066E+01
  weight for this iteration     100.00

 eigenvalues of (default mixing * dielectric matrix)
  average eigenvalue GAMMA=   0.2366
  1.0439  0.3689  0.3689  0.1276  0.1027  0.1027  0.0821  0.0821  0.0436  0.0436

 Free energy of the ion-electron system (eV)
  ---------------------------------------------------
  alpha Z        PSCENC =        75.25431677
  Ewald energy   TEWEN  =    136876.12845523
  -Hartree energ DENC   =   -180910.30177268
  -exchange      EXHF   =         0.00000000
  -V(xc)+E(xc)   XCENC  =     -1696.64644914
  PAW double counting   =     45950.78715493   -42433.25347003
  entropy T*S    EENTRO =         0.11449563
  eigenvalues    EBANDS =     -3124.75533215
  atomic energy  EATOM  =     45086.50549395
  Solvation  Ediel_sol  =         0.00000000
  ---------------------------------------------------
  free energy    TOTEN  =      -176.16710747 eV

  energy without entropy =     -176.28160310  energy(sigma->0) =     -176.19573138


--------------------------------------------------------------------------------------------------------




--------------------------------------- Iteration      1(  16)  ---------------------------------------


    POTLOK:  cpu time   14.2686: real time   14.2728
    SETDIJ:  cpu time    0.1322: real time    0.1324
    EDDIAG:  cpu time   89.4384: real time   89.4521
  RMM-DIIS:  cpu time  194.0409: real time  194.0692
    ORTHCH:  cpu time   24.1007: real time   24.1042
       DOS:  cpu time    0.0017: real time    0.0017
    CHARGE:  cpu time   27.4924: real time   27.4960
    MIXING:  cpu time    0.8291: real time    0.8292
    --------------------------------------------
      LOOP:  cpu time  350.3039: real time  350.3574

 eigenvalue-minimisations  :   711
 total energy-change (2. order) : 0.6434618E+00  (-0.9879850E-01)
 number of electron     559.9999837 magnetization 
 augmentation part      241.2484886 magnetization 

 Broyden mixing:
  rms(total) = 0.12467E+01    rms(broyden)= 0.12465E+01
  rms(prec ) = 0.14153E+01
  weight for this iteration     100.00

 eigenvalues of (default mixing * dielectric matrix)
  average eigenvalue GAMMA=   0.2562
  1.2164  0.5873  0.2741  0.1583  0.1583  0.0899  0.0899  0.0780  0.0780  0.0441
  0.0441

 Free energy of the ion-electron system (eV)
  ---------------------------------------------------
  alpha Z        PSCENC =        75.25431677
  Ewald energy   TEWEN  =    136876.12845523
  -Hartree energ DENC   =   -180943.58033590
  -exchange      EXHF   =         0.00000000
  -V(xc)+E(xc)   XCENC  =     -1696.18861398
  PAW double counting   =     45990.43350411   -42470.57497500
  entropy T*S    EENTRO =        -0.11858714
  eigenvalues    EBANDS =     -3093.38290369
  atomic energy  EATOM  =     45086.50549395
  Solvation  Ediel_sol  =         0.00000000
  ---------------------------------------------------
  free energy    TOTEN  =      -175.52364564 eV

  energy without entropy =     -175.40505850  energy(sigma->0) =     -175.49399886


--------------------------------------------------------------------------------------------------------




--------------------------------------- Iteration      1(  17)  ---------------------------------------


    POTLOK:  cpu time   14.2329: real time   14.2386
    SETDIJ:  cpu time    0.1324: real time    0.1324
    EDDIAG:  cpu time   88.0192: real time   88.0320
  RMM-DIIS:  cpu time  194.4411: real time  194.4704
    ORTHCH:  cpu time   24.2057: real time   24.2089
       DOS:  cpu time    0.0018: real time    0.0018
    CHARGE:  cpu time   27.5995: real time   27.6032
    MIXING:  cpu time    0.8717: real time    0.8718
    --------------------------------------------
      LOOP:  cpu time  349.5043: real time  349.5590

 eigenvalue-minimisations  :   711
 total energy-change (2. order) : 0.3451503E+00  (-0.9495855E-01)
 number of electron     559.9999816 magnetization 
 augmentation part      241.0660770 magnetization 

 Broyden mixing:
  rms(total) = 0.11157E+01    rms(broyden)= 0.11155E+01
  rms(prec ) = 0.12693E+01
  weight for this iteration     100.00

 eigenvalues of (default mixing * dielectric matrix)
  average eigenvalue GAMMA=   0.2802
  1.4203  0.7709  0.2274  0.2274  0.1840  0.0917  0.0917  0.0930  0.0930  0.0749
  0.0443  0.0443

 Free energy of the ion-electron system (eV)
  ---------------------------------------------------
  alpha Z        PSCENC =        75.25431677
  Ewald energy   TEWEN  =    136876.12845523
  -Hartree energ DENC   =   -180984.30952075
  -exchange      EXHF   =         0.00000000
  -V(xc)+E(xc)   XCENC  =     -1695.63582198
  PAW double counting   =     46039.43994729   -42516.68401032
  entropy T*S    EENTRO =        -0.12748810
  eigenvalues    EBANDS =     -3055.74986746
  atomic energy  EATOM  =     45086.50549395
  Solvation  Ediel_sol  =         0.00000000
  ---------------------------------------------------
  free energy    TOTEN  =      -175.17849537 eV

  energy without entropy =     -175.05100727  energy(sigma->0) =     -175.14662335


--------------------------------------------------------------------------------------------------------




--------------------------------------- Iteration      1(  18)  ---------------------------------------


    POTLOK:  cpu time   14.2305: real time   14.2350
    SETDIJ:  cpu time    0.1325: real time    0.1325
    EDDIAG:  cpu time   88.7387: real time   88.7517
  RMM-DIIS:  cpu time  197.8926: real time  197.9212
    ORTHCH:  cpu time   24.3278: real time   24.3313
       DOS:  cpu time    0.0017: real time    0.0017
    CHARGE:  cpu time   28.6899: real time   28.6938
    MIXING:  cpu time    0.9548: real time    0.9549
    --------------------------------------------
      LOOP:  cpu time  354.9685: real time  355.0222

 eigenvalue-minimisations  :   714
 total energy-change (2. order) :-0.4059550E+00  (-0.7655022E-01)
 number of electron     559.9999838 magnetization 
 augmentation part      240.9448623 magnetization 

 Broyden mixing:
  rms(total) = 0.17843E+01    rms(broyden)= 0.17841E+01
  rms(prec ) = 0.21170E+01
  weight for this iteration     100.00

 eigenvalues of (default mixing * dielectric matrix)
  average eigenvalue GAMMA=   0.2929
  1.5448  0.8948  0.2842  0.2842  0.1792  0.1117  0.1117  0.0859  0.0859  0.0682
  0.0682  0.0442  0.0442

 Free energy of the ion-electron system (eV)
  ---------------------------------------------------
  alpha Z        PSCENC =        75.25431677
  Ewald energy   TEWEN  =    136876.12845523
  -Hartree energ DENC   =   -181011.64115694
  -exchange      EXHF   =         0.00000000
  -V(xc)+E(xc)   XCENC  =     -1695.21945781
  PAW double counting   =     46074.10600565   -42549.16548771
  entropy T*S    EENTRO =         0.06478837
  eigenvalues    EBANDS =     -3031.61740784
  atomic energy  EATOM  =     45086.50549395
  Solvation  Ediel_sol  =         0.00000000
  ---------------------------------------------------
  free energy    TOTEN  =      -175.58445033 eV

  energy without entropy =     -175.64923870  energy(sigma->0) =     -175.60064742


--------------------------------------------------------------------------------------------------------




--------------------------------------- Iteration      1(  19)  ---------------------------------------


    POTLOK:  cpu time   14.8928: real time   14.8974
    SETDIJ:  cpu time    0.1316: real time    0.1316
    EDDIAG:  cpu time   90.6105: real time   90.6259
  RMM-DIIS:  cpu time  205.8207: real time  205.8508
    ORTHCH:  cpu time   24.7055: real time   24.7087
       DOS:  cpu time    0.0017: real time    0.0017
    CHARGE:  cpu time   28.8884: real time   28.8928
    MIXING:  cpu time    1.0172: real time    1.0173
    --------------------------------------------
      LOOP:  cpu time  366.0684: real time  366.1262

 eigenvalue-minimisations  :   709
 total energy-change (2. order) : 0.5752245E+00  (-0.5752847E-01)
 number of electron     559.9999861 magnetization 
 augmentation part      240.9195469 magnetization 

 Broyden mixing:
  rms(total) = 0.10339E+01    rms(broyden)= 0.10337E+01
  rms(prec ) = 0.11566E+01
  weight for this iteration     100.00

 eigenvalues of (default mixing * dielectric matrix)
  average eigenvalue GAMMA=   0.3067
  1.6773  1.0147  0.3419  0.3419  0.1583  0.1583  0.1042  0.1042  0.0851  0.0851
  0.0670  0.0670  0.0442  0.0442

 Free energy of the ion-electron system (eV)
  ---------------------------------------------------
  alpha Z        PSCENC =        75.25431677
  Ewald energy   TEWEN  =    136876.12845523
  -Hartree energ DENC   =   -181029.16719206
  -exchange      EXHF   =         0.00000000
  -V(xc)+E(xc)   XCENC  =     -1695.04509484
  PAW double counting   =     46089.22662771   -42563.27435986
  entropy T*S    EENTRO =        -0.04081535
  eigenvalues    EBANDS =     -3014.59665735
  atomic energy  EATOM  =     45086.50549395
  Solvation  Ediel_sol  =         0.00000000
  ---------------------------------------------------
  free energy    TOTEN  =      -175.00922579 eV

  energy without entropy =     -174.96841044  energy(sigma->0) =     -174.99902195


--------------------------------------------------------------------------------------------------------




--------------------------------------- Iteration      1(  20)  ---------------------------------------


    POTLOK:  cpu time   14.6496: real time   14.6548
    SETDIJ:  cpu time    0.1334: real time    0.1335
    EDDIAG:  cpu time   92.0444: real time   92.0588
  RMM-DIIS:  cpu time  213.2389: real time  213.2735
    ORTHCH:  cpu time   25.3539: real time   25.3576
       DOS:  cpu time    0.0017: real time    0.0017
    CHARGE:  cpu time   29.9803: real time   29.9845
    MIXING:  cpu time    1.1725: real time    1.1727
    --------------------------------------------
      LOOP:  cpu time  376.5748: real time  376.6370

 eigenvalue-minimisations  :   709
 total energy-change (2. order) : 0.2037998E+00  (-0.4902281E-01)
 number of electron     559.9999848 magnetization 
 augmentation part      241.1447869 magnetization 

 Broyden mixing:
  rms(total) = 0.96022E+00    rms(broyden)= 0.96005E+00
  rms(prec ) = 0.10974E+01
  weight for this iteration     100.00

 eigenvalues of (default mixing * dielectric matrix)
  average eigenvalue GAMMA=   0.3138
  1.7338  1.1458  0.3726  0.3726  0.1902  0.1902  0.1089  0.1089  0.0839  0.0839
  0.0938  0.0669  0.0669  0.0442  0.0442

 Free energy of the ion-electron system (eV)
  ---------------------------------------------------
  alpha Z        PSCENC =        75.25431677
  Ewald energy   TEWEN  =    136876.12845523
  -Hartree energ DENC   =   -181040.86107748
  -exchange      EXHF   =         0.00000000
  -V(xc)+E(xc)   XCENC  =     -1694.96330553
  PAW double counting   =     46094.00330744   -42567.32665362
  entropy T*S    EENTRO =         0.00615228
  eigenvalues    EBANDS =     -3003.55211506
  atomic energy  EATOM  =     45086.50549395
  Solvation  Ediel_sol  =         0.00000000
  ---------------------------------------------------
  free energy    TOTEN  =      -174.80542600 eV

  energy without entropy =     -174.81157828  energy(sigma->0) =     -174.80696407


--------------------------------------------------------------------------------------------------------




--------------------------------------- Iteration      1(  21)  ---------------------------------------


    POTLOK:  cpu time   16.4254: real time   16.4303
    SETDIJ:  cpu time    0.1344: real time    0.1344
    EDDIAG:  cpu time   93.7715: real time   93.7873
  RMM-DIIS:  cpu time  213.6821: real time  213.7205
    ORTHCH:  cpu time   24.1693: real time   24.1727
       DOS:  cpu time    0.0017: real time    0.0017
    CHARGE:  cpu time   28.0746: real time   28.0785
    MIXING:  cpu time    1.0335: real time    1.0339
    --------------------------------------------
      LOOP:  cpu time  377.2924: real time  377.3592

 eigenvalue-minimisations  :   711
 total energy-change (2. order) : 0.1181929E+00  (-0.3152825E-01)
 number of electron     559.9999837 magnetization 
 augmentation part      241.2005548 magnetization 

 Broyden mixing:
  rms(total) = 0.79290E+00    rms(broyden)= 0.79277E+00
  rms(prec ) = 0.90998E+00
  weight for this iteration     100.00

 eigenvalues of (default mixing * dielectric matrix)
  average eigenvalue GAMMA=   0.3186
  1.8454  1.2030  0.3709  0.3709  0.2385  0.2385  0.1108  0.1108  0.1234  0.0849
  0.0849  0.0932  0.0668  0.0668  0.0442  0.0442

 Free energy of the ion-electron system (eV)
  ---------------------------------------------------
  alpha Z        PSCENC =        75.25431677
  Ewald energy   TEWEN  =    136876.12845523
  -Hartree energ DENC   =   -181056.66905266
  -exchange      EXHF   =         0.00000000
  -V(xc)+E(xc)   XCENC  =     -1694.87075735
  PAW double counting   =     46095.95824431   -42568.67911741
  entropy T*S    EENTRO =        -0.07692609
  eigenvalues    EBANDS =     -2988.23788983
  atomic energy  EATOM  =     45086.50549395
  Solvation  Ediel_sol  =         0.00000000
  ---------------------------------------------------
  free energy    TOTEN  =      -174.68723308 eV

  energy without entropy =     -174.61030699  energy(sigma->0) =     -174.66800155


--------------------------------------------------------------------------------------------------------




--------------------------------------- Iteration      1(  22)  ---------------------------------------


    POTLOK:  cpu time   14.3434: real time   14.3480
    SETDIJ:  cpu time    0.1327: real time    0.1327
    EDDIAG:  cpu time   90.6544: real time   90.6697
  RMM-DIIS:  cpu time  197.1137: real time  197.1434
    ORTHCH:  cpu time   24.1948: real time   24.1978
       DOS:  cpu time    0.0017: real time    0.0017
    CHARGE:  cpu time   27.7110: real time   27.7148
    MIXING:  cpu time    1.0871: real time    1.0873
    --------------------------------------------
      LOOP:  cpu time  355.2389: real time  355.2954

 eigenvalue-minimisations  :   714
 total energy-change (2. order) : 0.1254850E+00  (-0.1996331E-01)
 number of electron     559.9999849 magnetization 
 augmentation part      241.1744861 magnetization 

 Broyden mixing:
  rms(total) = 0.78237E+00    rms(broyden)= 0.78226E+00
  rms(prec ) = 0.91456E+00
  weight for this iteration     100.00

 eigenvalues of (default mixing * dielectric matrix)
  average eigenvalue GAMMA=   0.3253
  1.9699  1.2457  0.5095  0.3037  0.3037  0.2308  0.1373  0.1373  0.1106  0.1106
  0.0847  0.0847  0.0791  0.0668  0.0668  0.0442  0.0442

 Free energy of the ion-electron system (eV)
  ---------------------------------------------------
  alpha Z        PSCENC =        75.25431677
  Ewald energy   TEWEN  =    136876.12845523
  -Hartree energ DENC   =   -181073.85954269
  -exchange      EXHF   =         0.00000000
  -V(xc)+E(xc)   XCENC  =     -1694.67819206
  PAW double counting   =     46101.52210376   -42573.40388884
  entropy T*S    EENTRO =        -0.01055376
  eigenvalues    EBANDS =     -2972.01994043
  atomic energy  EATOM  =     45086.50549395
  Solvation  Ediel_sol  =         0.00000000
  ---------------------------------------------------
  free energy    TOTEN  =      -174.56174806 eV

  energy without entropy =     -174.55119430  energy(sigma->0) =     -174.55910962


--------------------------------------------------------------------------------------------------------




--------------------------------------- Iteration      1(  23)  ---------------------------------------


    POTLOK:  cpu time   14.3340: real time   14.3368
    SETDIJ:  cpu time    0.1326: real time    0.1326
    EDDIAG:  cpu time   90.0221: real time   90.0368
  RMM-DIIS:  cpu time  195.3696: real time  195.4059
    ORTHCH:  cpu time   24.1504: real time   24.1543
       DOS:  cpu time    0.0018: real time    0.0018
    CHARGE:  cpu time   27.7518: real time   27.7561
    MIXING:  cpu time    1.1549: real time    1.1550
    --------------------------------------------
      LOOP:  cpu time  352.9170: real time  352.9794

 eigenvalue-minimisations  :   714
 total energy-change (2. order) : 0.1161099E+00  (-0.1579373E-01)
 number of electron     559.9999844 magnetization 
 augmentation part      241.1873431 magnetization 

 Broyden mixing:
  rms(total) = 0.70452E+00    rms(broyden)= 0.70438E+00
  rms(prec ) = 0.81767E+00
  weight for this iteration     100.00

 eigenvalues of (default mixing * dielectric matrix)
  average eigenvalue GAMMA=   0.3321
  2.0915  1.2694  0.6622  0.3180  0.3180  0.2088  0.1697  0.1697  0.1086  0.1086
[...]
 -0.006  -0.012   0.004   0.004   0.005  -0.006  -0.012   0.004
 -0.011  -0.020   0.006   0.007   0.009  -0.010  -0.019   0.006
 -0.015  -0.005   0.013   0.000   0.022  -0.014  -0.005   0.012
  0.000  -0.023  -0.006  -0.015  -0.000   0.000  -0.022  -0.006
 -0.022   0.000   0.009  -0.005  -0.016  -0.022   0.000   0.008
 -0.017  -0.006   0.015   0.000   0.027  -0.017  -0.006   0.015
  0.000  -0.027  -0.007  -0.018   0.000   0.000  -0.027  -0.007
 -0.027   0.000   0.010  -0.006  -0.019  -0.026   0.000   0.010
 total augmentation occupancy for first ion, spin component:           1
  1.537  -0.030   0.006   0.017   0.024   0.076  -0.008  -0.002   0.036  -0.010   0.090  -0.030   0.012   0.002   0.002  -0.019
 -0.030   1.402   0.028   0.071  -0.000  -0.007   0.071   0.011  -0.014  -0.008   0.216  -0.065   0.019   0.001   0.003  -0.006
  0.006   0.028   1.543   0.001   0.001  -0.002   0.013   0.073  -0.013   0.017  -0.051   0.017  -0.003  -0.007  -0.005   0.016
  0.017   0.071   0.001   1.339   0.044   0.033  -0.013  -0.012   0.091  -0.023  -0.081   0.021  -0.001  -0.009  -0.004   0.001
  0.024  -0.000   0.001   0.044   1.440  -0.010  -0.008   0.016  -0.022   0.067  -0.092   0.030  -0.002  -0.010  -0.010   0.026
  0.076  -0.007  -0.002   0.033  -0.010   0.217   0.018  -0.002  -0.045   0.004  -0.048   0.002   0.017  -0.010   0.034  -0.004
 -0.008   0.071   0.013  -0.013  -0.008   0.018   0.263  -0.023  -0.003   0.006  -0.109   0.007  -0.001   0.051  -0.010  -0.000
 -0.002   0.011   0.073  -0.012   0.016  -0.002  -0.023   0.215   0.014  -0.020   0.028  -0.001  -0.012   0.009  -0.018   0.003
  0.036  -0.014  -0.013   0.091  -0.022  -0.045  -0.003   0.014   0.260   0.007   0.043  -0.004  -0.009   0.036   0.004   0.000
 -0.010  -0.008   0.017  -0.023   0.067   0.004   0.006  -0.020   0.007   0.258   0.046  -0.003  -0.038   0.002   0.049   0.007
  0.090   0.216  -0.051  -0.081  -0.092  -0.048  -0.109   0.028   0.043   0.046   0.948  -0.140   0.084   0.014   0.064  -0.012
 -0.030  -0.065   0.017   0.021   0.030   0.002   0.007  -0.001  -0.004  -0.003  -0.140   0.023  -0.014  -0.003  -0.010   0.003
  0.012   0.019  -0.003  -0.001  -0.002   0.017  -0.001  -0.012  -0.009  -0.038   0.084  -0.014   0.029  -0.009  -0.004  -0.003
  0.002   0.001  -0.007  -0.009  -0.010  -0.010   0.051   0.009   0.036   0.002   0.014  -0.003  -0.009   0.036   0.004   0.000
  0.002   0.003  -0.005  -0.004  -0.010   0.034  -0.010  -0.018   0.004   0.049   0.064  -0.010  -0.004   0.004   0.035  -0.000
 -0.019  -0.006   0.016   0.001   0.026  -0.004  -0.000   0.003   0.000   0.007  -0.012   0.003  -0.003   0.000  -0.000   0.001
  0.001  -0.028  -0.007  -0.018   0.001   0.001  -0.008  -0.002  -0.006  -0.000  -0.003   0.001   0.000  -0.003  -0.000   0.000
 -0.028   0.001   0.012  -0.005  -0.019  -0.006   0.001   0.003  -0.001  -0.007  -0.008   0.001  -0.000  -0.000  -0.003   0.000


------------------------ aborting loop because EDIFF is reached ----------------------------------------


    CHARGE:  cpu time   42.2035: real time   42.2107
    FORLOC:  cpu time    8.7568: real time    8.7585
    FORNL :  cpu time  105.1695: real time  105.1878
    STRESS:  cpu time  293.1987: real time  293.2482
    FORCOR:  cpu time   25.9529: real time   25.9582
    FORHAR:  cpu time   10.9312: real time   10.9327
    MIXING:  cpu time    3.7450: real time    3.7456
    OFIELD:  cpu time    0.0001: real time    0.0001

  FORCE on cell =-STRESS in cart. coord.  units (eV):
  Direction    XX          YY          ZZ          XY          YZ          ZX
  --------------------------------------------------------------------------------------
  Alpha Z    75.25432    75.25432    75.25432
  Ewald   43181.42875 50341.05746 43353.53673   127.65427  -249.37786   -11.62257
  Hartree 58109.67911 64866.41632 58271.43172   112.89768  -220.26423    -9.95065
  E(xc)   -2904.86855 -2902.43139 -2904.90871     0.12898    -0.26059    -0.02105
  Local  ************************************  -239.13302   467.04329    21.40108
  n-local  -881.05939  -893.50106  -881.24482    -0.66955     1.22200     0.12894
  augment  4104.24482  4102.47314  4104.65136    -0.09658     0.11139     0.00343
  Kinetic  7810.48507  7786.53669  7810.96116    -1.01627     2.02004     0.13386
  Fock        0.00000     0.00000     0.00000     0.00000     0.00000     0.00000
  -------------------------------------------------------------------------------------
  Total    -113.94190  -113.94553  -113.83941    -0.23449     0.49404     0.07304
  in kB      -6.76130    -6.76152    -6.75522    -0.01391     0.02932     0.00433
  external pressure =       -6.76 kB  Pullay stress =        0.00 kB


 VOLUME and BASIS-vectors are now :
 -----------------------------------------------------------------------------
  energy-cutoff  :      400.00
  volume of cell :    27000.00
      direct lattice vectors                 reciprocal lattice vectors
    30.000000000  0.000000000  0.000000000     0.033333333  0.000000000  0.000000000
     0.000000000 30.000000000  0.000000000     0.000000000  0.033333333  0.000000000
     0.000000000  0.000000000 30.000000000     0.000000000  0.000000000  0.033333333

  length of vectors
    30.000000000 30.000000000 30.000000000     0.033333333  0.033333333  0.033333333


 FORCES acting on ions
    electron-ion (+dipol)            ewald-force                    non-local-force                 convergence-correction
 -----------------------------------------------------------------------------------------------
   0.395E+03 0.970E+03 0.417E+03   -.392E+03 -.967E+03 -.416E+03   -.149E+01 -.182E+01 -.224E+00   -.289E-02 0.427E-02 0.665E-02
   -.977E+03 -.383E+03 0.418E+03   0.974E+03 0.381E+03 -.418E+03   0.182E+01 0.149E+01 -.226E+00   -.390E-03 0.319E-02 0.915E-02
   -.394E+03 0.970E+03 0.417E+03   0.392E+03 -.967E+03 -.416E+03   0.149E+01 -.182E+01 -.224E+00   0.321E-03 0.887E-03 0.385E-02
   0.977E+03 -.384E+03 0.418E+03   -.974E+03 0.382E+03 -.418E+03   -.182E+01 0.149E+01 -.226E+00   0.392E-02 -.320E-02 0.269E-02
   0.135E+00 0.588E+03 0.966E+03   -.134E+00 -.587E+03 -.962E+03   0.427E-03 -.318E+00 -.235E+01   -.884E-03 0.174E-02 0.416E-02
   0.127E+00 0.588E+03 -.966E+03   -.124E+00 -.587E+03 0.962E+03   0.230E-03 -.320E+00 0.235E+01   -.364E-02 -.378E-02 0.615E-03
   0.160E+00 0.113E+04 -.347E+00   -.158E+00 -.112E+04 0.347E+00   -.120E-03 -.311E+01 -.195E-02   -.188E-02 0.489E-02 0.276E-02
   0.114E+04 0.572E+01 -.389E+00   -.113E+04 -.572E+01 0.395E+00   -.311E+01 -.936E-03 0.785E-03   0.565E-02 -.624E-03 -.739E-02
   -.114E+04 0.622E+01 -.431E+00   0.113E+04 -.621E+01 0.424E+00   0.311E+01 -.912E-03 0.342E-03   0.131E-03 0.428E-03 0.589E-02
   0.127E+02 -.979E+03 -.279E+02   -.125E+02 0.977E+03 0.275E+02   -.337E-01 0.151E+01 0.117E+00   0.297E-02 -.686E-02 0.376E-03
   -.579E+03 0.580E+03 0.814E+03   0.577E+03 -.577E+03 -.810E+03   0.156E+01 -.156E+01 -.220E+01   -.381E-03 -.449E-02 0.941E-03
   -.579E+03 0.580E+03 -.814E+03   0.577E+03 -.577E+03 0.811E+03   0.156E+01 -.156E+01 0.220E+01   -.518E-02 -.476E-02 0.141E-02
   0.585E+03 -.564E+03 0.821E+03   -.583E+03 0.562E+03 -.817E+03   -.156E+01 0.154E+01 -.221E+01   -.599E-02 -.385E-02 0.561E-02
   0.584E+03 -.566E+03 -.821E+03   -.581E+03 0.564E+03 0.817E+03   -.156E+01 0.155E+01 0.219E+01   0.112E-02 0.601E-03 -.119E-02
   0.579E+03 0.580E+03 0.814E+03   -.577E+03 -.577E+03 -.810E+03   -.156E+01 -.156E+01 -.220E+01   -.379E-02 0.139E-02 0.564E-02
   0.579E+03 0.579E+03 -.814E+03   -.577E+03 -.577E+03 0.811E+03   -.156E+01 -.156E+01 0.220E+01   0.763E-02 -.513E-02 -.110E-02
   -.585E+03 -.563E+03 0.821E+03   0.582E+03 0.561E+03 -.818E+03   0.157E+01 0.154E+01 -.221E+01   -.673E-04 0.447E-02 0.322E-02
   -.583E+03 -.566E+03 -.821E+03   0.581E+03 0.563E+03 0.818E+03   0.156E+01 0.155E+01 0.220E+01   0.147E-02 0.278E-02 -.248E-02
   0.395E+03 0.970E+03 -.417E+03   -.392E+03 -.967E+03 0.417E+03   -.150E+01 -.182E+01 0.224E+00   0.422E-03 0.429E-02 0.923E-03
   -.976E+03 -.384E+03 -.420E+03   0.973E+03 0.382E+03 0.419E+03   0.182E+01 0.149E+01 0.227E+00   0.100E-03 0.644E-02 -.220E-02
   -.322E+03 0.327E+03 0.454E+03   0.322E+03 -.327E+03 -.455E+03   -.366E+00 0.373E+00 0.517E+00   -.748E-02 -.343E-02 0.431E-02
   0.973E+03 0.398E+03 0.417E+03   -.970E+03 -.396E+03 -.416E+03   -.182E+01 -.149E+01 -.224E+00   0.358E-02 0.485E-03 0.462E-02
   -.407E+03 -.925E+03 0.435E+03   0.405E+03 0.922E+03 -.435E+03   0.143E+01 0.193E+01 -.148E+00   -.139E-03 0.158E-02 0.164E-01
   -.394E+03 0.970E+03 -.417E+03   0.392E+03 -.967E+03 0.417E+03   0.150E+01 -.182E+01 0.224E+00   -.632E-02 0.144E-02 0.233E-02
   0.976E+03 -.385E+03 -.419E+03   -.973E+03 0.382E+03 0.419E+03   -.182E+01 0.150E+01 0.227E+00   0.397E-02 0.210E-02 -.401E-02
   -.973E+03 0.398E+03 0.417E+03   0.970E+03 -.396E+03 -.416E+03   0.182E+01 -.149E+01 -.225E+00   -.161E-02 -.792E-02 0.160E-02
   0.411E+03 -.929E+03 0.433E+03   -.408E+03 0.926E+03 -.433E+03   -.143E+01 0.193E+01 -.171E+00   0.461E-03 -.527E-02 0.933E-02
   0.322E+03 0.327E+03 0.454E+03   -.322E+03 -.327E+03 -.455E+03   0.367E+00 0.372E+00 0.517E+00   -.469E-02 0.359E-02 0.837E-02
   0.165E+00 0.641E+03 -.347E+00   -.158E+00 -.642E+03 0.347E+00   -.685E-03 0.737E+00 -.120E-03   -.628E-02 0.425E-03 0.805E-03
   -.589E+03 0.746E+01 0.967E+03   0.588E+03 -.746E+01 -.964E+03   0.306E+00 0.530E-02 -.234E+01   -.441E-02 -.865E-02 -.139E-02
   -.588E+03 0.645E+01 -.968E+03   0.587E+03 -.646E+01 0.964E+03   0.306E+00 0.721E-02 0.234E+01   0.329E-03 0.176E-03 0.326E-03
   0.589E+03 0.709E+01 0.967E+03   -.588E+03 -.710E+01 -.963E+03   -.306E+00 0.652E-02 -.234E+01   -.689E-03 0.411E-04 0.103E-01
   0.588E+03 0.617E+01 -.967E+03   -.588E+03 -.617E+01 0.964E+03   -.306E+00 0.708E-02 0.234E+01   0.433E-02 -.417E-03 -.446E-03
   0.761E+03 0.762E+03 -.306E+00   -.759E+03 -.760E+03 0.306E+00   -.114E+01 -.115E+01 0.221E-02   0.235E-02 0.146E-02 -.208E-02
   -.772E+03 -.736E+03 -.204E+01   0.770E+03 0.734E+03 0.204E+01   0.115E+01 0.115E+01 -.267E-02   -.550E-02 0.553E-02 0.460E-02
   -.761E+03 0.762E+03 -.317E+00   0.759E+03 -.760E+03 0.315E+00   0.114E+01 -.115E+01 0.199E-02   -.348E-02 -.407E-02 -.670E-04
   0.772E+03 -.738E+03 -.184E+01   -.770E+03 0.736E+03 0.184E+01   -.115E+01 0.114E+01 -.254E-02   0.535E-02 -.668E-02 -.289E-02
   0.262E+00 0.859E+01 0.107E+04   -.256E+00 -.858E+01 -.107E+04   0.566E-04 -.333E-02 -.160E+01   -.627E-02 -.379E-02 0.476E-02
   0.227E+00 0.732E+01 -.107E+04   -.223E+00 -.733E+01 0.107E+04   -.743E-04 0.781E-02 0.161E+01   -.365E-02 -.434E-02 0.445E-03
   0.973E+03 0.398E+03 -.417E+03   -.970E+03 -.396E+03 0.417E+03   -.182E+01 -.149E+01 0.221E+00   0.500E-02 -.378E-02 -.583E-02
   -.404E+03 -.936E+03 -.438E+03   0.402E+03 0.933E+03 0.438E+03   0.149E+01 0.192E+01 0.205E+00   0.602E-03 -.345E-02 -.838E-02
   -.322E+03 0.326E+03 -.455E+03   0.322E+03 -.327E+03 0.455E+03   -.367E+00 0.367E+00 -.520E+00   -.696E-02 -.611E-02 -.313E-03
   0.325E+03 -.304E+03 0.457E+03   -.325E+03 0.304E+03 -.457E+03   0.359E+00 -.393E+00 0.512E+00   -.398E-02 -.508E-02 0.104E-01
   0.322E+03 0.326E+03 -.455E+03   -.322E+03 -.327E+03 0.455E+03   0.367E+00 0.366E+00 -.520E+00   0.107E-02 -.542E-02 -.414E-02
   -.973E+03 0.398E+03 -.418E+03   0.970E+03 -.396E+03 0.417E+03   0.182E+01 -.149E+01 0.221E+00   0.157E-02 -.201E-02 0.266E-03
   0.407E+03 -.938E+03 -.437E+03   -.404E+03 0.935E+03 0.436E+03   -.151E+01 0.192E+01 0.239E+00   0.220E-02 -.444E-02 -.471E-02
   -.324E+03 -.303E+03 0.457E+03   0.324E+03 0.304E+03 -.457E+03   -.361E+00 -.390E+00 0.515E+00   -.117E-01 0.117E-02 0.153E-01
   0.642E+03 0.937E+01 -.601E+00   -.643E+03 -.937E+01 0.609E+00   0.728E+00 0.213E-02 0.606E-03   0.498E-02 -.109E-02 -.808E-02
   -.641E+03 0.990E+01 -.643E+00   0.642E+03 -.991E+01 0.640E+00   -.728E+00 0.176E-02 0.154E-03   -.462E-02 0.348E-02 0.343E-02
   0.765E+00 -.567E+03 0.977E+03   -.754E+00 0.566E+03 -.973E+03   -.340E-02 0.323E+00 -.235E+01   -.747E-02 -.302E-02 0.684E-02
   0.591E+00 -.571E+03 -.976E+03   -.583E+00 0.570E+03 0.972E+03   -.455E-02 0.306E+00 0.236E+01   -.177E-02 -.589E-03 -.198E-02
   0.353E+00 0.118E+02 -.752E+00   -.342E+00 -.119E+02 0.753E+00   -.150E-04 0.264E-01 0.107E-02   -.956E-02 0.378E-02 -.333E-02
   0.324E+03 -.306E+03 -.458E+03   -.325E+03 0.306E+03 0.459E+03   0.358E+00 -.395E+00 -.505E+00   0.175E-02 0.670E-03 -.809E-02
   -.323E+03 -.305E+03 -.458E+03   0.324E+03 0.306E+03 0.459E+03   -.360E+00 -.393E+00 -.507E+00   -.347E-02 0.718E-02 -.816E-02
   0.130E+01 -.603E+03 -.285E+01   -.133E+01 0.605E+03 0.292E+01   0.148E-01 -.911E+00 -.411E-01   0.107E-02 -.270E-02 -.194E-03
   -.911E+01 -.113E+03 0.158E+02   0.836E+01 0.850E+02 -.142E+02   0.520E+00 0.235E+02 -.113E+01   0.206E-03 -.118E-02 0.472E-03
   -.185E+02 -.568E+03 0.374E+02   0.201E+02 0.632E+03 -.409E+02   -.147E+01 -.611E+02 0.326E+01   0.132E-03 -.514E-03 0.498E-03
 -----------------------------------------------------------------------------------------------
   0.105E+01 0.391E+02 -.242E+01   0.604E-13 0.796E-12 -.183E-11   -.999E+00 -.391E+02 0.233E+01   -.625E-01 -.482E-01 0.809E-01
 
 
 POSITION                                       TOTAL-FORCE (eV/Angst)
 -----------------------------------------------------------------------------------
     13.37281      9.84801     12.50759         0.701466      1.108867      0.292684
     20.15199     16.62719     12.50759        -1.108592     -0.703141      0.292960
     16.62719      9.84801     12.50759        -0.700947      1.109024      0.292960
      9.84801     16.62719     12.50759         1.109192     -0.704011      0.292825
     15.00000     11.47521     10.20639         0.000035      0.413359      1.277149
     15.00000     11.47521     19.79360        -0.000008      0.414640     -1.278013
     15.00000      8.28283     15.00000         0.000305      1.520092      0.000935
      8.28283     15.00000     15.00000         1.516030      0.000243     -0.000180
     21.71717     15.00000     15.00000        -1.515494      0.000547      0.000114
     15.00000     21.71717     15.00000         0.155611     -0.084134     -0.312921
     18.35858     11.64142     10.25025        -0.756262      0.756855      1.073057
     18.35858     11.64142     19.74975        -0.755960      0.757068     -1.072363
     11.64142     18.35858     10.25025         0.755576     -0.750362      1.075603
     11.64142     18.35858     19.74975         0.750282     -0.760077     -1.067279
     11.64142     11.64142     10.25025         0.756574      0.756956      1.072760
     11.64142     11.64142     19.74975         0.756544      0.757352     -1.072354
     18.35858     18.35858     10.25025        -0.756507     -0.749729      1.075326
     18.35858     18.35858     19.74975        -0.751803     -0.758135     -1.068264
     13.37281      9.84801     17.49241         0.703588      1.107921     -0.292780
     20.15199     16.62719     17.49241        -1.108820     -0.704028     -0.292329
     16.73751     13.26249     12.54279         0.114042     -0.114409     -0.158259
      9.84801     13.37281     12.50759         1.108727      0.702290      0.293139
     16.62719     20.15199     12.50759        -0.693410     -1.139906      0.249011
     16.62719      9.84801     17.49241        -0.702942      1.107852     -0.292951
      9.84801     16.62719     17.49241         1.108847     -0.704441     -0.292033
     20.15199     13.37281     12.50759        -1.108304      0.701850      0.293230
     13.37281     20.15199     12.50759         0.693068     -1.136633      0.246770
     13.26249     13.26249     12.54279        -0.113718     -0.114394     -0.158390
     15.00000     11.52498     15.00000         0.000014     -0.231435      0.001249
     18.52479     15.00000     10.20639        -0.414749     -0.001692      1.281197
     18.52479     15.00000     19.79360        -0.412959     -0.002314     -1.282421
     11.47521     15.00000     10.20640         0.414267     -0.002465      1.281192
     11.47521     15.00000     19.79360         0.412812     -0.002709     -1.282616
     11.49535     11.49535     15.00000         0.829074      0.830714      0.000168
     18.50465     18.50465     15.00000        -0.830265     -0.836814      0.000696
     18.50465     11.49535     15.00000        -0.828538      0.830385      0.000203
     11.49535     18.50465     15.00000         0.832024     -0.835583      0.000214
     15.00000     15.00000     10.04368         0.000583      0.003309      1.182149
     15.00000     15.00000     19.95633         0.000531     -0.002168     -1.181386
      9.84801     13.37281     17.49241         1.108356      0.702365     -0.291978
     16.62719     20.15199     17.49241        -0.706149     -1.134816     -0.257004
     16.73751     13.26249     17.45721         0.114381     -0.113922      0.158445
     13.26249     16.73751     12.54279        -0.110904      0.114991     -0.152880
     13.26249     13.26249     17.45721        -0.114055     -0.113637      0.158784
     20.15199     13.37281     17.49241        -1.108176      0.702351     -0.292257
     13.37281     20.15199     17.49241         0.707654     -1.131966     -0.261651
     16.73751     16.73751     12.54279         0.111405      0.113830     -0.154183
     11.52498     15.00000     15.00000        -0.227151      0.001501      0.000441
     18.47502     15.00000     15.00000         0.227484      0.001818      0.000474
     15.00000     18.52480     10.20639         0.000814     -0.416536      1.281748
     15.00000     18.52480     19.79360         0.001541     -0.406861     -1.286530
     15.00000     15.00000     15.00000         0.000868     -0.032378     -0.000604
     13.26249     16.73751     17.45721        -0.109379      0.120949      0.151437
     16.73751     16.73751     17.45721         0.110321      0.118081      0.152942
     15.00000     18.47502     15.00000        -0.009984      0.300864      0.025230
     15.22747     24.19405     14.49942        -0.236965     -4.145548      0.489267
     15.25533     25.32004     14.43811         0.080027      2.778172     -0.192733
 -----------------------------------------------------------------------------------
    total drift:                               -0.010785     -0.010696     -0.010528


--------------------------------------------------------------------------------------------------------



  FREE ENERGIE OF THE ION-ELECTRON SYSTEM (eV)
  ---------------------------------------------------
  free  energy   TOTEN  =      -174.12960378 eV

  energy  without entropy=     -174.03173979  energy(sigma->0) =     -174.10513779
 


--------------------------------------------------------------------------------------------------------


    POTLOK:  cpu time   17.1235: real time   17.1261


--------------------------------------------------------------------------------------------------------


     LOOP+:  cpu time23132.9042: real time23136.1074
    4ORBIT:  cpu time    0.0000: real time    0.0000

 total amount of memory used by VASP MPI-rank0  5486941. kBytes
=======================================================================

   base      :      30000. kBytes
   nonlr-proj:      17126. kBytes
   fftplans  :     924480. kBytes
   grid      :    1872000. kBytes
   one-center:        886. kBytes
   wavefun   :    2642449. kBytes
 
  
  
 General timing and accounting informations for this job:
 ========================================================
  
                  Total CPU time used (sec):    23231.357
                            User time (sec):    21720.512
                          System time (sec):     1510.846
                         Elapsed time (sec):    23234.616
  
                   Maximum memory used (kb):     7180964.
                   Average memory used (kb):           0.
  
                          Minor page faults:    827448571
                          Major page faults:            0
                 Voluntary context switches:          732
