 vasp.5.4.4.18Apr17-6-g9f103f2a35 (build Sep 03 2018 23:53:05) complex          
  
 executed on             LinuxIFC date 2021.11.27  11:36:30
 running on    1 total cores
 distrk:  each k-point on    1 cores,    1 groups
 distr:  one band on NCORES_PER_BAND=   1 cores,    1 groups


--------------------------------------------------------------------------------------------------------


 INCAR:
 POTCAR:    PAW_PBE Pd 04Jan2005                  
 POTCAR:    PAW_PBE C 08Apr2002                   
 POTCAR:    PAW_PBE O 08Apr2002                   
 POTCAR:    PAW_PBE Pd 04Jan2005                  
   VRHFIN =Pd : s1 d9                                                           
   LEXCH  = PE                                                                  
   EATOM  =   809.7530 eV,   59.5152 Ry                                         
                                                                                
   TITEL  = PAW_PBE Pd 04Jan2005                                                
   LULTRA =        F    use ultrasoft PP ?                                      
   IUNSCR =        1    unscreen: 0-lin 1-nonlin 2-no                           
   RPACOR =    2.000    partial core radius                                     
   POMASS =  106.420; ZVAL   =   10.000    mass and valenz                      
   RCORE  =    2.600    outmost cutoff radius                                   
   RWIGS  =    2.710; RWIGS  =    1.434    wigner-seitz radius (au A)           
   ENMAX  =  250.925; ENMIN  =  188.194 eV                                      
   ICORE  =        3    local potential                                         
   LCOR   =        T    correct aug charges                                     
   LPAW   =        T    paw PP                                                  
   EAUG   =  416.230                                                            
   DEXC   =    0.000                                                            
   RMAX   =    2.653    core radius for proj-oper                               
   RAUG   =    1.300    factor for augmentation sphere                          
   RDEP   =    2.734    radius for radial grids                                 
   RDEPT  =    2.103    core radius for aug-charge                              
                                                                                
   Atomic configuration                                                         
   12 entries                                                                   
     n  l   j            E        occ.                                          
     1  0  0.50    -24164.6631   2.0000                                         
     2  0  0.50     -3530.9218   2.0000                                         
     2  1  1.50     -3165.6822   6.0000                                         
     3  0  0.50      -639.4577   2.0000                                         
     3  1  1.50      -519.4532   6.0000                                         
     3  2  2.50      -328.9757  10.0000                                         
     4  0  0.50       -88.7014   2.0000                                         
     4  1  1.50       -54.4540   6.0000                                         
     4  2  2.50        -6.6878   9.0000                                         
     5  0  0.50        -4.3543   1.0000                                         
     5  1  0.50        -1.3606   0.0000                                         
     4  3  2.50        -1.3606   0.0000                                         
   Description                                                                  
     l       E           TYP  RCUT    TYP  RCUT                                 
     2     -6.6878251     23  2.400                                             
     2     -8.0484077     23  2.400                                             
     0     -4.3542939     23  2.400                                             
     0      4.3406793     23  2.400                                             
     1     -4.0817478     23  2.600                                             
     1     15.8380318     23  2.600                                             
     3     -4.0817478     23  2.400                                             
  local pseudopotential read in
  partial core-charges read in
  partial kinetic energy density read in
  atomic valenz-charges read in
  non local Contribution for L=           2  read in
    real space projection operators read in
  non local Contribution for L=           2  read in
    real space projection operators read in
  non local Contribution for L=           0  read in
    real space projection operators read in
  non local Contribution for L=           0  read in
    real space projection operators read in
  non local Contribution for L=           1  read in
    real space projection operators read in
  non local Contribution for L=           1  read in
    real space projection operators read in
    PAW grid and wavefunctions read in
 
   number of l-projection  operators is LMAX  =           6
   number of lm-projection operators is LMMAX =          18
 
 POTCAR:    PAW_PBE C 08Apr2002                   
   VRHFIN =C: s2p2                                                              
   LEXCH  = PE                                                                  
   EATOM  =   147.1560 eV,   10.8157 Ry                                         
                                                                                
   TITEL  = PAW_PBE C 08Apr2002                                                 
   LULTRA =        F    use ultrasoft PP ?                                      
   IUNSCR =        1    unscreen: 0-lin 1-nonlin 2-no                           
   RPACOR =    1.200    partial core radius                                     
   POMASS =   12.011; ZVAL   =    4.000    mass and valenz                      
   RCORE  =    1.500    outmost cutoff radius                                   
   RWIGS  =    1.630; RWIGS  =    0.863    wigner-seitz radius (au A)           
   ENMAX  =  400.000; ENMIN  =  300.000 eV                                      
   ICORE  =        2    local potential                                         
   LCOR   =        T    correct aug charges                                     
   LPAW   =        T    paw PP                                                  
   EAUG   =  644.873                                                            
   DEXC   =    0.000                                                            
   RMAX   =    1.529    core radius for proj-oper                               
   RAUG   =    1.300    factor for augmentation sphere                          
   RDEP   =    1.501    radius for radial grids                                 
   RDEPT  =    1.300    core radius for aug-charge                              
                                                                                
   Atomic configuration                                                         
    4 entries                                                                   
     n  l   j            E        occ.                                          
     1  0  0.50      -273.3789   2.0000                                         
     2  0  0.50       -13.7508   2.0000                                         
     2  1  0.50        -5.2854   2.0000                                         
     3  2  1.50        -5.4423   0.0000                                         
   Description                                                                  
     l       E           TYP  RCUT    TYP  RCUT                                 
     0    -13.7508458     23  1.200                                             
     0     -8.2022199     23  1.200                                             
     1     -5.2854383     23  1.500                                             
     1     34.0145650     23  1.500                                             
     2     -5.4423304      7  1.500                                             
  local pseudopotential read in
  partial core-charges read in
  partial kinetic energy density read in
  atomic valenz-charges read in
  non local Contribution for L=           0  read in
    real space projection operators read in
  non local Contribution for L=           0  read in
    real space projection operators read in
  non local Contribution for L=           1  read in
    real space projection operators read in
  non local Contribution for L=           1  read in
    real space projection operators read in
    PAW grid and wavefunctions read in
 
   number of l-projection  operators is LMAX  =           4
   number of lm-projection operators is LMMAX =           8
 
 POTCAR:    PAW_PBE O 08Apr2002                   
   VRHFIN =O: s2p4                                                              
   LEXCH  = PE                                                                  
   EATOM  =   432.3788 eV,   31.7789 Ry                                         
                                                                                
   TITEL  = PAW_PBE O 08Apr2002                                                 
   LULTRA =        F    use ultrasoft PP ?                                      
   IUNSCR =        1    unscreen: 0-lin 1-nonlin 2-no                           
   RPACOR =    1.200    partial core radius                                     
   POMASS =   16.000; ZVAL   =    6.000    mass and valenz                      
   RCORE  =    1.520    outmost cutoff radius                                   
   RWIGS  =    1.550; RWIGS  =    0.820    wigner-seitz radius (au A)           
   ENMAX  =  400.000; ENMIN  =  300.000 eV                                      
   ICORE  =        2    local potential                                         
   LCOR   =        T    correct aug charges                                     
   LPAW   =        T    paw PP                                                  
   EAUG   =  605.392                                                            
   DEXC   =    0.000                                                            
   RMAX   =    1.553    core radius for proj-oper                               
   RAUG   =    1.300    factor for augmentation sphere                          
   RDEP   =    1.550    radius for radial grids                                 
   RDEPT  =    1.329    core radius for aug-charge                              
                                                                                
   Atomic configuration                                                         
    4 entries                                                                   
     n  l   j            E        occ.                                          
     1  0  0.50      -514.6923   2.0000                                         
     2  0  0.50       -23.9615   2.0000                                         
     2  1  0.50        -9.0305   4.0000                                         
     3  2  1.50        -9.5241   0.0000                                         
   Description                                                                  
     l       E           TYP  RCUT    TYP  RCUT                                 
     0    -23.9615318     23  1.200                                             
     0     -9.5240782     23  1.200                                             
     1     -9.0304911     23  1.520                                             
     1      8.1634956     23  1.520                                             
     2     -9.5240782      7  1.500                                             
  local pseudopotential read in
  partial core-charges read in
  partial kinetic energy density read in
  kinetic energy density of atom read in
  atomic valenz-charges read in
  non local Contribution for L=           0  read in
    real space projection operators read in
  non local Contribution for L=           0  read in
    real space projection operators read in
  non local Contribution for L=           1  read in
    real space projection operators read in
  non local Contribution for L=           1  read in
    real space projection operators read in
    PAW grid and wavefunctions read in
 
   number of l-projection  operators is LMAX  =           4
   number of lm-projection operators is LMMAX =           8
 
 Optimization of the real space projectors (new method)

 maximal supplied QI-value         = 14.36
 optimisation between [QCUT,QGAM] = [ 10.20, 20.39] = [ 29.12,116.47] Ry 
 Optimized for a Real-space Cutoff    1.51 Angstroem

   l    n(q)    QCUT    max X(q) W(low)/X(q) W(high)/X(q)  e(spline) 
   2      8    10.197    59.108    0.26E-03    0.14E-03    0.96E-07
   2      8    10.197    58.101    0.27E-03    0.14E-03    0.98E-07
   0      9    10.197   102.235    0.54E-04    0.60E-05    0.72E-07
   0      9    10.197    58.388    0.52E-04    0.60E-05    0.68E-07
   1      9    10.197    22.191    0.18E-03    0.25E-03    0.79E-07
   1      9    10.197    15.590    0.15E-03    0.21E-03    0.69E-07
 Optimization of the real space projectors (new method)

 maximal supplied QI-value         = 25.13
 optimisation between [QCUT,QGAM] = [ 10.05, 20.36] = [ 28.30,116.06] Ry 
 Optimized for a Real-space Cutoff    1.30 Angstroem

   l    n(q)    QCUT    max X(q) W(low)/X(q) W(high)/X(q)  e(spline) 
   0      8    10.053   115.676    0.49E-03    0.72E-03    0.18E-06
   0      8    10.053    87.132    0.49E-03    0.71E-03    0.18E-06
   1      7    10.053     4.429    0.32E-03    0.31E-03    0.18E-06
   1      7    10.053     2.733    0.23E-03    0.19E-03    0.20E-06
 Optimization of the real space projectors (new method)

 maximal supplied QI-value         = 24.76
 optimisation between [QCUT,QGAM] = [ 10.15, 20.30] = [ 28.85,115.39] Ry 
 Optimized for a Real-space Cutoff    1.38 Angstroem

   l    n(q)    QCUT    max X(q) W(low)/X(q) W(high)/X(q)  e(spline) 
   0      8    10.150    20.381    0.22E-03    0.32E-03    0.29E-06
   0      8    10.150    15.268    0.23E-03    0.35E-03    0.30E-06
   1      8    10.150     5.964    0.46E-03    0.53E-03    0.21E-06
   1      8    10.150     5.382    0.38E-03    0.45E-03    0.19E-06

 ----------------------------------------------------------------------------- 
|                                                                             |
|  ADVICE TO THIS USER RUNNING 'VASP/VAMP'   (HEAR YOUR MASTER'S VOICE ...):  |
|                                                                             |
|      You enforced a specific xc-type in the INCAR file,                     |
|      a different type was found on the POTCAR file                          |
|          I HOPE YOU KNOW, WHAT YOU ARE  DOING                               |
|                                                                             |
 ----------------------------------------------------------------------------- 

  PAW_PBE Pd 04Jan2005                  :
 energy of atom  1       EATOM= -809.7530
 kinetic energy error for atom=    0.0091 (will be added to EATOM!!)
  PAW_PBE C 08Apr2002                   :
 energy of atom  2       EATOM= -147.1560
 kinetic energy error for atom=    0.0288 (will be added to EATOM!!)
  PAW_PBE O 08Apr2002                   :
 energy of atom  3       EATOM= -432.3788
 kinetic energy error for atom=    0.1156 (will be added to EATOM!!)
 
 
 POSCAR: Pd55PES                                 
  positions in cartesian coordinates
  No initial velocities read in
 exchange correlation table for  LEXCH =        9
   RHO(1)=    0.500       N(1)  =     2000
   RHO(2)=  100.500       N(2)  =     4000
 


--------------------------------------------------------------------------------------------------------


 ion  position               nearest neighbor table
   1  0.446  0.328  0.417-   3 3.25   5 3.25   7 3.36  15 3.36  29 3.42  28 3.42
   2  0.672  0.554  0.417-  26 3.25  30 3.25  17 3.36   9 3.36  47 3.42  49 3.42
   3  0.554  0.328  0.417-   1 3.25   5 3.25   7 3.36  11 3.36  29 3.42  21 3.42
   4  0.328  0.554  0.417-  32 3.25  22 3.25  13 3.36   8 3.36  43 3.42  48 3.42
   5  0.500  0.383  0.340-   1 3.25   3 3.25  11 3.36  15 3.36  21 3.42  28 3.42
   6  0.500  0.383  0.660-  24 3.25  19 3.25  16 3.36  12 3.36  42 3.42  44 3.42
   7  0.500  0.276  0.500-  29 3.24   3 3.36   1 3.36  19 3.36  24 3.36
   8  0.276  0.500  0.500-  48 3.24  22 3.36  40 3.36   4 3.36  25 3.36
   9  0.724  0.500  0.500-  49 3.24  26 3.36  45 3.36   2 3.36  20 3.36
  10  0.500  0.724  0.500-  55 3.24  27 3.36  23 3.36  46 3.36  41 3.36
  11  0.612  0.388  0.342-  21 3.24   5 3.36   3 3.36  30 3.36  26 3.36
  12  0.612  0.388  0.658-  42 3.24  24 3.36  45 3.36   6 3.36  31 3.36
  13  0.388  0.612  0.342-  43 3.24  32 3.36  50 3.36   4 3.36  27 3.36
  14  0.388  0.612  0.658-  53 3.24  25 3.36  33 3.36  51 3.36  46 3.36
  15  0.388  0.388  0.342-  28 3.24   5 3.36   1 3.36  32 3.36  22 3.36
  16  0.388  0.388  0.658-  44 3.24  19 3.36  40 3.36   6 3.36  33 3.36
  17  0.612  0.612  0.342-  47 3.24  30 3.36  50 3.36   2 3.36  23 3.36
  18  0.612  0.612  0.658-  54 3.24  31 3.36  20 3.36  51 3.36  41 3.36
  19  0.446  0.328  0.583-   6 3.25  24 3.25  16 3.36   7 3.36  44 3.42  29 3.42
  20  0.672  0.554  0.583-  31 3.25  45 3.25  18 3.36   9 3.36  54 3.42  49 3.42
  21  0.558  0.442  0.418-  11 3.24   5 3.42   3 3.42  30 3.42  26 3.42
  22  0.328  0.446  0.417-   4 3.25  32 3.25   8 3.36  15 3.36  48 3.42  28 3.42
  23  0.554  0.672  0.417-  27 3.25  50 3.25  10 3.36  17 3.36  55 3.42  47 3.42
  24  0.554  0.328  0.583-   6 3.25  19 3.25  12 3.36   7 3.36  42 3.42  29 3.42
  25  0.328  0.554  0.583-  33 3.25  40 3.25  14 3.36   8 3.36  53 3.42  48 3.42
  26  0.672  0.446  0.417-   2 3.25  30 3.25   9 3.36  11 3.36  49 3.42  21 3.42
  27  0.446  0.672  0.417-  23 3.25  50 3.25  10 3.36  13 3.36  55 3.42  43 3.42
  28  0.442  0.442  0.418-  15 3.24   5 3.42   1 3.42  32 3.42  22 3.42
  29  0.500  0.384  0.500-   7 3.24   3 3.42   1 3.42  24 3.42  19 3.42
  30  0.617  0.500  0.340-   2 3.25  26 3.25  17 3.36  11 3.36  47 3.42  21 3.42
  31  0.617  0.500  0.660-  20 3.25  45 3.25  18 3.36  12 3.36  54 3.42  42 3.42
  32  0.383  0.500  0.340-   4 3.25  22 3.25  13 3.36  15 3.36  43 3.42  28 3.42
  33  0.383  0.500  0.660-  25 3.25  40 3.25  14 3.36  16 3.36  53 3.42  44 3.42
  34  0.383  0.383  0.500-  56 1.69  57 2.43
  35  0.617  0.617  0.500-
  36  0.617  0.383  0.500-
  37  0.383  0.617  0.500-
  38  0.500  0.500  0.335-
  39  0.500  0.500  0.665-
  40  0.328  0.446  0.583-  56 1.99  57 2.23  33 3.25  25 3.25  16 3.36   8 3.36  44 3.42  48 3.42

  41  0.554  0.672  0.583-  46 3.25  51 3.25  10 3.36  18 3.36  54 3.42  55 3.42
  42  0.558  0.442  0.582-  12 3.24   6 3.42  24 3.42  31 3.42  45 3.42
  43  0.442  0.558  0.418-  13 3.24   4 3.42  32 3.42  27 3.42  50 3.42
  44  0.442  0.442  0.582-  16 3.24   6 3.42  19 3.42  33 3.42  40 3.42
  45  0.672  0.446  0.583-  20 3.25  31 3.25   9 3.36  12 3.36  49 3.42  42 3.42
  46  0.446  0.672  0.583-  41 3.25  51 3.25  10 3.36  14 3.36  53 3.42  55 3.42
  47  0.558  0.558  0.418-  17 3.24   2 3.42  30 3.42  23 3.42  50 3.42
  48  0.384  0.500  0.500-   8 3.24   4 3.42  22 3.42  25 3.42  40 3.42
  49  0.616  0.500  0.500-   9 3.24   2 3.42  26 3.42  20 3.42  45 3.42
  50  0.500  0.617  0.340-  27 3.25  23 3.25  13 3.36  17 3.36  43 3.42  47 3.42
  51  0.500  0.617  0.660-  41 3.25  46 3.25  14 3.36  18 3.36  53 3.42  54 3.42
  52  0.500  0.500  0.500-
  53  0.442  0.558  0.582-  14 3.24  25 3.42  33 3.42  51 3.42  46 3.42
  54  0.558  0.558  0.582-  18 3.24  31 3.42  20 3.42  51 3.42  41 3.42
  55  0.500  0.616  0.500-  10 3.24  23 3.42  27 3.42  41 3.42  46 3.42
  56  0.355  0.397  0.547-  57 1.13  34 1.69  40 1.99
  57  0.326  0.376  0.557-  56 1.13  40 2.23  34 2.43
 
  LATTYP: Found a simple cubic cell.
 ALAT       =    30.0000000000
  
  Lattice vectors:
  
 A1 = (  30.0000000000,   0.0000000000,   0.0000000000)
 A2 = (   0.0000000000,  30.0000000000,   0.0000000000)
 A3 = (   0.0000000000,   0.0000000000,  30.0000000000)


Analysis of symmetry for initial positions (statically):
=====================================================================
 Subroutine PRICEL returns:
 Original cell was already a primitive cell.
 

 Routine SETGRP: Setting up the symmetry group for a 
 simple cubic supercell.


 Subroutine GETGRP returns: Found  1 space group operations
 (whereof  1 operations were pure point group operations)
 out of a pool of 48 trial point group operations.


The static configuration has the point symmetry C_1 .


Analysis of symmetry for dynamics (positions and initial velocities):
=====================================================================
 Subroutine PRICEL returns:
 Original cell was already a primitive cell.
 

 Routine SETGRP: Setting up the symmetry group for a 
 simple cubic supercell.


 Subroutine GETGRP returns: Found  1 space group operations
 (whereof  1 operations were pure point group operations)
 out of a pool of 48 trial point group operations.


The dynamic configuration has the point symmetry C_1 .


Analysis of constrained symmetry for selective dynamics:
=====================================================================
 Subroutine PRICEL returns:
 Original cell was already a primitive cell.
 

 Routine SETGRP: Setting up the symmetry group for a 
 simple cubic supercell.


 Subroutine GETGRP returns: Found  1 space group operations
 (whereof  1 operations were pure point group operations)
 out of a pool of 48 trial point group operations.


The constrained configuration has the point symmetry C_1 .


 Subroutine INISYM returns: Found  1 space group operations
 (whereof  1 operations are pure point group operations),
 and found     1 'primitive' translations

 
 
 KPOINTS: K-points                                

Automatic generation of k-mesh.
Space group operators:
 irot       det(A)        alpha          n_x          n_y          n_z        tau_x        tau_y        tau_z
    1     1.000000     0.000000     1.000000     0.000000     0.000000     0.000000     0.000000     0.000000
 
 Subroutine IBZKPT returns following result:
 ===========================================
 
 Found      1 irreducible k-points:
 
 Following reciprocal coordinates:
            Coordinates               Weight
  0.000000  0.000000  0.000000      1.000000
 
 Following cartesian coordinates:
            Coordinates               Weight
  0.000000  0.000000  0.000000      1.000000
 


--------------------------------------------------------------------------------------------------------




 Dimension of arrays:
   k-points           NKPTS =      1   k-points in BZ     NKDIM =      1   number of bands    NBANDS=    336
   number of dos      NEDOS =    301   number of ions     NIONS =     57
   non local maximal  LDIM  =      6   non local SUM 2l+1 LMDIM =     18
   total plane-waves  NPLWV = ******
   max r-space proj   IRMAX =   1847   max aug-charges    IRDMAX=   6262
   dimension x,y,z NGX =   150 NGY =  150 NGZ =  150
   dimension x,y,z NGXF=   300 NGYF=  300 NGZF=  300
   support grid    NGXF=   300 NGYF=  300 NGZF=  300
   ions per type =              55   1   1
   NGX,Y,Z   is equivalent  to a cutoff of   8.31,  8.31,  8.31 a.u.
   NGXF,Y,Z  is equivalent  to a cutoff of  16.62, 16.62, 16.62 a.u.

 SYSTEM =  6_Pd100_top_free_z(O)                   
 POSCAR =  Pd55PES                                 

 Startparameter for this run:
   NWRITE =      2    write-flag & timer
   PREC   = normal    normal or accurate (medium, high low for compatibility)
   ISTART =      0    job   : 0-new  1-cont  2-samecut
   ICHARG =      2    charge: 1-file 2-atom 10-const
   ISPIN  =      1    spin polarized calculation?
   LNONCOLLINEAR =      F non collinear calculations
   LSORBIT =      F    spin-orbit coupling
   INIWAV =      1    electr: 0-lowe 1-rand  2-diag
   LASPH  =      F    aspherical Exc in radial PAW
   METAGGA=      F    non-selfconsistent MetaGGA calc.

 Electronic Relaxation 1
   ENCUT  =  400.0 eV  29.40 Ry    5.42 a.u.  48.92 48.92 48.92*2*pi/ulx,y,z
   ENINI  =  400.0     initial cutoff
   ENAUG  =  644.9 eV  augmentation charge cutoff
   NELM   =    100;   NELMIN=  6; NELMDL= -5     # of ELM steps 
   EDIFF  = 0.1E-03   stopping-criterion for ELM
   LREAL  =      T    real-space projection
   NLSPLINE    = F    spline interpolate recip. space projectors
   LCOMPAT=      F    compatible to vasp.4.4
   GGA_COMPAT  = T    GGA compatible to vasp.4.4-vasp.4.6
   LMAXPAW     = -100 max onsite density
   LMAXMIX     =    2 max onsite mixed and CHGCAR
   VOSKOWN=      0    Vosko Wilk Nusair interpolation
   ROPT   =   -0.00050  -0.00050  -0.00050
 Ionic relaxation
   EDIFFG = -.5E-01   stopping-criterion for IOM
   NSW    =      0    number of steps for IOM
   NBLOCK =      1;   KBLOCK =      1    inner block; outer block 
   IBRION =     -1    ionic relax: 0-MD 1-quasi-New 2-CG
   NFREE  =      1    steps in history (QN), initial steepest desc. (CG)
   ISIF   =      2    stress and relaxation
   IWAVPR =     10    prediction:  0-non 1-charg 2-wave 3-comb
   ISYM   =      2    0-nonsym 1-usesym 2-fastsym
   LCORR  =      T    Harris-Foulkes like correction to forces

   POTIM  = 0.5000    time-step for ionic-motion
   TEIN   =    0.0    initial temperature
   TEBEG  =    0.0;   TEEND  =   0.0 temperature during run
   SMASS  =  -3.00    Nose mass-parameter (am)
   estimated Nose-frequenzy (Omega)   =  0.10E-29 period in steps =****** mass=  -0.206E-25a.u.
   SCALEE = 1.0000    scale energy and forces
   NPACO  =    256;   APACO  = 16.0  distance and # of slots for P.C.
   PSTRESS=    0.0 pullay stress

  Mass of Ions in am
   POMASS = 106.42 12.01 16.00
  Ionic Valenz
   ZVAL   =  10.00  4.00  6.00
  Atomic Wigner-Seitz radii
   RWIGS  =  -1.00 -1.00 -1.00
  virtual crystal weights 
   VCA    =   1.00  1.00  1.00
   NELECT =     560.0000    total number of electrons
   NUPDOWN=      -1.0000    fix difference up-down

 DOS related values:
   EMIN   =  10.00;   EMAX   =-10.00  energy-range for DOS
   EFERMI =   0.00
   ISMEAR =     2;   SIGMA  =   0.20  broadening in eV -4-tet -1-fermi 0-gaus

 Electronic relaxation 2 (details)
   IALGO  =     68    algorithm
   LDIAG  =      T    sub-space diagonalisation (order eigenvalues)
   LSUBROT=      F    optimize rotation matrix (better conditioning)
   TURBO    =      0    0=normal 1=particle mesh
   IRESTART =      0    0=no restart 2=restart with 2 vectors
   NREBOOT  =      0    no. of reboots
   NMIN     =      0    reboot dimension
   EREF     =   0.00    reference energy to select bands
   IMIX   =      4    mixing-type and parameters
     AMIX     =   0.40;   BMIX     =  1.00
     AMIX_MAG =   1.60;   BMIX_MAG =  1.00
     AMIN     =   0.10
     WC   =   100.;   INIMIX=   1;  MIXPRE=   1;  MAXMIX= -45

 Intra band minimization:
   WEIMIN = 0.0000     energy-eigenvalue tresh-hold
   EBREAK =  0.74E-07  absolut break condition
   DEPER  =   0.30     relativ break condition  

   TIME   =   0.40     timestep for ELM

  volume/ion in A,a.u.               =     473.68      3196.58
  Fermi-wavevector in a.u.,A,eV,Ry     =   0.449797  0.849992  2.752691  0.202317
  Thomas-Fermi vector in A             =   1.430086
 
 Write flags
   LWAVE        =      F    write WAVECAR
   LDOWNSAMPLE  =      F    k-point downsampling of WAVECAR
   LCHARG       =      F    write CHGCAR
   LVTOT        =      F    write LOCPOT, total local potential
   LVHAR        =      F    write LOCPOT, Hartree potential only
   LELF         =      F    write electronic localiz. function (ELF)
   LORBIT       =      0    0 simple, 1 ext, 2 COOP (PROOUT), +10 PAW based schemes


 Dipole corrections
   LMONO  =      F    monopole corrections only (constant potential shift)
   LDIPOL =      F    correct potential (dipole corrections)
   IDIPOL =      0    1-x, 2-y, 3-z, 4-all directions 
   EPSILON=  1.0000000 bulk dielectric constant

 Exchange correlation treatment:
   GGA     =    RP    GGA type
   LEXCH   =     9    internal setting for exchange type
   VOSKOWN=      0    Vosko Wilk Nusair interpolation
   LHFCALC =     F    Hartree Fock is set to
   LHFONE  =     F    Hartree Fock one center treatment
   AEXX    =    0.0000 exact exchange contribution

 Linear response parameters
   LEPSILON=     F    determine dielectric tensor
   LRPA    =     F    only Hartree local field effects (RPA)
   LNABLA  =     F    use nabla operator in PAW spheres
   LVEL    =     F    velocity operator in full k-point grid
   LINTERFAST=   F  fast interpolation
   KINTER  =     0    interpolate to denser k-point grid
   CSHIFT  =0.1000    complex shift for real part using Kramers Kronig
   OMEGAMAX=  -1.0    maximum frequency
   DEG_THRESHOLD= 0.2000000E-02 threshold for treating states as degnerate
   RTIME   =   -0.100 relaxation time in fs
  (WPLASMAI=    0.000 imaginary part of plasma frequency in eV, 0.658/RTIME)
   DFIELD  = 0.0000000 0.0000000 0.0000000 field for delta impulse in time
 
 Orbital magnetization related:
   ORBITALMAG=     F  switch on orbital magnetization
   LCHIMAG   =     F  perturbation theory with respect to B field
   DQ        =  0.001000  dq finite difference perturbation B field
   LLRAUG    =     F  two centre corrections for induced B field



--------------------------------------------------------------------------------------------------------


 Static calculation
 charge density and potential will be updated during run
 non-spin polarized calculation
 RMM-DIIS sequential band-by-band and
  variant of blocked Davidson during initial phase
 perform sub-space diagonalisation
    before iterative eigenvector-optimisation
 modified Broyden-mixing scheme, WC =      100.0
 initial mixing is a Kerker type mixing with AMIX =  0.4000 and BMIX =      1.0000
 Hartree-type preconditioning will be used
 using additional bands           56
 real space projection scheme for non local part
 use partial core corrections
 calculate Harris-corrections to forces 
   (improved forces if not selfconsistent)
 use gradient corrections 
 use of overlap-Matrix (Vanderbilt PP)
 Methfessel and Paxton  Order N= 2 SIGMA  =   0.20


--------------------------------------------------------------------------------------------------------


  energy-cutoff  :      400.00
  volume of cell :    27000.00
      direct lattice vectors                 reciprocal lattice vectors
    30.000000000  0.000000000  0.000000000     0.033333333  0.000000000  0.000000000
     0.000000000 30.000000000  0.000000000     0.000000000  0.033333333  0.000000000
     0.000000000  0.000000000 30.000000000     0.000000000  0.000000000  0.033333333

  length of vectors
    30.000000000 30.000000000 30.000000000     0.033333333  0.033333333  0.033333333


 
 k-points in units of 2pi/SCALE and weight: K-points                                
   0.00000000  0.00000000  0.00000000       1.000
 
 k-points in reciprocal lattice and weights: K-points                                
   0.00000000  0.00000000  0.00000000       1.000
 
 position of ions in fractional coordinates (direct lattice) 
   0.44576020  0.32826710  0.41691983
   0.67173288  0.55423978  0.41691983
   0.55423980  0.32826710  0.41691983
   0.32826712  0.55423978  0.41691983
   0.50000000  0.38250690  0.34021317
   0.50000000  0.38250690  0.65978680
   0.50000000  0.27609440  0.50000000
   0.27609443  0.49999998  0.50000000
   0.72390557  0.49999998  0.50000000
   0.50000000  0.72390555  0.50000000
   0.61195280  0.38804720  0.34167483
   0.61195280  0.38804720  0.65832513
   0.38804722  0.61195278  0.34167483
   0.38804722  0.61195278  0.65832513
   0.38804720  0.38804720  0.34167483
   0.38804720  0.38804720  0.65832513
   0.61195278  0.61195278  0.34167483
   0.61195278  0.61195278  0.65832513
   0.44576020  0.32826710  0.58308023
   0.67173288  0.55423978  0.58308023
   0.55791699  0.44208301  0.41809300
   0.32826705  0.44576024  0.41691983
   0.55423973  0.67173293  0.41691983
   0.55423980  0.32826710  0.58308023
   0.32826712  0.55423978  0.58308023
   0.67173295  0.44576024  0.41691983
   0.44576027  0.67173293  0.41691983
   0.44208301  0.44208301  0.41809300
   0.50000000  0.38416601  0.50000000
   0.61749315  0.50000005  0.34021317
   0.61749315  0.50000005  0.65978680
   0.38250685  0.50000005  0.34021317
   0.38250685  0.50000005  0.65978680
   0.38317830  0.38317830  0.50000000
   0.61682172  0.61682172  0.50000000
   0.61682170  0.38317830  0.50000000
   0.38317828  0.61682172  0.50000000
   0.50000000  0.50000000  0.33478917
   0.50000000  0.50000000  0.66521087
   0.32826705  0.44576024  0.58308023
   0.55423973  0.67173293  0.58308023
   0.55791699  0.44208301  0.58190703
   0.44208298  0.55791702  0.41809300
   0.44208301  0.44208301  0.58190703
   0.67173295  0.44576024  0.58308023
   0.44576027  0.67173293  0.58308023
   0.55791702  0.55791702  0.41809300
   0.38416599  0.50000002  0.50000000
   0.61583401  0.50000002  0.50000000
   0.50000000  0.61749319  0.34021317
   0.50000000  0.61749319  0.65978680
   0.50000000  0.50000000  0.50000000
   0.44208298  0.55791702  0.58190703
   0.55791702  0.55791702  0.58190703
   0.50000000  0.61583404  0.50000000
   0.35548750  0.39732403  0.54698010
   0.32585910  0.37627310  0.55661210
 
 position of ions in cartesian coordinates  (Angst):
  13.37280588  9.84801292 12.50759500
  20.15198637 16.62719342 12.50759500
  16.62719412  9.84801292 12.50759500
   9.84801363 16.62719342 12.50759500
  15.00000000 11.47520705 10.20639500
  15.00000000 11.47520705 19.79360400
  15.00000000  8.28283206 15.00000000
   8.28283277 14.99999929 15.00000000
  21.71716723 14.99999929 15.00000000
  15.00000000 21.71716652 14.99999999
  18.35858397 11.64141603 10.25024500
  18.35858397 11.64141603 19.74975399
  11.64141674 18.35858326 10.25024500
  11.64141674 18.35858326 19.74975400
  11.64141603 11.64141603 10.25024500
  11.64141603 11.64141603 19.74975400
  18.35858326 18.35858326 10.25024500
  18.35858326 18.35858326 19.74975400
  13.37280588  9.84801291 17.49240700
  20.15198638 16.62719341 17.49240700
  16.73750985 13.26249015 12.54279000
   9.84801151 13.37280729 12.50759500
  16.62719200 20.15198779 12.50759500
  16.62719412  9.84801292 17.49240700
   9.84801363 16.62719342 17.49240700
  20.15198849 13.37280729 12.50759500
  13.37280800 20.15198779 12.50759500
  13.26249015 13.26249015 12.54279000
  15.00000000 11.52498029 15.00000000
  18.52479437 15.00000140 10.20639500
  18.52479437 15.00000141 19.79360400
  11.47520562 15.00000141 10.20639501
  11.47520563 15.00000141 19.79360400
  11.49534898 11.49534898 15.00000000
  18.50465172 18.50465172 15.00000000
  18.50465102 11.49534898 15.00000000
  11.49534828 18.50465172 15.00000000
  15.00000000 15.00000000 10.04367500
  15.00000000 15.00000000 19.95632599
   9.84801151 13.37280729 17.49240700
  16.62719200 20.15198779 17.49240700
  16.73750985 13.26249015 17.45721100
  13.26248944 16.73751056 12.54279001
  13.26249015 13.26249015 17.45721100
  20.15198849 13.37280729 17.49240699
  13.37280800 20.15198779 17.49240700
  16.73751056 16.73751056 12.54279000
  11.52497959 15.00000071 15.00000000
  18.47502041 15.00000071 15.00000000
  14.99999999 18.52479579 10.20639500
  15.00000000 18.52479578 19.79360400
  15.00000000 15.00000000 15.00000000
  13.26248944 16.73751057 17.45721101
  16.73751056 16.73751057 17.45721100
  15.00000000 18.47502112 15.00000000
  10.66462500 11.91972100 16.40940300
   9.77577300 11.28819300 16.69836300
 


--------------------------------------------------------------------------------------------------------


 k-point  1 :   0.0000 0.0000 0.0000  plane waves:  490521

 maximum and minimum number of plane-waves per node :    490521   490521

 maximum number of plane-waves:    490521
 maximum index in each direction: 
   IXMAX=   48   IYMAX=   48   IZMAX=   48
   IXMIN=  -48   IYMIN=  -48   IZMIN=  -48


 serial   3D FFT for wavefunctions
 parallel 3D FFT for charge:
    minimum data exchange during FFTs selected (reduces bandwidth)


 total amount of memory used by VASP MPI-rank0  5486941. kBytes
=======================================================================

   base      :      30000. kBytes
   nonlr-proj:      17126. kBytes
   fftplans  :     924480. kBytes
   grid      :    1872000. kBytes
   one-center:        886. kBytes
   wavefun   :    2642449. kBytes
 
     INWAV:  cpu time    0.0001: real time    0.0004
 Broyden mixing: mesh for mixing (old mesh)
   NGX = 97   NGY = 97   NGZ = 97
  (NGX  =300   NGY  =300   NGZ  =300)
  gives a total of 912673 points

 initial charge density was supplied:
 charge density of overlapping atoms calculated
 number of electron     560.0000000 magnetization 
 keeping initial charge density in first step


--------------------------------------------------------------------------------------------------------


 Maximum index for non-local projection operator         1763
 Maximum index for augmentation-charges         5898 (set IRDMAX)


--------------------------------------------------------------------------------------------------------


 First call to EWALD:  gamma=   0.059
 Maximum number of real-space cells 3x 3x 3
 Maximum number of reciprocal cells 3x 3x 3

    FEWALD:  cpu time    0.0138: real time    0.0138


--------------------------------------- Iteration      1(   1)  ---------------------------------------


    POTLOK:  cpu time   11.8313: real time   11.8376
    SETDIJ:  cpu time    0.1110: real time    0.1138
     EDDAV:  cpu time  334.4911: real time  334.5721
       DOS:  cpu time    0.0013: real time    0.0026
    --------------------------------------------
      LOOP:  cpu time  346.4348: real time  346.5262

 eigenvalue-minimisations  :   688
 total energy-change (2. order) : 0.4408772E+04  (-0.1005551E+05)
 number of electron     560.0000000 magnetization 
 augmentation part      560.0000000 magnetization 

 Free energy of the ion-electron system (eV)
  ---------------------------------------------------
  alpha Z        PSCENC =        75.25431677
  Ewald energy   TEWEN  =    140310.35304027
  -Hartree energ DENC   =   -183651.19435203
  -exchange      EXHF   =         0.00000000
  -V(xc)+E(xc)   XCENC  =     -1701.01236851
  PAW double counting   =     44873.02882129   -41398.84523641
  entropy T*S    EENTRO =         0.02578258
  eigenvalues    EBANDS =       814.65673052
  atomic energy  EATOM  =     45086.50549395
  Solvation  Ediel_sol  =         0.00000000
  ---------------------------------------------------
  free energy    TOTEN  =      4408.77222842 eV

  energy without entropy =     4408.74644585  energy(sigma->0) =     4408.76578278


--------------------------------------------------------------------------------------------------------




--------------------------------------- Iteration      1(   2)  ---------------------------------------


     EDDAV:  cpu time  541.3257: real time  541.3421
       DOS:  cpu time    0.0012: real time    0.0012
    --------------------------------------------
      LOOP:  cpu time  541.3269: real time  541.3433

 eigenvalue-minimisations  :  1224
 total energy-change (2. order) :-0.2395891E+04  (-0.2156804E+04)
 number of electron     560.0000000 magnetization 
 augmentation part      560.0000000 magnetization 

 Free energy of the ion-electron system (eV)
  ---------------------------------------------------
  alpha Z        PSCENC =        75.25431677
  Ewald energy   TEWEN  =    140310.35304027
  -Hartree energ DENC   =   -183651.19435203
  -exchange      EXHF   =         0.00000000
  -V(xc)+E(xc)   XCENC  =     -1701.01236851
  PAW double counting   =     44873.02882129   -41398.84523641
  entropy T*S    EENTRO =        -0.00503442
  eigenvalues    EBANDS =     -1581.20374440
  atomic energy  EATOM  =     45086.50549395
  Solvation  Ediel_sol  =         0.00000000
  ---------------------------------------------------
  free energy    TOTEN  =      2012.88093651 eV

  energy without entropy =     2012.88597093  energy(sigma->0) =     2012.88219512


--------------------------------------------------------------------------------------------------------




--------------------------------------- Iteration      1(   3)  ---------------------------------------


     EDDAV:  cpu time  452.4854: real time  452.5037
       DOS:  cpu time    0.0010: real time    0.0010
    --------------------------------------------
      LOOP:  cpu time  452.4864: real time  452.5047

 eigenvalue-minimisations  :   992
 total energy-change (2. order) :-0.1776170E+04  (-0.1670444E+04)
 number of electron     560.0000000 magnetization 
 augmentation part      560.0000000 magnetization 

 Free energy of the ion-electron system (eV)
  ---------------------------------------------------
  alpha Z        PSCENC =        75.25431677
  Ewald energy   TEWEN  =    140310.35304027
  -Hartree energ DENC   =   -183651.19435203
  -exchange      EXHF   =         0.00000000
  -V(xc)+E(xc)   XCENC  =     -1701.01236851
  PAW double counting   =     44873.02882129   -41398.84523641
  entropy T*S    EENTRO =        -0.00275292
  eigenvalues    EBANDS =     -3357.37590840
  atomic energy  EATOM  =     45086.50549395
  Solvation  Ediel_sol  =         0.00000000
  ---------------------------------------------------
  free energy    TOTEN  =       236.71105401 eV

  energy without entropy =      236.71380693  energy(sigma->0) =      236.71174224


--------------------------------------------------------------------------------------------------------




--------------------------------------- Iteration      1(   4)  ---------------------------------------


     EDDAV:  cpu time  402.7406: real time  402.7614
       DOS:  cpu time    0.0011: real time    0.0011
    --------------------------------------------
      LOOP:  cpu time  402.7417: real time  402.7625

 eigenvalue-minimisations  :   856
 total energy-change (2. order) :-0.3707273E+03  (-0.3133027E+03)
 number of electron     560.0000000 magnetization 
 augmentation part      560.0000000 magnetization 

 Free energy of the ion-electron system (eV)
  ---------------------------------------------------
  alpha Z        PSCENC =        75.25431677
  Ewald energy   TEWEN  =    140310.35304027
  -Hartree energ DENC   =   -183651.19435203
  -exchange      EXHF   =         0.00000000
  -V(xc)+E(xc)   XCENC  =     -1701.01236851
  PAW double counting   =     44873.02882129   -41398.84523641
  entropy T*S    EENTRO =        -0.04702707
  eigenvalues    EBANDS =     -3728.05893820
  atomic energy  EATOM  =     45086.50549395
  Solvation  Ediel_sol  =         0.00000000
  ---------------------------------------------------
  free energy    TOTEN  =      -134.01624995 eV

  energy without entropy =     -133.96922288  energy(sigma->0) =     -134.00449318


--------------------------------------------------------------------------------------------------------




--------------------------------------- Iteration      1(   5)  ---------------------------------------


     EDDAV:  cpu time  494.0982: real time  494.1119
       DOS:  cpu time    0.0014: real time    0.0014
    CHARGE:  cpu time   25.1598: real time   25.1595
    MIXING:  cpu time    0.4323: real time    0.4338
    --------------------------------------------
      LOOP:  cpu time  519.6917: real time  519.7066

 eigenvalue-minimisations  :  1032
 total energy-change (2. order) :-0.4627884E+02  (-0.3799376E+02)
 number of electron     559.9999920 magnetization 
 augmentation part      244.9358837 magnetization 

 Broyden mixing:
  rms(total) = 0.20121E+01    rms(broyden)= 0.20114E+01
  rms(prec ) = 0.21047E+01
  weight for this iteration     100.00

 Free energy of the ion-electron system (eV)
  ---------------------------------------------------
  alpha Z        PSCENC =        75.25431677
  Ewald energy   TEWEN  =    140310.35304027
  -Hartree energ DENC   =   -183651.19435203
  -exchange      EXHF   =         0.00000000
  -V(xc)+E(xc)   XCENC  =     -1701.01236851
  PAW double counting   =     44873.02882129   -41398.84523641
  entropy T*S    EENTRO =         0.45448156
  eigenvalues    EBANDS =     -3774.83929026
  atomic energy  EATOM  =     45086.50549395
  Solvation  Ediel_sol  =         0.00000000
  ---------------------------------------------------
  free energy    TOTEN  =      -180.29509338 eV

  energy without entropy =     -180.74957493  energy(sigma->0) =     -180.40871377


--------------------------------------------------------------------------------------------------------




--------------------------------------- Iteration      1(   6)  ---------------------------------------


    POTLOK:  cpu time   13.0686: real time   13.0717
    SETDIJ:  cpu time    0.1205: real time    0.1205
    EDDIAG:  cpu time   66.6377: real time   66.6421
  RMM-DIIS:  cpu time  187.9827: real time  187.9939
    ORTHCH:  cpu time   13.6978: real time   13.6977
       DOS:  cpu time    0.0015: real time    0.0015
    CHARGE:  cpu time   25.6384: real time   25.6381
    MIXING:  cpu time    0.4818: real time    0.4845
    --------------------------------------------
      LOOP:  cpu time  307.6289: real time  307.6500

 eigenvalue-minimisations  :   721
 total energy-change (2. order) : 0.1348195E+01  (-0.6975107E+01)
 number of electron     559.9999948 magnetization 
 augmentation part      240.6677952 magnetization 

 Broyden mixing:
  rms(total) = 0.21369E+01    rms(broyden)= 0.21366E+01
  rms(prec ) = 0.24113E+01
  weight for this iteration     100.00

 eigenvalues of (default mixing * dielectric matrix)
  average eigenvalue GAMMA=   0.4852
  0.4852

 Free energy of the ion-electron system (eV)
  ---------------------------------------------------
  alpha Z        PSCENC =        75.25431677
  Ewald energy   TEWEN  =    140310.35304027
  -Hartree energ DENC   =   -184057.13182408
  -exchange      EXHF   =         0.00000000
  -V(xc)+E(xc)   XCENC  =     -1694.48639206
  PAW double counting   =     45736.47125358   -42236.76598042
  entropy T*S    EENTRO =        -0.22545829
  eigenvalues    EBANDS =     -3398.92134810
  atomic energy  EATOM  =     45086.50549395
  Solvation  Ediel_sol  =         0.00000000
  ---------------------------------------------------
  free energy    TOTEN  =      -178.94689839 eV

  energy without entropy =     -178.72144010  energy(sigma->0) =     -178.89053382


--------------------------------------------------------------------------------------------------------




--------------------------------------- Iteration      1(   7)  ---------------------------------------


    POTLOK:  cpu time   13.2078: real time   13.2105
    SETDIJ:  cpu time    0.1215: real time    0.1215
    EDDIAG:  cpu time   67.7505: real time   67.7509
  RMM-DIIS:  cpu time  214.7732: real time  214.7827
    ORTHCH:  cpu time   13.9606: real time   13.9612
       DOS:  cpu time    0.0012: real time    0.0012
    CHARGE:  cpu time   25.6853: real time   25.6855
    MIXING:  cpu time    0.4916: real time    0.4916
    --------------------------------------------
      LOOP:  cpu time  335.9917: real time  336.0052

 eigenvalue-minimisations  :   822
 total energy-change (2. order) :-0.5337981E+01  (-0.2370046E+01)
 number of electron     559.9999894 magnetization 
 augmentation part      239.7453172 magnetization 

 Broyden mixing:
  rms(total) = 0.28122E+01    rms(broyden)= 0.28120E+01
  rms(prec ) = 0.33911E+01
  weight for this iteration     100.00

 eigenvalues of (default mixing * dielectric matrix)
  average eigenvalue GAMMA=   0.4281
  0.6789  0.1773

 Free energy of the ion-electron system (eV)
  ---------------------------------------------------
  alpha Z        PSCENC =        75.25431677
  Ewald energy   TEWEN  =    140310.35304027
  -Hartree energ DENC   =   -184184.99423632
  -exchange      EXHF   =         0.00000000
  -V(xc)+E(xc)   XCENC  =     -1694.81412543
  PAW double counting   =     45876.86010954   -42373.51551149
  entropy T*S    EENTRO =        -0.16787063
  eigenvalues    EBANDS =     -3279.76609644
  atomic energy  EATOM  =     45086.50549395
  Solvation  Ediel_sol  =         0.00000000
  ---------------------------------------------------
  free energy    TOTEN  =      -184.28487978 eV

  energy without entropy =     -184.11700914  energy(sigma->0) =     -184.24291212


--------------------------------------------------------------------------------------------------------




--------------------------------------- Iteration      1(   8)  ---------------------------------------


    POTLOK:  cpu time   13.5625: real time   13.5661
    SETDIJ:  cpu time    0.1352: real time    0.1352
    EDDIAG:  cpu time   68.1504: real time   68.1520
  RMM-DIIS:  cpu time  205.7312: real time  205.7357
    ORTHCH:  cpu time   13.8904: real time   13.8905
       DOS:  cpu time    0.0014: real time    0.0014
    CHARGE:  cpu time   25.6458: real time   25.6461
    MIXING:  cpu time    0.5157: real time    0.5157
    --------------------------------------------
      LOOP:  cpu time  327.6325: real time  327.6427

 eigenvalue-minimisations  :   787
 total energy-change (2. order) :-0.2463841E+01  (-0.1116841E+01)
 number of electron     559.9999901 magnetization 
 augmentation part      239.8742863 magnetization 

 Broyden mixing:
  rms(total) = 0.32110E+01    rms(broyden)= 0.32107E+01
  rms(prec ) = 0.38114E+01
  weight for this iteration     100.00

 eigenvalues of (default mixing * dielectric matrix)
  average eigenvalue GAMMA=   0.3882
  0.8416  0.1955  0.1274

 Free energy of the ion-electron system (eV)
  ---------------------------------------------------
  alpha Z        PSCENC =        75.25431677
  Ewald energy   TEWEN  =    140310.35304027
  -Hartree energ DENC   =   -184202.60680326
  -exchange      EXHF   =         0.00000000
  -V(xc)+E(xc)   XCENC  =     -1694.88955353
  PAW double counting   =     45969.34839933   -42463.86940539
  entropy T*S    EENTRO =         0.04794404
  eigenvalues    EBANDS =     -3266.89215297
  atomic energy  EATOM  =     45086.50549395
  Solvation  Ediel_sol  =         0.00000000
  ---------------------------------------------------
  free energy    TOTEN  =      -186.74872079 eV

  energy without entropy =     -186.79666482  energy(sigma->0) =     -186.76070679


--------------------------------------------------------------------------------------------------------




--------------------------------------- Iteration      1(   9)  ---------------------------------------


    POTLOK:  cpu time   13.3973: real time   13.4012
    SETDIJ:  cpu time    0.1232: real time    0.1232
    EDDIAG:  cpu time   68.0683: real time   68.0772
  RMM-DIIS:  cpu time  190.7011: real time  190.7044
    ORTHCH:  cpu time   13.9545: real time   13.9547
       DOS:  cpu time    0.0014: real time    0.0014
    CHARGE:  cpu time   25.6002: real time   25.6024
    MIXING:  cpu time    0.5617: real time    0.5617
    --------------------------------------------
      LOOP:  cpu time  312.4078: real time  312.4262

 eigenvalue-minimisations  :   731
 total energy-change (2. order) : 0.1561614E+01  (-0.8493239E+00)
 number of electron     559.9999890 magnetization 
 augmentation part      240.5887898 magnetization 

 Broyden mixing:
  rms(total) = 0.31416E+01    rms(broyden)= 0.31413E+01
  rms(prec ) = 0.36317E+01
  weight for this iteration     100.00

 eigenvalues of (default mixing * dielectric matrix)
  average eigenvalue GAMMA=   0.3540
  0.9477  0.2192  0.1246  0.1246

 Free energy of the ion-electron system (eV)
  ---------------------------------------------------
  alpha Z        PSCENC =        75.25431677
  Ewald energy   TEWEN  =    140310.35304027
  -Hartree energ DENC   =   -184205.00439942
  -exchange      EXHF   =         0.00000000
  -V(xc)+E(xc)   XCENC  =     -1694.88827184
  PAW double counting   =     46047.74548250   -42540.51597914
  entropy T*S    EENTRO =        -0.15965479
  eigenvalues    EBANDS =     -3264.47713552
  atomic energy  EATOM  =     45086.50549395
  Solvation  Ediel_sol  =         0.00000000
  ---------------------------------------------------
  free energy    TOTEN  =      -185.18710723 eV

  energy without entropy =     -185.02745243  energy(sigma->0) =     -185.14719353


--------------------------------------------------------------------------------------------------------




--------------------------------------- Iteration      1(  10)  ---------------------------------------


    POTLOK:  cpu time   13.4002: real time   13.4042
    SETDIJ:  cpu time    0.1245: real time    0.1245
    EDDIAG:  cpu time   68.0089: real time   68.0093
  RMM-DIIS:  cpu time  190.3548: real time  190.3583
    ORTHCH:  cpu time   13.9194: real time   13.9194
       DOS:  cpu time    0.0015: real time    0.0015
    CHARGE:  cpu time   25.5146: real time   25.5146
    MIXING:  cpu time    0.5775: real time    0.5775
    --------------------------------------------
      LOOP:  cpu time  311.9014: real time  311.9094

 eigenvalue-minimisations  :   730
 total energy-change (2. order) : 0.3182012E+01  (-0.5851306E+00)
 number of electron     559.9999904 magnetization 
 augmentation part      241.3495671 magnetization 

 Broyden mixing:
  rms(total) = 0.27439E+01    rms(broyden)= 0.27436E+01
  rms(prec ) = 0.32301E+01
  weight for this iteration     100.00

 eigenvalues of (default mixing * dielectric matrix)
  average eigenvalue GAMMA=   0.3292
  1.0334  0.2440  0.1368  0.1368  0.0950

 Free energy of the ion-electron system (eV)
  ---------------------------------------------------
  alpha Z        PSCENC =        75.25431677
  Ewald energy   TEWEN  =    140310.35304027
  -Hartree energ DENC   =   -184233.99622064
  -exchange      EXHF   =         0.00000000
  -V(xc)+E(xc)   XCENC  =     -1694.84254633
  PAW double counting   =     46107.17096306   -42598.65752921
  entropy T*S    EENTRO =        -0.05654781
  eigenvalues    EBANDS =     -3233.73606519
  atomic energy  EATOM  =     45086.50549395
  Solvation  Ediel_sol  =         0.00000000
  ---------------------------------------------------
  free energy    TOTEN  =      -182.00509513 eV

  energy without entropy =     -181.94854731  energy(sigma->0) =     -181.99095818


--------------------------------------------------------------------------------------------------------




--------------------------------------- Iteration      1(  11)  ---------------------------------------


    POTLOK:  cpu time   13.3212: real time   13.3248
    SETDIJ:  cpu time    0.1248: real time    0.1248
    EDDIAG:  cpu time   67.9284: real time   67.9287
  RMM-DIIS:  cpu time  189.2530: real time  189.2516
    ORTHCH:  cpu time   13.9127: real time   13.9123
       DOS:  cpu time    0.0015: real time    0.0015
    CHARGE:  cpu time   25.6249: real time   25.6244
    MIXING:  cpu time    0.6077: real time    0.6077
    --------------------------------------------
      LOOP:  cpu time  310.7742: real time  310.7757

 eigenvalue-minimisations  :   726
 total energy-change (2. order) : 0.2531598E+01  (-0.3397858E+00)
 number of electron     559.9999873 magnetization 
 augmentation part      241.7129864 magnetization 

 Broyden mixing:
  rms(total) = 0.25295E+01    rms(broyden)= 0.25292E+01
  rms(prec ) = 0.29616E+01
  weight for this iteration     100.00

 eigenvalues of (default mixing * dielectric matrix)
  average eigenvalue GAMMA=   0.3081
  1.1021  0.2631  0.1540  0.1540  0.0922  0.0830

 Free energy of the ion-electron system (eV)
  ---------------------------------------------------
  alpha Z        PSCENC =        75.25431677
  Ewald energy   TEWEN  =    140310.35304027
  -Hartree energ DENC   =   -184253.23727216
  -exchange      EXHF   =         0.00000000
  -V(xc)+E(xc)   XCENC  =     -1694.70096596
  PAW double counting   =     46153.45561325   -42643.65916216
  entropy T*S    EENTRO =         0.06874351
  eigenvalues    EBANDS =     -3213.51330501
  atomic energy  EATOM  =     45086.50549395
  Solvation  Ediel_sol  =         0.00000000
  ---------------------------------------------------
  free energy    TOTEN  =      -179.47349753 eV

  energy without entropy =     -179.54224104  energy(sigma->0) =     -179.49068341


--------------------------------------------------------------------------------------------------------




--------------------------------------- Iteration      1(  12)  ---------------------------------------


    POTLOK:  cpu time   13.2805: real time   13.2810
    SETDIJ:  cpu time    0.1222: real time    0.1222
    EDDIAG:  cpu time   68.6700: real time   68.6736
  RMM-DIIS:  cpu time  192.4392: real time  192.4456
    ORTHCH:  cpu time   14.0124: real time   14.0122
       DOS:  cpu time    0.0015: real time    0.0015
    CHARGE:  cpu time   26.0826: real time   26.0821
    MIXING:  cpu time    0.6297: real time    0.6296
    --------------------------------------------
      LOOP:  cpu time  315.2380: real time  315.2478

 eigenvalue-minimisations  :   723
 total energy-change (2. order) : 0.1649943E+01  (-0.2722673E+00)
 number of electron     559.9999901 magnetization 
 augmentation part      241.9171485 magnetization 

 Broyden mixing:
  rms(total) = 0.19011E+01    rms(broyden)= 0.19008E+01
  rms(prec ) = 0.22598E+01
  weight for this iteration     100.00

 eigenvalues of (default mixing * dielectric matrix)
  average eigenvalue GAMMA=   0.2972
  1.1682  0.2867  0.1741  0.1741  0.0950  0.0910  0.0910

 Free energy of the ion-electron system (eV)
  ---------------------------------------------------
  alpha Z        PSCENC =        75.25431677
  Ewald energy   TEWEN  =    140310.35304027
  -Hartree energ DENC   =   -184267.53132124
  -exchange      EXHF   =         0.00000000
  -V(xc)+E(xc)   XCENC  =     -1694.50007335
  PAW double counting   =     46193.77208610   -42682.70627035
  entropy T*S    EENTRO =        -0.00847532
  eigenvalues    EBANDS =     -3198.96235116
  atomic energy  EATOM  =     45086.50549395
  Solvation  Ediel_sol  =         0.00000000
  ---------------------------------------------------
  free energy    TOTEN  =      -177.82355433 eV

  energy without entropy =     -177.81507901  energy(sigma->0) =     -177.82143550


--------------------------------------------------------------------------------------------------------




--------------------------------------- Iteration      1(  13)  ---------------------------------------


    POTLOK:  cpu time   13.4748: real time   13.4754
    SETDIJ:  cpu time    0.1243: real time    0.1243
    EDDIAG:  cpu time   68.7991: real time   68.8004
  RMM-DIIS:  cpu time  194.8512: real time  194.8518
    ORTHCH:  cpu time   13.9543: real time   13.9542
       DOS:  cpu time    0.0015: real time    0.0015
    CHARGE:  cpu time   26.3021: real time   26.3018
    MIXING:  cpu time    0.7221: real time    0.7221
    --------------------------------------------
      LOOP:  cpu time  318.2294: real time  318.2314

 eigenvalue-minimisations  :   727
 total energy-change (2. order) : 0.5477336E+00  (-0.1872306E+00)
 number of electron     559.9999901 magnetization 
 augmentation part      241.8716652 magnetization 

 Broyden mixing:
  rms(total) = 0.17179E+01    rms(broyden)= 0.17175E+01
  rms(prec ) = 0.20367E+01
  weight for this iteration     100.00

 eigenvalues of (default mixing * dielectric matrix)
  average eigenvalue GAMMA=   0.2975
  1.2672  0.3133  0.2060  0.2060  0.1116  0.1116  0.0966  0.0676

 Free energy of the ion-electron system (eV)
  ---------------------------------------------------
  alpha Z        PSCENC =        75.25431677
  Ewald energy   TEWEN  =    140310.35304027
  -Hartree energ DENC   =   -184291.00202089
  -exchange      EXHF   =         0.00000000
  -V(xc)+E(xc)   XCENC  =     -1694.25578128
  PAW double counting   =     46232.39014688   -42720.01185741
  entropy T*S    EENTRO =        -0.02374292
  eigenvalues    EBANDS =     -3176.48541607
  atomic energy  EATOM  =     45086.50549395
  Solvation  Ediel_sol  =         0.00000000
  ---------------------------------------------------
  free energy    TOTEN  =      -177.27582071 eV

  energy without entropy =     -177.25207779  energy(sigma->0) =     -177.26988498


--------------------------------------------------------------------------------------------------------




--------------------------------------- Iteration      1(  14)  ---------------------------------------


    POTLOK:  cpu time   13.3553: real time   13.3561
    SETDIJ:  cpu time    0.1219: real time    0.1219
    EDDIAG:  cpu time   69.0624: real time   69.0631
  RMM-DIIS:  cpu time  191.1867: real time  191.1915
    ORTHCH:  cpu time   14.3261: real time   14.3262
       DOS:  cpu time    0.0015: real time    0.0015
    CHARGE:  cpu time   26.4190: real time   26.4205
    MIXING:  cpu time    0.7283: real time    0.7283
    --------------------------------------------
      LOOP:  cpu time  315.2013: real time  315.2091

 eigenvalue-minimisations  :   717
 total energy-change (2. order) : 0.2936949E+00  (-0.2052164E+00)
 number of electron     559.9999918 magnetization 
 augmentation part      241.7529575 magnetization 

 Broyden mixing:
  rms(total) = 0.28708E+01    rms(broyden)= 0.28706E+01
  rms(prec ) = 0.33296E+01
  weight for this iteration     100.00

 eigenvalues of (default mixing * dielectric matrix)
  average eigenvalue GAMMA=   0.3006
  1.4042  0.3025  0.3025  0.2298  0.1109  0.1109  0.1120  0.0664  0.0664

 Free energy of the ion-electron system (eV)
  ---------------------------------------------------
  alpha Z        PSCENC =        75.25431677
  Ewald energy   TEWEN  =    140310.35304027
  -Hartree energ DENC   =   -184325.20424974
  -exchange      EXHF   =         0.00000000
  -V(xc)+E(xc)   XCENC  =     -1693.84906142
  PAW double counting   =     46290.06378286   -42775.59129205
  entropy T*S    EENTRO =         0.20539544
  eigenvalues    EBANDS =     -3144.71955189
  atomic energy  EATOM  =     45086.50549395
  Solvation  Ediel_sol  =         0.00000000
  ---------------------------------------------------
  free energy    TOTEN  =      -176.98212580 eV

  energy without entropy =     -177.18752124  energy(sigma->0) =     -177.03347466


--------------------------------------------------------------------------------------------------------




--------------------------------------- Iteration      1(  15)  ---------------------------------------


    POTLOK:  cpu time   13.4841: real time   13.4873
    SETDIJ:  cpu time    0.1278: real time    0.1278
    EDDIAG:  cpu time   69.3294: real time   69.3309
  RMM-DIIS:  cpu time  187.9714: real time  187.9736
    ORTHCH:  cpu time   14.2070: real time   14.2070
       DOS:  cpu time    0.0016: real time    0.0016
    CHARGE:  cpu time   26.3103: real time   26.3105
    MIXING:  cpu time    0.7765: real time    0.7766
    --------------------------------------------
      LOOP:  cpu time  312.2080: real time  312.2152

 eigenvalue-minimisations  :   712
 total energy-change (2. order) : 0.3446519E+00  (-0.1883549E+00)
 number of electron     559.9999926 magnetization 
 augmentation part      241.4997679 magnetization 

 Broyden mixing:
  rms(total) = 0.20880E+01    rms(broyden)= 0.20877E+01
  rms(prec ) = 0.23786E+01
  weight for this iteration     100.00

 eigenvalues of (default mixing * dielectric matrix)
  average eigenvalue GAMMA=   0.3026
  1.5249  0.4449  0.2481  0.2481  0.1184  0.1184  0.0962  0.0962  0.0696  0.0614

 Free energy of the ion-electron system (eV)
  ---------------------------------------------------
  alpha Z        PSCENC =        75.25431677
  Ewald energy   TEWEN  =    140310.35304027
  -Hartree energ DENC   =   -184357.42522482
  -exchange      EXHF   =         0.00000000
  -V(xc)+E(xc)   XCENC  =     -1693.33871181
  PAW double counting   =     46353.00163904   -42836.11062941
  entropy T*S    EENTRO =         0.02000928
  eigenvalues    EBANDS =     -3114.89740714
  atomic energy  EATOM  =     45086.50549395
  Solvation  Ediel_sol  =         0.00000000
  ---------------------------------------------------
  free energy    TOTEN  =      -176.63747387 eV

  energy without entropy =     -176.65748315  energy(sigma->0) =     -176.64247619


--------------------------------------------------------------------------------------------------------




--------------------------------------- Iteration      1(  16)  ---------------------------------------


    POTLOK:  cpu time   13.5027: real time   13.5061
    SETDIJ:  cpu time    0.1271: real time    0.1271
    EDDIAG:  cpu time   69.2350: real time   69.2376
  RMM-DIIS:  cpu time  184.9507: real time  184.9547
    ORTHCH:  cpu time   14.1539: real time   14.1538
       DOS:  cpu time    0.0015: real time    0.0015
    CHARGE:  cpu time   26.8852: real time   26.8882
    MIXING:  cpu time    0.8696: real time    0.8697
    --------------------------------------------
      LOOP:  cpu time  309.7257: real time  309.7386

 eigenvalue-minimisations  :   700
 total energy-change (2. order) : 0.7103835E+00  (-0.1580877E+00)
 number of electron     559.9999920 magnetization 
 augmentation part      241.3186700 magnetization 

 Broyden mixing:
  rms(total) = 0.17173E+01    rms(broyden)= 0.17170E+01
  rms(prec ) = 0.19634E+01
  weight for this iteration     100.00

 eigenvalues of (default mixing * dielectric matrix)
  average eigenvalue GAMMA=   0.3015
  1.6214  0.5354  0.2392  0.2392  0.1326  0.1326  0.0991  0.0991  0.0833  0.0673
  0.0673

 Free energy of the ion-electron system (eV)
  ---------------------------------------------------
  alpha Z        PSCENC =        75.25431677
  Ewald energy   TEWEN  =    140310.35304027
  -Hartree energ DENC   =   -184387.62193432
  -exchange      EXHF   =         0.00000000
  -V(xc)+E(xc)   XCENC  =     -1692.86900879
  PAW double counting   =     46406.12954940   -42887.20937962
  entropy T*S    EENTRO =        -0.00194767
  eigenvalues    EBANDS =     -3086.46722037
  atomic energy  EATOM  =     45086.50549395
  Solvation  Ediel_sol  =         0.00000000
  ---------------------------------------------------
  free energy    TOTEN  =      -175.92709037 eV

  energy without entropy =     -175.92514271  energy(sigma->0) =     -175.92660346


--------------------------------------------------------------------------------------------------------




--------------------------------------- Iteration      1(  17)  ---------------------------------------


    POTLOK:  cpu time   13.3041: real time   13.3067
    SETDIJ:  cpu time    0.1230: real time    0.1230
    EDDIAG:  cpu time   69.4256: real time   69.4277
  RMM-DIIS:  cpu time  186.9363: real time  186.9403
    ORTHCH:  cpu time   14.2156: real time   14.2158
       DOS:  cpu time    0.0015: real time    0.0015
    CHARGE:  cpu time   26.9611: real time   26.9614
    MIXING:  cpu time    0.9261: real time    0.9261
    --------------------------------------------
      LOOP:  cpu time  311.8932: real time  311.9023

 eigenvalue-minimisations  :   708
 total energy-change (2. order) :-0.1308564E+00  (-0.9993991E-01)
 number of electron     559.9999896 magnetization 
 augmentation part      241.2161925 magnetization 

 Broyden mixing:
  rms(total) = 0.23464E+01    rms(broyden)= 0.23462E+01
  rms(prec ) = 0.27173E+01
  weight for this iteration     100.00

 eigenvalues of (default mixing * dielectric matrix)
  average eigenvalue GAMMA=   0.2931
  1.6714  0.5918  0.2494  0.2494  0.1377  0.1377  0.0902  0.0902  0.0869  0.0869
  0.0765  0.0489

 Free energy of the ion-electron system (eV)
  ---------------------------------------------------
  alpha Z        PSCENC =        75.25431677
  Ewald energy   TEWEN  =    140310.35304027
  -Hartree energ DENC   =   -184408.44016477
  -exchange      EXHF   =         0.00000000
  -V(xc)+E(xc)   XCENC  =     -1692.57319903
  PAW double counting   =     46442.25479015   -42921.91417315
  entropy T*S    EENTRO =         0.11457674
  eigenvalues    EBANDS =     -3067.61262771
  atomic energy  EATOM  =     45086.50549395
  Solvation  Ediel_sol  =         0.00000000
  ---------------------------------------------------
  free energy    TOTEN  =      -176.05794678 eV

  energy without entropy =     -176.17252352  energy(sigma->0) =     -176.08659097


--------------------------------------------------------------------------------------------------------




--------------------------------------- Iteration      1(  18)  ---------------------------------------


    POTLOK:  cpu time   13.2791: real time   13.2825
    SETDIJ:  cpu time    0.1288: real time    0.1288
    EDDIAG:  cpu time   69.4069: real time   69.4069
  RMM-DIIS:  cpu time  184.4978: real time  184.5023
    ORTHCH:  cpu time   14.2044: real time   14.2043
       DOS:  cpu time    0.0015: real time    0.0015
    CHARGE:  cpu time   27.0617: real time   27.0613
    MIXING:  cpu time    1.0040: real time    1.0040
    --------------------------------------------
      LOOP:  cpu time  309.5842: real time  309.5917

 eigenvalue-minimisations  :   701
 total energy-change (2. order) : 0.7581645E+00  (-0.6984006E-01)
 number of electron     559.9999917 magnetization 
 augmentation part      241.0667490 magnetization 

 Broyden mixing:
  rms(total) = 0.11262E+01    rms(broyden)= 0.11260E+01
  rms(prec ) = 0.12983E+01
  weight for this iteration     100.00

 eigenvalues of (default mixing * dielectric matrix)
  average eigenvalue GAMMA=   0.2995
  1.7266  0.6730  0.3057  0.3057  0.1205  0.1205  0.1522  0.1348  0.0861  0.0861
  0.0668  0.0668  0.0493

 Free energy of the ion-electron system (eV)
  ---------------------------------------------------
  alpha Z        PSCENC =        75.25431677
  Ewald energy   TEWEN  =    140310.35304027
  -Hartree energ DENC   =   -184425.21357167
  -exchange      EXHF   =         0.00000000
  -V(xc)+E(xc)   XCENC  =     -1692.35181129
  PAW double counting   =     46465.17156390   -42943.84187592
  entropy T*S    EENTRO =        -0.00330019
  eigenvalues    EBANDS =     -3051.17363809
  atomic energy  EATOM  =     45086.50549395
  Solvation  Ediel_sol  =         0.00000000
  ---------------------------------------------------
  free energy    TOTEN  =      -175.29978228 eV

  energy without entropy =     -175.29648208  energy(sigma->0) =     -175.29895723


--------------------------------------------------------------------------------------------------------




--------------------------------------- Iteration      1(  19)  ---------------------------------------


    POTLOK:  cpu time   13.3803: real time   13.3836
    SETDIJ:  cpu time    0.1187: real time    0.1187
    EDDIAG:  cpu time   69.2734: real time   69.2731
  RMM-DIIS:  cpu time  187.1670: real time  187.1740
    ORTHCH:  cpu time   14.1812: real time   14.1814
       DOS:  cpu time    0.0015: real time    0.0015
    CHARGE:  cpu time   26.9308: real time   26.9312
    MIXING:  cpu time    1.0658: real time    1.0659
    --------------------------------------------
      LOOP:  cpu time  312.1187: real time  312.1292

 eigenvalue-minimisations  :   712
 total energy-change (2. order) : 0.1040451E+00  (-0.4817870E-01)
 number of electron     559.9999912 magnetization 
 augmentation part      240.9945780 magnetization 

 Broyden mixing:
  rms(total) = 0.10641E+01    rms(broyden)= 0.10639E+01
  rms(prec ) = 0.12447E+01
  weight for this iteration     100.00

 eigenvalues of (default mixing * dielectric matrix)
  average eigenvalue GAMMA=   0.3069
  1.7903  0.7568  0.3760  0.3760  0.1308  0.1308  0.1442  0.1442  0.0842  0.0842
  0.0955  0.0657  0.0657  0.0520

 Free energy of the ion-electron system (eV)
  ---------------------------------------------------
  alpha Z        PSCENC =        75.25431677
  Ewald energy   TEWEN  =    140310.35304027
  -Hartree energ DENC   =   -184441.47585920
  -exchange      EXHF   =         0.00000000
  -V(xc)+E(xc)   XCENC  =     -1692.15395725
  PAW double counting   =     46484.49377216   -42962.20346481
  entropy T*S    EENTRO =         0.04429931
  eigenvalues    EBANDS =     -3036.01337836
  atomic energy  EATOM  =     45086.50549395
  Solvation  Ediel_sol  =         0.00000000
  ---------------------------------------------------
  free energy    TOTEN  =      -175.19573717 eV

  energy without entropy =     -175.24003648  energy(sigma->0) =     -175.20681200


--------------------------------------------------------------------------------------------------------




--------------------------------------- Iteration      1(  20)  ---------------------------------------


    POTLOK:  cpu time   13.5962: real time   13.5997
    SETDIJ:  cpu time    0.1235: real time    0.1235
    EDDIAG:  cpu time   68.9663: real time   68.9689
  RMM-DIIS:  cpu time  183.4088: real time  183.4155
    ORTHCH:  cpu time   14.2186: real time   14.2189
       DOS:  cpu time    0.0016: real time    0.0016
    CHARGE:  cpu time   26.9885: real time   26.9890
    MIXING:  cpu time    1.1625: real time    1.1625
    --------------------------------------------
      LOOP:  cpu time  308.4659: real time  308.4795

 eigenvalue-minimisations  :   697
 total energy-change (2. order) : 0.1374863E-01  (-0.4115836E-01)
 number of electron     559.9999919 magnetization 
 augmentation part      241.1651593 magnetization 

 Broyden mixing:
  rms(total) = 0.12728E+01    rms(broyden)= 0.12727E+01
  rms(prec ) = 0.15360E+01
  weight for this iteration     100.00

 eigenvalues of (default mixing * dielectric matrix)
  average eigenvalue GAMMA=   0.3083
  1.8270  0.8428  0.4182  0.4182  0.1632  0.1632  0.1338  0.1338  0.1035  0.0846
  0.0846  0.0777  0.0602  0.0602  0.0530

 Free energy of the ion-electron system (eV)
  ---------------------------------------------------
  alpha Z        PSCENC =        75.25431677
  Ewald energy   TEWEN  =    140310.35304027
  -Hartree energ DENC   =   -184451.10796972
  -exchange      EXHF   =         0.00000000
  -V(xc)+E(xc)   XCENC  =     -1692.00816188
  PAW double counting   =     46495.53968436   -42972.48555236
  entropy T*S    EENTRO =         0.08626138
  eigenvalues    EBANDS =     -3027.31910131
  atomic energy  EATOM  =     45086.50549395
  Solvation  Ediel_sol  =         0.00000000
  ---------------------------------------------------
  free energy    TOTEN  =      -175.18198854 eV

  energy without entropy =     -175.26824992  energy(sigma->0) =     -175.20355388


--------------------------------------------------------------------------------------------------------




--------------------------------------- Iteration      1(  21)  ---------------------------------------


    POTLOK:  cpu time   13.7309: real time   13.7345
    SETDIJ:  cpu time    0.1241: real time    0.1241
    EDDIAG:  cpu time   69.2047: real time   69.2061
  RMM-DIIS:  cpu time  183.3568: real time  183.3618
    ORTHCH:  cpu time   14.2858: real time   14.2859
       DOS:  cpu time    0.0015: real time    0.0015
    CHARGE:  cpu time   27.0092: real time   27.0092
    MIXING:  cpu time    1.2033: real time    1.2033
    --------------------------------------------
      LOOP:  cpu time  308.9162: real time  308.9265

 eigenvalue-minimisations  :   698
 total energy-change (2. order) : 0.2401000E+00  (-0.2941288E-01)
 number of electron     559.9999903 magnetization 
 augmentation part      241.2209113 magnetization 

 Broyden mixing:
  rms(total) = 0.10498E+01    rms(broyden)= 0.10496E+01
  rms(prec ) = 0.12235E+01
  weight for this iteration     100.00

 eigenvalues of (default mixing * dielectric matrix)
  average eigenvalue GAMMA=   0.3145
  1.8829  0.9743  0.4567  0.4567  0.1963  0.1963  0.1273  0.1273  0.1031  0.1031
  0.0850  0.0850  0.0657  0.0657  0.0533  0.0533

 Free energy of the ion-electron system (eV)
  ---------------------------------------------------
  alpha Z        PSCENC =        75.25431677
  Ewald energy   TEWEN  =    140310.35304027
  -Hartree energ DENC   =   -184460.78594284
  -exchange      EXHF   =         0.00000000
  -V(xc)+E(xc)   XCENC  =     -1691.90171411
  PAW double counting   =     46501.09814881   -42977.50925594
  entropy T*S    EENTRO =         0.02960996
  eigenvalues    EBANDS =     -3017.98558537
  atomic energy  EATOM  =     45086.50549395
  Solvation  Ediel_sol  =         0.00000000
  ---------------------------------------------------
  free energy    TOTEN  =      -174.94188850 eV

  energy without entropy =     -174.97149846  energy(sigma->0) =     -174.94929099


--------------------------------------------------------------------------------------------------------




--------------------------------------- Iteration      1(  22)  ---------------------------------------


    POTLOK:  cpu time   13.9782: real time   13.9808
    SETDIJ:  cpu time    0.1236: real time    0.1236
    EDDIAG:  cpu time   69.4955: real time   69.4965
  RMM-DIIS:  cpu time  182.5620: real time  182.5696
    ORTHCH:  cpu time   14.1445: real time   14.1445
       DOS:  cpu time    0.0015: real time    0.0015
    CHARGE:  cpu time   26.7404: real time   26.7402
    MIXING:  cpu time    1.2381: real time    1.2399
    --------------------------------------------
      LOOP:  cpu time  308.2837: real time  308.2965

 eigenvalue-minimisations  :   697
 total energy-change (2. order) : 0.9652423E-01  (-0.2803034E-01)
 number of electron     559.9999912 magnetization 
 augmentation part      241.2537344 magnetization 

 Broyden mixing:
  rms(total) = 0.10355E+01    rms(broyden)= 0.10354E+01
  rms(prec ) = 0.11888E+01
  weight for this iteration     100.00

 eigenvalues of (default mixing * dielectric matrix)
  average eigenvalue GAMMA=   0.3152
  1.9539  0.9949  0.4829  0.4829  0.2372  0.2372  0.1281  0.1281  0.1096  0.1096
  0.0850  0.0850  0.0881  0.0662  0.0662  0.0518  0.0518

 Free energy of the ion-electron system (eV)
  ---------------------------------------------------
  alpha Z        PSCENC =        75.25431677
  Ewald energy   TEWEN  =    140310.35304027
  -Hartree energ DENC   =   -184475.20675295
  -exchange      EXHF   =         0.00000000
  -V(xc)+E(xc)   XCENC  =     -1691.76366437
  PAW double counting   =     46507.59991112   -42983.32495699
  entropy T*S    EENTRO =         0.01769015
  eigenvalues    EBANDS =     -3004.28044222
  atomic energy  EATOM  =     45086.50549395
  Solvation  Ediel_sol  =         0.00000000
  ---------------------------------------------------
  free energy    TOTEN  =      -174.84536427 eV

  energy without entropy =     -174.86305441  energy(sigma->0) =     -174.84978680


--------------------------------------------------------------------------------------------------------




--------------------------------------- Iteration      1(  23)  ---------------------------------------


    POTLOK:  cpu time   13.9320: real time   13.9350
    SETDIJ:  cpu time    0.1239: real time    0.1239
    EDDIAG:  cpu time   69.4114: real time   69.4119
  RMM-DIIS:  cpu time  181.1560: real time  181.1591
    ORTHCH:  cpu time   14.1226: real time   14.1226
       DOS:  cpu time    0.0015: real time    0.0014
    CHARGE:  cpu time   26.6113: real time   26.6112
    MIXING:  cpu time    1.3031: real time    1.3031
    --------------------------------------------
      LOOP:  cpu time  306.6617: real time  306.6682

 eigenvalue-minimisations  :   692
 total energy-change (2. order) : 0.3319345E+00  (-0.1915771E-01)
 number of electron     559.9999918 magnetization 
 augmentation part      241.2273995 magnetization 

 Broyden mixing:
  rms(total) = 0.63209E+00    rms(broyden)= 0.63194E+00
  rms(prec ) = 0.72022E+00
  weight for this iteration     100.00

 eigenvalues of (default mixing * dielectric matrix)
  average eigenvalue GAMMA=   0.3180
[...]
 -0.003  -0.011   0.001   0.007   0.003  -0.002  -0.011   0.000
 -0.004  -0.019   0.001   0.012   0.005  -0.004  -0.018   0.001
 -0.017  -0.002   0.012   0.000   0.021  -0.017  -0.002   0.012
  0.000  -0.021  -0.003  -0.018   0.000   0.000  -0.021  -0.003
 -0.021   0.000   0.010  -0.002  -0.018  -0.020   0.000   0.010
 -0.021  -0.003   0.015   0.000   0.026  -0.020  -0.003   0.014
  0.000  -0.026  -0.004  -0.022   0.000   0.000  -0.025  -0.003
 -0.025   0.000   0.012  -0.003  -0.022  -0.025   0.000   0.012
 total augmentation occupancy for first ion, spin component:           1
  1.455   0.009  -0.001  -0.018   0.027   0.102  -0.028   0.000   0.053  -0.012   0.029  -0.006   0.009  -0.004   0.013  -0.020
  0.009   1.352   0.021   0.080   0.016  -0.026   0.099   0.017  -0.028  -0.013   0.240  -0.065   0.022   0.007  -0.004  -0.005
 -0.001   0.021   1.474   0.013   0.007  -0.000   0.018   0.098  -0.021   0.014  -0.007  -0.002  -0.004  -0.002  -0.006   0.016
 -0.018   0.080   0.013   1.318   0.043   0.052  -0.027  -0.020   0.115  -0.027  -0.150   0.041  -0.002  -0.015   0.004   0.001
  0.027   0.016   0.007   0.043   1.417  -0.013  -0.013   0.014  -0.026   0.080  -0.059   0.016  -0.003  -0.009  -0.013   0.027
  0.102  -0.026  -0.000   0.052  -0.013   0.219   0.020   0.001  -0.049   0.005  -0.060   0.007   0.016  -0.009   0.034  -0.004
 -0.028   0.099   0.018  -0.027  -0.013   0.020   0.265  -0.024  -0.003   0.006  -0.103   0.006  -0.001   0.051  -0.008  -0.000
  0.000   0.017   0.098  -0.020   0.014   0.001  -0.024   0.219   0.015  -0.021   0.030  -0.004  -0.012   0.008  -0.017   0.003
  0.053  -0.028  -0.021   0.115  -0.026  -0.049  -0.003   0.015   0.269   0.005   0.038   0.001  -0.010   0.038   0.002  -0.000
 -0.012  -0.013   0.014  -0.027   0.080   0.005   0.006  -0.021   0.005   0.265   0.046  -0.005  -0.039   0.002   0.050   0.008
  0.029   0.240  -0.007  -0.150  -0.059  -0.060  -0.103   0.030   0.038   0.046   0.980  -0.146   0.086   0.015   0.062  -0.011
 -0.006  -0.065  -0.002   0.041   0.016   0.007   0.006  -0.004   0.001  -0.005  -0.146   0.023  -0.014  -0.003  -0.009   0.002
  0.009   0.022  -0.004  -0.002  -0.003   0.016  -0.001  -0.012  -0.010  -0.039   0.086  -0.014   0.029  -0.008  -0.004  -0.003
 -0.004   0.007  -0.002  -0.015  -0.009  -0.009   0.051   0.008   0.038   0.002   0.015  -0.003  -0.008   0.035   0.006   0.000
  0.013  -0.004  -0.006   0.004  -0.013   0.034  -0.008  -0.017   0.002   0.050   0.062  -0.009  -0.004   0.006   0.033  -0.000
 -0.020  -0.005   0.016   0.001   0.027  -0.004  -0.000   0.003  -0.000   0.008  -0.011   0.002  -0.003   0.000  -0.000   0.001
  0.001  -0.027  -0.006  -0.020   0.000   0.001  -0.009  -0.001  -0.007   0.000  -0.003   0.001   0.000  -0.003  -0.000   0.000
 -0.028   0.000   0.012  -0.004  -0.020  -0.007   0.001   0.003  -0.001  -0.007  -0.007   0.001  -0.000  -0.000  -0.004   0.000


------------------------ aborting loop because EDIFF is reached ----------------------------------------


    CHARGE:  cpu time   24.9979: real time   25.0008
    FORLOC:  cpu time    6.7344: real time    6.7347
    FORNL :  cpu time   65.1209: real time   65.1286
    STRESS:  cpu time  198.9797: real time  198.9874
    FORCOR:  cpu time   21.9984: real time   21.9985
    FORHAR:  cpu time    9.6640: real time    9.6642
    MIXING:  cpu time    3.9315: real time    3.9316
    OFIELD:  cpu time    0.0000: real time    0.0000

  FORCE on cell =-STRESS in cart. coord.  units (eV):
  Direction    XX          YY          ZZ          XY          YZ          ZX
  --------------------------------------------------------------------------------------
  Alpha Z    75.25432    75.25432    75.25432
  Ewald   47868.10455 46685.96109 45756.18132  1185.43023  -288.11235  -785.90330
  Hartree 62623.85994 61480.24952 60555.92724  1124.35601  -351.63515  -622.10068
  E(xc)   -2907.01501 -2906.83459 -2907.23373     0.31859     0.75232    -0.97742
  Local  ************************************ -2300.18908   650.37125  1384.14054
  n-local  -880.39346  -881.39626  -870.71051    -7.41840     5.30558    -6.03252
  augment  4104.19270  4104.81846  4099.85263     2.59720    -5.69323     6.82915
  Kinetic  7812.11185  7816.65577  7812.49504    -1.81178    -9.98754    16.16989
  Fock        0.00000     0.00000     0.00000     0.00000     0.00000     0.00000
  -------------------------------------------------------------------------------------
  Total    -101.93040  -105.93199  -102.91479     3.28278     1.00087    -7.87434
  in kB      -6.04854    -6.28599    -6.10695     0.19480     0.05939    -0.46726
  external pressure =       -6.15 kB  Pullay stress =        0.00 kB


 VOLUME and BASIS-vectors are now :
 -----------------------------------------------------------------------------
  energy-cutoff  :      400.00
  volume of cell :    27000.00
      direct lattice vectors                 reciprocal lattice vectors
    30.000000000  0.000000000  0.000000000     0.033333333  0.000000000  0.000000000
     0.000000000 30.000000000  0.000000000     0.000000000  0.033333333  0.000000000
     0.000000000  0.000000000 30.000000000     0.000000000  0.000000000  0.033333333

  length of vectors
    30.000000000 30.000000000 30.000000000     0.033333333  0.033333333  0.033333333


 FORCES acting on ions
    electron-ion (+dipol)            ewald-force                    non-local-force                 convergence-correction
 -----------------------------------------------------------------------------------------------
   0.366E+03 0.985E+03 0.450E+03   -.364E+03 -.982E+03 -.450E+03   -.145E+01 -.204E+01 -.356E+00   0.327E-02 -.177E-02 0.222E-02
   -.976E+03 -.397E+03 0.419E+03   0.973E+03 0.395E+03 -.418E+03   0.182E+01 0.152E+01 -.213E+00   0.116E-02 -.367E-02 0.132E-02
   -.411E+03 0.975E+03 0.427E+03   0.409E+03 -.972E+03 -.427E+03   0.149E+01 -.183E+01 -.238E+00   0.236E-02 0.457E-03 0.253E-02
   0.972E+03 -.419E+03 0.436E+03   -.969E+03 0.417E+03 -.435E+03   -.184E+01 0.148E+01 -.219E+00   -.755E-03 0.477E-03 0.192E-02
   -.126E+02 0.586E+03 0.980E+03   0.126E+02 -.585E+03 -.976E+03   0.466E-02 -.311E+00 -.235E+01   0.426E-02 0.447E-03 0.190E-03
   -.338E+02 0.586E+03 -.986E+03   0.339E+02 -.586E+03 0.983E+03   -.411E-01 -.322E+00 0.235E+01   0.115E-02 -.477E-03 -.427E-02
   -.299E+02 0.115E+04 0.976E+01   0.299E+02 -.115E+04 -.977E+01   0.126E-01 -.314E+01 0.483E-02   0.300E-02 0.203E-02 0.384E-02
   0.117E+04 -.631E+02 0.289E+02   -.116E+04 0.633E+02 -.290E+02   -.308E+01 -.110E+00 0.329E-01   0.230E-03 -.140E-02 0.440E-02
   -.114E+04 -.255E+01 0.119E+01   0.113E+04 0.254E+01 -.118E+01   0.311E+01 0.102E-01 -.100E-01   -.269E-02 -.800E-03 0.135E-02
   -.417E+01 -.114E+04 0.140E+01   0.417E+01 0.113E+04 -.140E+01   0.349E-02 0.311E+01 -.274E-02   -.746E-03 0.841E-03 0.842E-02
   -.586E+03 0.577E+03 0.819E+03   0.584E+03 -.575E+03 -.815E+03   0.155E+01 -.156E+01 -.220E+01   -.101E-04 0.402E-03 0.860E-03
   -.593E+03 0.577E+03 -.818E+03   0.590E+03 -.575E+03 0.814E+03   0.158E+01 -.154E+01 0.219E+01   -.340E-02 -.155E-02 -.417E-02
   0.575E+03 -.588E+03 0.821E+03   -.573E+03 0.585E+03 -.818E+03   -.154E+01 0.156E+01 -.220E+01   -.131E-02 0.228E-02 -.326E-02
   0.573E+03 -.598E+03 -.821E+03   -.571E+03 0.595E+03 0.818E+03   -.152E+01 0.160E+01 0.219E+01   0.240E-02 -.208E-02 -.926E-03
   0.570E+03 0.577E+03 0.843E+03   -.568E+03 -.575E+03 -.840E+03   -.156E+01 -.156E+01 -.228E+01   0.170E-02 -.341E-02 -.843E-03
   0.530E+03 0.575E+03 -.912E+03   -.527E+03 -.572E+03 0.909E+03   -.168E+01 -.154E+01 0.194E+01   0.315E-02 0.441E-03 -.310E-03
   -.582E+03 -.582E+03 0.815E+03   0.580E+03 0.579E+03 -.812E+03   0.157E+01 0.156E+01 -.219E+01   0.553E-02 -.609E-02 -.267E-02
   -.584E+03 -.583E+03 -.814E+03   0.582E+03 0.581E+03 0.811E+03   0.156E+01 0.156E+01 0.220E+01   -.202E-02 -.174E-03 -.260E-02
   0.310E+03 0.102E+04 -.440E+03   -.308E+03 -.101E+04 0.440E+03   -.165E+01 -.168E+01 0.161E+00   0.492E-02 0.112E-02 0.135E-02
   -.978E+03 -.398E+03 -.416E+03   0.975E+03 0.396E+03 0.416E+03   0.182E+01 0.150E+01 0.226E+00   -.278E-02 -.182E-03 0.362E-03
   -.338E+03 0.316E+03 0.464E+03   0.339E+03 -.316E+03 -.464E+03   -.360E+00 0.350E+00 0.500E+00   0.316E-02 -.300E-02 -.712E-03
   0.976E+03 0.365E+03 0.479E+03   -.973E+03 -.363E+03 -.479E+03   -.188E+01 -.152E+01 -.136E+00   0.122E-03 -.592E-02 0.978E-03
   -.399E+03 -.976E+03 0.419E+03   0.396E+03 0.973E+03 -.418E+03   0.151E+01 0.182E+01 -.222E+00   0.144E-02 0.858E-03 0.598E-02
   -.422E+03 0.978E+03 -.420E+03   0.420E+03 -.975E+03 0.419E+03   0.152E+01 -.183E+01 0.195E+00   -.120E-03 0.169E-02 -.628E-03
   0.974E+03 -.445E+03 -.425E+03   -.971E+03 0.442E+03 0.425E+03   -.190E+01 0.168E+01 0.128E+00   0.395E-02 0.361E-03 0.481E-02
   -.978E+03 0.392E+03 0.420E+03   0.975E+03 -.390E+03 -.419E+03   0.182E+01 -.151E+01 -.233E+00   -.290E-02 -.188E-02 -.353E-03
   0.389E+03 -.980E+03 0.421E+03   -.387E+03 0.977E+03 -.420E+03   -.151E+01 0.181E+01 -.234E+00   -.404E-02 0.336E-02 0.472E-02
   0.292E+03 0.305E+03 0.490E+03   -.293E+03 -.306E+03 -.490E+03   0.431E+00 0.475E+00 0.495E+00   0.482E-02 -.357E-02 0.117E-02
   -.520E+02 0.639E+03 0.169E+02   0.521E+02 -.640E+03 -.170E+02   -.228E-01 0.755E+00 0.554E-01   0.478E-02 -.303E-02 0.601E-02
   -.593E+03 -.320E+01 0.969E+03   0.592E+03 0.322E+01 -.966E+03   0.320E+00 -.114E-01 -.236E+01   -.308E-03 -.564E-02 -.208E-03
   -.597E+03 -.505E+01 -.968E+03   0.596E+03 0.508E+01 0.965E+03   0.307E+00 -.181E-01 0.234E+01   -.221E-02 -.821E-03 -.316E-02
   0.581E+03 -.117E+02 0.985E+03   -.580E+03 0.117E+02 -.981E+03   -.287E+00 -.324E-02 -.237E+01   0.317E-02 -.397E-02 -.325E-02
   0.570E+03 -.405E+02 -.100E+04   -.569E+03 0.408E+02 0.998E+03   -.296E+00 -.126E+00 0.242E+01   0.285E-02 -.107E-02 -.394E-03
   0.555E+03 0.799E+03 0.275E+03   -.555E+03 -.795E+03 -.271E+03   0.426E+01 -.379E+01 -.947E+01   0.297E-02 -.232E-02 0.411E-02
   -.767E+03 -.766E+03 0.157E+01   0.765E+03 0.764E+03 -.154E+01   0.116E+01 0.113E+01 -.268E-01   0.181E-02 -.296E-02 0.812E-02
   -.777E+03 0.760E+03 0.344E+01   0.775E+03 -.758E+03 -.346E+01   0.115E+01 -.113E+01 0.913E-02   -.231E-02 -.177E-02 0.332E-02
   0.755E+03 -.784E+03 0.563E+01   -.753E+03 0.782E+03 -.566E+01   -.112E+01 0.120E+01 0.172E-01   0.173E-02 0.124E-02 0.773E-02
   -.920E+01 -.660E+01 0.108E+04   0.921E+01 0.661E+01 -.108E+04   -.103E-01 -.196E-02 -.159E+01   0.535E-02 -.564E-02 -.218E-02
   -.207E+02 -.148E+02 -.108E+04   0.207E+02 0.148E+02 0.108E+04   0.366E-01 0.547E-01 0.166E+01   -.474E-03 -.120E-02 -.310E-02
   0.103E+04 0.124E+03 -.558E+03   -.102E+04 -.123E+03 0.556E+03   -.295E+01 0.165E+01 0.222E+01   0.476E-02 -.110E-02 0.486E-02
   -.400E+03 -.978E+03 -.417E+03   0.398E+03 0.975E+03 0.416E+03   0.149E+01 0.182E+01 0.233E+00   -.389E-03 -.220E-02 0.237E-02
   -.348E+03 0.313E+03 -.456E+03   0.349E+03 -.314E+03 0.457E+03   -.298E+00 0.369E+00 -.512E+00   -.488E-03 -.347E-02 0.593E-03
   0.309E+03 -.339E+03 0.467E+03   -.310E+03 0.339E+03 -.468E+03   0.378E+00 -.336E+00 0.489E+00   0.352E-02 -.340E-02 0.335E-02
   0.227E+03 0.270E+03 -.482E+03   -.227E+03 -.270E+03 0.483E+03   -.179E+00 0.132E+00 -.796E+00   0.346E-02 -.120E-02 0.387E-02
   -.981E+03 0.391E+03 -.417E+03   0.978E+03 -.389E+03 0.416E+03   0.181E+01 -.151E+01 0.241E+00   -.386E-02 -.170E-02 -.484E-03
   0.388E+03 -.984E+03 -.417E+03   -.386E+03 0.981E+03 0.417E+03   -.150E+01 0.179E+01 0.235E+00   0.308E-02 -.174E-02 0.229E-02
   -.331E+03 -.329E+03 0.459E+03   0.331E+03 0.329E+03 -.460E+03   -.358E+00 -.359E+00 0.533E+00   0.355E-02 -.935E-02 0.250E-02
   0.609E+03 -.768E+02 0.352E+02   -.610E+03 0.774E+02 -.354E+02   0.654E+00 -.429E+00 0.200E+00   0.453E-02 -.207E-02 0.793E-02
   -.651E+03 -.598E+01 0.275E+01   0.652E+03 0.598E+01 -.276E+01   -.735E+00 0.508E-02 0.948E-03   -.598E-03 -.276E-02 0.400E-02
   -.506E+01 -.593E+03 0.970E+03   0.508E+01 0.592E+03 -.966E+03   -.199E-01 0.321E+00 -.235E+01   -.771E-03 -.492E-02 -.448E-02
   -.840E+01 -.597E+03 -.969E+03   0.843E+01 0.597E+03 0.965E+03   -.196E-01 0.307E+00 0.233E+01   0.992E-03 -.106E-02 -.280E-02
   -.294E+02 -.210E+02 0.961E+01   0.294E+02 0.210E+02 -.961E+01   0.180E-01 0.155E-01 -.471E-02   0.314E-02 -.299E-02 0.733E-02
   0.301E+03 -.352E+03 -.458E+03   -.302E+03 0.353E+03 0.459E+03   0.401E+00 -.306E+00 -.513E+00   0.244E-02 -.127E-02 0.390E-02
   -.335E+03 -.332E+03 -.454E+03   0.335E+03 0.332E+03 0.455E+03   -.377E+00 -.380E+00 -.508E+00   -.444E-03 -.514E-03 0.185E-02
   -.101E+02 -.652E+03 0.332E+01   0.101E+02 0.653E+03 -.334E+01   -.171E-01 -.732E+00 0.415E-02   0.950E-03 -.135E-02 0.116E-01
   0.187E+03 0.161E+03 -.836E+02   -.172E+03 -.148E+03 0.810E+02   -.113E+02 -.683E+01 0.425E+01   0.166E-02 -.859E-03 0.164E-02
   0.739E+03 0.614E+03 -.192E+03   -.792E+03 -.656E+03 0.208E+03   0.440E+02 0.351E+02 -.125E+02   0.185E-02 -.131E-02 0.182E-02
 -----------------------------------------------------------------------------------------------
   -.363E+02 -.281E+02 0.162E+02   0.227E-12 -.182E-11 0.000E+00   0.363E+02 0.282E+02 -.163E+02   0.706E-01 -.916E-01 0.948E-01
 
 
 POSITION                                       TOTAL-FORCE (eV/Angst)
 -----------------------------------------------------------------------------------
     13.37281      9.84801     12.50759         0.740394      1.073667      0.224544
     20.15199     16.62719     12.50759        -1.101687     -0.708123      0.288905
     16.62719      9.84801     12.50759        -0.694807      1.111074      0.301214
      9.84801     16.62719     12.50759         1.109639     -0.694023      0.295210
     15.00000     11.47521     10.20639        -0.005643      0.423915      1.283038
     15.00000     11.47521     19.79360         0.018435      0.418763     -1.276282
     15.00000      8.28283     15.00000        -0.001467      1.505883      0.000083
      8.28283     15.00000     15.00000         1.449096      0.074833     -0.038015
     21.71717     15.00000     15.00000        -1.512765     -0.005561      0.004873
     15.00000     21.71717     15.00000        -0.002025     -1.514483      0.001216
     18.35858     11.64142     10.25025        -0.753838      0.753084      1.071717
     18.35858     11.64142     19.74975        -0.762495      0.744949     -1.060550
     11.64142     18.35858     10.25025         0.744990     -0.755558      1.071078
     11.64142     18.35858     19.74975         0.733740     -0.783885     -1.061758
     11.64142     11.64142     10.25025         0.746248      0.746534      1.080677
     11.64142     11.64142     19.74975         0.806321      0.728868     -0.889513
     18.35858     18.35858     10.25025        -0.760950     -0.755893      1.064158
     18.35858     18.35858     19.74975        -0.756430     -0.755377     -1.069983
     13.37281      9.84801     17.49241         0.786761      1.060845     -0.278005
     20.15199     16.62719     17.49241        -1.105676     -0.699794     -0.293042
     16.73751     13.26249     12.54279         0.106940     -0.109298     -0.152915
      9.84801     13.37281     12.50759         1.102815      0.741155      0.217992
     16.62719     20.15199     12.50759        -0.703894     -1.102573      0.293709
     16.62719      9.84801     17.49241        -0.698560      1.107018     -0.289172
      9.84801     16.62719     17.49241         1.120751     -0.665725     -0.271087
     20.15199     13.37281     12.50759        -1.102742      0.701959      0.296511
     13.37281     20.15199     12.50759         0.704686     -1.106784      0.296521
     13.26249     13.26249     12.54279        -0.080935     -0.101976     -0.197131
     15.00000     11.52498     15.00000         0.065355     -0.237918     -0.029315
     18.52479     15.00000     10.20639        -0.415651      0.004945      1.274557
     18.52479     15.00000     19.79360        -0.417861      0.002759     -1.282594
     11.47521     15.00000     10.20640         0.414150     -0.001814      1.281423
     11.47521     15.00000     19.79360         0.450626      0.094537     -1.238272
     11.49535     11.49535     15.00000         4.797688     -0.355639     -5.449896
     18.50465     18.50465     15.00000        -0.835871     -0.826437      0.011737
     18.50465     11.49535     15.00000        -0.826962      0.829046     -0.003764
     11.49535     18.50465     15.00000         0.830123     -0.842827     -0.007387
     15.00000     15.00000     10.04368         0.009928      0.005059      1.171556
     15.00000     15.00000     19.95633        -0.003895     -0.015391     -1.194999
      9.84801     13.37281     17.49241         1.074465      2.162388      0.389511
     16.62719     20.15199     17.49241        -0.699281     -1.108559     -0.296035
     16.73751     13.26249     17.45721         0.105902     -0.113110      0.161508
     13.26249     16.73751     12.54279        -0.109876      0.112440     -0.155512
     13.26249     13.26249     17.45721        -0.052434     -0.113662      0.192712
     20.15199     13.37281     17.49241        -1.100454      0.705517     -0.299564
     13.37281     20.15199     17.49241         0.706573     -1.106668     -0.299940
     16.73751     16.73751     12.54279         0.104920      0.107741     -0.158405
     11.52498     15.00000     15.00000        -0.195760      0.138813     -0.078579
     18.47502     15.00000     15.00000         0.225102     -0.002746      0.002373
     15.00000     18.52480     10.20639         0.005856     -0.416696      1.276792
     15.00000     18.52480     19.79360         0.004641     -0.418655     -1.281211
     15.00000     15.00000     15.00000         0.007892      0.011196      0.001834
     13.26249     16.73751     17.45721        -0.117419      0.111362      0.159338
     16.73751     16.73751     17.45721         0.112660      0.110792      0.154999
     15.00000     18.47502     15.00000         0.003046      0.228752     -0.002592
     10.66463     11.91972     16.40940         4.018950      6.082338      1.647876
      9.77577     11.28819     16.69836        -8.289313     -6.581058      3.137857
 -----------------------------------------------------------------------------------
    total drift:                                0.002561      0.007438     -0.008673


--------------------------------------------------------------------------------------------------------



  FREE ENERGIE OF THE ION-ELECTRON SYSTEM (eV)
  ---------------------------------------------------
  free  energy   TOTEN  =      -174.08525724 eV

  energy  without entropy=     -174.05096212  energy(sigma->0) =     -174.07668346
 


--------------------------------------------------------------------------------------------------------


    POTLOK:  cpu time   13.9414: real time   13.9416


--------------------------------------------------------------------------------------------------------


     LOOP+:  cpu time19116.0494: real time19117.0824
    4ORBIT:  cpu time    0.0000: real time    0.0000

 total amount of memory used by VASP MPI-rank0  5486941. kBytes
=======================================================================

   base      :      30000. kBytes
   nonlr-proj:      17126. kBytes
   fftplans  :     924480. kBytes
   grid      :    1872000. kBytes
   one-center:        886. kBytes
   wavefun   :    2642449. kBytes
 
  
  
 General timing and accounting informations for this job:
 ========================================================
  
                  Total CPU time used (sec):    19182.812
                            User time (sec):    18141.579
                          System time (sec):     1041.233
                         Elapsed time (sec):    19184.185
  
                   Maximum memory used (kb):     7177012.
                   Average memory used (kb):           0.
  
                          Minor page faults:    862144463
                          Major page faults:          219
                 Voluntary context switches:         1012
