 running on    1 total cores
 distrk:  each k-point on    1 cores,    1 groups
 distr:  one band on    1 cores,    1 groups
 using from now: INCAR     
 vasp.5.4.4.18Apr17-6-g9f103f2a35 (build Sep 03 2018 23:53:05) complex          
  
 POSCAR found type information on POSCAR  Pd C  O 
 POSCAR found :  3 types and      57 ions
 scaLAPACK will be used

 ----------------------------------------------------------------------------- 
|                                                                             |
|  ADVICE TO THIS USER RUNNING 'VASP/VAMP'   (HEAR YOUR MASTER'S VOICE ...):  |
|                                                                             |
|      You enforced a specific xc-type in the INCAR file,                     |
|      a different type was found on the POTCAR file                          |
|          I HOPE YOU KNOW, WHAT YOU ARE  DOING                               |
|                                                                             |
 ----------------------------------------------------------------------------- 

 LDA part: xc-table for Pade appr. of Perdew
 POSCAR, INCAR and KPOINTS ok, starting setup
 FFT: planning ...
 WAVECAR not read
 entering main loop
       N       E                     dE             d eps       ncg     rms          rms(c)
DAV:   1     0.440877222842E+04    0.44088E+04   -0.10056E+05   688   0.815E+02
DAV:   2     0.201288093651E+04   -0.23959E+04   -0.21568E+04  1224   0.106E+02
DAV:   3     0.236711054008E+03   -0.17762E+04   -0.16704E+04   992   0.920E+01
DAV:   4    -0.134016249949E+03   -0.37073E+03   -0.31330E+03   856   0.438E+01
DAV:   5    -0.180295093376E+03   -0.46279E+02   -0.37994E+02  1032   0.147E+01    0.201E+01
RMM:   6    -0.178946898394E+03    0.13482E+01   -0.69751E+01   721   0.984E+00    0.214E+01
RMM:   7    -0.184284879777E+03   -0.53380E+01   -0.23700E+01   822   0.560E+00    0.281E+01
RMM:   8    -0.186748720786E+03   -0.24638E+01   -0.11168E+01   787   0.423E+00    0.321E+01
RMM:   9    -0.185187107227E+03    0.15616E+01   -0.84932E+00   731   0.397E+00    0.314E+01
RMM:  10    -0.182005095129E+03    0.31820E+01   -0.58513E+00   730   0.323E+00    0.274E+01
RMM:  11    -0.179473497533E+03    0.25316E+01   -0.33979E+00   726   0.267E+00    0.253E+01
RMM:  12    -0.177823554335E+03    0.16499E+01   -0.27227E+00   723   0.215E+00    0.190E+01
RMM:  13    -0.177275820712E+03    0.54773E+00   -0.18723E+00   727   0.199E+00    0.172E+01
RMM:  14    -0.176982125803E+03    0.29369E+00   -0.20522E+00   717   0.211E+00    0.287E+01
RMM:  15    -0.176637473871E+03    0.34465E+00   -0.18835E+00   712   0.200E+00    0.209E+01
RMM:  16    -0.175927090372E+03    0.71038E+00   -0.15809E+00   700   0.175E+00    0.172E+01
RMM:  17    -0.176057946782E+03   -0.13086E+00   -0.99940E-01   708   0.148E+00    0.235E+01
RMM:  18    -0.175299782276E+03    0.75816E+00   -0.69840E-01   701   0.119E+00    0.113E+01
RMM:  19    -0.175195737170E+03    0.10405E+00   -0.48179E-01   712   0.104E+00    0.106E+01
RMM:  20    -0.175181988537E+03    0.13749E-01   -0.41158E-01   697   0.971E-01    0.127E+01
RMM:  21    -0.174941888498E+03    0.24010E+00   -0.29413E-01   698   0.818E-01    0.105E+01
RMM:  22    -0.174845364267E+03    0.96524E-01   -0.28030E-01   697   0.807E-01    0.104E+01
RMM:  23    -0.174513429804E+03    0.33193E+00   -0.19158E-01   692   0.678E-01    0.632E+00
RMM:  24    -0.174358542186E+03    0.15489E+00   -0.14168E-01   691   0.568E-01    0.650E+00
RMM:  25    -0.174263075190E+03    0.95467E-01   -0.10655E-01   698   0.478E-01    0.471E+00
RMM:  26    -0.174193672532E+03    0.69403E-01   -0.90966E-02   692   0.462E-01    0.391E+00
RMM:  27    -0.174166992168E+03    0.26680E-01   -0.72040E-02   692   0.415E-01    0.385E+00
RMM:  28    -0.174136466189E+03    0.30526E-01   -0.49198E-02   688   0.352E-01    0.301E+00
RMM:  29    -0.174094591391E+03    0.41875E-01   -0.31532E-02   691   0.297E-01    0.203E+00
RMM:  30    -0.174097157545E+03   -0.25662E-02   -0.29171E-02   691   0.266E-01    0.227E+00
RMM:  31    -0.174080126296E+03    0.17031E-01   -0.21209E-02   693   0.231E-01    0.183E+00
RMM:  32    -0.174065726015E+03    0.14400E-01   -0.13988E-02   690   0.187E-01    0.126E+00
RMM:  33    -0.174068667043E+03   -0.29410E-02   -0.97327E-03   689   0.156E-01    0.153E+00
RMM:  34    -0.174064829149E+03    0.38379E-02   -0.68869E-03   689   0.134E-01    0.131E+00
RMM:  35    -0.174060924901E+03    0.39042E-02   -0.49973E-03   683   0.120E-01    0.104E+00
RMM:  36    -0.174059866744E+03    0.10582E-02   -0.36830E-03   686   0.965E-02    0.859E-01
RMM:  37    -0.174059960999E+03   -0.94255E-04   -0.28642E-03   682   0.839E-02    0.798E-01
RMM:  38    -0.174058921042E+03    0.10400E-02   -0.17624E-03   684   0.697E-02    0.432E-01
RMM:  39    -0.174059790916E+03   -0.86987E-03   -0.13550E-03   685   0.584E-02    0.435E-01
RMM:  40    -0.174061228448E+03   -0.14375E-02   -0.99112E-04   682   0.518E-02    0.343E-01
RMM:  41    -0.174062529668E+03   -0.13012E-02   -0.78237E-04   671   0.445E-02    0.376E-01
RMM:  42    -0.174064614547E+03   -0.20849E-02   -0.65467E-04   668   0.392E-02    0.217E-01
RMM:  43    -0.174066026861E+03   -0.14123E-02   -0.35874E-04   463   0.308E-02    0.159E-01
RMM:  44    -0.174068454740E+03   -0.24279E-02   -0.37485E-04   478   0.288E-02    0.203E-01
RMM:  45    -0.174070238253E+03   -0.17835E-02   -0.27795E-04   412   0.261E-02    0.158E-01
RMM:  46    -0.174072820468E+03   -0.25822E-02   -0.38092E-04   476   0.266E-02    0.193E-01
RMM:  47    -0.174075733246E+03   -0.29128E-02   -0.43998E-04   508   0.269E-02    0.114E-01
RMM:  48    -0.174076666063E+03   -0.93282E-03   -0.15111E-04   413   0.172E-02    0.855E-02
RMM:  49    -0.174079255571E+03   -0.25895E-02   -0.30049E-04   436   0.193E-02    0.927E-02
RMM:  50    -0.174080200809E+03   -0.94524E-03   -0.15074E-04   409   0.150E-02    0.768E-02
RMM:  51    -0.174081122889E+03   -0.92208E-03   -0.11092E-04   408   0.127E-02    0.707E-02
RMM:  52    -0.174081812666E+03   -0.68978E-03   -0.86613E-05   405   0.112E-02    0.544E-02
RMM:  53    -0.174082405479E+03   -0.59281E-03   -0.57958E-05   401   0.885E-03    0.408E-02
RMM:  54    -0.174082983226E+03   -0.57775E-03   -0.42017E-05   393   0.729E-03    0.360E-02
RMM:  55    -0.174083444992E+03   -0.46177E-03   -0.28696E-05   380   0.613E-03    0.215E-02
RMM:  56    -0.174083701169E+03   -0.25618E-03   -0.11191E-05   243   0.456E-03    0.206E-02
RMM:  57    -0.174084089441E+03   -0.38827E-03   -0.10469E-05   234   0.457E-03    0.178E-02
RMM:  58    -0.174084275571E+03   -0.18613E-03   -0.42638E-06   160   0.405E-03    0.100E-02
RMM:  59    -0.174084602413E+03   -0.32684E-03   -0.11444E-05   254   0.445E-03    0.111E-02
RMM:  60    -0.174084731493E+03   -0.12908E-03   -0.23472E-06   121   0.321E-03    0.746E-03
RMM:  61    -0.174084879351E+03   -0.14786E-03   -0.26247E-06   122   0.342E-03    0.104E-02
RMM:  62    -0.174085060539E+03   -0.18119E-03   -0.97608E-06   181   0.392E-03    0.589E-03
RMM:  63    -0.174085166682E+03   -0.10614E-03   -0.47665E-06   132   0.359E-03    0.618E-03
RMM:  64    -0.174085257241E+03   -0.90558E-04   -0.58325E-06   142   0.379E-03
   1 F= -.17408526E+03 E0= -.17407668E+03  d E =-.342951E-01
================================= SLURM INFO ===================================
Command: run-cluster -n 1 -m 10000 -j 0418_vasp --same-node /opt/VASP/vasp
Exit code: 0
Job name: 0418_vasp
Job time: 0 days 5h:19m:44s
MPI task count: 1
Working dir: /home/pashkov/pyFitIt/pyfitit/data/random_pd_co_new/sample/0418
Job was running on nodes: h8
Task per node: 1
       JobID     MaxRSS  MaxDiskRead MaxDiskWrite    Elapsed    JobName 
------------ ---------- ------------ ------------ ---------- ---------- 
105971                                              05:19:44  0418_vasp 
105971.batch                                        05:19:44      batch 
