 vasp.5.4.4.18Apr17-6-g9f103f2a35 (build Sep 03 2018 23:53:05) complex          
  
 executed on             LinuxIFC date 2021.11.30  15:12:23
 running on    1 total cores
 distrk:  each k-point on    1 cores,    1 groups
 distr:  one band on NCORES_PER_BAND=   1 cores,    1 groups


--------------------------------------------------------------------------------------------------------


 INCAR:
 POTCAR:    PAW_PBE Pd 04Jan2005                  
 POTCAR:    PAW_PBE C 08Apr2002                   
 POTCAR:    PAW_PBE O 08Apr2002                   
 POTCAR:    PAW_PBE Pd 04Jan2005                  
   VRHFIN =Pd : s1 d9                                                           
   LEXCH  = PE                                                                  
   EATOM  =   809.7530 eV,   59.5152 Ry                                         
                                                                                
   TITEL  = PAW_PBE Pd 04Jan2005                                                
   LULTRA =        F    use ultrasoft PP ?                                      
   IUNSCR =        1    unscreen: 0-lin 1-nonlin 2-no                           
   RPACOR =    2.000    partial core radius                                     
   POMASS =  106.420; ZVAL   =   10.000    mass and valenz                      
   RCORE  =    2.600    outmost cutoff radius                                   
   RWIGS  =    2.710; RWIGS  =    1.434    wigner-seitz radius (au A)           
   ENMAX  =  250.925; ENMIN  =  188.194 eV                                      
   ICORE  =        3    local potential                                         
   LCOR   =        T    correct aug charges                                     
   LPAW   =        T    paw PP                                                  
   EAUG   =  416.230                                                            
   DEXC   =    0.000                                                            
   RMAX   =    2.653    core radius for proj-oper                               
   RAUG   =    1.300    factor for augmentation sphere                          
   RDEP   =    2.734    radius for radial grids                                 
   RDEPT  =    2.103    core radius for aug-charge                              
                                                                                
   Atomic configuration                                                         
   12 entries                                                                   
     n  l   j            E        occ.                                          
     1  0  0.50    -24164.6631   2.0000                                         
     2  0  0.50     -3530.9218   2.0000                                         
     2  1  1.50     -3165.6822   6.0000                                         
     3  0  0.50      -639.4577   2.0000                                         
     3  1  1.50      -519.4532   6.0000                                         
     3  2  2.50      -328.9757  10.0000                                         
     4  0  0.50       -88.7014   2.0000                                         
     4  1  1.50       -54.4540   6.0000                                         
     4  2  2.50        -6.6878   9.0000                                         
     5  0  0.50        -4.3543   1.0000                                         
     5  1  0.50        -1.3606   0.0000                                         
     4  3  2.50        -1.3606   0.0000                                         
   Description                                                                  
     l       E           TYP  RCUT    TYP  RCUT                                 
     2     -6.6878251     23  2.400                                             
     2     -8.0484077     23  2.400                                             
     0     -4.3542939     23  2.400                                             
     0      4.3406793     23  2.400                                             
     1     -4.0817478     23  2.600                                             
     1     15.8380318     23  2.600                                             
     3     -4.0817478     23  2.400                                             
  local pseudopotential read in
  partial core-charges read in
  partial kinetic energy density read in
  atomic valenz-charges read in
  non local Contribution for L=           2  read in
    real space projection operators read in
  non local Contribution for L=           2  read in
    real space projection operators read in
  non local Contribution for L=           0  read in
    real space projection operators read in
  non local Contribution for L=           0  read in
    real space projection operators read in
  non local Contribution for L=           1  read in
    real space projection operators read in
  non local Contribution for L=           1  read in
    real space projection operators read in
    PAW grid and wavefunctions read in
 
   number of l-projection  operators is LMAX  =           6
   number of lm-projection operators is LMMAX =          18
 
 POTCAR:    PAW_PBE C 08Apr2002                   
   VRHFIN =C: s2p2                                                              
   LEXCH  = PE                                                                  
   EATOM  =   147.1560 eV,   10.8157 Ry                                         
                                                                                
   TITEL  = PAW_PBE C 08Apr2002                                                 
   LULTRA =        F    use ultrasoft PP ?                                      
   IUNSCR =        1    unscreen: 0-lin 1-nonlin 2-no                           
   RPACOR =    1.200    partial core radius                                     
   POMASS =   12.011; ZVAL   =    4.000    mass and valenz                      
   RCORE  =    1.500    outmost cutoff radius                                   
   RWIGS  =    1.630; RWIGS  =    0.863    wigner-seitz radius (au A)           
   ENMAX  =  400.000; ENMIN  =  300.000 eV                                      
   ICORE  =        2    local potential                                         
   LCOR   =        T    correct aug charges                                     
   LPAW   =        T    paw PP                                                  
   EAUG   =  644.873                                                            
   DEXC   =    0.000                                                            
   RMAX   =    1.529    core radius for proj-oper                               
   RAUG   =    1.300    factor for augmentation sphere                          
   RDEP   =    1.501    radius for radial grids                                 
   RDEPT  =    1.300    core radius for aug-charge                              
                                                                                
   Atomic configuration                                                         
    4 entries                                                                   
     n  l   j            E        occ.                                          
     1  0  0.50      -273.3789   2.0000                                         
     2  0  0.50       -13.7508   2.0000                                         
     2  1  0.50        -5.2854   2.0000                                         
     3  2  1.50        -5.4423   0.0000                                         
   Description                                                                  
     l       E           TYP  RCUT    TYP  RCUT                                 
     0    -13.7508458     23  1.200                                             
     0     -8.2022199     23  1.200                                             
     1     -5.2854383     23  1.500                                             
     1     34.0145650     23  1.500                                             
     2     -5.4423304      7  1.500                                             
  local pseudopotential read in
  partial core-charges read in
  partial kinetic energy density read in
  atomic valenz-charges read in
  non local Contribution for L=           0  read in
    real space projection operators read in
  non local Contribution for L=           0  read in
    real space projection operators read in
  non local Contribution for L=           1  read in
    real space projection operators read in
  non local Contribution for L=           1  read in
    real space projection operators read in
    PAW grid and wavefunctions read in
 
   number of l-projection  operators is LMAX  =           4
   number of lm-projection operators is LMMAX =           8
 
 POTCAR:    PAW_PBE O 08Apr2002                   
   VRHFIN =O: s2p4                                                              
   LEXCH  = PE                                                                  
   EATOM  =   432.3788 eV,   31.7789 Ry                                         
                                                                                
   TITEL  = PAW_PBE O 08Apr2002                                                 
   LULTRA =        F    use ultrasoft PP ?                                      
   IUNSCR =        1    unscreen: 0-lin 1-nonlin 2-no                           
   RPACOR =    1.200    partial core radius                                     
   POMASS =   16.000; ZVAL   =    6.000    mass and valenz                      
   RCORE  =    1.520    outmost cutoff radius                                   
   RWIGS  =    1.550; RWIGS  =    0.820    wigner-seitz radius (au A)           
   ENMAX  =  400.000; ENMIN  =  300.000 eV                                      
   ICORE  =        2    local potential                                         
   LCOR   =        T    correct aug charges                                     
   LPAW   =        T    paw PP                                                  
   EAUG   =  605.392                                                            
   DEXC   =    0.000                                                            
   RMAX   =    1.553    core radius for proj-oper                               
   RAUG   =    1.300    factor for augmentation sphere                          
   RDEP   =    1.550    radius for radial grids                                 
   RDEPT  =    1.329    core radius for aug-charge                              
                                                                                
   Atomic configuration                                                         
    4 entries                                                                   
     n  l   j            E        occ.                                          
     1  0  0.50      -514.6923   2.0000                                         
     2  0  0.50       -23.9615   2.0000                                         
     2  1  0.50        -9.0305   4.0000                                         
     3  2  1.50        -9.5241   0.0000                                         
   Description                                                                  
     l       E           TYP  RCUT    TYP  RCUT                                 
     0    -23.9615318     23  1.200                                             
     0     -9.5240782     23  1.200                                             
     1     -9.0304911     23  1.520                                             
     1      8.1634956     23  1.520                                             
     2     -9.5240782      7  1.500                                             
  local pseudopotential read in
  partial core-charges read in
  partial kinetic energy density read in
  kinetic energy density of atom read in
  atomic valenz-charges read in
  non local Contribution for L=           0  read in
    real space projection operators read in
  non local Contribution for L=           0  read in
    real space projection operators read in
  non local Contribution for L=           1  read in
    real space projection operators read in
  non local Contribution for L=           1  read in
    real space projection operators read in
    PAW grid and wavefunctions read in
 
   number of l-projection  operators is LMAX  =           4
   number of lm-projection operators is LMMAX =           8
 
 Optimization of the real space projectors (new method)

 maximal supplied QI-value         = 14.36
 optimisation between [QCUT,QGAM] = [ 10.20, 20.39] = [ 29.12,116.47] Ry 
 Optimized for a Real-space Cutoff    1.51 Angstroem

   l    n(q)    QCUT    max X(q) W(low)/X(q) W(high)/X(q)  e(spline) 
   2      8    10.197    59.108    0.26E-03    0.14E-03    0.96E-07
   2      8    10.197    58.101    0.27E-03    0.14E-03    0.98E-07
   0      9    10.197   102.235    0.54E-04    0.60E-05    0.72E-07
   0      9    10.197    58.388    0.52E-04    0.60E-05    0.68E-07
   1      9    10.197    22.191    0.18E-03    0.25E-03    0.79E-07
   1      9    10.197    15.590    0.15E-03    0.21E-03    0.69E-07
 Optimization of the real space projectors (new method)

 maximal supplied QI-value         = 25.13
 optimisation between [QCUT,QGAM] = [ 10.05, 20.36] = [ 28.30,116.06] Ry 
 Optimized for a Real-space Cutoff    1.30 Angstroem

   l    n(q)    QCUT    max X(q) W(low)/X(q) W(high)/X(q)  e(spline) 
   0      8    10.053   115.676    0.49E-03    0.72E-03    0.18E-06
   0      8    10.053    87.132    0.49E-03    0.71E-03    0.18E-06
   1      7    10.053     4.429    0.32E-03    0.31E-03    0.18E-06
   1      7    10.053     2.733    0.23E-03    0.19E-03    0.20E-06
 Optimization of the real space projectors (new method)

 maximal supplied QI-value         = 24.76
 optimisation between [QCUT,QGAM] = [ 10.15, 20.30] = [ 28.85,115.39] Ry 
 Optimized for a Real-space Cutoff    1.38 Angstroem

   l    n(q)    QCUT    max X(q) W(low)/X(q) W(high)/X(q)  e(spline) 
   0      8    10.150    20.381    0.22E-03    0.32E-03    0.29E-06
   0      8    10.150    15.268    0.23E-03    0.35E-03    0.30E-06
   1      8    10.150     5.964    0.46E-03    0.53E-03    0.21E-06
   1      8    10.150     5.382    0.38E-03    0.45E-03    0.19E-06

 ----------------------------------------------------------------------------- 
|                                                                             |
|  ADVICE TO THIS USER RUNNING 'VASP/VAMP'   (HEAR YOUR MASTER'S VOICE ...):  |
|                                                                             |
|      You enforced a specific xc-type in the INCAR file,                     |
|      a different type was found on the POTCAR file                          |
|          I HOPE YOU KNOW, WHAT YOU ARE  DOING                               |
|                                                                             |
 ----------------------------------------------------------------------------- 

  PAW_PBE Pd 04Jan2005                  :
 energy of atom  1       EATOM= -809.7530
 kinetic energy error for atom=    0.0091 (will be added to EATOM!!)
  PAW_PBE C 08Apr2002                   :
 energy of atom  2       EATOM= -147.1560
 kinetic energy error for atom=    0.0288 (will be added to EATOM!!)
  PAW_PBE O 08Apr2002                   :
 energy of atom  3       EATOM= -432.3788
 kinetic energy error for atom=    0.1156 (will be added to EATOM!!)
 
 
 POSCAR: Pd55PES                                 
  positions in cartesian coordinates
  No initial velocities read in
 exchange correlation table for  LEXCH =        9
   RHO(1)=    0.500       N(1)  =     2000
   RHO(2)=  100.500       N(2)  =     4000
 


--------------------------------------------------------------------------------------------------------


 ion  position               nearest neighbor table
   1  0.446  0.328  0.417-   3 3.25   5 3.25   7 3.36  15 3.36  29 3.42  28 3.42
   2  0.672  0.554  0.417-  26 3.25  30 3.25  17 3.36   9 3.36  47 3.42  49 3.42
   3  0.554  0.328  0.417-   1 3.25   5 3.25   7 3.36  11 3.36  29 3.42  21 3.42
   4  0.328  0.554  0.417-  32 3.25  22 3.25  13 3.36   8 3.36  43 3.42  48 3.42
   5  0.500  0.383  0.340-   1 3.25   3 3.25  11 3.36  15 3.36  21 3.42  28 3.42
   6  0.500  0.383  0.660-  24 3.25  19 3.25  16 3.36  12 3.36  42 3.42  44 3.42
   7  0.500  0.276  0.500-  29 3.24   3 3.36   1 3.36  19 3.36  24 3.36
   8  0.276  0.500  0.500-  56 2.19  57 2.52  48 3.24  22 3.36  40 3.36   4 3.36  25 3.36
   9  0.724  0.500  0.500-  49 3.24  26 3.36  45 3.36   2 3.36  20 3.36
  10  0.500  0.724  0.500-  55 3.24  27 3.36  23 3.36  46 3.36  41 3.36
  11  0.612  0.388  0.342-  21 3.24   5 3.36   3 3.36  30 3.36  26 3.36
  12  0.612  0.388  0.658-  42 3.24  24 3.36  45 3.36   6 3.36  31 3.36
  13  0.388  0.612  0.342-  43 3.24  32 3.36  50 3.36   4 3.36  27 3.36
  14  0.388  0.612  0.658-  53 3.24  25 3.36  33 3.36  51 3.36  46 3.36
  15  0.388  0.388  0.342-  28 3.24   5 3.36   1 3.36  32 3.36  22 3.36
  16  0.388  0.388  0.658-  44 3.24  19 3.36  40 3.36   6 3.36  33 3.36
  17  0.612  0.612  0.342-  47 3.24  30 3.36  50 3.36   2 3.36  23 3.36
  18  0.612  0.612  0.658-  54 3.24  31 3.36  20 3.36  51 3.36  41 3.36
  19  0.446  0.328  0.583-   6 3.25  24 3.25  16 3.36   7 3.36  44 3.42  29 3.42
  20  0.672  0.554  0.583-  31 3.25  45 3.25  18 3.36   9 3.36  54 3.42  49 3.42
  21  0.558  0.442  0.418-  11 3.24   5 3.42   3 3.42  30 3.42  26 3.42
  22  0.328  0.446  0.417-   4 3.25  32 3.25   8 3.36  15 3.36  48 3.42  28 3.42
  23  0.554  0.672  0.417-  27 3.25  50 3.25  10 3.36  17 3.36  55 3.42  47 3.42
  24  0.554  0.328  0.583-   6 3.25  19 3.25  12 3.36   7 3.36  42 3.42  29 3.42
  25  0.328  0.554  0.583-  56 1.78  57 2.47  33 3.25  40 3.25  14 3.36   8 3.36  53 3.42  48 3.42

  26  0.672  0.446  0.417-   2 3.25  30 3.25   9 3.36  11 3.36  49 3.42  21 3.42
  27  0.446  0.672  0.417-  23 3.25  50 3.25  10 3.36  13 3.36  55 3.42  43 3.42
  28  0.442  0.442  0.418-  15 3.24   5 3.42   1 3.42  32 3.42  22 3.42
  29  0.500  0.384  0.500-   7 3.24   3 3.42   1 3.42  24 3.42  19 3.42
  30  0.617  0.500  0.340-   2 3.25  26 3.25  17 3.36  11 3.36  47 3.42  21 3.42
  31  0.617  0.500  0.660-  20 3.25  45 3.25  18 3.36  12 3.36  54 3.42  42 3.42
  32  0.383  0.500  0.340-   4 3.25  22 3.25  13 3.36  15 3.36  43 3.42  28 3.42
  33  0.383  0.500  0.660-  25 3.25  40 3.25  14 3.36  16 3.36  53 3.42  44 3.42
  34  0.383  0.383  0.500-
  35  0.617  0.617  0.500-
  36  0.617  0.383  0.500-
  37  0.383  0.617  0.500-
  38  0.500  0.500  0.335-
  39  0.500  0.500  0.665-
  40  0.328  0.446  0.583-  56 2.10  33 3.25  25 3.25  16 3.36   8 3.36  44 3.42  48 3.42
  41  0.554  0.672  0.583-  46 3.25  51 3.25  10 3.36  18 3.36  54 3.42  55 3.42
  42  0.558  0.442  0.582-  12 3.24   6 3.42  24 3.42  31 3.42  45 3.42
  43  0.442  0.558  0.418-  13 3.24   4 3.42  32 3.42  27 3.42  50 3.42
  44  0.442  0.442  0.582-  16 3.24   6 3.42  19 3.42  33 3.42  40 3.42
  45  0.672  0.446  0.583-  20 3.25  31 3.25   9 3.36  12 3.36  49 3.42  42 3.42
  46  0.446  0.672  0.583-  41 3.25  51 3.25  10 3.36  14 3.36  53 3.42  55 3.42
  47  0.558  0.558  0.418-  17 3.24   2 3.42  30 3.42  23 3.42  50 3.42
  48  0.384  0.500  0.500-   8 3.24   4 3.42  22 3.42  25 3.42  40 3.42
  49  0.616  0.500  0.500-   9 3.24   2 3.42  26 3.42  20 3.42  45 3.42
  50  0.500  0.617  0.340-  27 3.25  23 3.25  13 3.36  17 3.36  43 3.42  47 3.42
  51  0.500  0.617  0.660-  41 3.25  46 3.25  14 3.36  18 3.36  53 3.42  54 3.42
  52  0.500  0.500  0.500-
  53  0.442  0.558  0.582-  14 3.24  25 3.42  33 3.42  51 3.42  46 3.42
  54  0.558  0.558  0.582-  18 3.24  31 3.42  20 3.42  51 3.42  41 3.42
  55  0.500  0.616  0.500-  10 3.24  23 3.42  27 3.42  41 3.42  46 3.42
  56  0.296  0.506  0.570-  57 1.13  25 1.78  40 2.10   8 2.19
  57  0.260  0.508  0.582-  56 1.13  25 2.47   8 2.52
 
  LATTYP: Found a simple cubic cell.
 ALAT       =    30.0000000000
  
  Lattice vectors:
  
 A1 = (  30.0000000000,   0.0000000000,   0.0000000000)
 A2 = (   0.0000000000,  30.0000000000,   0.0000000000)
 A3 = (   0.0000000000,   0.0000000000,  30.0000000000)


Analysis of symmetry for initial positions (statically):
=====================================================================
 Subroutine PRICEL returns:
 Original cell was already a primitive cell.
 

 Routine SETGRP: Setting up the symmetry group for a 
 simple cubic supercell.


 Subroutine GETGRP returns: Found  1 space group operations
 (whereof  1 operations were pure point group operations)
 out of a pool of 48 trial point group operations.


The static configuration has the point symmetry C_1 .


Analysis of symmetry for dynamics (positions and initial velocities):
=====================================================================
 Subroutine PRICEL returns:
 Original cell was already a primitive cell.
 

 Routine SETGRP: Setting up the symmetry group for a 
 simple cubic supercell.


 Subroutine GETGRP returns: Found  1 space group operations
 (whereof  1 operations were pure point group operations)
 out of a pool of 48 trial point group operations.


The dynamic configuration has the point symmetry C_1 .


Analysis of constrained symmetry for selective dynamics:
=====================================================================
 Subroutine PRICEL returns:
 Original cell was already a primitive cell.
 

 Routine SETGRP: Setting up the symmetry group for a 
 simple cubic supercell.


 Subroutine GETGRP returns: Found  1 space group operations
 (whereof  1 operations were pure point group operations)
 out of a pool of 48 trial point group operations.


The constrained configuration has the point symmetry C_1 .


 Subroutine INISYM returns: Found  1 space group operations
 (whereof  1 operations are pure point group operations),
 and found     1 'primitive' translations

 
 
 KPOINTS: K-points                                

Automatic generation of k-mesh.
Space group operators:
 irot       det(A)        alpha          n_x          n_y          n_z        tau_x        tau_y        tau_z
    1     1.000000     0.000000     1.000000     0.000000     0.000000     0.000000     0.000000     0.000000
 
 Subroutine IBZKPT returns following result:
 ===========================================
 
 Found      1 irreducible k-points:
 
 Following reciprocal coordinates:
            Coordinates               Weight
  0.000000  0.000000  0.000000      1.000000
 
 Following cartesian coordinates:
            Coordinates               Weight
  0.000000  0.000000  0.000000      1.000000
 


--------------------------------------------------------------------------------------------------------




 Dimension of arrays:
   k-points           NKPTS =      1   k-points in BZ     NKDIM =      1   number of bands    NBANDS=    336
   number of dos      NEDOS =    301   number of ions     NIONS =     57
   non local maximal  LDIM  =      6   non local SUM 2l+1 LMDIM =     18
   total plane-waves  NPLWV = ******
   max r-space proj   IRMAX =   1847   max aug-charges    IRDMAX=   6262
   dimension x,y,z NGX =   150 NGY =  150 NGZ =  150
   dimension x,y,z NGXF=   300 NGYF=  300 NGZF=  300
   support grid    NGXF=   300 NGYF=  300 NGZF=  300
   ions per type =              55   1   1
   NGX,Y,Z   is equivalent  to a cutoff of   8.31,  8.31,  8.31 a.u.
   NGXF,Y,Z  is equivalent  to a cutoff of  16.62, 16.62, 16.62 a.u.

 SYSTEM =  6_Pd100_top_free_z(O)                   
 POSCAR =  Pd55PES                                 

 Startparameter for this run:
   NWRITE =      2    write-flag & timer
   PREC   = normal    normal or accurate (medium, high low for compatibility)
   ISTART =      0    job   : 0-new  1-cont  2-samecut
   ICHARG =      2    charge: 1-file 2-atom 10-const
   ISPIN  =      1    spin polarized calculation?
   LNONCOLLINEAR =      F non collinear calculations
   LSORBIT =      F    spin-orbit coupling
   INIWAV =      1    electr: 0-lowe 1-rand  2-diag
   LASPH  =      F    aspherical Exc in radial PAW
   METAGGA=      F    non-selfconsistent MetaGGA calc.

 Electronic Relaxation 1
   ENCUT  =  400.0 eV  29.40 Ry    5.42 a.u.  48.92 48.92 48.92*2*pi/ulx,y,z
   ENINI  =  400.0     initial cutoff
   ENAUG  =  644.9 eV  augmentation charge cutoff
   NELM   =    100;   NELMIN=  6; NELMDL= -5     # of ELM steps 
   EDIFF  = 0.1E-03   stopping-criterion for ELM
   LREAL  =      T    real-space projection
   NLSPLINE    = F    spline interpolate recip. space projectors
   LCOMPAT=      F    compatible to vasp.4.4
   GGA_COMPAT  = T    GGA compatible to vasp.4.4-vasp.4.6
   LMAXPAW     = -100 max onsite density
   LMAXMIX     =    2 max onsite mixed and CHGCAR
   VOSKOWN=      0    Vosko Wilk Nusair interpolation
   ROPT   =   -0.00050  -0.00050  -0.00050
 Ionic relaxation
   EDIFFG = -.5E-01   stopping-criterion for IOM
   NSW    =      0    number of steps for IOM
   NBLOCK =      1;   KBLOCK =      1    inner block; outer block 
   IBRION =     -1    ionic relax: 0-MD 1-quasi-New 2-CG
   NFREE  =      1    steps in history (QN), initial steepest desc. (CG)
   ISIF   =      2    stress and relaxation
   IWAVPR =     10    prediction:  0-non 1-charg 2-wave 3-comb
   ISYM   =      2    0-nonsym 1-usesym 2-fastsym
   LCORR  =      T    Harris-Foulkes like correction to forces

   POTIM  = 0.5000    time-step for ionic-motion
   TEIN   =    0.0    initial temperature
   TEBEG  =    0.0;   TEEND  =   0.0 temperature during run
   SMASS  =  -3.00    Nose mass-parameter (am)
   estimated Nose-frequenzy (Omega)   =  0.10E-29 period in steps =****** mass=  -0.206E-25a.u.
   SCALEE = 1.0000    scale energy and forces
   NPACO  =    256;   APACO  = 16.0  distance and # of slots for P.C.
   PSTRESS=    0.0 pullay stress

  Mass of Ions in am
   POMASS = 106.42 12.01 16.00
  Ionic Valenz
   ZVAL   =  10.00  4.00  6.00
  Atomic Wigner-Seitz radii
   RWIGS  =  -1.00 -1.00 -1.00
  virtual crystal weights 
   VCA    =   1.00  1.00  1.00
   NELECT =     560.0000    total number of electrons
   NUPDOWN=      -1.0000    fix difference up-down

 DOS related values:
   EMIN   =  10.00;   EMAX   =-10.00  energy-range for DOS
   EFERMI =   0.00
   ISMEAR =     2;   SIGMA  =   0.20  broadening in eV -4-tet -1-fermi 0-gaus

 Electronic relaxation 2 (details)
   IALGO  =     68    algorithm
   LDIAG  =      T    sub-space diagonalisation (order eigenvalues)
   LSUBROT=      F    optimize rotation matrix (better conditioning)
   TURBO    =      0    0=normal 1=particle mesh
   IRESTART =      0    0=no restart 2=restart with 2 vectors
   NREBOOT  =      0    no. of reboots
   NMIN     =      0    reboot dimension
   EREF     =   0.00    reference energy to select bands
   IMIX   =      4    mixing-type and parameters
     AMIX     =   0.40;   BMIX     =  1.00
     AMIX_MAG =   1.60;   BMIX_MAG =  1.00
     AMIN     =   0.10
     WC   =   100.;   INIMIX=   1;  MIXPRE=   1;  MAXMIX= -45

 Intra band minimization:
   WEIMIN = 0.0000     energy-eigenvalue tresh-hold
   EBREAK =  0.74E-07  absolut break condition
   DEPER  =   0.30     relativ break condition  

   TIME   =   0.40     timestep for ELM

  volume/ion in A,a.u.               =     473.68      3196.58
  Fermi-wavevector in a.u.,A,eV,Ry     =   0.449797  0.849992  2.752691  0.202317
  Thomas-Fermi vector in A             =   1.430086
 
 Write flags
   LWAVE        =      F    write WAVECAR
   LDOWNSAMPLE  =      F    k-point downsampling of WAVECAR
   LCHARG       =      F    write CHGCAR
   LVTOT        =      F    write LOCPOT, total local potential
   LVHAR        =      F    write LOCPOT, Hartree potential only
   LELF         =      F    write electronic localiz. function (ELF)
   LORBIT       =      0    0 simple, 1 ext, 2 COOP (PROOUT), +10 PAW based schemes


 Dipole corrections
   LMONO  =      F    monopole corrections only (constant potential shift)
   LDIPOL =      F    correct potential (dipole corrections)
   IDIPOL =      0    1-x, 2-y, 3-z, 4-all directions 
   EPSILON=  1.0000000 bulk dielectric constant

 Exchange correlation treatment:
   GGA     =    RP    GGA type
   LEXCH   =     9    internal setting for exchange type
   VOSKOWN=      0    Vosko Wilk Nusair interpolation
   LHFCALC =     F    Hartree Fock is set to
   LHFONE  =     F    Hartree Fock one center treatment
   AEXX    =    0.0000 exact exchange contribution

 Linear response parameters
   LEPSILON=     F    determine dielectric tensor
   LRPA    =     F    only Hartree local field effects (RPA)
   LNABLA  =     F    use nabla operator in PAW spheres
   LVEL    =     F    velocity operator in full k-point grid
   LINTERFAST=   F  fast interpolation
   KINTER  =     0    interpolate to denser k-point grid
   CSHIFT  =0.1000    complex shift for real part using Kramers Kronig
   OMEGAMAX=  -1.0    maximum frequency
   DEG_THRESHOLD= 0.2000000E-02 threshold for treating states as degnerate
   RTIME   =   -0.100 relaxation time in fs
  (WPLASMAI=    0.000 imaginary part of plasma frequency in eV, 0.658/RTIME)
   DFIELD  = 0.0000000 0.0000000 0.0000000 field for delta impulse in time
 
 Orbital magnetization related:
   ORBITALMAG=     F  switch on orbital magnetization
   LCHIMAG   =     F  perturbation theory with respect to B field
   DQ        =  0.001000  dq finite difference perturbation B field
   LLRAUG    =     F  two centre corrections for induced B field



--------------------------------------------------------------------------------------------------------


 Static calculation
 charge density and potential will be updated during run
 non-spin polarized calculation
 RMM-DIIS sequential band-by-band and
  variant of blocked Davidson during initial phase
 perform sub-space diagonalisation
    before iterative eigenvector-optimisation
 modified Broyden-mixing scheme, WC =      100.0
 initial mixing is a Kerker type mixing with AMIX =  0.4000 and BMIX =      1.0000
 Hartree-type preconditioning will be used
 using additional bands           56
 real space projection scheme for non local part
 use partial core corrections
 calculate Harris-corrections to forces 
   (improved forces if not selfconsistent)
 use gradient corrections 
 use of overlap-Matrix (Vanderbilt PP)
 Methfessel and Paxton  Order N= 2 SIGMA  =   0.20


--------------------------------------------------------------------------------------------------------


  energy-cutoff  :      400.00
  volume of cell :    27000.00
      direct lattice vectors                 reciprocal lattice vectors
    30.000000000  0.000000000  0.000000000     0.033333333  0.000000000  0.000000000
     0.000000000 30.000000000  0.000000000     0.000000000  0.033333333  0.000000000
     0.000000000  0.000000000 30.000000000     0.000000000  0.000000000  0.033333333

  length of vectors
    30.000000000 30.000000000 30.000000000     0.033333333  0.033333333  0.033333333


 
 k-points in units of 2pi/SCALE and weight: K-points                                
   0.00000000  0.00000000  0.00000000       1.000
 
 k-points in reciprocal lattice and weights: K-points                                
   0.00000000  0.00000000  0.00000000       1.000
 
 position of ions in fractional coordinates (direct lattice) 
   0.44576020  0.32826710  0.41691983
   0.67173288  0.55423978  0.41691983
   0.55423980  0.32826710  0.41691983
   0.32826712  0.55423978  0.41691983
   0.50000000  0.38250690  0.34021317
   0.50000000  0.38250690  0.65978680
   0.50000000  0.27609440  0.50000000
   0.27609443  0.49999998  0.50000000
   0.72390557  0.49999998  0.50000000
   0.50000000  0.72390555  0.50000000
   0.61195280  0.38804720  0.34167483
   0.61195280  0.38804720  0.65832513
   0.38804722  0.61195278  0.34167483
   0.38804722  0.61195278  0.65832513
   0.38804720  0.38804720  0.34167483
   0.38804720  0.38804720  0.65832513
   0.61195278  0.61195278  0.34167483
   0.61195278  0.61195278  0.65832513
   0.44576020  0.32826710  0.58308023
   0.67173288  0.55423978  0.58308023
   0.55791699  0.44208301  0.41809300
   0.32826705  0.44576024  0.41691983
   0.55423973  0.67173293  0.41691983
   0.55423980  0.32826710  0.58308023
   0.32826712  0.55423978  0.58308023
   0.67173295  0.44576024  0.41691983
   0.44576027  0.67173293  0.41691983
   0.44208301  0.44208301  0.41809300
   0.50000000  0.38416601  0.50000000
   0.61749315  0.50000005  0.34021317
   0.61749315  0.50000005  0.65978680
   0.38250685  0.50000005  0.34021317
   0.38250685  0.50000005  0.65978680
   0.38317830  0.38317830  0.50000000
   0.61682172  0.61682172  0.50000000
   0.61682170  0.38317830  0.50000000
   0.38317828  0.61682172  0.50000000
   0.50000000  0.50000000  0.33478917
   0.50000000  0.50000000  0.66521087
   0.32826705  0.44576024  0.58308023
   0.55423973  0.67173293  0.58308023
   0.55791699  0.44208301  0.58190703
   0.44208298  0.55791702  0.41809300
   0.44208301  0.44208301  0.58190703
   0.67173295  0.44576024  0.58308023
   0.44576027  0.67173293  0.58308023
   0.55791702  0.55791702  0.41809300
   0.38416599  0.50000002  0.50000000
   0.61583401  0.50000002  0.50000000
   0.50000000  0.61749319  0.34021317
   0.50000000  0.61749319  0.65978680
   0.50000000  0.50000000  0.50000000
   0.44208298  0.55791702  0.58190703
   0.55791702  0.55791702  0.58190703
   0.50000000  0.61583404  0.50000000
   0.29584423  0.50641587  0.56993263
   0.26028900  0.50753323  0.58211193
 
 position of ions in cartesian coordinates  (Angst):
  13.37280588  9.84801292 12.50759500
  20.15198637 16.62719342 12.50759500
  16.62719412  9.84801292 12.50759500
   9.84801363 16.62719342 12.50759500
  15.00000000 11.47520705 10.20639500
  15.00000000 11.47520705 19.79360400
  15.00000000  8.28283206 15.00000000
   8.28283277 14.99999929 15.00000000
  21.71716723 14.99999929 15.00000000
  15.00000000 21.71716652 14.99999999
  18.35858397 11.64141603 10.25024500
  18.35858397 11.64141603 19.74975399
  11.64141674 18.35858326 10.25024500
  11.64141674 18.35858326 19.74975400
  11.64141603 11.64141603 10.25024500
  11.64141603 11.64141603 19.74975400
  18.35858326 18.35858326 10.25024500
  18.35858326 18.35858326 19.74975400
  13.37280588  9.84801291 17.49240700
  20.15198638 16.62719341 17.49240700
  16.73750985 13.26249015 12.54279000
   9.84801151 13.37280729 12.50759500
  16.62719200 20.15198779 12.50759500
  16.62719412  9.84801292 17.49240700
   9.84801363 16.62719342 17.49240700
  20.15198849 13.37280729 12.50759500
  13.37280800 20.15198779 12.50759500
  13.26249015 13.26249015 12.54279000
  15.00000000 11.52498029 15.00000000
  18.52479437 15.00000140 10.20639500
  18.52479437 15.00000141 19.79360400
  11.47520562 15.00000141 10.20639501
  11.47520563 15.00000141 19.79360400
  11.49534898 11.49534898 15.00000000
  18.50465172 18.50465172 15.00000000
  18.50465102 11.49534898 15.00000000
  11.49534828 18.50465172 15.00000000
  15.00000000 15.00000000 10.04367500
  15.00000000 15.00000000 19.95632599
   9.84801151 13.37280729 17.49240700
  16.62719200 20.15198779 17.49240700
  16.73750985 13.26249015 17.45721100
  13.26248944 16.73751056 12.54279001
  13.26249015 13.26249015 17.45721100
  20.15198849 13.37280729 17.49240699
  13.37280800 20.15198779 17.49240700
  16.73751056 16.73751056 12.54279000
  11.52497959 15.00000071 15.00000000
  18.47502041 15.00000071 15.00000000
  14.99999999 18.52479579 10.20639500
  15.00000000 18.52479578 19.79360400
  15.00000000 15.00000000 15.00000000
  13.26248944 16.73751057 17.45721101
  16.73751056 16.73751057 17.45721100
  15.00000000 18.47502112 15.00000000
   8.87532700 15.19247600 17.09797900
   7.80867000 15.22599700 17.46335800
 


--------------------------------------------------------------------------------------------------------


 k-point  1 :   0.0000 0.0000 0.0000  plane waves:  490521

 maximum and minimum number of plane-waves per node :    490521   490521

 maximum number of plane-waves:    490521
 maximum index in each direction: 
   IXMAX=   48   IYMAX=   48   IZMAX=   48
   IXMIN=  -48   IYMIN=  -48   IZMIN=  -48


 serial   3D FFT for wavefunctions
 parallel 3D FFT for charge:
    minimum data exchange during FFTs selected (reduces bandwidth)


 total amount of memory used by VASP MPI-rank0  5486941. kBytes
=======================================================================

   base      :      30000. kBytes
   nonlr-proj:      17126. kBytes
   fftplans  :     924480. kBytes
   grid      :    1872000. kBytes
   one-center:        886. kBytes
   wavefun   :    2642449. kBytes
 
     INWAV:  cpu time    0.0001: real time    0.0004
 Broyden mixing: mesh for mixing (old mesh)
   NGX = 97   NGY = 97   NGZ = 97
  (NGX  =300   NGY  =300   NGZ  =300)
  gives a total of 912673 points

 initial charge density was supplied:
 charge density of overlapping atoms calculated
 number of electron     560.0000000 magnetization 
 keeping initial charge density in first step


--------------------------------------------------------------------------------------------------------


 Maximum index for non-local projection operator         1763
 Maximum index for augmentation-charges         5898 (set IRDMAX)


--------------------------------------------------------------------------------------------------------


 First call to EWALD:  gamma=   0.059
 Maximum number of real-space cells 3x 3x 3
 Maximum number of reciprocal cells 3x 3x 3

    FEWALD:  cpu time    0.0212: real time    0.0212


--------------------------------------- Iteration      1(   1)  ---------------------------------------


    POTLOK:  cpu time   18.3869: real time   18.3889
    SETDIJ:  cpu time    0.1463: real time    0.1463
     EDDAV:  cpu time  480.5727: real time  480.8363
       DOS:  cpu time    0.0018: real time    0.0018
    --------------------------------------------
      LOOP:  cpu time  499.1078: real time  499.3734

 eigenvalue-minimisations  :   688
 total energy-change (2. order) : 0.4405461E+04  (-0.1005546E+05)
 number of electron     560.0000000 magnetization 
 augmentation part      560.0000000 magnetization 

 Free energy of the ion-electron system (eV)
  ---------------------------------------------------
  alpha Z        PSCENC =        75.25431677
  Ewald energy   TEWEN  =    139510.94511684
  -Hartree energ DENC   =   -182854.88543666
  -exchange      EXHF   =         0.00000000
  -V(xc)+E(xc)   XCENC  =     -1701.06788344
  PAW double counting   =     44873.02882129   -41398.84523641
  entropy T*S    EENTRO =         0.02939433
  eigenvalues    EBANDS =       814.49631808
  atomic energy  EATOM  =     45086.50549395
  Solvation  Ediel_sol  =         0.00000000
  ---------------------------------------------------
  free energy    TOTEN  =      4405.46090475 eV

  energy without entropy =     4405.43151043  energy(sigma->0) =     4405.45355617


--------------------------------------------------------------------------------------------------------




--------------------------------------- Iteration      1(   2)  ---------------------------------------


     EDDAV:  cpu time  798.8824: real time  798.8727
       DOS:  cpu time    0.0017: real time    0.0017
    --------------------------------------------
      LOOP:  cpu time  798.8841: real time  798.8744

 eigenvalue-minimisations  :  1224
 total energy-change (2. order) :-0.2392189E+04  (-0.2151335E+04)
 number of electron     560.0000000 magnetization 
 augmentation part      560.0000000 magnetization 

 Free energy of the ion-electron system (eV)
  ---------------------------------------------------
  alpha Z        PSCENC =        75.25431677
  Ewald energy   TEWEN  =    139510.94511684
  -Hartree energ DENC   =   -182854.88543666
  -exchange      EXHF   =         0.00000000
  -V(xc)+E(xc)   XCENC  =     -1701.06788344
  PAW double counting   =     44873.02882129   -41398.84523641
  entropy T*S    EENTRO =         0.00948360
  eigenvalues    EBANDS =     -1577.67312025
  atomic energy  EATOM  =     45086.50549395
  Solvation  Ediel_sol  =         0.00000000
  ---------------------------------------------------
  free energy    TOTEN  =      2013.27155569 eV

  energy without entropy =     2013.26207209  energy(sigma->0) =     2013.26918479


--------------------------------------------------------------------------------------------------------




--------------------------------------- Iteration      1(   3)  ---------------------------------------


     EDDAV:  cpu time  676.0543: real time  676.0482
       DOS:  cpu time    0.0015: real time    0.0015
    --------------------------------------------
      LOOP:  cpu time  676.0559: real time  676.0497

 eigenvalue-minimisations  :  1016
 total energy-change (2. order) :-0.1785178E+04  (-0.1680155E+04)
 number of electron     560.0000000 magnetization 
 augmentation part      560.0000000 magnetization 

 Free energy of the ion-electron system (eV)
  ---------------------------------------------------
  alpha Z        PSCENC =        75.25431677
  Ewald energy   TEWEN  =    139510.94511684
  -Hartree energ DENC   =   -182854.88543666
  -exchange      EXHF   =         0.00000000
  -V(xc)+E(xc)   XCENC  =     -1701.06788344
  PAW double counting   =     44873.02882129   -41398.84523641
  entropy T*S    EENTRO =        -0.03496519
  eigenvalues    EBANDS =     -3362.80628012
  atomic energy  EATOM  =     45086.50549395
  Solvation  Ediel_sol  =         0.00000000
  ---------------------------------------------------
  free energy    TOTEN  =       228.09394704 eV

  energy without entropy =      228.12891223  energy(sigma->0) =      228.10268833


--------------------------------------------------------------------------------------------------------




--------------------------------------- Iteration      1(   4)  ---------------------------------------


     EDDAV:  cpu time  579.3005: real time  579.2949
       DOS:  cpu time    0.0016: real time    0.0016
    --------------------------------------------
      LOOP:  cpu time  579.3021: real time  579.2965

 eigenvalue-minimisations  :   848
 total energy-change (2. order) :-0.3645548E+03  (-0.3121570E+03)
 number of electron     560.0000000 magnetization 
 augmentation part      560.0000000 magnetization 

 Free energy of the ion-electron system (eV)
  ---------------------------------------------------
  alpha Z        PSCENC =        75.25431677
  Ewald energy   TEWEN  =    139510.94511684
  -Hartree energ DENC   =   -182854.88543666
  -exchange      EXHF   =         0.00000000
  -V(xc)+E(xc)   XCENC  =     -1701.06788344
  PAW double counting   =     44873.02882129   -41398.84523641
  entropy T*S    EENTRO =        -0.03392546
  eigenvalues    EBANDS =     -3727.36212976
  atomic energy  EATOM  =     45086.50549395
  Solvation  Ediel_sol  =         0.00000000
  ---------------------------------------------------
  free energy    TOTEN  =      -136.46086288 eV

  energy without entropy =     -136.42693742  energy(sigma->0) =     -136.45238151


--------------------------------------------------------------------------------------------------------




--------------------------------------- Iteration      1(   5)  ---------------------------------------


     EDDAV:  cpu time  681.8580: real time  681.8501
       DOS:  cpu time    0.0019: real time    0.0019
    CHARGE:  cpu time   31.5558: real time   31.5551
    MIXING:  cpu time    0.6208: real time    0.6208
    --------------------------------------------
      LOOP:  cpu time  714.0364: real time  714.0278

 eigenvalue-minimisations  :  1040
 total energy-change (2. order) :-0.4509696E+02  (-0.3748425E+02)
 number of electron     559.9999862 magnetization 
 augmentation part      245.0344374 magnetization 

 Broyden mixing:
  rms(total) = 0.18237E+01    rms(broyden)= 0.18229E+01
  rms(prec ) = 0.19248E+01
  weight for this iteration     100.00

 Free energy of the ion-electron system (eV)
  ---------------------------------------------------
  alpha Z        PSCENC =        75.25431677
  Ewald energy   TEWEN  =    139510.94511684
  -Hartree energ DENC   =   -182854.88543666
  -exchange      EXHF   =         0.00000000
  -V(xc)+E(xc)   XCENC  =     -1701.06788344
  PAW double counting   =     44873.02882129   -41398.84523641
  entropy T*S    EENTRO =         0.53612913
  eigenvalues    EBANDS =     -3773.02914454
  atomic energy  EATOM  =     45086.50549395
  Solvation  Ediel_sol  =         0.00000000
  ---------------------------------------------------
  free energy    TOTEN  =      -181.55782306 eV

  energy without entropy =     -182.09395219  energy(sigma->0) =     -181.69185535


--------------------------------------------------------------------------------------------------------




--------------------------------------- Iteration      1(   6)  ---------------------------------------


    POTLOK:  cpu time   17.0375: real time   17.0376
    SETDIJ:  cpu time    0.1475: real time    0.1475
    EDDIAG:  cpu time   91.5437: real time   91.5425
  RMM-DIIS:  cpu time  235.7071: real time  235.7056
    ORTHCH:  cpu time   19.7496: real time   19.7491
       DOS:  cpu time    0.0021: real time    0.0021
    CHARGE:  cpu time   31.5250: real time   31.5244
    MIXING:  cpu time    0.6471: real time    0.6471
    --------------------------------------------
      LOOP:  cpu time  396.3595: real time  396.3559

 eigenvalue-minimisations  :   725
 total energy-change (2. order) : 0.1040070E+01  (-0.6612256E+01)
 number of electron     559.9999889 magnetization 
 augmentation part      240.5266301 magnetization 

 Broyden mixing:
  rms(total) = 0.24526E+01    rms(broyden)= 0.24523E+01
  rms(prec ) = 0.28352E+01
  weight for this iteration     100.00

 eigenvalues of (default mixing * dielectric matrix)
  average eigenvalue GAMMA=   0.3782
  0.3782

 Free energy of the ion-electron system (eV)
  ---------------------------------------------------
  alpha Z        PSCENC =        75.25431677
  Ewald energy   TEWEN  =    139510.94511684
  -Hartree energ DENC   =   -183265.06140737
  -exchange      EXHF   =         0.00000000
  -V(xc)+E(xc)   XCENC  =     -1694.44937779
  PAW double counting   =     45716.48538904   -42216.25744651
  entropy T*S    EENTRO =        -0.12526054
  eigenvalues    EBANDS =     -3393.81457707
  atomic energy  EATOM  =     45086.50549395
  Solvation  Ediel_sol  =         0.00000000
  ---------------------------------------------------
  free energy    TOTEN  =      -180.51775268 eV

  energy without entropy =     -180.39249214  energy(sigma->0) =     -180.48643754


--------------------------------------------------------------------------------------------------------




--------------------------------------- Iteration      1(   7)  ---------------------------------------


    POTLOK:  cpu time   17.2274: real time   17.2289
    SETDIJ:  cpu time    0.1503: real time    0.1503
    EDDIAG:  cpu time   92.1801: real time   92.1790
  RMM-DIIS:  cpu time  275.6378: real time  275.6348
    ORTHCH:  cpu time   19.7913: real time   19.7908
       DOS:  cpu time    0.0021: real time    0.0021
    CHARGE:  cpu time   31.4664: real time   31.4657
    MIXING:  cpu time    0.6802: real time    0.6802
    --------------------------------------------
      LOOP:  cpu time  437.1356: real time  437.1318

 eigenvalue-minimisations  :   848
 total energy-change (2. order) :-0.4698057E+01  (-0.2405516E+01)
 number of electron     559.9999843 magnetization 
 augmentation part      240.0243680 magnetization 

 Broyden mixing:
  rms(total) = 0.27372E+01    rms(broyden)= 0.27369E+01
  rms(prec ) = 0.33625E+01
  weight for this iteration     100.00

 eigenvalues of (default mixing * dielectric matrix)
  average eigenvalue GAMMA=   0.3407
  0.5235  0.1579

 Free energy of the ion-electron system (eV)
  ---------------------------------------------------
  alpha Z        PSCENC =        75.25431677
  Ewald energy   TEWEN  =    139510.94511684
  -Hartree energ DENC   =   -183359.73539646
  -exchange      EXHF   =         0.00000000
  -V(xc)+E(xc)   XCENC  =     -1694.76743978
  PAW double counting   =     45813.52686225   -42310.62623016
  entropy T*S    EENTRO =        -0.09047434
  eigenvalues    EBANDS =     -3306.22805888
  atomic energy  EATOM  =     45086.50549395
  Solvation  Ediel_sol  =         0.00000000
  ---------------------------------------------------
  free energy    TOTEN  =      -185.21580981 eV

  energy without entropy =     -185.12533547  energy(sigma->0) =     -185.19319123


--------------------------------------------------------------------------------------------------------




--------------------------------------- Iteration      1(   8)  ---------------------------------------


    POTLOK:  cpu time   17.1321: real time   17.1334
    SETDIJ:  cpu time    0.1485: real time    0.1485
    EDDIAG:  cpu time   91.2346: real time   91.2333
  RMM-DIIS:  cpu time  261.4723: real time  261.4716
    ORTHCH:  cpu time   19.5823: real time   19.5818
       DOS:  cpu time    0.0021: real time    0.0021
    CHARGE:  cpu time   31.3388: real time   31.3381
    MIXING:  cpu time    0.7418: real time    0.7418
    --------------------------------------------
      LOOP:  cpu time  421.6525: real time  421.6506

 eigenvalue-minimisations  :   801
 total energy-change (2. order) :-0.1453086E+01  (-0.9490369E+00)
 number of electron     559.9999849 magnetization 
 augmentation part      239.8148651 magnetization 

 Broyden mixing:
  rms(total) = 0.27148E+01    rms(broyden)= 0.27145E+01
  rms(prec ) = 0.31561E+01
  weight for this iteration     100.00

 eigenvalues of (default mixing * dielectric matrix)
  average eigenvalue GAMMA=   0.3380
  0.7087  0.1527  0.1527

 Free energy of the ion-electron system (eV)
  ---------------------------------------------------
  alpha Z        PSCENC =        75.25431677
  Ewald energy   TEWEN  =    139510.94511684
  -Hartree energ DENC   =   -183396.50523057
  -exchange      EXHF   =         0.00000000
  -V(xc)+E(xc)   XCENC  =     -1694.92812863
  PAW double counting   =     45886.63894921   -42381.83584160
  entropy T*S    EENTRO =        -0.18630409
  eigenvalues    EBANDS =     -3272.55726794
  atomic energy  EATOM  =     45086.50549395
  Solvation  Ediel_sol  =         0.00000000
  ---------------------------------------------------
  free energy    TOTEN  =      -186.66889608 eV

  energy without entropy =     -186.48259198  energy(sigma->0) =     -186.62232005


--------------------------------------------------------------------------------------------------------




--------------------------------------- Iteration      1(   9)  ---------------------------------------


    POTLOK:  cpu time   17.1117: real time   17.1119
    SETDIJ:  cpu time    0.1492: real time    0.1492
    EDDIAG:  cpu time   91.6367: real time   91.6354
  RMM-DIIS:  cpu time  236.0328: real time  236.0318
    ORTHCH:  cpu time   19.6056: real time   19.6052
       DOS:  cpu time    0.0019: real time    0.0019
    CHARGE:  cpu time   31.0631: real time   31.0624
    MIXING:  cpu time    0.7396: real time    0.7396
    --------------------------------------------
      LOOP:  cpu time  396.3407: real time  396.3374

 eigenvalue-minimisations  :   723
 total energy-change (2. order) : 0.1971596E+01  (-0.8240076E+00)
 number of electron     559.9999835 magnetization 
 augmentation part      240.9150168 magnetization 

 Broyden mixing:
  rms(total) = 0.25830E+01    rms(broyden)= 0.25826E+01
  rms(prec ) = 0.29855E+01
  weight for this iteration     100.00

 eigenvalues of (default mixing * dielectric matrix)
  average eigenvalue GAMMA=   0.3220
  0.8176  0.1737  0.1737  0.1231

 Free energy of the ion-electron system (eV)
  ---------------------------------------------------
  alpha Z        PSCENC =        75.25431677
  Ewald energy   TEWEN  =    139510.94511684
  -Hartree energ DENC   =   -183401.93305597
  -exchange      EXHF   =         0.00000000
  -V(xc)+E(xc)   XCENC  =     -1695.02272629
  PAW double counting   =     45970.04434687   -42463.15910937
  entropy T*S    EENTRO =        -0.20734141
  eigenvalues    EBANDS =     -3267.12434135
  atomic energy  EATOM  =     45086.50549395
  Solvation  Ediel_sol  =         0.00000000
  ---------------------------------------------------
  free energy    TOTEN  =      -184.69729997 eV

  energy without entropy =     -184.48995856  energy(sigma->0) =     -184.64546461


--------------------------------------------------------------------------------------------------------




--------------------------------------- Iteration      1(  10)  ---------------------------------------


    POTLOK:  cpu time   17.1375: real time   17.1404
    SETDIJ:  cpu time    0.1430: real time    0.1430
    EDDIAG:  cpu time   91.7147: real time   91.7134
  RMM-DIIS:  cpu time  238.4385: real time  238.4376
    ORTHCH:  cpu time   19.8214: real time   19.8209
       DOS:  cpu time    0.0022: real time    0.0022
    CHARGE:  cpu time   31.4253: real time   31.4247
    MIXING:  cpu time    0.7927: real time    0.7938
    --------------------------------------------
      LOOP:  cpu time  399.4753: real time  399.4759

 eigenvalue-minimisations  :   732
 total energy-change (2. order) : 0.2467879E+01  (-0.4684884E+00)
 number of electron     559.9999870 magnetization 
 augmentation part      241.2694646 magnetization 

 Broyden mixing:
  rms(total) = 0.25987E+01    rms(broyden)= 0.25983E+01
  rms(prec ) = 0.29893E+01
  weight for this iteration     100.00

 eigenvalues of (default mixing * dielectric matrix)
  average eigenvalue GAMMA=   0.3024
  0.9095  0.1766  0.1766  0.1563  0.0929

 Free energy of the ion-electron system (eV)
  ---------------------------------------------------
  alpha Z        PSCENC =        75.25431677
  Ewald energy   TEWEN  =    139510.94511684
  -Hartree energ DENC   =   -183436.17318720
  -exchange      EXHF   =         0.00000000
  -V(xc)+E(xc)   XCENC  =     -1694.94409300
  PAW double counting   =     46032.83389977   -42524.27965459
  entropy T*S    EENTRO =        -0.08690854
  eigenvalues    EBANDS =     -3232.28440517
  atomic energy  EATOM  =     45086.50549395
  Solvation  Ediel_sol  =         0.00000000
  ---------------------------------------------------
  free energy    TOTEN  =      -182.22942118 eV

  energy without entropy =     -182.14251263  energy(sigma->0) =     -182.20769404


--------------------------------------------------------------------------------------------------------




--------------------------------------- Iteration      1(  11)  ---------------------------------------


    POTLOK:  cpu time   17.1216: real time   17.1231
    SETDIJ:  cpu time    0.1454: real time    0.1454
    EDDIAG:  cpu time   92.2462: real time   92.2460
  RMM-DIIS:  cpu time  234.0873: real time  234.0849
    ORTHCH:  cpu time   19.8873: real time   19.8869
       DOS:  cpu time    0.0021: real time    0.0021
    CHARGE:  cpu time   31.4043: real time   31.4035
    MIXING:  cpu time    0.8253: real time    0.8252
    --------------------------------------------
      LOOP:  cpu time  395.7195: real time  395.7174

 eigenvalue-minimisations  :   720
 total energy-change (2. order) : 0.2797204E+01  (-0.3193695E+00)
 number of electron     559.9999881 magnetization 
 augmentation part      241.6436265 magnetization 

 Broyden mixing:
  rms(total) = 0.16804E+01    rms(broyden)= 0.16801E+01
  rms(prec ) = 0.19165E+01
  weight for this iteration     100.00

 eigenvalues of (default mixing * dielectric matrix)
  average eigenvalue GAMMA=   0.3056
  1.0282  0.2248  0.2248  0.1346  0.1346  0.0869

 Free energy of the ion-electron system (eV)
  ---------------------------------------------------
  alpha Z        PSCENC =        75.25431677
  Ewald energy   TEWEN  =    139510.94511684
  -Hartree energ DENC   =   -183458.49163101
  -exchange      EXHF   =         0.00000000
  -V(xc)+E(xc)   XCENC  =     -1694.79584919
  PAW double counting   =     46080.65915528   -42570.69564958
  entropy T*S    EENTRO =        -0.13942193
  eigenvalues    EBANDS =     -3208.67374814
  atomic energy  EATOM  =     45086.50549395
  Solvation  Ediel_sol  =         0.00000000
  ---------------------------------------------------
  free energy    TOTEN  =      -179.43221701 eV

  energy without entropy =     -179.29279508  energy(sigma->0) =     -179.39736153


--------------------------------------------------------------------------------------------------------




--------------------------------------- Iteration      1(  12)  ---------------------------------------


    POTLOK:  cpu time   17.2626: real time   17.2642
    SETDIJ:  cpu time    0.1396: real time    0.1396
    EDDIAG:  cpu time   91.6703: real time   91.6690
  RMM-DIIS:  cpu time  230.3183: real time  230.3148
    ORTHCH:  cpu time   19.9690: real time   19.9682
       DOS:  cpu time    0.0022: real time    0.0022
    CHARGE:  cpu time   31.4508: real time   31.4495
    MIXING:  cpu time    0.8861: real time    0.8861
    --------------------------------------------
      LOOP:  cpu time  391.6988: real time  391.6935

 eigenvalue-minimisations  :   707
 total energy-change (2. order) : 0.1166182E+01  (-0.2579239E+00)
 number of electron     559.9999848 magnetization 
 augmentation part      241.9027578 magnetization 

 Broyden mixing:
  rms(total) = 0.16708E+01    rms(broyden)= 0.16704E+01
  rms(prec ) = 0.19850E+01
  weight for this iteration     100.00

 eigenvalues of (default mixing * dielectric matrix)
  average eigenvalue GAMMA=   0.2996
  1.0894  0.2737  0.2737  0.1342  0.1342  0.1080  0.0836

 Free energy of the ion-electron system (eV)
  ---------------------------------------------------
  alpha Z        PSCENC =        75.25431677
  Ewald energy   TEWEN  =    139510.94511684
  -Hartree energ DENC   =   -183477.52268549
  -exchange      EXHF   =         0.00000000
  -V(xc)+E(xc)   XCENC  =     -1694.48147735
  PAW double counting   =     46136.99857059   -42625.04814362
  entropy T*S    EENTRO =        -0.05771898
  eigenvalues    EBANDS =     -3190.85950766
  atomic energy  EATOM  =     45086.50549395
  Solvation  Ediel_sol  =         0.00000000
  ---------------------------------------------------
  free energy    TOTEN  =      -178.26603496 eV

  energy without entropy =     -178.20831598  energy(sigma->0) =     -178.25160521


--------------------------------------------------------------------------------------------------------




--------------------------------------- Iteration      1(  13)  ---------------------------------------


    POTLOK:  cpu time   17.5065: real time   17.5075
    SETDIJ:  cpu time    0.1480: real time    0.1480
    EDDIAG:  cpu time   92.1734: real time   92.1710
  RMM-DIIS:  cpu time  237.5180: real time  237.5128
    ORTHCH:  cpu time   19.8570: real time   19.8563
       DOS:  cpu time    0.0019: real time    0.0019
    CHARGE:  cpu time   31.1948: real time   31.1938
    MIXING:  cpu time    0.9015: real time    0.9015
    --------------------------------------------
      LOOP:  cpu time  399.3009: real time  399.2928

 eigenvalue-minimisations  :   729
 total energy-change (2. order) : 0.2789896E+00  (-0.1269326E+00)
 number of electron     559.9999832 magnetization 
 augmentation part      241.7319584 magnetization 

 Broyden mixing:
  rms(total) = 0.18893E+01    rms(broyden)= 0.18890E+01
  rms(prec ) = 0.22398E+01
  weight for this iteration     100.00

 eigenvalues of (default mixing * dielectric matrix)
  average eigenvalue GAMMA=   0.3090
  1.2210  0.3443  0.3443  0.1523  0.1258  0.1258  0.0924  0.0660

 Free energy of the ion-electron system (eV)
  ---------------------------------------------------
  alpha Z        PSCENC =        75.25431677
  Ewald energy   TEWEN  =    139510.94511684
  -Hartree energ DENC   =   -183503.86123638
  -exchange      EXHF   =         0.00000000
  -V(xc)+E(xc)   XCENC  =     -1694.18903450
  PAW double counting   =     46174.74644950   -42661.33416632
  entropy T*S    EENTRO =        -0.03211292
  eigenvalues    EBANDS =     -3166.02187234
  atomic energy  EATOM  =     45086.50549395
  Solvation  Ediel_sol  =         0.00000000
  ---------------------------------------------------
  free energy    TOTEN  =      -177.98704540 eV

  energy without entropy =     -177.95493248  energy(sigma->0) =     -177.97901717


--------------------------------------------------------------------------------------------------------




--------------------------------------- Iteration      1(  14)  ---------------------------------------


    POTLOK:  cpu time   17.1808: real time   17.1818
    SETDIJ:  cpu time    0.1487: real time    0.1487
    EDDIAG:  cpu time   91.5402: real time   91.5381
  RMM-DIIS:  cpu time  235.2669: real time  235.2627
    ORTHCH:  cpu time   20.5037: real time   20.5032
       DOS:  cpu time    0.0021: real time    0.0020
    CHARGE:  cpu time   31.9250: real time   31.9241
    MIXING:  cpu time    1.0123: real time    1.0123
    --------------------------------------------
      LOOP:  cpu time  397.5797: real time  397.5730

 eigenvalue-minimisations  :   719
 total energy-change (2. order) :-0.6806327E+00  (-0.1708616E+00)
 number of electron     559.9999821 magnetization 
 augmentation part      241.3650581 magnetization 

 Broyden mixing:
  rms(total) = 0.28674E+01    rms(broyden)= 0.28672E+01
  rms(prec ) = 0.32755E+01
  weight for this iteration     100.00

 eigenvalues of (default mixing * dielectric matrix)
  average eigenvalue GAMMA=   0.3007
  1.3161  0.3741  0.3741  0.1572  0.1329  0.1329  0.0795  0.0795  0.0603

 Free energy of the ion-electron system (eV)
  ---------------------------------------------------
  alpha Z        PSCENC =        75.25431677
  Ewald energy   TEWEN  =    139510.94511684
  -Hartree energ DENC   =   -183540.62465152
  -exchange      EXHF   =         0.00000000
  -V(xc)+E(xc)   XCENC  =     -1693.62662630
  PAW double counting   =     46244.22005080   -42728.05636258
  entropy T*S    EENTRO =         0.00862112
  eigenvalues    EBANDS =     -3133.29363714
  atomic energy  EATOM  =     45086.50549395
  Solvation  Ediel_sol  =         0.00000000
  ---------------------------------------------------
  free energy    TOTEN  =      -178.66767807 eV

  energy without entropy =     -178.67629919  energy(sigma->0) =     -178.66983335


--------------------------------------------------------------------------------------------------------




--------------------------------------- Iteration      1(  15)  ---------------------------------------


    POTLOK:  cpu time   17.5409: real time   17.5427
    SETDIJ:  cpu time    0.1404: real time    0.1404
    EDDIAG:  cpu time   92.8480: real time   92.8463
  RMM-DIIS:  cpu time  235.8049: real time  235.8031
    ORTHCH:  cpu time   20.2094: real time   20.2088
       DOS:  cpu time    0.0022: real time    0.0022
    CHARGE:  cpu time   31.9660: real time   31.9652
    MIXING:  cpu time    1.0646: real time    1.0646
    --------------------------------------------
      LOOP:  cpu time  399.5765: real time  399.5733

 eigenvalue-minimisations  :   709
 total energy-change (2. order) : 0.7616732E+00  (-0.1420133E+00)
 number of electron     559.9999872 magnetization 
 augmentation part      241.1103868 magnetization 

 Broyden mixing:
  rms(total) = 0.20636E+01    rms(broyden)= 0.20634E+01
  rms(prec ) = 0.24122E+01
  weight for this iteration     100.00

 eigenvalues of (default mixing * dielectric matrix)
  average eigenvalue GAMMA=   0.2938
  1.4131  0.3885  0.3885  0.1578  0.1578  0.1053  0.1053  0.0950  0.0636  0.0636

 Free energy of the ion-electron system (eV)
  ---------------------------------------------------
  alpha Z        PSCENC =        75.25431677
  Ewald energy   TEWEN  =    139510.94511684
  -Hartree energ DENC   =   -183570.23115513
  -exchange      EXHF   =         0.00000000
  -V(xc)+E(xc)   XCENC  =     -1693.22447182
  PAW double counting   =     46293.24285825   -42775.15236292
  entropy T*S    EENTRO =        -0.12824069
  eigenvalues    EBANDS =     -3105.11756013
  atomic energy  EATOM  =     45086.50549395
  Solvation  Ediel_sol  =         0.00000000
  ---------------------------------------------------
  free energy    TOTEN  =      -177.90600488 eV

  energy without entropy =     -177.77776419  energy(sigma->0) =     -177.87394471


--------------------------------------------------------------------------------------------------------




--------------------------------------- Iteration      1(  16)  ---------------------------------------


    POTLOK:  cpu time   17.6764: real time   17.7361
    SETDIJ:  cpu time    0.1470: real time    0.1470
    EDDIAG:  cpu time   93.7189: real time   93.7174
  RMM-DIIS:  cpu time  237.8941: real time  237.8915
    ORTHCH:  cpu time   20.3704: real time   20.3698
       DOS:  cpu time    0.0022: real time    0.0022
    CHARGE:  cpu time   32.1520: real time   32.1511
    MIXING:  cpu time    1.1300: real time    1.1300
    --------------------------------------------
      LOOP:  cpu time  403.0909: real time  403.1450

 eigenvalue-minimisations  :   716
 total energy-change (2. order) : 0.8432973E+00  (-0.9917809E-01)
 number of electron     559.9999870 magnetization 
 augmentation part      241.0118353 magnetization 

 Broyden mixing:
  rms(total) = 0.15403E+01    rms(broyden)= 0.15400E+01
  rms(prec ) = 0.18453E+01
  weight for this iteration     100.00

 eigenvalues of (default mixing * dielectric matrix)
  average eigenvalue GAMMA=   0.2901
  1.4982  0.4560  0.3428  0.1895  0.1895  0.1148  0.1148  0.0824  0.0824  0.0605
  0.0605

 Free energy of the ion-electron system (eV)
  ---------------------------------------------------
  alpha Z        PSCENC =        75.25431677
  Ewald energy   TEWEN  =    139510.94511684
  -Hartree energ DENC   =   -183591.81145628
  -exchange      EXHF   =         0.00000000
  -V(xc)+E(xc)   XCENC  =     -1692.91943585
  PAW double counting   =     46331.60702721   -42812.03741354
  entropy T*S    EENTRO =        -0.09243617
  eigenvalues    EBANDS =     -3084.51392053
  atomic energy  EATOM  =     45086.50549395
  Solvation  Ediel_sol  =         0.00000000
  ---------------------------------------------------
  free energy    TOTEN  =      -177.06270760 eV

  energy without entropy =     -176.97027143  energy(sigma->0) =     -177.03959856


--------------------------------------------------------------------------------------------------------




--------------------------------------- Iteration      1(  17)  ---------------------------------------


    POTLOK:  cpu time   17.6112: real time   17.6127
    SETDIJ:  cpu time    0.1474: real time    0.1474
    EDDIAG:  cpu time   93.6841: real time   93.6854
  RMM-DIIS:  cpu time  237.9999: real time  237.9975
    ORTHCH:  cpu time   20.4152: real time   20.4147
       DOS:  cpu time    0.0023: real time    0.0023
    CHARGE:  cpu time   31.9873: real time   31.9866
    MIXING:  cpu time    1.0919: real time    1.0919
    --------------------------------------------
      LOOP:  cpu time  402.9393: real time  402.9385

 eigenvalue-minimisations  :   717
 total energy-change (2. order) : 0.3959861E+00  (-0.7274029E-01)
 number of electron     559.9999852 magnetization 
 augmentation part      241.1673806 magnetization 

 Broyden mixing:
  rms(total) = 0.16424E+01    rms(broyden)= 0.16422E+01
  rms(prec ) = 0.20213E+01
  weight for this iteration     100.00

 eigenvalues of (default mixing * dielectric matrix)
  average eigenvalue GAMMA=   0.2830
  1.5376  0.4927  0.3255  0.2206  0.2206  0.1214  0.1214  0.0898  0.0898  0.0656
  0.0556  0.0556

 Free energy of the ion-electron system (eV)
  ---------------------------------------------------
  alpha Z        PSCENC =        75.25431677
  Ewald energy   TEWEN  =    139510.94511684
  -Hartree energ DENC   =   -183603.17046622
  -exchange      EXHF   =         0.00000000
  -V(xc)+E(xc)   XCENC  =     -1692.69592271
  PAW double counting   =     46357.60648047   -42836.97203139
  entropy T*S    EENTRO =        -0.03705640
  eigenvalues    EBANDS =     -3074.10265279
  atomic energy  EATOM  =     45086.50549395
  Solvation  Ediel_sol  =         0.00000000
  ---------------------------------------------------
  free energy    TOTEN  =      -176.66672148 eV

  energy without entropy =     -176.62966508  energy(sigma->0) =     -176.65745738


--------------------------------------------------------------------------------------------------------




--------------------------------------- Iteration      1(  18)  ---------------------------------------


    POTLOK:  cpu time   17.6848: real time   17.6860
    SETDIJ:  cpu time    0.1422: real time    0.1422
    EDDIAG:  cpu time   93.1302: real time   93.1292
  RMM-DIIS:  cpu time  239.1507: real time  239.1484
    ORTHCH:  cpu time   20.2594: real time   20.2589
       DOS:  cpu time    0.0021: real time    0.0021
    CHARGE:  cpu time   31.9889: real time   31.9881
    MIXING:  cpu time    1.2046: real time    1.2046
    --------------------------------------------
      LOOP:  cpu time  403.5630: real time  403.5596

 eigenvalue-minimisations  :   718
 total energy-change (2. order) : 0.4076274E+00  (-0.4535403E-01)
 number of electron     559.9999882 magnetization 
 augmentation part      241.2598858 magnetization 

 Broyden mixing:
  rms(total) = 0.13708E+01    rms(broyden)= 0.13706E+01
  rms(prec ) = 0.16352E+01
  weight for this iteration     100.00

 eigenvalues of (default mixing * dielectric matrix)
  average eigenvalue GAMMA=   0.2946
  1.6184  0.6510  0.3283  0.3283  0.1854  0.1335  0.1335  0.1001  0.1001  0.0863
  0.0596  0.0596  0.0455

 Free energy of the ion-electron system (eV)
  ---------------------------------------------------
  alpha Z        PSCENC =        75.25431677
  Ewald energy   TEWEN  =    139510.94511684
  -Hartree energ DENC   =   -183610.87621281
  -exchange      EXHF   =         0.00000000
  -V(xc)+E(xc)   XCENC  =     -1692.55620320
  PAW double counting   =     46372.02122260   -42850.68955289
  entropy T*S    EENTRO =         0.00471992
  eigenvalues    EBANDS =     -3066.86799522
  atomic energy  EATOM  =     45086.50549395
  Solvation  Ediel_sol  =         0.00000000
  ---------------------------------------------------
  free energy    TOTEN  =      -176.25909404 eV

  energy without entropy =     -176.26381396  energy(sigma->0) =     -176.26027402


--------------------------------------------------------------------------------------------------------




--------------------------------------- Iteration      1(  19)  ---------------------------------------


    POTLOK:  cpu time   17.4818: real time   17.4829
    SETDIJ:  cpu time    0.1496: real time    0.1496
    EDDIAG:  cpu time   93.8828: real time   93.8813
  RMM-DIIS:  cpu time  238.4056: real time  238.4025
    ORTHCH:  cpu time   20.3727: real time   20.3721
       DOS:  cpu time    0.0023: real time    0.0023
    CHARGE:  cpu time   31.8425: real time   31.8417
    MIXING:  cpu time    1.2370: real time    1.2370
    --------------------------------------------
      LOOP:  cpu time  403.3742: real time  403.3695

 eigenvalue-minimisations  :   710
 total energy-change (2. order) : 0.1084219E+00  (-0.5554094E-01)
 number of electron     559.9999860 magnetization 
 augmentation part      241.1960992 magnetization 

 Broyden mixing:
  rms(total) = 0.14162E+01    rms(broyden)= 0.14160E+01
  rms(prec ) = 0.16595E+01
  weight for this iteration     100.00

 eigenvalues of (default mixing * dielectric matrix)
  average eigenvalue GAMMA=   0.3012
  1.7087  0.7415  0.3953  0.3953  0.1533  0.1533  0.1145  0.1145  0.0994  0.0994
  0.0777  0.0603  0.0603  0.0436

 Free energy of the ion-electron system (eV)
  ---------------------------------------------------
  alpha Z        PSCENC =        75.25431677
  Ewald energy   TEWEN  =    139510.94511684
  -Hartree energ DENC   =   -183633.38441265
  -exchange      EXHF   =         0.00000000
  -V(xc)+E(xc)   XCENC  =     -1692.27764412
  PAW double counting   =     46399.39838418   -42876.69950750
  entropy T*S    EENTRO =         0.07061579
  eigenvalues    EBANDS =     -3045.96303536
  atomic energy  EATOM  =     45086.50549395
  Solvation  Ediel_sol  =         0.00000000
  ---------------------------------------------------
  free energy    TOTEN  =      -176.15067209 eV

  energy without entropy =     -176.22128788  energy(sigma->0) =     -176.16832603


--------------------------------------------------------------------------------------------------------




--------------------------------------- Iteration      1(  20)  ---------------------------------------


    POTLOK:  cpu time   17.5652: real time   17.6716
    SETDIJ:  cpu time    0.1444: real time    0.1444
    EDDIAG:  cpu time   93.0860: real time   93.0856
  RMM-DIIS:  cpu time  236.2649: real time  236.2625
    ORTHCH:  cpu time   20.2366: real time   20.2361
       DOS:  cpu time    0.0021: real time    0.0021
    CHARGE:  cpu time   31.7120: real time   31.7112
    MIXING:  cpu time    1.3486: real time    1.3486
    --------------------------------------------
      LOOP:  cpu time  400.3598: real time  400.4622

 eigenvalue-minimisations  :   708
 total energy-change (2. order) :-0.1196343E-01  (-0.4194684E-01)
 number of electron     559.9999863 magnetization 
 augmentation part      241.2879376 magnetization 

 Broyden mixing:
  rms(total) = 0.15095E+01    rms(broyden)= 0.15094E+01
  rms(prec ) = 0.17752E+01
  weight for this iteration     100.00

 eigenvalues of (default mixing * dielectric matrix)
  average eigenvalue GAMMA=   0.3056
  1.7460  0.8559  0.4407  0.4407  0.1804  0.1804  0.1208  0.1208  0.0976  0.0976
  0.0842  0.0615  0.0577  0.0577  0.0413

 Free energy of the ion-electron system (eV)
  ---------------------------------------------------
  alpha Z        PSCENC =        75.25431677
  Ewald energy   TEWEN  =    139510.94511684
  -Hartree energ DENC   =   -183643.90743338
  -exchange      EXHF   =         0.00000000
  -V(xc)+E(xc)   XCENC  =     -1692.13105137
  PAW double counting   =     46413.32414467   -42889.82902259
  entropy T*S    EENTRO =         0.15227085
  eigenvalues    EBANDS =     -3036.47647126
  atomic energy  EATOM  =     45086.50549395
  Solvation  Ediel_sol  =         0.00000000
  ---------------------------------------------------
  free energy    TOTEN  =      -176.16263552 eV

  energy without entropy =     -176.31490637  energy(sigma->0) =     -176.20070323


--------------------------------------------------------------------------------------------------------




--------------------------------------- Iteration      1(  21)  ---------------------------------------


    POTLOK:  cpu time   17.4940: real time   17.4959
    SETDIJ:  cpu time    0.1485: real time    0.1485
    EDDIAG:  cpu time   93.0444: real time   93.0438
  RMM-DIIS:  cpu time  231.9017: real time  231.9007
    ORTHCH:  cpu time   20.2935: real time   20.2930
       DOS:  cpu time    0.0022: real time    0.0022
    CHARGE:  cpu time   32.1397: real time   32.1388
    MIXING:  cpu time    1.4678: real time    1.4678
    --------------------------------------------
      LOOP:  cpu time  396.4918: real time  396.4907

 eigenvalue-minimisations  :   696
 total energy-change (2. order) : 0.3398029E+00  (-0.3563353E-01)
 number of electron     559.9999872 magnetization 
 augmentation part      241.2855752 magnetization 

 Broyden mixing:
  rms(total) = 0.85742E+00    rms(broyden)= 0.85727E+00
  rms(prec ) = 0.97656E+00
  weight for this iteration     100.00

 eigenvalues of (default mixing * dielectric matrix)
  average eigenvalue GAMMA=   0.3137
  1.8236  1.0195  0.4502  0.4502  0.2044  0.2044  0.1255  0.1255  0.1217  0.0970
  0.0970  0.0825  0.0583  0.0583  0.0590  0.0415

 Free energy of the ion-electron system (eV)
  ---------------------------------------------------
  alpha Z        PSCENC =        75.25431677
  Ewald energy   TEWEN  =    139510.94511684
  -Hartree energ DENC   =   -183656.74668900
  -exchange      EXHF   =         0.00000000
  -V(xc)+E(xc)   XCENC  =     -1692.03643911
  PAW double counting   =     46419.91586404   -42895.82813534
  entropy T*S    EENTRO =         0.00111935
  eigenvalues    EBANDS =     -3023.83348011
  atomic energy  EATOM  =     45086.50549395
  Solvation  Ediel_sol  =         0.00000000
  ---------------------------------------------------
  free energy    TOTEN  =      -175.82283261 eV

  energy without entropy =     -175.82395196  energy(sigma->0) =     -175.82311245


--------------------------------------------------------------------------------------------------------




--------------------------------------- Iteration      1(  22)  ---------------------------------------


    POTLOK:  cpu time   17.4518: real time   17.4528
    SETDIJ:  cpu time    0.1478: real time    0.1478
    EDDIAG:  cpu time   94.0318: real time   94.0306
  RMM-DIIS:  cpu time  231.9825: real time  231.9795
    ORTHCH:  cpu time   20.4912: real time   20.4906
       DOS:  cpu time    0.0023: real time    0.0023
    CHARGE:  cpu time   32.2377: real time   32.2370
    MIXING:  cpu time    1.4868: real time    1.4867
    --------------------------------------------
      LOOP:  cpu time  397.8318: real time  397.8273

 eigenvalue-minimisations  :   699
 total energy-change (2. order) : 0.1821681E+00  (-0.2545203E-01)
 number of electron     559.9999866 magnetization 
 augmentation part      241.2501198 magnetization 

 Broyden mixing:
  rms(total) = 0.76445E+00    rms(broyden)= 0.76427E+00
  rms(prec ) = 0.86816E+00
  weight for this iteration     100.00

 eigenvalues of (default mixing * dielectric matrix)
  average eigenvalue GAMMA=   0.3076
  1.8937  1.0046  0.4394  0.4394  0.2139  0.2139  0.1515  0.1295  0.1295  0.1213
  0.0984  0.0984  0.0787  0.0584  0.0584  0.0588  0.0415

 Free energy of the ion-electron system (eV)
  ---------------------------------------------------
  alpha Z        PSCENC =        75.25431677
  Ewald energy   TEWEN  =    139510.94511684
  -Hartree energ DENC   =   -183680.32908336
  -exchange      EXHF   =         0.00000000
  -V(xc)+E(xc)   XCENC  =     -1691.79144022
  PAW double counting   =     46432.97910100   -42907.73939772
  entropy T*S    EENTRO =        -0.04277399
  eigenvalues    EBANDS =     -3001.42199780
  atomic energy  EATOM  =     45086.50549395
  Solvation  Ediel_sol  =         0.00000000
  ---------------------------------------------------
  free energy    TOTEN  =      -175.64066452 eV

  energy without entropy =     -175.59789054  energy(sigma->0) =     -175.62997102


--------------------------------------------------------------------------------------------------------




--------------------------------------- Iteration      1(  23)  ---------------------------------------


    POTLOK:  cpu time   17.5449: real time   17.5463
    SETDIJ:  cpu time    0.1445: real time    0.1445
    EDDIAG:  cpu time   93.8797: real time   93.8795
  RMM-DIIS:  cpu time  232.3827: real time  232.3810
    ORTHCH:  cpu time   20.3298: real time   20.3294
       DOS:  cpu time    0.0022: real time    0.0022
    CHARGE:  cpu time   32.1053: real time   32.1048
    MIXING:  cpu time    1.6420: real time    1.6420
    --------------------------------------------
      LOOP:  cpu time  398.0313: real time  398.0297

 eigenvalue-minimisations  :   695
 total energy-change (2. order) : 0.2039287E+00  (-0.1379827E-01)
 number of electron     559.9999865 magnetization 
 augmentation part      241.2288612 magnetization 

 Broyden mixing:
  rms(total) = 0.59523E+00    rms(broyden)= 0.59509E+00
  rms(prec ) = 0.68353E+00
  weight for this iteration     100.00

 eigenvalues of (default mixing * dielectric matrix)
  average eigenvalue GAMMA=   0.3137
[...]
 -0.007  -0.012   0.004   0.005   0.005  -0.006  -0.012   0.004
 -0.011  -0.021   0.007   0.008   0.009  -0.011  -0.020   0.006
 -0.015  -0.005   0.013   0.000   0.022  -0.014  -0.005   0.012
  0.000  -0.023  -0.006  -0.015  -0.000   0.000  -0.022  -0.006
 -0.022   0.000   0.009  -0.005  -0.016  -0.022   0.000   0.009
 -0.018  -0.006   0.015   0.000   0.027  -0.017  -0.006   0.015
  0.000  -0.027  -0.008  -0.018   0.000   0.000  -0.027  -0.007
 -0.027   0.000   0.011  -0.006  -0.019  -0.026   0.000   0.010
 total augmentation occupancy for first ion, spin component:           1
  1.540  -0.033   0.002   0.021   0.025   0.076  -0.007  -0.002   0.035  -0.010   0.093  -0.032   0.012   0.002   0.002  -0.019
 -0.033   1.397   0.031   0.067   0.002  -0.006   0.072   0.010  -0.013  -0.008   0.210  -0.065   0.019   0.002   0.002  -0.006
  0.002   0.031   1.544  -0.002   0.002  -0.002   0.012   0.074  -0.012   0.017  -0.053   0.018  -0.003  -0.007  -0.004   0.016
  0.021   0.067  -0.002   1.338   0.046   0.033  -0.012  -0.012   0.091  -0.023  -0.080   0.022  -0.001  -0.008  -0.005   0.001
  0.025   0.002   0.002   0.046   1.435  -0.010  -0.009   0.016  -0.023   0.068  -0.092   0.029  -0.002  -0.010  -0.010   0.026
  0.076  -0.006  -0.002   0.033  -0.010   0.217   0.018  -0.002  -0.044   0.004  -0.047   0.001   0.017  -0.010   0.035  -0.004
 -0.007   0.072   0.012  -0.012  -0.009   0.018   0.263  -0.023  -0.004   0.006  -0.107   0.007  -0.001   0.051  -0.010  -0.001
 -0.002   0.010   0.074  -0.012   0.016  -0.002  -0.023   0.215   0.013  -0.020   0.027  -0.001  -0.012   0.009  -0.018   0.003
  0.035  -0.013  -0.012   0.091  -0.023  -0.044  -0.004   0.013   0.261   0.007   0.042  -0.003  -0.009   0.036   0.005   0.000
 -0.010  -0.008   0.017  -0.023   0.068   0.004   0.006  -0.020   0.007   0.258   0.047  -0.003  -0.038   0.002   0.049   0.007
  0.093   0.210  -0.053  -0.080  -0.092  -0.047  -0.107   0.027   0.042   0.047   0.945  -0.140   0.084   0.014   0.064  -0.013
 -0.032  -0.065   0.018   0.022   0.029   0.001   0.007  -0.001  -0.003  -0.003  -0.140   0.023  -0.014  -0.003  -0.010   0.003
  0.012   0.019  -0.003  -0.001  -0.002   0.017  -0.001  -0.012  -0.009  -0.038   0.084  -0.014   0.029  -0.008  -0.004  -0.003
  0.002   0.002  -0.007  -0.008  -0.010  -0.010   0.051   0.009   0.036   0.002   0.014  -0.003  -0.008   0.036   0.004   0.000
  0.002   0.002  -0.004  -0.005  -0.010   0.035  -0.010  -0.018   0.005   0.049   0.064  -0.010  -0.004   0.004   0.035  -0.000
 -0.019  -0.006   0.016   0.001   0.026  -0.004  -0.001   0.003   0.000   0.007  -0.013   0.003  -0.003   0.000  -0.000   0.001
  0.001  -0.028  -0.007  -0.018   0.001   0.001  -0.008  -0.002  -0.006   0.000  -0.003   0.001   0.000  -0.003  -0.000   0.000
 -0.028   0.001   0.012  -0.006  -0.020  -0.006   0.001   0.003  -0.001  -0.007  -0.008   0.001  -0.000  -0.000  -0.003   0.000


------------------------ aborting loop because EDIFF is reached ----------------------------------------


    CHARGE:  cpu time   34.4838: real time   34.4828
    FORLOC:  cpu time   10.0716: real time   10.0714
    FORNL :  cpu time   89.0818: real time   89.0793
    STRESS:  cpu time  268.4844: real time  268.4773
    FORCOR:  cpu time   31.3803: real time   31.3796
    FORHAR:  cpu time   14.3901: real time   14.3898
    MIXING:  cpu time    5.4184: real time    5.4183
    OFIELD:  cpu time    0.0001: real time    0.0000

  FORCE on cell =-STRESS in cart. coord.  units (eV):
  Direction    XX          YY          ZZ          XY          YZ          ZX
  --------------------------------------------------------------------------------------
  Alpha Z    75.25432    75.25432    75.25432
  Ewald   49452.63355 44660.27759 45397.92806   -51.33756   100.34641 -1006.65992
  Hartree 64089.29357 59512.26488 60259.83121   -80.36219    70.98664  -964.54737
  E(xc)   -2906.44830 -2906.68346 -2907.25181    -0.01375     0.11697    -0.18027
  Local  ************************************   135.91181  -167.80045  1963.82281
  n-local  -885.84038  -873.70338  -883.28046     3.38393     1.27809     5.39154
  augment  4105.08085  4097.88130  4106.59960    -1.75198    -1.12027    -1.81094
  Kinetic  7808.33020  7809.33221  7821.90600    -2.41105    -2.39562     0.57322
  Fock        0.00000     0.00000     0.00000     0.00000     0.00000     0.00000
  -------------------------------------------------------------------------------------
  Total     -98.77288  -109.32841  -110.65725     3.41920     1.41177    -3.41093
  in kB      -5.86117    -6.48754    -6.56639     0.20289     0.08377    -0.20240
  external pressure =       -6.31 kB  Pullay stress =        0.00 kB


 VOLUME and BASIS-vectors are now :
 -----------------------------------------------------------------------------
  energy-cutoff  :      400.00
  volume of cell :    27000.00
      direct lattice vectors                 reciprocal lattice vectors
    30.000000000  0.000000000  0.000000000     0.033333333  0.000000000  0.000000000
     0.000000000 30.000000000  0.000000000     0.000000000  0.033333333  0.000000000
     0.000000000  0.000000000 30.000000000     0.000000000  0.000000000  0.033333333

  length of vectors
    30.000000000 30.000000000 30.000000000     0.033333333  0.033333333  0.033333333


 FORCES acting on ions
    electron-ion (+dipol)            ewald-force                    non-local-force                 convergence-correction
 -----------------------------------------------------------------------------------------------
   0.384E+03 0.980E+03 0.425E+03   -.382E+03 -.977E+03 -.424E+03   -.149E+01 -.182E+01 -.229E+00   -.146E-02 0.330E-02 0.406E-02
   -.974E+03 -.394E+03 0.419E+03   0.972E+03 0.392E+03 -.418E+03   0.183E+01 0.149E+01 -.214E+00   -.241E-05 0.122E-02 0.344E-02
   -.401E+03 0.975E+03 0.420E+03   0.398E+03 -.972E+03 -.420E+03   0.150E+01 -.182E+01 -.221E+00   -.632E-02 -.384E-03 0.399E-02
   0.955E+03 -.407E+03 0.462E+03   -.952E+03 0.405E+03 -.462E+03   -.184E+01 0.156E+01 -.210E+00   0.435E-02 -.149E-02 0.251E-02
   -.712E+01 0.590E+03 0.971E+03   0.714E+01 -.589E+03 -.967E+03   -.892E-02 -.301E+00 -.234E+01   -.559E-02 -.249E-02 0.660E-02
   -.166E+02 0.595E+03 -.970E+03   0.166E+02 -.594E+03 0.966E+03   0.666E-02 -.322E+00 0.236E+01   -.304E-02 -.128E-02 -.269E-02
   -.850E+01 0.114E+04 0.305E+01   0.851E+01 -.114E+04 -.306E+01   -.109E-01 -.311E+01 0.113E-01   -.243E-02 0.442E-02 -.403E-02
   0.114E+04 0.228E+02 0.249E+03   -.113E+04 -.228E+02 -.248E+03   -.334E+01 -.884E-01 -.138E+01   0.444E-02 -.101E-02 -.218E-02
   -.113E+04 0.130E+00 0.142E+01   0.113E+04 -.129E+00 -.139E+01   0.312E+01 -.114E-02 -.197E-01   -.131E-03 0.800E-03 -.117E-02
   -.937E+01 -.114E+04 0.335E+01   0.938E+01 0.114E+04 -.336E+01   -.109E-01 0.311E+01 0.101E-01   -.290E-02 -.388E-02 -.232E-02
   -.582E+03 0.580E+03 0.815E+03   0.580E+03 -.577E+03 -.812E+03   0.156E+01 -.156E+01 -.220E+01   -.272E-02 -.314E-02 0.216E-02
   -.586E+03 0.581E+03 -.814E+03   0.583E+03 -.579E+03 0.811E+03   0.155E+01 -.156E+01 0.221E+01   -.727E-04 -.395E-02 -.142E-02
   0.570E+03 -.584E+03 0.827E+03   -.568E+03 0.582E+03 -.823E+03   -.154E+01 0.156E+01 -.218E+01   0.969E-04 -.599E-03 0.532E-02
   0.545E+03 -.608E+03 -.836E+03   -.542E+03 0.606E+03 0.832E+03   -.160E+01 0.162E+01 0.236E+01   -.145E-02 0.610E-03 -.381E-02
   0.570E+03 0.585E+03 0.826E+03   -.568E+03 -.583E+03 -.823E+03   -.155E+01 -.156E+01 -.218E+01   0.702E-03 -.268E-03 0.681E-02
   0.549E+03 0.608E+03 -.832E+03   -.547E+03 -.605E+03 0.829E+03   -.161E+01 -.159E+01 0.230E+01   -.170E-02 -.268E-03 -.357E-02
   -.582E+03 -.579E+03 0.815E+03   0.580E+03 0.577E+03 -.812E+03   0.156E+01 0.156E+01 -.220E+01   -.640E-03 0.208E-02 0.222E-02
   -.586E+03 -.581E+03 -.814E+03   0.584E+03 0.578E+03 0.811E+03   0.156E+01 0.156E+01 0.221E+01   0.596E-03 0.304E-02 -.121E-02
   0.377E+03 0.988E+03 -.416E+03   -.374E+03 -.985E+03 0.416E+03   -.145E+01 -.186E+01 0.225E+00   -.221E-02 0.104E-02 -.749E-02
   -.976E+03 -.395E+03 -.416E+03   0.973E+03 0.392E+03 0.415E+03   0.183E+01 0.150E+01 0.224E+00   0.141E-02 0.148E-02 -.551E-02
   -.331E+03 0.323E+03 0.459E+03   0.331E+03 -.323E+03 -.459E+03   -.373E+00 0.372E+00 0.528E+00   -.718E-02 -.238E-02 0.598E-02
   0.956E+03 0.410E+03 0.459E+03   -.953E+03 -.408E+03 -.458E+03   -.183E+01 -.157E+01 -.229E+00   0.504E-02 -.138E-02 0.290E-02
   -.401E+03 -.975E+03 0.420E+03   0.399E+03 0.972E+03 -.420E+03   0.150E+01 0.182E+01 -.220E+00   -.467E-02 -.323E-03 0.397E-02
   -.404E+03 0.977E+03 -.416E+03   0.402E+03 -.974E+03 0.415E+03   0.150E+01 -.182E+01 0.229E+00   -.202E-02 -.154E-02 -.629E-02
   0.753E+03 -.623E+03 -.458E+03   -.751E+03 0.618E+03 0.457E+03   0.231E+01 0.698E+01 0.174E+01   0.194E-02 0.203E-03 -.490E-02
   -.974E+03 0.395E+03 0.418E+03   0.971E+03 -.392E+03 -.418E+03   0.183E+01 -.149E+01 -.213E+00   -.860E-03 -.149E-03 0.362E-02
   0.383E+03 -.980E+03 0.426E+03   -.381E+03 0.978E+03 -.425E+03   -.149E+01 0.182E+01 -.232E+00   -.125E-02 -.327E-02 0.420E-02
   0.302E+03 0.328E+03 0.470E+03   -.302E+03 -.328E+03 -.471E+03   0.395E+00 0.336E+00 0.472E+00   -.356E-02 -.250E-02 0.559E-02
   -.172E+02 0.647E+03 0.608E+01   0.172E+02 -.648E+03 -.608E+01   0.533E-02 0.725E+00 0.917E-02   -.569E-02 -.694E-03 -.553E-02
   -.591E+03 0.142E+00 0.968E+03   0.590E+03 -.142E+00 -.964E+03   0.318E+00 -.705E-03 -.235E+01   -.708E-03 0.269E-03 0.179E-02
   -.595E+03 0.240E+00 -.966E+03   0.594E+03 -.240E+00 0.963E+03   0.286E+00 0.241E-03 0.235E+01   -.396E-03 -.469E-03 -.126E-02
   0.576E+03 0.614E+00 0.983E+03   -.576E+03 -.607E+00 -.980E+03   -.279E+00 -.383E-02 -.238E+01   -.559E-03 -.149E-02 0.642E-02
   0.520E+03 0.442E+01 -.102E+04   -.519E+03 -.443E+01 0.101E+04   -.416E+00 0.501E-02 0.224E+01   -.105E-02 -.625E-03 -.343E-02
   0.732E+03 0.792E+03 0.201E+02   -.730E+03 -.790E+03 -.202E+02   -.121E+01 -.114E+01 -.118E-02   0.228E-02 0.873E-03 -.503E-02
   -.768E+03 -.763E+03 0.228E+01   0.766E+03 0.761E+03 -.228E+01   0.114E+01 0.114E+01 0.167E-03   -.305E-02 0.606E-04 -.227E-02
   -.767E+03 0.763E+03 0.219E+01   0.765E+03 -.761E+03 -.219E+01   0.114E+01 -.114E+01 -.229E-02   -.443E-02 -.181E-02 -.189E-02
   0.727E+03 -.794E+03 0.237E+02   -.725E+03 0.792E+03 -.237E+02   -.121E+01 0.114E+01 -.198E-01   0.331E-02 -.174E-02 -.285E-02
   -.859E+01 0.286E+00 0.108E+04   0.862E+01 -.286E+00 -.107E+04   -.259E-01 0.820E-03 -.162E+01   -.560E-02 -.125E-02 0.543E-02
   -.238E+02 0.766E+00 -.108E+04   0.238E+02 -.766E+00 0.107E+04   0.347E-01 -.217E-02 0.163E+01   -.458E-02 -.423E-03 -.271E-02
   0.824E+03 0.585E+03 -.442E+03   -.823E+03 -.581E+03 0.441E+03   -.370E+00 -.349E+01 0.657E+00   0.240E-02 -.146E-02 -.551E-02
   -.405E+03 -.977E+03 -.416E+03   0.402E+03 0.974E+03 0.415E+03   0.150E+01 0.182E+01 0.227E+00   -.334E-02 0.756E-03 -.608E-02
   -.337E+03 0.324E+03 -.453E+03   0.337E+03 -.325E+03 0.453E+03   -.371E+00 0.371E+00 -.525E+00   -.464E-02 -.166E-02 -.828E-02
   0.301E+03 -.326E+03 0.471E+03   -.302E+03 0.327E+03 -.472E+03   0.394E+00 -.338E+00 0.469E+00   -.261E-02 -.360E-03 0.599E-02
   0.275E+03 0.339E+03 -.454E+03   -.275E+03 -.339E+03 0.455E+03   0.396E+00 0.417E+00 -.558E+00   -.301E-02 -.506E-03 -.864E-02
   -.976E+03 0.395E+03 -.416E+03   0.973E+03 -.393E+03 0.415E+03   0.183E+01 -.150E+01 0.223E+00   0.716E-03 -.162E-02 -.511E-02
   0.374E+03 -.989E+03 -.416E+03   -.372E+03 0.986E+03 0.416E+03   -.144E+01 0.187E+01 0.227E+00   -.224E-02 -.125E-02 -.648E-02
   -.331E+03 -.322E+03 0.459E+03   0.332E+03 0.323E+03 -.460E+03   -.375E+00 -.371E+00 0.527E+00   -.576E-02 0.781E-03 0.642E-02
   0.563E+03 0.498E+01 0.541E+02   -.564E+03 -.501E+01 -.546E+02   0.342E+00 0.274E-01 0.350E+00   0.275E-02 -.161E-02 -.454E-02
   -.647E+03 0.247E+00 0.268E+01   0.648E+03 -.247E+00 -.267E+01   -.716E+00 -.247E-03 -.470E-02   -.329E-02 0.166E-03 -.227E-02
   -.746E+01 -.589E+03 0.971E+03   0.748E+01 0.589E+03 -.968E+03   -.109E-01 0.299E+00 -.234E+01   -.464E-02 0.127E-02 0.535E-02
   -.179E+02 -.595E+03 -.970E+03   0.179E+02 0.594E+03 0.967E+03   -.520E-02 0.321E+00 0.236E+01   -.390E-02 0.109E-02 -.326E-02
   -.254E+02 0.819E+00 0.889E+01   0.254E+02 -.817E+00 -.888E+01   0.161E-01 -.345E-02 -.325E-02   -.584E-02 -.218E-03 -.395E-02
   0.271E+03 -.336E+03 -.454E+03   -.271E+03 0.337E+03 0.455E+03   0.420E+00 -.435E+00 -.576E+00   -.224E-02 0.340E-03 -.852E-02
   -.337E+03 -.324E+03 -.453E+03   0.338E+03 0.324E+03 0.453E+03   -.365E+00 -.370E+00 -.524E+00   -.499E-02 0.503E-03 -.873E-02
   -.186E+02 -.647E+03 0.654E+01   0.186E+02 0.648E+03 -.654E+01   0.720E-02 -.720E+00 0.108E-01   -.546E-02 -.975E-03 -.361E-02
   0.270E+03 0.198E+02 -.845E+02   -.252E+03 -.230E+02 0.775E+02   -.114E+02 -.136E+00 0.309E+01   0.828E-03 0.253E-05 -.150E-02
   0.881E+03 -.268E+02 -.338E+03   -.945E+03 0.281E+02 0.361E+03   0.537E+02 -.136E+01 -.197E+02   0.126E-02 -.106E-03 -.158E-02
 -----------------------------------------------------------------------------------------------
   -.471E+02 -.194E+01 0.157E+02   0.000E+00 -.190E-11 -.176E-11   0.472E+02 0.195E+01 -.157E+02   -.961E-01 -.243E-01 -.549E-01
 
 
 POSITION                                       TOTAL-FORCE (eV/Angst)
 -----------------------------------------------------------------------------------
     13.37281      9.84801     12.50759         0.713284      1.106714      0.289311
     20.15199     16.62719     12.50759        -1.110877     -0.697073      0.286809
     16.62719      9.84801     12.50759        -0.703896      1.105927      0.293881
      9.84801     16.62719     12.50759         1.147783     -0.691079      0.214022
     15.00000     11.47521     10.20639         0.008194      0.408674      1.277990
     15.00000     11.47521     19.79360        -0.006958      0.419870     -1.276259
     15.00000      8.28283     15.00000         0.003143      1.518914     -0.004832
      8.28283     15.00000     15.00000         1.623922     -0.034448     -0.088788
     21.71717     15.00000     15.00000        -1.514643      0.000584      0.010818
     15.00000     21.71717     15.00000         0.003362     -1.518397     -0.004310
     18.35858     11.64142     10.25025        -0.756122      0.753823      1.070141
     18.35858     11.64142     19.74975        -0.756200      0.756012     -1.073702
     11.64142     18.35858     10.25025         0.757179     -0.755592      1.065909
     11.64142     18.35858     19.74975         0.792600     -0.714442     -1.024225
     11.64142     11.64142     10.25025         0.758037      0.754472      1.065854
     11.64142     11.64142     19.74975         0.786914      0.730882     -1.046084
     18.35858     18.35858     10.25025        -0.755107     -0.753313      1.069714
     18.35858     18.35858     19.74975        -0.756942     -0.754832     -1.073363
     13.37281      9.84801     17.49241         0.702695      1.110742     -0.290943
     20.15199     16.62719     17.49241        -1.109981     -0.697722     -0.288255
     16.73751     13.26249     12.54279         0.106003     -0.111541     -0.151508
      9.84801     13.37281     12.50759         1.144922      0.691989      0.219689
     16.62719     20.15199     12.50759        -0.702977     -1.105699      0.293735
     16.62719      9.84801     17.49241        -0.703436      1.106963     -0.296003
      9.84801     16.62719     17.49241         3.752666      2.411990      0.433818
     20.15199     13.37281     12.50759        -1.110460      0.697986      0.286340
     13.37281     20.15199     12.50759         0.715883     -1.103939      0.285983
     13.26249     13.26249     12.54279        -0.113426     -0.105447     -0.156231
     15.00000     11.52498     15.00000        -0.000565     -0.232370      0.002198
     18.52479     15.00000     10.20639        -0.414142      0.000600      1.276282
     18.52479     15.00000     19.79360        -0.406788      0.000317     -1.287165
     11.47521     15.00000     10.20640         0.388014      0.002423      1.298096
     11.47521     15.00000     19.79360         0.519042     -0.009574     -1.180192
     11.49535     11.49535     15.00000         0.870782      0.789581     -0.036257
     18.50465     18.50465     15.00000        -0.829779     -0.828056     -0.000248
     18.50465     11.49535     15.00000        -0.829656      0.827911     -0.000137
     11.49535     18.50465     15.00000         0.877939     -0.781538     -0.045658
     15.00000     15.00000     10.04368         0.003861      0.000194      1.184978
     15.00000     15.00000     19.95633        -0.002362     -0.002463     -1.178540
      9.84801     13.37281     17.49241         1.088929      1.003544     -0.389463
     16.62719     20.15199     17.49241        -0.705007     -1.106496     -0.295663
     16.73751     13.26249     17.45721         0.124252     -0.110712      0.151964
     13.26249     16.73751     12.54279        -0.114201      0.103849     -0.157529
     13.26249     13.26249     17.45721        -0.075537     -0.124189      0.162578
     20.15199     13.37281     17.49241        -1.111414      0.697574     -0.287624
     13.37281     20.15199     17.49241         0.702111     -1.109792     -0.291587
     16.73751     16.73751     12.54279         0.105606      0.111047     -0.149604
     11.52498     15.00000     15.00000        -0.020120     -0.006966     -0.120871
     18.47502     15.00000     15.00000         0.230252      0.000701      0.002959
     15.00000     18.52480     10.20639         0.007429     -0.408899      1.278925
     15.00000     18.52480     19.79360        -0.000652     -0.419742     -1.277566
     15.00000     15.00000     15.00000        -0.010100     -0.001025      0.003085
     13.26249     16.73751     17.45721        -0.077041      0.126588      0.159439
     16.73751     16.73751     17.45721         0.126449      0.110996      0.153183
     15.00000     18.47502     15.00000        -0.000986      0.233808      0.003479
      8.87533     15.19248     17.09798         6.942355     -3.339669     -3.990260
      7.80867     15.22600     17.46336       -10.304235     -0.059660      3.621686
 -----------------------------------------------------------------------------------
    total drift:                               -0.016663     -0.011504     -0.001465


--------------------------------------------------------------------------------------------------------



  FREE ENERGIE OF THE ION-ELECTRON SYSTEM (eV)
  ---------------------------------------------------
  free  energy   TOTEN  =      -175.16750237 eV

  energy  without entropy=     -175.11170841  energy(sigma->0) =     -175.15355388
 


--------------------------------------------------------------------------------------------------------


    POTLOK:  cpu time   20.0658: real time   20.0654


--------------------------------------------------------------------------------------------------------


     LOOP+:  cpu time24910.9838: real time24911.4835
    4ORBIT:  cpu time    0.0000: real time    0.0000

 total amount of memory used by VASP MPI-rank0  5486941. kBytes
=======================================================================

   base      :      30000. kBytes
   nonlr-proj:      17126. kBytes
   fftplans  :     924480. kBytes
   grid      :    1872000. kBytes
   one-center:        886. kBytes
   wavefun   :    2642449. kBytes
 
  
  
 General timing and accounting informations for this job:
 ========================================================
  
                  Total CPU time used (sec):    25009.584
                            User time (sec):    22984.929
                          System time (sec):     2024.654
                         Elapsed time (sec):    25010.306
  
                   Maximum memory used (kb):     7178160.
                   Average memory used (kb):           0.
  
                          Minor page faults:    861212725
                          Major page faults:            0
                 Voluntary context switches:          679
