   57   57    1    1
  0.4736842E+03  0.3000000E-08  0.3000000E-08  0.3000000E-08  0.5000000E-15
  1.000000000000000E-004
  CAR 
 6_Pd100_top_free_z(O)                   
    560      1    336
 
  0.0000000E+00  0.0000000E+00  0.0000000E+00  0.1000000E+01
    1      -28.382111   1.000000
    2      -13.607553   1.000000
    3      -11.880837   1.000000
    4      -11.342905   1.000000
    5      -10.510200   1.000000
    6       -6.780443   1.000000
    7       -6.635779   1.000000
    8       -6.220801   1.000000
    9       -6.144432   1.000000
   10       -6.130667   1.000000
   11       -6.124909   1.000000
   12       -5.976412   1.000000
   13       -5.884881   1.000000
   14       -5.817657   1.000000
   15       -5.810831   1.000000
   16       -5.781944   1.000000
   17       -5.737735   1.000000
   18       -5.692550   1.000000
   19       -5.690462   1.000000
   20       -5.682960   1.000000
   21       -5.668248   1.000000
   22       -5.628011   1.000000
   23       -5.625491   1.000000
   24       -5.623383   1.000000
   25       -5.612605   1.000000
   26       -5.597699   1.000000
   27       -5.584245   1.000000
   28       -5.580152   1.000000
   29       -5.565934   1.000000
   30       -5.562107   1.000000
   31       -5.548996   1.000000
   32       -5.545232   1.000000
   33       -5.527383   1.000000
   34       -5.523609   1.000000
   35       -5.518032   1.000000
   36       -5.513447   1.000000
   37       -5.512508   1.000000
   38       -5.508088   1.000000
   39       -5.502981   1.000000
   40       -5.493002   1.000000
   41       -5.488459   1.000000
   42       -5.473795   1.000000
   43       -5.472067   1.000000
   44       -5.470944   1.000000
   45       -5.464557   1.000000
   46       -5.462464   1.000000
   47       -5.450627   1.000000
   48       -5.445526   1.000000
   49       -5.443723   1.000000
   50       -5.433055   1.000000
   51       -5.430200   1.000000
   52       -5.425848   1.000000
   53       -5.416651   1.000000
   54       -5.409217   1.000000
   55       -5.404491   1.000000
   56       -5.402447   1.000000
   57       -5.397099   1.000000
   58       -5.390797   1.000000
   59       -5.366951   1.000000
   60       -5.349567   1.000000
   61       -5.343011   1.000000
   62       -5.335405   1.000000
   63       -5.328649   1.000000
   64       -5.321977   1.000000
   65       -5.317781   1.000000
   66       -5.303575   1.000000
   67       -5.301828   1.000000
   68       -5.298527   1.000000
   69       -5.295992   1.000000
   70       -5.281147   1.000000
   71       -5.272149   1.000000
   72       -5.260876   1.000000
   73       -5.239669   1.000000
   74       -5.224698   1.000000
   75       -5.205390   1.000000
   76       -5.200027   1.000000
   77       -5.193636   1.000000
   78       -5.189667   1.000000
   79       -5.179558   1.000000
   80       -5.172967   1.000000
   81       -5.167985   1.000000
   82       -5.162725   1.000000
   83       -5.160557   1.000000
   84       -5.159126   1.000000
   85       -5.150766   1.000000
   86       -5.132323   1.000000
   87       -5.127354   1.000000
   88       -5.123812   1.000000
   89       -5.121102   1.000000
   90       -5.108290   1.000000
   91       -5.098995   1.000000
   92       -5.070175   1.000000
   93       -5.065802   1.000000
   94       -5.059144   1.000000
   95       -5.050228   1.000000
   96       -5.047220   1.000000
   97       -5.046059   1.000000
   98       -5.044836   1.000000
   99       -5.036118   1.000000
  100       -5.034049   1.000000
  101       -5.031310   1.000000
  102       -5.028259   1.000000
  103       -5.023082   1.000000
  104       -5.015135   1.000000
  105       -5.008679   1.000000
  106       -5.004073   1.000000
  107       -5.000734   1.000000
  108       -4.999505   1.000000
  109       -4.989884   1.000000
  110       -4.985758   1.000000
  111       -4.983673   1.000000
  112       -4.976851   1.000000
  113       -4.971861   1.000000
  114       -4.968136   1.000000
  115       -4.963435   1.000000
  116       -4.957776   0.999999
  117       -4.954765   0.999999
  118       -4.948838   0.999999
  119       -4.944452   0.999999
  120       -4.932269   0.999999
  121       -4.926108   0.999998
  122       -4.921862   0.999998
  123       -4.919940   0.999998
  124       -4.908989   0.999997
  125       -4.902943   0.999996
  126       -4.899209   0.999996
  127       -4.896329   0.999995
  128       -4.884930   0.999993
  129       -4.875473   0.999991
  130       -4.873563   0.999991
  131       -4.857100   0.999984
  132       -4.849120   0.999980
  133       -4.847343   0.999979
  134       -4.839845   0.999974
  135       -4.837906   0.999972
  136       -4.831820   0.999967
  137       -4.830992   0.999966
  138       -4.828008   0.999963
  139       -4.811848   0.999942
  140       -4.803428   0.999927
  141       -4.799096   0.999918
  142       -4.790317   0.999897
  143       -4.786455   0.999886
  144       -4.770824   0.999831
  145       -4.769567   0.999825
  146       -4.765422   0.999806
  147       -4.756474   0.999760
  148       -4.751329   0.999729
  149       -4.731182   0.999571
  150       -4.725815   0.999517
  151       -4.723091   0.999488
  152       -4.710445   0.999333
  153       -4.703833   0.999237
  154       -4.697568   0.999136
  155       -4.688438   0.998971
  156       -4.686979   0.998942
  157       -4.681399   0.998828
  158       -4.679883   0.998795
  159       -4.672910   0.998636
  160       -4.664789   0.998432
  161       -4.663245   0.998391
  162       -4.656513   0.998204
  163       -4.654933   0.998158
  164       -4.651725   0.998062
  165       -4.647723   0.997939
  166       -4.645037   0.997854
  167       -4.642995   0.997788
  168       -4.641318   0.997733
  169       -4.636352   0.997565
  170       -4.633373   0.997462
  171       -4.624791   0.997155
  172       -4.623098   0.997093
  173       -4.608688   0.996554
  174       -4.604910   0.996412
  175       -4.600290   0.996241
  176       -4.598225   0.996165
  177       -4.593784   0.996005
  178       -4.591457   0.995923
  179       -4.588450   0.995820
  180       -4.584897   0.995703
  181       -4.578179   0.995499
  182       -4.574643   0.995403
  183       -4.570436   0.995301
  184       -4.569170   0.995273
  185       -4.567785   0.995244
  186       -4.559721   0.995115
  187       -4.555801   0.995080
  188       -4.553531   0.995069
  189       -4.548344   0.995072
  190       -4.546321   0.995085
  191       -4.544923   0.995098
  192       -4.531507   0.995415
  193       -4.514198   0.996462
  194       -4.509074   0.996941
  195       -4.507150   0.997143
  196       -4.502826   0.997643
  197       -4.500159   0.997985
  198       -4.493532   0.998951
  199       -4.490569   0.999438
  200       -4.488108   0.999870
  201       -4.482876   1.000872
  202       -4.475561   1.002471
  203       -4.472661   1.003170
  204       -4.462262   1.005992
  205       -4.459958   1.006684
  206       -4.456428   1.007791
  207       -4.448091   1.010628
  208       -4.445476   1.011581
  209       -4.442801   1.012586
  210       -4.437413   1.014700
  211       -4.435344   1.015542
  212       -4.425510   1.019751
  213       -4.424103   1.020379
  214       -4.419271   1.022577
  215       -4.413480   1.025281
  216       -4.408968   1.027427
  217       -4.406841   1.028446
  218       -4.402910   1.030337
  219       -4.400285   1.031602
  220       -4.394396   1.034423
  221       -4.383057   1.039672
  222       -4.377456   1.042098
  223       -4.367041   1.046130
  224       -4.365531   1.046648
  225       -4.360205   1.048315
  226       -4.350734   1.050538
  227       -4.345014   1.051327
  228       -4.336014   1.051548
  229       -4.334561   1.051454
  230       -4.331560   1.051132
  231       -4.330187   1.050927
  232       -4.329765   1.050856
  233       -4.325327   1.049890
  234       -4.324338   1.049617
  235       -4.322294   1.048984
  236       -4.320831   1.048473
  237       -4.319902   1.048123
  238       -4.319359   1.047909
  239       -4.314860   1.045858
  240       -4.307564   1.041429
  241       -4.305474   1.039894
  242       -4.302763   1.037718
  243       -4.293747   1.028898
  244       -4.286954   1.020552
  245       -4.284837   1.017636
  246       -4.281828   1.013228
  247       -4.281130   1.012161
  248       -4.278340   1.007723
  249       -4.276658   1.004914
  250       -4.271564   0.995780
  251       -4.264616   0.981775
  252       -4.262310   0.976723
  253       -4.258870   0.968813
  254       -4.258506   0.967949
  255       -4.256981   0.964276
  256       -4.250955   0.948878
  257       -4.250746   0.948321
  258       -4.247233   0.938667
  259       -4.246678   0.937097
  260       -4.243391   0.927562
  261       -4.242085   0.923657
  262       -4.239210   0.914829
  263       -4.237440   0.909235
  264       -4.236565   0.906424
  265       -4.234352   0.899189
  266       -4.231257   0.888762
  267       -4.228037   0.877529
  268       -4.221164   0.852282
  269       -4.219373   0.845426
  270       -4.218389   0.841608
  271       -4.216046   0.832388
  272       -4.208550   0.801647
  273       -4.205568   0.788910
  274       -4.195002   0.741650
  275       -4.184731   0.692866
  276       -4.178156   0.660403
  277       -4.175500   0.647057
  278       -4.172221   0.630421
  279       -4.170324   0.620722
  280       -4.169206   0.614980
  281       -4.155072   0.541254
  282       -4.145477   0.490553
  283       -4.135945   0.440280
  284       -4.129383   0.406013
  285       -4.125142   0.384100
  286       -4.123527   0.375816
  287       -4.114282   0.329188
  288       -4.112679   0.321262
  289       -4.024800   0.007749
  290       -3.964461  -0.050907
  291       -3.868876  -0.019689
  292       -3.823651  -0.003620
  293       -3.812015  -0.000946
  294       -3.574574   0.000547
  295       -3.516327   0.000141
  296       -3.497072   0.000085
  297       -3.320277   0.000000
  298       -3.071323   0.000000
  299       -3.061177   0.000000
  300       -3.044773   0.000000
  301       -3.027387   0.000000
  302       -3.016606   0.000000
  303       -2.955368   0.000000
  304       -2.948243   0.000000
  305       -2.627440   0.000000
  306       -2.583812   0.000000
  307       -2.523738   0.000000
  308       -2.395529   0.000000
  309       -2.273486   0.000000
  310       -2.119657   0.000000
  311       -2.113462   0.000000
  312       -2.102595   0.000000
  313       -1.979716   0.000000
  314       -1.967797   0.000000
  315       -1.909393   0.000000
  316       -1.883786   0.000000
  317       -1.747083   0.000000
  318       -1.738856   0.000000
  319       -1.651451   0.000000
  320       -1.646432   0.000000
  321       -1.571692   0.000000
  322       -1.553139   0.000000
  323       -1.355334   0.000000
  324       -1.320500   0.000000
  325       -1.240984   0.000000
  326       -1.207419   0.000000
  327       -1.061504   0.000000
  328       -0.984165   0.000000
  329       -0.982055   0.000000
  330       -0.962613   0.000000
  331       -0.941477   0.000000
  332       -0.936044   0.000000
  333       -0.931834   0.000000
  334       -0.878260   0.000000
  335       -0.788159   0.000000
  336       -0.642562   0.000000
