 vasp.5.4.4.18Apr17-6-g9f103f2a35 (build Sep 03 2018 23:53:05) complex          
  
 executed on             LinuxIFC date 2021.12.02  07:57:13
 running on    1 total cores
 distrk:  each k-point on    1 cores,    1 groups
 distr:  one band on NCORES_PER_BAND=   1 cores,    1 groups


--------------------------------------------------------------------------------------------------------


 INCAR:
 POTCAR:    PAW_PBE Pd 04Jan2005                  
 POTCAR:    PAW_PBE C 08Apr2002                   
 POTCAR:    PAW_PBE O 08Apr2002                   
 POTCAR:    PAW_PBE Pd 04Jan2005                  
   VRHFIN =Pd : s1 d9                                                           
   LEXCH  = PE                                                                  
   EATOM  =   809.7530 eV,   59.5152 Ry                                         
                                                                                
   TITEL  = PAW_PBE Pd 04Jan2005                                                
   LULTRA =        F    use ultrasoft PP ?                                      
   IUNSCR =        1    unscreen: 0-lin 1-nonlin 2-no                           
   RPACOR =    2.000    partial core radius                                     
   POMASS =  106.420; ZVAL   =   10.000    mass and valenz                      
   RCORE  =    2.600    outmost cutoff radius                                   
   RWIGS  =    2.710; RWIGS  =    1.434    wigner-seitz radius (au A)           
   ENMAX  =  250.925; ENMIN  =  188.194 eV                                      
   ICORE  =        3    local potential                                         
   LCOR   =        T    correct aug charges                                     
   LPAW   =        T    paw PP                                                  
   EAUG   =  416.230                                                            
   DEXC   =    0.000                                                            
   RMAX   =    2.653    core radius for proj-oper                               
   RAUG   =    1.300    factor for augmentation sphere                          
   RDEP   =    2.734    radius for radial grids                                 
   RDEPT  =    2.103    core radius for aug-charge                              
                                                                                
   Atomic configuration                                                         
   12 entries                                                                   
     n  l   j            E        occ.                                          
     1  0  0.50    -24164.6631   2.0000                                         
     2  0  0.50     -3530.9218   2.0000                                         
     2  1  1.50     -3165.6822   6.0000                                         
     3  0  0.50      -639.4577   2.0000                                         
     3  1  1.50      -519.4532   6.0000                                         
     3  2  2.50      -328.9757  10.0000                                         
     4  0  0.50       -88.7014   2.0000                                         
     4  1  1.50       -54.4540   6.0000                                         
     4  2  2.50        -6.6878   9.0000                                         
     5  0  0.50        -4.3543   1.0000                                         
     5  1  0.50        -1.3606   0.0000                                         
     4  3  2.50        -1.3606   0.0000                                         
   Description                                                                  
     l       E           TYP  RCUT    TYP  RCUT                                 
     2     -6.6878251     23  2.400                                             
     2     -8.0484077     23  2.400                                             
     0     -4.3542939     23  2.400                                             
     0      4.3406793     23  2.400                                             
     1     -4.0817478     23  2.600                                             
     1     15.8380318     23  2.600                                             
     3     -4.0817478     23  2.400                                             
  local pseudopotential read in
  partial core-charges read in
  partial kinetic energy density read in
  atomic valenz-charges read in
  non local Contribution for L=           2  read in
    real space projection operators read in
  non local Contribution for L=           2  read in
    real space projection operators read in
  non local Contribution for L=           0  read in
    real space projection operators read in
  non local Contribution for L=           0  read in
    real space projection operators read in
  non local Contribution for L=           1  read in
    real space projection operators read in
  non local Contribution for L=           1  read in
    real space projection operators read in
    PAW grid and wavefunctions read in
 
   number of l-projection  operators is LMAX  =           6
   number of lm-projection operators is LMMAX =          18
 
 POTCAR:    PAW_PBE C 08Apr2002                   
   VRHFIN =C: s2p2                                                              
   LEXCH  = PE                                                                  
   EATOM  =   147.1560 eV,   10.8157 Ry                                         
                                                                                
   TITEL  = PAW_PBE C 08Apr2002                                                 
   LULTRA =        F    use ultrasoft PP ?                                      
   IUNSCR =        1    unscreen: 0-lin 1-nonlin 2-no                           
   RPACOR =    1.200    partial core radius                                     
   POMASS =   12.011; ZVAL   =    4.000    mass and valenz                      
   RCORE  =    1.500    outmost cutoff radius                                   
   RWIGS  =    1.630; RWIGS  =    0.863    wigner-seitz radius (au A)           
   ENMAX  =  400.000; ENMIN  =  300.000 eV                                      
   ICORE  =        2    local potential                                         
   LCOR   =        T    correct aug charges                                     
   LPAW   =        T    paw PP                                                  
   EAUG   =  644.873                                                            
   DEXC   =    0.000                                                            
   RMAX   =    1.529    core radius for proj-oper                               
   RAUG   =    1.300    factor for augmentation sphere                          
   RDEP   =    1.501    radius for radial grids                                 
   RDEPT  =    1.300    core radius for aug-charge                              
                                                                                
   Atomic configuration                                                         
    4 entries                                                                   
     n  l   j            E        occ.                                          
     1  0  0.50      -273.3789   2.0000                                         
     2  0  0.50       -13.7508   2.0000                                         
     2  1  0.50        -5.2854   2.0000                                         
     3  2  1.50        -5.4423   0.0000                                         
   Description                                                                  
     l       E           TYP  RCUT    TYP  RCUT                                 
     0    -13.7508458     23  1.200                                             
     0     -8.2022199     23  1.200                                             
     1     -5.2854383     23  1.500                                             
     1     34.0145650     23  1.500                                             
     2     -5.4423304      7  1.500                                             
  local pseudopotential read in
  partial core-charges read in
  partial kinetic energy density read in
  atomic valenz-charges read in
  non local Contribution for L=           0  read in
    real space projection operators read in
  non local Contribution for L=           0  read in
    real space projection operators read in
  non local Contribution for L=           1  read in
    real space projection operators read in
  non local Contribution for L=           1  read in
    real space projection operators read in
    PAW grid and wavefunctions read in
 
   number of l-projection  operators is LMAX  =           4
   number of lm-projection operators is LMMAX =           8
 
 POTCAR:    PAW_PBE O 08Apr2002                   
   VRHFIN =O: s2p4                                                              
   LEXCH  = PE                                                                  
   EATOM  =   432.3788 eV,   31.7789 Ry                                         
                                                                                
   TITEL  = PAW_PBE O 08Apr2002                                                 
   LULTRA =        F    use ultrasoft PP ?                                      
   IUNSCR =        1    unscreen: 0-lin 1-nonlin 2-no                           
   RPACOR =    1.200    partial core radius                                     
   POMASS =   16.000; ZVAL   =    6.000    mass and valenz                      
   RCORE  =    1.520    outmost cutoff radius                                   
   RWIGS  =    1.550; RWIGS  =    0.820    wigner-seitz radius (au A)           
   ENMAX  =  400.000; ENMIN  =  300.000 eV                                      
   ICORE  =        2    local potential                                         
   LCOR   =        T    correct aug charges                                     
   LPAW   =        T    paw PP                                                  
   EAUG   =  605.392                                                            
   DEXC   =    0.000                                                            
   RMAX   =    1.553    core radius for proj-oper                               
   RAUG   =    1.300    factor for augmentation sphere                          
   RDEP   =    1.550    radius for radial grids                                 
   RDEPT  =    1.329    core radius for aug-charge                              
                                                                                
   Atomic configuration                                                         
    4 entries                                                                   
     n  l   j            E        occ.                                          
     1  0  0.50      -514.6923   2.0000                                         
     2  0  0.50       -23.9615   2.0000                                         
     2  1  0.50        -9.0305   4.0000                                         
     3  2  1.50        -9.5241   0.0000                                         
   Description                                                                  
     l       E           TYP  RCUT    TYP  RCUT                                 
     0    -23.9615318     23  1.200                                             
     0     -9.5240782     23  1.200                                             
     1     -9.0304911     23  1.520                                             
     1      8.1634956     23  1.520                                             
     2     -9.5240782      7  1.500                                             
  local pseudopotential read in
  partial core-charges read in
  partial kinetic energy density read in
  kinetic energy density of atom read in
  atomic valenz-charges read in
  non local Contribution for L=           0  read in
    real space projection operators read in
  non local Contribution for L=           0  read in
    real space projection operators read in
  non local Contribution for L=           1  read in
    real space projection operators read in
  non local Contribution for L=           1  read in
    real space projection operators read in
    PAW grid and wavefunctions read in
 
   number of l-projection  operators is LMAX  =           4
   number of lm-projection operators is LMMAX =           8
 
 Optimization of the real space projectors (new method)

 maximal supplied QI-value         = 14.36
 optimisation between [QCUT,QGAM] = [ 10.20, 20.39] = [ 29.12,116.47] Ry 
 Optimized for a Real-space Cutoff    1.51 Angstroem

   l    n(q)    QCUT    max X(q) W(low)/X(q) W(high)/X(q)  e(spline) 
   2      8    10.197    59.108    0.26E-03    0.14E-03    0.96E-07
   2      8    10.197    58.101    0.27E-03    0.14E-03    0.98E-07
   0      9    10.197   102.235    0.54E-04    0.60E-05    0.72E-07
   0      9    10.197    58.388    0.52E-04    0.60E-05    0.68E-07
   1      9    10.197    22.191    0.18E-03    0.25E-03    0.79E-07
   1      9    10.197    15.590    0.15E-03    0.21E-03    0.69E-07
 Optimization of the real space projectors (new method)

 maximal supplied QI-value         = 25.13
 optimisation between [QCUT,QGAM] = [ 10.05, 20.36] = [ 28.30,116.06] Ry 
 Optimized for a Real-space Cutoff    1.30 Angstroem

   l    n(q)    QCUT    max X(q) W(low)/X(q) W(high)/X(q)  e(spline) 
   0      8    10.053   115.676    0.49E-03    0.72E-03    0.18E-06
   0      8    10.053    87.132    0.49E-03    0.71E-03    0.18E-06
   1      7    10.053     4.429    0.32E-03    0.31E-03    0.18E-06
   1      7    10.053     2.733    0.23E-03    0.19E-03    0.20E-06
 Optimization of the real space projectors (new method)

 maximal supplied QI-value         = 24.76
 optimisation between [QCUT,QGAM] = [ 10.15, 20.30] = [ 28.85,115.39] Ry 
 Optimized for a Real-space Cutoff    1.38 Angstroem

   l    n(q)    QCUT    max X(q) W(low)/X(q) W(high)/X(q)  e(spline) 
   0      8    10.150    20.381    0.22E-03    0.32E-03    0.29E-06
   0      8    10.150    15.268    0.23E-03    0.35E-03    0.30E-06
   1      8    10.150     5.964    0.46E-03    0.53E-03    0.21E-06
   1      8    10.150     5.382    0.38E-03    0.45E-03    0.19E-06

 ----------------------------------------------------------------------------- 
|                                                                             |
|  ADVICE TO THIS USER RUNNING 'VASP/VAMP'   (HEAR YOUR MASTER'S VOICE ...):  |
|                                                                             |
|      You enforced a specific xc-type in the INCAR file,                     |
|      a different type was found on the POTCAR file                          |
|          I HOPE YOU KNOW, WHAT YOU ARE  DOING                               |
|                                                                             |
 ----------------------------------------------------------------------------- 

  PAW_PBE Pd 04Jan2005                  :
 energy of atom  1       EATOM= -809.7530
 kinetic energy error for atom=    0.0091 (will be added to EATOM!!)
  PAW_PBE C 08Apr2002                   :
 energy of atom  2       EATOM= -147.1560
 kinetic energy error for atom=    0.0288 (will be added to EATOM!!)
  PAW_PBE O 08Apr2002                   :
 energy of atom  3       EATOM= -432.3788
 kinetic energy error for atom=    0.1156 (will be added to EATOM!!)
 
 
 POSCAR: Pd55PES                                 
  positions in cartesian coordinates
  No initial velocities read in
 exchange correlation table for  LEXCH =        9
   RHO(1)=    0.500       N(1)  =     2000
   RHO(2)=  100.500       N(2)  =     4000
 


--------------------------------------------------------------------------------------------------------


 ion  position               nearest neighbor table
   1  0.446  0.328  0.417-   3 3.25   5 3.25   7 3.36  15 3.36  29 3.42  28 3.42
   2  0.672  0.554  0.417-  26 3.25  30 3.25  17 3.36   9 3.36  47 3.42  49 3.42
   3  0.554  0.328  0.417-   1 3.25   5 3.25   7 3.36  11 3.36  29 3.42  21 3.42
   4  0.328  0.554  0.417-  32 3.25  22 3.25  13 3.36   8 3.36  43 3.42  48 3.42
   5  0.500  0.383  0.340-   1 3.25   3 3.25  11 3.36  15 3.36  21 3.42  28 3.42
   6  0.500  0.383  0.660-  24 3.25  19 3.25  16 3.36  12 3.36  42 3.42  44 3.42
   7  0.500  0.276  0.500-  29 3.24   3 3.36   1 3.36  19 3.36  24 3.36
   8  0.276  0.500  0.500-  48 3.24  22 3.36  40 3.36   4 3.36  25 3.36
   9  0.724  0.500  0.500-  49 3.24  26 3.36  45 3.36   2 3.36  20 3.36
  10  0.500  0.724  0.500-  55 3.24  27 3.36  23 3.36  46 3.36  41 3.36
  11  0.612  0.388  0.342-  21 3.24   5 3.36   3 3.36  30 3.36  26 3.36
  12  0.612  0.388  0.658-  56 1.99  42 3.24  24 3.36  45 3.36   6 3.36  31 3.36
  13  0.388  0.612  0.342-  43 3.24  32 3.36  50 3.36   4 3.36  27 3.36
  14  0.388  0.612  0.658-  53 3.24  25 3.36  33 3.36  51 3.36  46 3.36
  15  0.388  0.388  0.342-  28 3.24   5 3.36   1 3.36  32 3.36  22 3.36
  16  0.388  0.388  0.658-  44 3.24  19 3.36  40 3.36   6 3.36  33 3.36
  17  0.612  0.612  0.342-  47 3.24  30 3.36  50 3.36   2 3.36  23 3.36
  18  0.612  0.612  0.658-  54 3.24  31 3.36  20 3.36  51 3.36  41 3.36
  19  0.446  0.328  0.583-   6 3.25  24 3.25  16 3.36   7 3.36  44 3.42  29 3.42
  20  0.672  0.554  0.583-  31 3.25  45 3.25  18 3.36   9 3.36  54 3.42  49 3.42
  21  0.558  0.442  0.418-  11 3.24   5 3.42   3 3.42  30 3.42  26 3.42
  22  0.328  0.446  0.417-   4 3.25  32 3.25   8 3.36  15 3.36  48 3.42  28 3.42
  23  0.554  0.672  0.417-  27 3.25  50 3.25  10 3.36  17 3.36  55 3.42  47 3.42
  24  0.554  0.328  0.583-   6 3.25  19 3.25  12 3.36   7 3.36  42 3.42  29 3.42
  25  0.328  0.554  0.583-  33 3.25  40 3.25  14 3.36   8 3.36  53 3.42  48 3.42
  26  0.672  0.446  0.417-   2 3.25  30 3.25   9 3.36  11 3.36  49 3.42  21 3.42
  27  0.446  0.672  0.417-  23 3.25  50 3.25  10 3.36  13 3.36  55 3.42  43 3.42
  28  0.442  0.442  0.418-  15 3.24   5 3.42   1 3.42  32 3.42  22 3.42
  29  0.500  0.384  0.500-   7 3.24   3 3.42   1 3.42  24 3.42  19 3.42
  30  0.617  0.500  0.340-   2 3.25  26 3.25  17 3.36  11 3.36  47 3.42  21 3.42
  31  0.617  0.500  0.660-  20 3.25  45 3.25  18 3.36  12 3.36  54 3.42  42 3.42
  32  0.383  0.500  0.340-   4 3.25  22 3.25  13 3.36  15 3.36  43 3.42  28 3.42
  33  0.383  0.500  0.660-  25 3.25  40 3.25  14 3.36  16 3.36  53 3.42  44 3.42
  34  0.383  0.383  0.500-
  35  0.617  0.617  0.500-
  36  0.617  0.383  0.500-
  37  0.383  0.617  0.500-
  38  0.500  0.500  0.335-
  39  0.500  0.500  0.665-
  40  0.328  0.446  0.583-  33 3.25  25 3.25  16 3.36   8 3.36  44 3.42  48 3.42
  41  0.554  0.672  0.583-  46 3.25  51 3.25  10 3.36  18 3.36  54 3.42  55 3.42
  42  0.558  0.442  0.582-  12 3.24   6 3.42  24 3.42  31 3.42  45 3.42
  43  0.442  0.558  0.418-  13 3.24   4 3.42  32 3.42  27 3.42  50 3.42
  44  0.442  0.442  0.582-  16 3.24   6 3.42  19 3.42  33 3.42  40 3.42
  45  0.672  0.446  0.583-  20 3.25  31 3.25   9 3.36  12 3.36  49 3.42  42 3.42
  46  0.446  0.672  0.583-  41 3.25  51 3.25  10 3.36  14 3.36  53 3.42  55 3.42
  47  0.558  0.558  0.418-  17 3.24   2 3.42  30 3.42  23 3.42  50 3.42
  48  0.384  0.500  0.500-   8 3.24   4 3.42  22 3.42  25 3.42  40 3.42
  49  0.616  0.500  0.500-   9 3.24   2 3.42  26 3.42  20 3.42  45 3.42
  50  0.500  0.617  0.340-  27 3.25  23 3.25  13 3.36  17 3.36  43 3.42  47 3.42
  51  0.500  0.617  0.660-  41 3.25  46 3.25  14 3.36  18 3.36  53 3.42  54 3.42
  52  0.500  0.500  0.500-
  53  0.442  0.558  0.582-  14 3.24  25 3.42  33 3.42  51 3.42  46 3.42
  54  0.558  0.558  0.582-  18 3.24  31 3.42  20 3.42  51 3.42  41 3.42
  55  0.500  0.616  0.500-  10 3.24  23 3.42  27 3.42  41 3.42  46 3.42
  56  0.581  0.336  0.686-  57 1.13  12 1.99
  57  0.592  0.313  0.713-  56 1.13
 
  LATTYP: Found a simple cubic cell.
 ALAT       =    30.0000000000
  
  Lattice vectors:
  
 A1 = (  30.0000000000,   0.0000000000,   0.0000000000)
 A2 = (   0.0000000000,  30.0000000000,   0.0000000000)
 A3 = (   0.0000000000,   0.0000000000,  30.0000000000)


Analysis of symmetry for initial positions (statically):
=====================================================================
 Subroutine PRICEL returns:
 Original cell was already a primitive cell.
 

 Routine SETGRP: Setting up the symmetry group for a 
 simple cubic supercell.


 Subroutine GETGRP returns: Found  1 space group operations
 (whereof  1 operations were pure point group operations)
 out of a pool of 48 trial point group operations.


The static configuration has the point symmetry C_1 .


Analysis of symmetry for dynamics (positions and initial velocities):
=====================================================================
 Subroutine PRICEL returns:
 Original cell was already a primitive cell.
 

 Routine SETGRP: Setting up the symmetry group for a 
 simple cubic supercell.


 Subroutine GETGRP returns: Found  1 space group operations
 (whereof  1 operations were pure point group operations)
 out of a pool of 48 trial point group operations.


The dynamic configuration has the point symmetry C_1 .


Analysis of constrained symmetry for selective dynamics:
=====================================================================
 Subroutine PRICEL returns:
 Original cell was already a primitive cell.
 

 Routine SETGRP: Setting up the symmetry group for a 
 simple cubic supercell.


 Subroutine GETGRP returns: Found  1 space group operations
 (whereof  1 operations were pure point group operations)
 out of a pool of 48 trial point group operations.


The constrained configuration has the point symmetry C_1 .


 Subroutine INISYM returns: Found  1 space group operations
 (whereof  1 operations are pure point group operations),
 and found     1 'primitive' translations

 
 
 KPOINTS: K-points                                

Automatic generation of k-mesh.
Space group operators:
 irot       det(A)        alpha          n_x          n_y          n_z        tau_x        tau_y        tau_z
    1     1.000000     0.000000     1.000000     0.000000     0.000000     0.000000     0.000000     0.000000
 
 Subroutine IBZKPT returns following result:
 ===========================================
 
 Found      1 irreducible k-points:
 
 Following reciprocal coordinates:
            Coordinates               Weight
  0.000000  0.000000  0.000000      1.000000
 
 Following cartesian coordinates:
            Coordinates               Weight
  0.000000  0.000000  0.000000      1.000000
 


--------------------------------------------------------------------------------------------------------




 Dimension of arrays:
   k-points           NKPTS =      1   k-points in BZ     NKDIM =      1   number of bands    NBANDS=    336
   number of dos      NEDOS =    301   number of ions     NIONS =     57
   non local maximal  LDIM  =      6   non local SUM 2l+1 LMDIM =     18
   total plane-waves  NPLWV = ******
   max r-space proj   IRMAX =   1847   max aug-charges    IRDMAX=   6262
   dimension x,y,z NGX =   150 NGY =  150 NGZ =  150
   dimension x,y,z NGXF=   300 NGYF=  300 NGZF=  300
   support grid    NGXF=   300 NGYF=  300 NGZF=  300
   ions per type =              55   1   1
   NGX,Y,Z   is equivalent  to a cutoff of   8.31,  8.31,  8.31 a.u.
   NGXF,Y,Z  is equivalent  to a cutoff of  16.62, 16.62, 16.62 a.u.

 SYSTEM =  6_Pd100_top_free_z(O)                   
 POSCAR =  Pd55PES                                 

 Startparameter for this run:
   NWRITE =      2    write-flag & timer
   PREC   = normal    normal or accurate (medium, high low for compatibility)
   ISTART =      0    job   : 0-new  1-cont  2-samecut
   ICHARG =      2    charge: 1-file 2-atom 10-const
   ISPIN  =      1    spin polarized calculation?
   LNONCOLLINEAR =      F non collinear calculations
   LSORBIT =      F    spin-orbit coupling
   INIWAV =      1    electr: 0-lowe 1-rand  2-diag
   LASPH  =      F    aspherical Exc in radial PAW
   METAGGA=      F    non-selfconsistent MetaGGA calc.

 Electronic Relaxation 1
   ENCUT  =  400.0 eV  29.40 Ry    5.42 a.u.  48.92 48.92 48.92*2*pi/ulx,y,z
   ENINI  =  400.0     initial cutoff
   ENAUG  =  644.9 eV  augmentation charge cutoff
   NELM   =    100;   NELMIN=  6; NELMDL= -5     # of ELM steps 
   EDIFF  = 0.1E-03   stopping-criterion for ELM
   LREAL  =      T    real-space projection
   NLSPLINE    = F    spline interpolate recip. space projectors
   LCOMPAT=      F    compatible to vasp.4.4
   GGA_COMPAT  = T    GGA compatible to vasp.4.4-vasp.4.6
   LMAXPAW     = -100 max onsite density
   LMAXMIX     =    2 max onsite mixed and CHGCAR
   VOSKOWN=      0    Vosko Wilk Nusair interpolation
   ROPT   =   -0.00050  -0.00050  -0.00050
 Ionic relaxation
   EDIFFG = -.5E-01   stopping-criterion for IOM
   NSW    =      0    number of steps for IOM
   NBLOCK =      1;   KBLOCK =      1    inner block; outer block 
   IBRION =     -1    ionic relax: 0-MD 1-quasi-New 2-CG
   NFREE  =      1    steps in history (QN), initial steepest desc. (CG)
   ISIF   =      2    stress and relaxation
   IWAVPR =     10    prediction:  0-non 1-charg 2-wave 3-comb
   ISYM   =      2    0-nonsym 1-usesym 2-fastsym
   LCORR  =      T    Harris-Foulkes like correction to forces

   POTIM  = 0.5000    time-step for ionic-motion
   TEIN   =    0.0    initial temperature
   TEBEG  =    0.0;   TEEND  =   0.0 temperature during run
   SMASS  =  -3.00    Nose mass-parameter (am)
   estimated Nose-frequenzy (Omega)   =  0.10E-29 period in steps =****** mass=  -0.206E-25a.u.
   SCALEE = 1.0000    scale energy and forces
   NPACO  =    256;   APACO  = 16.0  distance and # of slots for P.C.
   PSTRESS=    0.0 pullay stress

  Mass of Ions in am
   POMASS = 106.42 12.01 16.00
  Ionic Valenz
   ZVAL   =  10.00  4.00  6.00
  Atomic Wigner-Seitz radii
   RWIGS  =  -1.00 -1.00 -1.00
  virtual crystal weights 
   VCA    =   1.00  1.00  1.00
   NELECT =     560.0000    total number of electrons
   NUPDOWN=      -1.0000    fix difference up-down

 DOS related values:
   EMIN   =  10.00;   EMAX   =-10.00  energy-range for DOS
   EFERMI =   0.00
   ISMEAR =     2;   SIGMA  =   0.20  broadening in eV -4-tet -1-fermi 0-gaus

 Electronic relaxation 2 (details)
   IALGO  =     68    algorithm
   LDIAG  =      T    sub-space diagonalisation (order eigenvalues)
   LSUBROT=      F    optimize rotation matrix (better conditioning)
   TURBO    =      0    0=normal 1=particle mesh
   IRESTART =      0    0=no restart 2=restart with 2 vectors
   NREBOOT  =      0    no. of reboots
   NMIN     =      0    reboot dimension
   EREF     =   0.00    reference energy to select bands
   IMIX   =      4    mixing-type and parameters
     AMIX     =   0.40;   BMIX     =  1.00
     AMIX_MAG =   1.60;   BMIX_MAG =  1.00
     AMIN     =   0.10
     WC   =   100.;   INIMIX=   1;  MIXPRE=   1;  MAXMIX= -45

 Intra band minimization:
   WEIMIN = 0.0000     energy-eigenvalue tresh-hold
   EBREAK =  0.74E-07  absolut break condition
   DEPER  =   0.30     relativ break condition  

   TIME   =   0.40     timestep for ELM

  volume/ion in A,a.u.               =     473.68      3196.58
  Fermi-wavevector in a.u.,A,eV,Ry     =   0.449797  0.849992  2.752691  0.202317
  Thomas-Fermi vector in A             =   1.430086
 
 Write flags
   LWAVE        =      F    write WAVECAR
   LDOWNSAMPLE  =      F    k-point downsampling of WAVECAR
   LCHARG       =      F    write CHGCAR
   LVTOT        =      F    write LOCPOT, total local potential
   LVHAR        =      F    write LOCPOT, Hartree potential only
   LELF         =      F    write electronic localiz. function (ELF)
   LORBIT       =      0    0 simple, 1 ext, 2 COOP (PROOUT), +10 PAW based schemes


 Dipole corrections
   LMONO  =      F    monopole corrections only (constant potential shift)
   LDIPOL =      F    correct potential (dipole corrections)
   IDIPOL =      0    1-x, 2-y, 3-z, 4-all directions 
   EPSILON=  1.0000000 bulk dielectric constant

 Exchange correlation treatment:
   GGA     =    RP    GGA type
   LEXCH   =     9    internal setting for exchange type
   VOSKOWN=      0    Vosko Wilk Nusair interpolation
   LHFCALC =     F    Hartree Fock is set to
   LHFONE  =     F    Hartree Fock one center treatment
   AEXX    =    0.0000 exact exchange contribution

 Linear response parameters
   LEPSILON=     F    determine dielectric tensor
   LRPA    =     F    only Hartree local field effects (RPA)
   LNABLA  =     F    use nabla operator in PAW spheres
   LVEL    =     F    velocity operator in full k-point grid
   LINTERFAST=   F  fast interpolation
   KINTER  =     0    interpolate to denser k-point grid
   CSHIFT  =0.1000    complex shift for real part using Kramers Kronig
   OMEGAMAX=  -1.0    maximum frequency
   DEG_THRESHOLD= 0.2000000E-02 threshold for treating states as degnerate
   RTIME   =   -0.100 relaxation time in fs
  (WPLASMAI=    0.000 imaginary part of plasma frequency in eV, 0.658/RTIME)
   DFIELD  = 0.0000000 0.0000000 0.0000000 field for delta impulse in time
 
 Orbital magnetization related:
   ORBITALMAG=     F  switch on orbital magnetization
   LCHIMAG   =     F  perturbation theory with respect to B field
   DQ        =  0.001000  dq finite difference perturbation B field
   LLRAUG    =     F  two centre corrections for induced B field



--------------------------------------------------------------------------------------------------------


 Static calculation
 charge density and potential will be updated during run
 non-spin polarized calculation
 RMM-DIIS sequential band-by-band and
  variant of blocked Davidson during initial phase
 perform sub-space diagonalisation
    before iterative eigenvector-optimisation
 modified Broyden-mixing scheme, WC =      100.0
 initial mixing is a Kerker type mixing with AMIX =  0.4000 and BMIX =      1.0000
 Hartree-type preconditioning will be used
 using additional bands           56
 real space projection scheme for non local part
 use partial core corrections
 calculate Harris-corrections to forces 
   (improved forces if not selfconsistent)
 use gradient corrections 
 use of overlap-Matrix (Vanderbilt PP)
 Methfessel and Paxton  Order N= 2 SIGMA  =   0.20


--------------------------------------------------------------------------------------------------------


  energy-cutoff  :      400.00
  volume of cell :    27000.00
      direct lattice vectors                 reciprocal lattice vectors
    30.000000000  0.000000000  0.000000000     0.033333333  0.000000000  0.000000000
     0.000000000 30.000000000  0.000000000     0.000000000  0.033333333  0.000000000
     0.000000000  0.000000000 30.000000000     0.000000000  0.000000000  0.033333333

  length of vectors
    30.000000000 30.000000000 30.000000000     0.033333333  0.033333333  0.033333333


 
 k-points in units of 2pi/SCALE and weight: K-points                                
   0.00000000  0.00000000  0.00000000       1.000
 
 k-points in reciprocal lattice and weights: K-points                                
   0.00000000  0.00000000  0.00000000       1.000
 
 position of ions in fractional coordinates (direct lattice) 
   0.44576020  0.32826710  0.41691983
   0.67173288  0.55423978  0.41691983
   0.55423980  0.32826710  0.41691983
   0.32826712  0.55423978  0.41691983
   0.50000000  0.38250690  0.34021317
   0.50000000  0.38250690  0.65978680
   0.50000000  0.27609440  0.50000000
   0.27609443  0.49999998  0.50000000
   0.72390557  0.49999998  0.50000000
   0.50000000  0.72390555  0.50000000
   0.61195280  0.38804720  0.34167483
   0.61195280  0.38804720  0.65832513
   0.38804722  0.61195278  0.34167483
   0.38804722  0.61195278  0.65832513
   0.38804720  0.38804720  0.34167483
   0.38804720  0.38804720  0.65832513
   0.61195278  0.61195278  0.34167483
   0.61195278  0.61195278  0.65832513
   0.44576020  0.32826710  0.58308023
   0.67173288  0.55423978  0.58308023
   0.55791699  0.44208301  0.41809300
   0.32826705  0.44576024  0.41691983
   0.55423973  0.67173293  0.41691983
   0.55423980  0.32826710  0.58308023
   0.32826712  0.55423978  0.58308023
   0.67173295  0.44576024  0.41691983
   0.44576027  0.67173293  0.41691983
   0.44208301  0.44208301  0.41809300
   0.50000000  0.38416601  0.50000000
   0.61749315  0.50000005  0.34021317
   0.61749315  0.50000005  0.65978680
   0.38250685  0.50000005  0.34021317
   0.38250685  0.50000005  0.65978680
   0.38317830  0.38317830  0.50000000
   0.61682172  0.61682172  0.50000000
   0.61682170  0.38317830  0.50000000
   0.38317828  0.61682172  0.50000000
   0.50000000  0.50000000  0.33478917
   0.50000000  0.50000000  0.66521087
   0.32826705  0.44576024  0.58308023
   0.55423973  0.67173293  0.58308023
   0.55791699  0.44208301  0.58190703
   0.44208298  0.55791702  0.41809300
   0.44208301  0.44208301  0.58190703
   0.67173295  0.44576024  0.58308023
   0.44576027  0.67173293  0.58308023
   0.55791702  0.55791702  0.41809300
   0.38416599  0.50000002  0.50000000
   0.61583401  0.50000002  0.50000000
   0.50000000  0.61749319  0.34021317
   0.50000000  0.61749319  0.65978680
   0.50000000  0.50000000  0.50000000
   0.44208298  0.55791702  0.58190703
   0.55791702  0.55791702  0.58190703
   0.50000000  0.61583404  0.50000000
   0.58065023  0.33630030  0.68594227
   0.59228973  0.31267507  0.71277753
 
 position of ions in cartesian coordinates  (Angst):
  13.37280588  9.84801292 12.50759500
  20.15198637 16.62719342 12.50759500
  16.62719412  9.84801292 12.50759500
   9.84801363 16.62719342 12.50759500
  15.00000000 11.47520705 10.20639500
  15.00000000 11.47520705 19.79360400
  15.00000000  8.28283206 15.00000000
   8.28283277 14.99999929 15.00000000
  21.71716723 14.99999929 15.00000000
  15.00000000 21.71716652 14.99999999
  18.35858397 11.64141603 10.25024500
  18.35858397 11.64141603 19.74975399
  11.64141674 18.35858326 10.25024500
  11.64141674 18.35858326 19.74975400
  11.64141603 11.64141603 10.25024500
  11.64141603 11.64141603 19.74975400
  18.35858326 18.35858326 10.25024500
  18.35858326 18.35858326 19.74975400
  13.37280588  9.84801291 17.49240700
  20.15198638 16.62719341 17.49240700
  16.73750985 13.26249015 12.54279000
   9.84801151 13.37280729 12.50759500
  16.62719200 20.15198779 12.50759500
  16.62719412  9.84801292 17.49240700
   9.84801363 16.62719342 17.49240700
  20.15198849 13.37280729 12.50759500
  13.37280800 20.15198779 12.50759500
  13.26249015 13.26249015 12.54279000
  15.00000000 11.52498029 15.00000000
  18.52479437 15.00000140 10.20639500
  18.52479437 15.00000141 19.79360400
  11.47520562 15.00000141 10.20639501
  11.47520563 15.00000141 19.79360400
  11.49534898 11.49534898 15.00000000
  18.50465172 18.50465172 15.00000000
  18.50465102 11.49534898 15.00000000
  11.49534828 18.50465172 15.00000000
  15.00000000 15.00000000 10.04367500
  15.00000000 15.00000000 19.95632599
   9.84801151 13.37280729 17.49240700
  16.62719200 20.15198779 17.49240700
  16.73750985 13.26249015 17.45721100
  13.26248944 16.73751056 12.54279001
  13.26249015 13.26249015 17.45721100
  20.15198849 13.37280729 17.49240699
  13.37280800 20.15198779 17.49240700
  16.73751056 16.73751056 12.54279000
  11.52497959 15.00000071 15.00000000
  18.47502041 15.00000071 15.00000000
  14.99999999 18.52479579 10.20639500
  15.00000000 18.52479578 19.79360400
  15.00000000 15.00000000 15.00000000
  13.26248944 16.73751057 17.45721101
  16.73751056 16.73751057 17.45721100
  15.00000000 18.47502112 15.00000000
  17.41950700 10.08900900 20.57826800
  17.76869200  9.38025200 21.38332600
 


--------------------------------------------------------------------------------------------------------


 k-point  1 :   0.0000 0.0000 0.0000  plane waves:  490521

 maximum and minimum number of plane-waves per node :    490521   490521

 maximum number of plane-waves:    490521
 maximum index in each direction: 
   IXMAX=   48   IYMAX=   48   IZMAX=   48
   IXMIN=  -48   IYMIN=  -48   IZMIN=  -48


 serial   3D FFT for wavefunctions
 parallel 3D FFT for charge:
    minimum data exchange during FFTs selected (reduces bandwidth)


 total amount of memory used by VASP MPI-rank0  5486941. kBytes
=======================================================================

   base      :      30000. kBytes
   nonlr-proj:      17126. kBytes
   fftplans  :     924480. kBytes
   grid      :    1872000. kBytes
   one-center:        886. kBytes
   wavefun   :    2642449. kBytes
 
     INWAV:  cpu time    0.0001: real time    0.0005
 Broyden mixing: mesh for mixing (old mesh)
   NGX = 97   NGY = 97   NGZ = 97
  (NGX  =300   NGY  =300   NGZ  =300)
  gives a total of 912673 points

 initial charge density was supplied:
 charge density of overlapping atoms calculated
 number of electron     560.0000000 magnetization 
 keeping initial charge density in first step


--------------------------------------------------------------------------------------------------------


 Maximum index for non-local projection operator         1763
 Maximum index for augmentation-charges         5898 (set IRDMAX)


--------------------------------------------------------------------------------------------------------


 First call to EWALD:  gamma=   0.059
 Maximum number of real-space cells 3x 3x 3
 Maximum number of reciprocal cells 3x 3x 3

    FEWALD:  cpu time    0.0130: real time    0.0130


--------------------------------------- Iteration      1(   1)  ---------------------------------------


    POTLOK:  cpu time   14.4301: real time   14.4345
    SETDIJ:  cpu time    0.1041: real time    0.1041
     EDDAV:  cpu time  370.7255: real time  370.8316
       DOS:  cpu time    0.0012: real time    0.0012
    --------------------------------------------
      LOOP:  cpu time  385.2609: real time  385.3714

 eigenvalue-minimisations  :   688
 total energy-change (2. order) : 0.4388255E+04  (-0.1005191E+05)
 number of electron     560.0000000 magnetization 
 augmentation part      560.0000000 magnetization 

 Free energy of the ion-electron system (eV)
  ---------------------------------------------------
  alpha Z        PSCENC =        75.25431677
  Ewald energy   TEWEN  =    137954.57255069
  -Hartree energ DENC   =   -181315.50741774
  -exchange      EXHF   =         0.00000000
  -V(xc)+E(xc)   XCENC  =     -1703.01072823
  PAW double counting   =     44873.02882129   -41398.84523641
  entropy T*S    EENTRO =         0.03561258
  eigenvalues    EBANDS =       816.22204040
  atomic energy  EATOM  =     45086.50549395
  Solvation  Ediel_sol  =         0.00000000
  ---------------------------------------------------
  free energy    TOTEN  =      4388.25545331 eV

  energy without entropy =     4388.21984073  energy(sigma->0) =     4388.24655016


--------------------------------------------------------------------------------------------------------




--------------------------------------- Iteration      1(   2)  ---------------------------------------


     EDDAV:  cpu time  592.1333: real time  592.1663
       DOS:  cpu time    0.0012: real time    0.0012
    --------------------------------------------
      LOOP:  cpu time  592.1345: real time  592.1675

 eigenvalue-minimisations  :  1224
 total energy-change (2. order) :-0.2379046E+04  (-0.2141698E+04)
 number of electron     560.0000000 magnetization 
 augmentation part      560.0000000 magnetization 

 Free energy of the ion-electron system (eV)
  ---------------------------------------------------
  alpha Z        PSCENC =        75.25431677
  Ewald energy   TEWEN  =    137954.57255069
  -Hartree energ DENC   =   -181315.50741774
  -exchange      EXHF   =         0.00000000
  -V(xc)+E(xc)   XCENC  =     -1703.01072823
  PAW double counting   =     44873.02882129   -41398.84523641
  entropy T*S    EENTRO =        -0.01667716
  eigenvalues    EBANDS =     -1562.77120800
  atomic energy  EATOM  =     45086.50549395
  Solvation  Ediel_sol  =         0.00000000
  ---------------------------------------------------
  free energy    TOTEN  =      2009.20991516 eV

  energy without entropy =     2009.22659232  energy(sigma->0) =     2009.21408445


--------------------------------------------------------------------------------------------------------




--------------------------------------- Iteration      1(   3)  ---------------------------------------


     EDDAV:  cpu time  500.0096: real time  500.0274
       DOS:  cpu time    0.0010: real time    0.0010
    --------------------------------------------
      LOOP:  cpu time  500.0106: real time  500.0284

 eigenvalue-minimisations  :  1008
 total energy-change (2. order) :-0.1782729E+04  (-0.1682101E+04)
 number of electron     560.0000000 magnetization 
 augmentation part      560.0000000 magnetization 

 Free energy of the ion-electron system (eV)
  ---------------------------------------------------
  alpha Z        PSCENC =        75.25431677
  Ewald energy   TEWEN  =    137954.57255069
  -Hartree energ DENC   =   -181315.50741774
  -exchange      EXHF   =         0.00000000
  -V(xc)+E(xc)   XCENC  =     -1703.01072823
  PAW double counting   =     44873.02882129   -41398.84523641
  entropy T*S    EENTRO =        -0.01619870
  eigenvalues    EBANDS =     -3345.50116126
  atomic energy  EATOM  =     45086.50549395
  Solvation  Ediel_sol  =         0.00000000
  ---------------------------------------------------
  free energy    TOTEN  =       226.48044037 eV

  energy without entropy =      226.49663907  energy(sigma->0) =      226.48449005


--------------------------------------------------------------------------------------------------------




--------------------------------------- Iteration      1(   4)  ---------------------------------------


     EDDAV:  cpu time  425.1729: real time  425.1965
       DOS:  cpu time    0.0011: real time    0.0011
    --------------------------------------------
      LOOP:  cpu time  425.1739: real time  425.1976

 eigenvalue-minimisations  :   824
 total energy-change (2. order) :-0.3613123E+03  (-0.3057780E+03)
 number of electron     560.0000000 magnetization 
 augmentation part      560.0000000 magnetization 

 Free energy of the ion-electron system (eV)
  ---------------------------------------------------
  alpha Z        PSCENC =        75.25431677
  Ewald energy   TEWEN  =    137954.57255069
  -Hartree energ DENC   =   -181315.50741774
  -exchange      EXHF   =         0.00000000
  -V(xc)+E(xc)   XCENC  =     -1703.01072823
  PAW double counting   =     44873.02882129   -41398.84523641
  entropy T*S    EENTRO =        -0.07096589
  eigenvalues    EBANDS =     -3706.75869468
  atomic energy  EATOM  =     45086.50549395
  Solvation  Ediel_sol  =         0.00000000
  ---------------------------------------------------
  free energy    TOTEN  =      -134.83186024 eV

  energy without entropy =     -134.76089435  energy(sigma->0) =     -134.81411877


--------------------------------------------------------------------------------------------------------




--------------------------------------- Iteration      1(   5)  ---------------------------------------


     EDDAV:  cpu time  519.1447: real time  519.1732
       DOS:  cpu time    0.0013: real time    0.0013
    CHARGE:  cpu time   25.3164: real time   25.3164
    MIXING:  cpu time    0.4313: real time    0.4313
    --------------------------------------------
      LOOP:  cpu time  544.8938: real time  544.9223

 eigenvalue-minimisations  :  1064
 total energy-change (2. order) :-0.4499927E+02  (-0.3747686E+02)
 number of electron     559.9999889 magnetization 
 augmentation part      245.1387685 magnetization 

 Broyden mixing:
  rms(total) = 0.14695E+01    rms(broyden)= 0.14686E+01
  rms(prec ) = 0.15735E+01
  weight for this iteration     100.00

 Free energy of the ion-electron system (eV)
  ---------------------------------------------------
  alpha Z        PSCENC =        75.25431677
  Ewald energy   TEWEN  =    137954.57255069
  -Hartree energ DENC   =   -181315.50741774
  -exchange      EXHF   =         0.00000000
  -V(xc)+E(xc)   XCENC  =     -1703.01072823
  PAW double counting   =     44873.02882129   -41398.84523641
  entropy T*S    EENTRO =         0.51837247
  eigenvalues    EBANDS =     -3752.34730339
  atomic energy  EATOM  =     45086.50549395
  Solvation  Ediel_sol  =         0.00000000
  ---------------------------------------------------
  free energy    TOTEN  =      -179.83113058 eV

  energy without entropy =     -180.34950306  energy(sigma->0) =     -179.96072370


--------------------------------------------------------------------------------------------------------




--------------------------------------- Iteration      1(   6)  ---------------------------------------


    POTLOK:  cpu time   13.3764: real time   13.3799
    SETDIJ:  cpu time    0.1130: real time    0.1130
    EDDIAG:  cpu time   68.0504: real time   68.0564
  RMM-DIIS:  cpu time  194.8165: real time  194.8282
    ORTHCH:  cpu time   13.0484: real time   13.0483
       DOS:  cpu time    0.0013: real time    0.0013
    CHARGE:  cpu time   25.2956: real time   25.2953
    MIXING:  cpu time    0.4471: real time    0.4471
    --------------------------------------------
      LOOP:  cpu time  315.1486: real time  315.1694

 eigenvalue-minimisations  :   733
 total energy-change (2. order) :-0.1165526E+00  (-0.5531517E+01)
 number of electron     559.9999898 magnetization 
 augmentation part      240.6430497 magnetization 

 Broyden mixing:
  rms(total) = 0.25736E+01    rms(broyden)= 0.25734E+01
  rms(prec ) = 0.30168E+01
  weight for this iteration     100.00

 eigenvalues of (default mixing * dielectric matrix)
  average eigenvalue GAMMA=   0.2822
  0.2822

 Free energy of the ion-electron system (eV)
  ---------------------------------------------------
  alpha Z        PSCENC =        75.25431677
  Ewald energy   TEWEN  =    137954.57255069
  -Hartree energ DENC   =   -181723.83103667
  -exchange      EXHF   =         0.00000000
  -V(xc)+E(xc)   XCENC  =     -1696.66498007
  PAW double counting   =     45642.38401784   -42141.46232446
  entropy T*S    EENTRO =        -0.01597314
  eigenvalues    EBANDS =     -3376.68974811
  atomic energy  EATOM  =     45086.50549395
  Solvation  Ediel_sol  =         0.00000000
  ---------------------------------------------------
  free energy    TOTEN  =      -179.94768319 eV

  energy without entropy =     -179.93171004  energy(sigma->0) =     -179.94368990


--------------------------------------------------------------------------------------------------------




--------------------------------------- Iteration      1(   7)  ---------------------------------------


    POTLOK:  cpu time   13.2874: real time   13.2882
    SETDIJ:  cpu time    0.1103: real time    0.1103
    EDDIAG:  cpu time   66.6801: real time   66.6804
  RMM-DIIS:  cpu time  231.8660: real time  231.8682
    ORTHCH:  cpu time   12.5444: real time   12.5441
       DOS:  cpu time    0.0013: real time    0.0013
    CHARGE:  cpu time   24.8026: real time   24.8021
    MIXING:  cpu time    0.4577: real time    0.4577
    --------------------------------------------
      LOOP:  cpu time  349.7497: real time  349.7524

 eigenvalue-minimisations  :   870
 total energy-change (2. order) :-0.2259196E+01  (-0.1927694E+01)
 number of electron     559.9999870 magnetization 
 augmentation part      240.4471422 magnetization 

 Broyden mixing:
  rms(total) = 0.24054E+01    rms(broyden)= 0.24052E+01
  rms(prec ) = 0.29158E+01
  weight for this iteration     100.00

 eigenvalues of (default mixing * dielectric matrix)
  average eigenvalue GAMMA=   0.2773
  0.4207  0.1339

 Free energy of the ion-electron system (eV)
  ---------------------------------------------------
  alpha Z        PSCENC =        75.25431677
  Ewald energy   TEWEN  =    137954.57255069
  -Hartree energ DENC   =   -181791.73134443
  -exchange      EXHF   =         0.00000000
  -V(xc)+E(xc)   XCENC  =     -1696.79845351
  PAW double counting   =     45698.35234000   -42195.31060935
  entropy T*S    EENTRO =        -0.03615619
  eigenvalues    EBANDS =     -3313.01501703
  atomic energy  EATOM  =     45086.50549395
  Solvation  Ediel_sol  =         0.00000000
  ---------------------------------------------------
  free energy    TOTEN  =      -182.20687910 eV

  energy without entropy =     -182.17072292  energy(sigma->0) =     -182.19784006


--------------------------------------------------------------------------------------------------------




--------------------------------------- Iteration      1(   8)  ---------------------------------------


    POTLOK:  cpu time   12.9113: real time   12.9120
    SETDIJ:  cpu time    0.1134: real time    0.1134
    EDDIAG:  cpu time   67.4101: real time   67.4099
  RMM-DIIS:  cpu time  208.0028: real time  208.0020
    ORTHCH:  cpu time   12.7152: real time   12.7150
       DOS:  cpu time    0.0013: real time    0.0013
    CHARGE:  cpu time   25.8395: real time   25.8391
    MIXING:  cpu time    0.4932: real time    0.4932
    --------------------------------------------
      LOOP:  cpu time  327.4867: real time  327.4858

 eigenvalue-minimisations  :   784
 total energy-change (2. order) :-0.1240718E+01  (-0.7280219E+00)
 number of electron     559.9999867 magnetization 
 augmentation part      240.1469740 magnetization 

 Broyden mixing:
  rms(total) = 0.22571E+01    rms(broyden)= 0.22568E+01
  rms(prec ) = 0.26346E+01
  weight for this iteration     100.00

 eigenvalues of (default mixing * dielectric matrix)
  average eigenvalue GAMMA=   0.3086
  0.6517  0.1371  0.1371

 Free energy of the ion-electron system (eV)
  ---------------------------------------------------
  alpha Z        PSCENC =        75.25431677
  Ewald energy   TEWEN  =    137954.57255069
  -Hartree energ DENC   =   -181839.78961332
  -exchange      EXHF   =         0.00000000
  -V(xc)+E(xc)   XCENC  =     -1696.86718726
  PAW double counting   =     45753.62311753   -42248.40482860
  entropy T*S    EENTRO =        -0.17611438
  eigenvalues    EBANDS =     -3268.16533216
  atomic energy  EATOM  =     45086.50549395
  Solvation  Ediel_sol  =         0.00000000
  ---------------------------------------------------
  free energy    TOTEN  =      -183.44759677 eV

  energy without entropy =     -183.27148239  energy(sigma->0) =     -183.40356818


--------------------------------------------------------------------------------------------------------




--------------------------------------- Iteration      1(   9)  ---------------------------------------


    POTLOK:  cpu time   13.3825: real time   13.3831
    SETDIJ:  cpu time    0.1127: real time    0.1127
    EDDIAG:  cpu time   67.5972: real time   67.5969
  RMM-DIIS:  cpu time  193.1260: real time  193.1274
    ORTHCH:  cpu time   12.9209: real time   12.9208
       DOS:  cpu time    0.0013: real time    0.0013
    CHARGE:  cpu time   25.1187: real time   25.1185
    MIXING:  cpu time    0.5189: real time    0.5189
    --------------------------------------------
      LOOP:  cpu time  312.7779: real time  312.7796

 eigenvalue-minimisations  :   730
 total energy-change (2. order) : 0.6074739E+00  (-0.5809389E+00)
 number of electron     559.9999879 magnetization 
 augmentation part      240.7851371 magnetization 

 Broyden mixing:
  rms(total) = 0.24872E+01    rms(broyden)= 0.24869E+01
  rms(prec ) = 0.29240E+01
  weight for this iteration     100.00

 eigenvalues of (default mixing * dielectric matrix)
  average eigenvalue GAMMA=   0.2943
  0.7579  0.1600  0.1600  0.0994

 Free energy of the ion-electron system (eV)
  ---------------------------------------------------
  alpha Z        PSCENC =        75.25431677
  Ewald energy   TEWEN  =    137954.57255069
  -Hartree energ DENC   =   -181861.89089624
  -exchange      EXHF   =         0.00000000
  -V(xc)+E(xc)   XCENC  =     -1696.85429760
  PAW double counting   =     45831.01479545   -42322.73761022
  entropy T*S    EENTRO =        -0.11292509
  eigenvalues    EBANDS =     -3248.59155060
  atomic energy  EATOM  =     45086.50549395
  Solvation  Ediel_sol  =         0.00000000
  ---------------------------------------------------
  free energy    TOTEN  =      -182.84012288 eV

  energy without entropy =     -182.72719779  energy(sigma->0) =     -182.81189161


--------------------------------------------------------------------------------------------------------




--------------------------------------- Iteration      1(  10)  ---------------------------------------


    POTLOK:  cpu time   13.3995: real time   13.4030
    SETDIJ:  cpu time    0.1113: real time    0.1113
    EDDIAG:  cpu time   65.7338: real time   65.7338
  RMM-DIIS:  cpu time  194.2681: real time  194.2680
    ORTHCH:  cpu time   12.4627: real time   12.4625
       DOS:  cpu time    0.0013: real time    0.0013
    CHARGE:  cpu time   24.7965: real time   24.7961
    MIXING:  cpu time    0.5502: real time    0.5502
    --------------------------------------------
      LOOP:  cpu time  311.3234: real time  311.3262

 eigenvalue-minimisations  :   728
 total energy-change (2. order) : 0.1594441E+01  (-0.3055240E+00)
 number of electron     559.9999868 magnetization 
 augmentation part      241.1517572 magnetization 

 Broyden mixing:
  rms(total) = 0.22505E+01    rms(broyden)= 0.22501E+01
  rms(prec ) = 0.26345E+01
  weight for this iteration     100.00

 eigenvalues of (default mixing * dielectric matrix)
  average eigenvalue GAMMA=   0.2834
  0.8578  0.1835  0.1835  0.0962  0.0962

 Free energy of the ion-electron system (eV)
  ---------------------------------------------------
  alpha Z        PSCENC =        75.25431677
  Ewald energy   TEWEN  =    137954.57255069
  -Hartree energ DENC   =   -181887.45019703
  -exchange      EXHF   =         0.00000000
  -V(xc)+E(xc)   XCENC  =     -1696.76069356
  PAW double counting   =     45876.58778107   -42366.59310833
  entropy T*S    EENTRO =        -0.16671751
  eigenvalues    EBANDS =     -3223.19510757
  atomic energy  EATOM  =     45086.50549395
  Solvation  Ediel_sol  =         0.00000000
  ---------------------------------------------------
  free energy    TOTEN  =      -181.24568151 eV

  energy without entropy =     -181.07896400  energy(sigma->0) =     -181.20400213


--------------------------------------------------------------------------------------------------------




--------------------------------------- Iteration      1(  11)  ---------------------------------------


    POTLOK:  cpu time   12.8283: real time   12.8290
    SETDIJ:  cpu time    0.1066: real time    0.1066
    EDDIAG:  cpu time   66.7299: real time   66.7300
  RMM-DIIS:  cpu time  192.6507: real time  192.6503
    ORTHCH:  cpu time   12.7429: real time   12.7427
       DOS:  cpu time    0.0014: real time    0.0013
    CHARGE:  cpu time   25.6413: real time   25.6415
    MIXING:  cpu time    0.5938: real time    0.5938
    --------------------------------------------
      LOOP:  cpu time  311.2951: real time  311.2953

 eigenvalue-minimisations  :   727
 total energy-change (2. order) : 0.2192312E+01  (-0.2353717E+00)
 number of electron     559.9999888 magnetization 
 augmentation part      241.5148931 magnetization 

 Broyden mixing:
  rms(total) = 0.19585E+01    rms(broyden)= 0.19582E+01
  rms(prec ) = 0.22793E+01
  weight for this iteration     100.00

 eigenvalues of (default mixing * dielectric matrix)
  average eigenvalue GAMMA=   0.2708
  0.9195  0.2071  0.2071  0.1081  0.1081  0.0746

 Free energy of the ion-electron system (eV)
  ---------------------------------------------------
  alpha Z        PSCENC =        75.25431677
  Ewald energy   TEWEN  =    137954.57255069
  -Hartree energ DENC   =   -181909.88239913
  -exchange      EXHF   =         0.00000000
  -V(xc)+E(xc)   XCENC  =     -1696.60193654
  PAW double counting   =     45921.17368133   -42409.41805649
  entropy T*S    EENTRO =        -0.10052736
  eigenvalues    EBANDS =     -3200.55649240
  atomic energy  EATOM  =     45086.50549395
  Solvation  Ediel_sol  =         0.00000000
  ---------------------------------------------------
  free energy    TOTEN  =      -179.05336918 eV

  energy without entropy =     -178.95284182  energy(sigma->0) =     -179.02823734


--------------------------------------------------------------------------------------------------------




--------------------------------------- Iteration      1(  12)  ---------------------------------------


    POTLOK:  cpu time   13.0163: real time   13.0183
    SETDIJ:  cpu time    0.1171: real time    0.1172
    EDDIAG:  cpu time   67.1718: real time   67.1801
  RMM-DIIS:  cpu time  188.8451: real time  188.8606
    ORTHCH:  cpu time   12.7200: real time   12.7222
       DOS:  cpu time    0.0013: real time    0.0013
    CHARGE:  cpu time   24.9366: real time   24.9389
    MIXING:  cpu time    0.6152: real time    0.6152
    --------------------------------------------
      LOOP:  cpu time  307.4235: real time  307.4538

 eigenvalue-minimisations  :   717
 total energy-change (2. order) : 0.1797920E+01  (-0.1460924E+00)
 number of electron     559.9999889 magnetization 
 augmentation part      241.6962702 magnetization 

 Broyden mixing:
  rms(total) = 0.12746E+01    rms(broyden)= 0.12743E+01
  rms(prec ) = 0.14346E+01
  weight for this iteration     100.00

 eigenvalues of (default mixing * dielectric matrix)
  average eigenvalue GAMMA=   0.2729
  0.9890  0.2494  0.2494  0.1441  0.1046  0.1046  0.0693

 Free energy of the ion-electron system (eV)
  ---------------------------------------------------
  alpha Z        PSCENC =        75.25431677
  Ewald energy   TEWEN  =    137954.57255069
  -Hartree energ DENC   =   -181929.75193701
  -exchange      EXHF   =         0.00000000
  -V(xc)+E(xc)   XCENC  =     -1696.42330391
  PAW double counting   =     45952.71600723   -42439.61835528
  entropy T*S    EENTRO =        -0.08579652
  eigenvalues    EBANDS =     -3180.42442559
  atomic energy  EATOM  =     45086.50549395
  Solvation  Ediel_sol  =         0.00000000
  ---------------------------------------------------
  free energy    TOTEN  =      -177.25544967 eV

  energy without entropy =     -177.16965316  energy(sigma->0) =     -177.23400054


--------------------------------------------------------------------------------------------------------




--------------------------------------- Iteration      1(  13)  ---------------------------------------


    POTLOK:  cpu time   12.8678: real time   12.8687
    SETDIJ:  cpu time    0.1094: real time    0.1093
    EDDIAG:  cpu time   65.4124: real time   65.4165
  RMM-DIIS:  cpu time  188.4482: real time  188.4698
    ORTHCH:  cpu time   12.5700: real time   12.5712
       DOS:  cpu time    0.0013: real time    0.0013
    CHARGE:  cpu time   24.9237: real time   24.9269
    MIXING:  cpu time    0.6447: real time    0.6447
    --------------------------------------------
      LOOP:  cpu time  304.9775: real time  305.0086

 eigenvalue-minimisations  :   713
 total energy-change (2. order) : 0.3779847E+00  (-0.1277495E+00)
 number of electron     559.9999868 magnetization 
 augmentation part      241.5918595 magnetization 

 Broyden mixing:
  rms(total) = 0.12000E+01    rms(broyden)= 0.11998E+01
  rms(prec ) = 0.13668E+01
  weight for this iteration     100.00

 eigenvalues of (default mixing * dielectric matrix)
  average eigenvalue GAMMA=   0.2950
  1.1122  0.3466  0.3466  0.1199  0.1199  0.1236  0.1236  0.0679

 Free energy of the ion-electron system (eV)
  ---------------------------------------------------
  alpha Z        PSCENC =        75.25431677
  Ewald energy   TEWEN  =    137954.57255069
  -Hartree energ DENC   =   -181956.32775066
  -exchange      EXHF   =         0.00000000
  -V(xc)+E(xc)   XCENC  =     -1696.08792651
  PAW double counting   =     45993.04324405   -42478.05098214
  entropy T*S    EENTRO =        -0.17736538
  eigenvalues    EBANDS =     -3155.60904578
  atomic energy  EATOM  =     45086.50549395
  Solvation  Ediel_sol  =         0.00000000
  ---------------------------------------------------
  free energy    TOTEN  =      -176.87746501 eV

  energy without entropy =     -176.70009963  energy(sigma->0) =     -176.83312367


--------------------------------------------------------------------------------------------------------




--------------------------------------- Iteration      1(  14)  ---------------------------------------


    POTLOK:  cpu time   13.0990: real time   13.1000
    SETDIJ:  cpu time    0.1127: real time    0.1127
    EDDIAG:  cpu time   66.3874: real time   66.3942
  RMM-DIIS:  cpu time  184.0764: real time  184.0897
    ORTHCH:  cpu time   12.4711: real time   12.4711
       DOS:  cpu time    0.0013: real time    0.0013
    CHARGE:  cpu time   23.5966: real time   23.5979
    MIXING:  cpu time    0.6905: real time    0.6905
    --------------------------------------------
      LOOP:  cpu time  300.4351: real time  300.4576

 eigenvalue-minimisations  :   710
 total energy-change (2. order) :-0.1314070E+00  (-0.1258036E+00)
 number of electron     559.9999884 magnetization 
 augmentation part      241.2348579 magnetization 

 Broyden mixing:
  rms(total) = 0.16428E+01    rms(broyden)= 0.16426E+01
  rms(prec ) = 0.18812E+01
  weight for this iteration     100.00

 eigenvalues of (default mixing * dielectric matrix)
  average eigenvalue GAMMA=   0.3139
  1.3302  0.5344  0.2915  0.1319  0.1319  0.1249  0.1249  0.0867  0.0684

 Free energy of the ion-electron system (eV)
  ---------------------------------------------------
  alpha Z        PSCENC =        75.25431677
  Ewald energy   TEWEN  =    137954.57255069
  -Hartree energ DENC   =   -182004.09739299
  -exchange      EXHF   =         0.00000000
  -V(xc)+E(xc)   XCENC  =     -1695.45682219
  PAW double counting   =     46059.46889735   -42541.21301680
  entropy T*S    EENTRO =        -0.09932188
  eigenvalues    EBANDS =     -3111.94357689
  atomic energy  EATOM  =     45086.50549395
  Solvation  Ediel_sol  =         0.00000000
  ---------------------------------------------------
  free energy    TOTEN  =      -177.00887199 eV

  energy without entropy =     -176.90955012  energy(sigma->0) =     -176.98404153


--------------------------------------------------------------------------------------------------------




--------------------------------------- Iteration      1(  15)  ---------------------------------------


    POTLOK:  cpu time   12.3605: real time   12.3622
    SETDIJ:  cpu time    0.1068: real time    0.1068
    EDDIAG:  cpu time   64.3199: real time   64.3232
  RMM-DIIS:  cpu time  185.3394: real time  185.3448
    ORTHCH:  cpu time   12.3946: real time   12.3943
       DOS:  cpu time    0.0013: real time    0.0013
    CHARGE:  cpu time   24.7269: real time   24.7264
    MIXING:  cpu time    0.7496: real time    0.7496
    --------------------------------------------
      LOOP:  cpu time  299.9990: real time  300.0086

 eigenvalue-minimisations  :   705
 total energy-change (2. order) : 0.7527072E+00  (-0.1172181E+00)
 number of electron     559.9999885 magnetization 
 augmentation part      241.1493593 magnetization 

 Broyden mixing:
  rms(total) = 0.15096E+01    rms(broyden)= 0.15094E+01
  rms(prec ) = 0.17888E+01
  weight for this iteration     100.00

 eigenvalues of (default mixing * dielectric matrix)
  average eigenvalue GAMMA=   0.3195
  1.4394  0.6405  0.2292  0.2111  0.2111  0.1135  0.1135  0.0840  0.0840  0.0689

 Free energy of the ion-electron system (eV)
  ---------------------------------------------------
  alpha Z        PSCENC =        75.25431677
  Ewald energy   TEWEN  =    137954.57255069
  -Hartree energ DENC   =   -182046.62471579
  -exchange      EXHF   =         0.00000000
  -V(xc)+E(xc)   XCENC  =     -1694.78658068
  PAW double counting   =     46125.61342380   -42604.09339432
  entropy T*S    EENTRO =        -0.01808786
  eigenvalues    EBANDS =     -3072.67917138
  atomic energy  EATOM  =     45086.50549395
  Solvation  Ediel_sol  =         0.00000000
  ---------------------------------------------------
  free energy    TOTEN  =      -176.25616481 eV

  energy without entropy =     -176.23807695  energy(sigma->0) =     -176.25164285


--------------------------------------------------------------------------------------------------------




--------------------------------------- Iteration      1(  16)  ---------------------------------------


    POTLOK:  cpu time   12.8319: real time   12.8325
    SETDIJ:  cpu time    0.1125: real time    0.1125
    EDDIAG:  cpu time   66.2331: real time   66.2334
  RMM-DIIS:  cpu time  183.8343: real time  183.8348
    ORTHCH:  cpu time   12.5030: real time   12.5027
       DOS:  cpu time    0.0014: real time    0.0014
    CHARGE:  cpu time   24.7100: real time   24.7110
    MIXING:  cpu time    0.7910: real time    0.7910
    --------------------------------------------
      LOOP:  cpu time  301.0170: real time  301.0193

 eigenvalue-minimisations  :   710
 total energy-change (2. order) :-0.9570015E+00  (-0.6148526E-01)
 number of electron     559.9999835 magnetization 
 augmentation part      241.3057697 magnetization 

 Broyden mixing:
  rms(total) = 0.33565E+01    rms(broyden)= 0.33562E+01
  rms(prec ) = 0.38979E+01
  weight for this iteration     100.00

 eigenvalues of (default mixing * dielectric matrix)
  average eigenvalue GAMMA=   0.3159
  1.5184  0.7263  0.2621  0.2621  0.1995  0.1149  0.1149  0.0873  0.0873  0.0679
  0.0347

 Free energy of the ion-electron system (eV)
  ---------------------------------------------------
  alpha Z        PSCENC =        75.25431677
  Ewald energy   TEWEN  =    137954.57255069
  -Hartree energ DENC   =   -182062.85540080
  -exchange      EXHF   =         0.00000000
  -V(xc)+E(xc)   XCENC  =     -1694.53483200
  PAW double counting   =     46150.31563462   -42627.49996627
  entropy T*S    EENTRO =         0.39119011
  eigenvalues    EBANDS =     -3059.36215338
  atomic energy  EATOM  =     45086.50549395
  Solvation  Ediel_sol  =         0.00000000
  ---------------------------------------------------
  free energy    TOTEN  =      -177.21316631 eV

  energy without entropy =     -177.60435642  energy(sigma->0) =     -177.31096384


--------------------------------------------------------------------------------------------------------




--------------------------------------- Iteration      1(  17)  ---------------------------------------


    POTLOK:  cpu time   12.8327: real time   12.8331
    SETDIJ:  cpu time    0.1062: real time    0.1062
    EDDIAG:  cpu time   64.8810: real time   64.8804
  RMM-DIIS:  cpu time  169.2636: real time  169.2648
    ORTHCH:  cpu time   11.8402: real time   11.8403
       DOS:  cpu time    0.0013: real time    0.0013
    CHARGE:  cpu time   23.5465: real time   23.5473
    MIXING:  cpu time    0.8037: real time    0.8038
    --------------------------------------------
      LOOP:  cpu time  283.2753: real time  283.2771

 eigenvalue-minimisations  :   700
 total energy-change (2. order) : 0.1196750E+01  (-0.6075642E-01)
 number of electron     559.9999889 magnetization 
 augmentation part      241.1107821 magnetization 

 Broyden mixing:
  rms(total) = 0.13377E+01    rms(broyden)= 0.13373E+01
  rms(prec ) = 0.15463E+01
  weight for this iteration     100.00

 eigenvalues of (default mixing * dielectric matrix)
  average eigenvalue GAMMA=   0.3176
  1.5497  0.8540  0.3106  0.3106  0.1860  0.1172  0.1172  0.0893  0.0893  0.0869
  0.0666  0.0342

 Free energy of the ion-electron system (eV)
  ---------------------------------------------------
  alpha Z        PSCENC =        75.25431677
  Ewald energy   TEWEN  =    137954.57255069
  -Hartree energ DENC   =   -182076.48359773
  -exchange      EXHF   =         0.00000000
  -V(xc)+E(xc)   XCENC  =     -1694.35117664
  PAW double counting   =     46167.90141774   -42644.17531927
  entropy T*S    EENTRO =        -0.07527652
  eigenvalues    EBANDS =     -3045.16482546
  atomic energy  EATOM  =     45086.50549395
  Solvation  Ediel_sol  =         0.00000000
  ---------------------------------------------------
  free energy    TOTEN  =      -176.01641646 eV

  energy without entropy =     -175.94113994  energy(sigma->0) =     -175.99759733


--------------------------------------------------------------------------------------------------------




--------------------------------------- Iteration      1(  18)  ---------------------------------------


    POTLOK:  cpu time   12.4307: real time   12.4313
    SETDIJ:  cpu time    0.1106: real time    0.1106
    EDDIAG:  cpu time   63.9284: real time   63.9280
  RMM-DIIS:  cpu time  187.1208: real time  187.1216
    ORTHCH:  cpu time   12.5312: real time   12.5309
       DOS:  cpu time    0.0012: real time    0.0012
    CHARGE:  cpu time   24.8368: real time   24.8363
    MIXING:  cpu time    0.9443: real time    0.9443
    --------------------------------------------
      LOOP:  cpu time  301.9040: real time  301.9044

 eigenvalue-minimisations  :   716
 total energy-change (2. order) :-0.7313640E-01  (-0.4899423E-01)
 number of electron     559.9999887 magnetization 
 augmentation part      241.0835273 magnetization 

 Broyden mixing:
  rms(total) = 0.14624E+01    rms(broyden)= 0.14622E+01
  rms(prec ) = 0.17522E+01
  weight for this iteration     100.00

 eigenvalues of (default mixing * dielectric matrix)
  average eigenvalue GAMMA=   0.3116
  1.5251  0.9904  0.3364  0.3364  0.1491  0.1491  0.1147  0.1147  0.0873  0.0873
  0.0656  0.0600  0.0342

 Free energy of the ion-electron system (eV)
  ---------------------------------------------------
  alpha Z        PSCENC =        75.25431677
  Ewald energy   TEWEN  =    137954.57255069
  -Hartree energ DENC   =   -182092.66478821
  -exchange      EXHF   =         0.00000000
  -V(xc)+E(xc)   XCENC  =     -1694.18177250
  PAW double counting   =     46181.06831665   -42656.43844312
  entropy T*S    EENTRO =         0.00349296
  eigenvalues    EBANDS =     -3030.20872007
  atomic energy  EATOM  =     45086.50549395
  Solvation  Ediel_sol  =         0.00000000
  ---------------------------------------------------
  free energy    TOTEN  =      -176.08955286 eV

  energy without entropy =     -176.09304583  energy(sigma->0) =     -176.09042611


--------------------------------------------------------------------------------------------------------




--------------------------------------- Iteration      1(  19)  ---------------------------------------


    POTLOK:  cpu time   12.8951: real time   12.8966
    SETDIJ:  cpu time    0.1144: real time    0.1144
    EDDIAG:  cpu time   65.0912: real time   65.0907
  RMM-DIIS:  cpu time  183.0768: real time  183.0765
    ORTHCH:  cpu time   12.4682: real time   12.4680
       DOS:  cpu time    0.0013: real time    0.0013
    CHARGE:  cpu time   24.7685: real time   24.7681
    MIXING:  cpu time    0.9680: real time    0.9680
    --------------------------------------------
      LOOP:  cpu time  299.3836: real time  299.3836

 eigenvalue-minimisations  :   704
 total energy-change (2. order) : 0.2991082E+00  (-0.3090324E-01)
 number of electron     559.9999879 magnetization 
 augmentation part      241.0832546 magnetization 

 Broyden mixing:
  rms(total) = 0.11138E+01    rms(broyden)= 0.11136E+01
  rms(prec ) = 0.12979E+01
  weight for this iteration     100.00

 eigenvalues of (default mixing * dielectric matrix)
  average eigenvalue GAMMA=   0.3095
  1.5133  1.1233  0.3537  0.3537  0.1737  0.1737  0.1162  0.1162  0.0906  0.0906
  0.0790  0.0680  0.0473  0.0344

 Free energy of the ion-electron system (eV)
  ---------------------------------------------------
  alpha Z        PSCENC =        75.25431677
  Ewald energy   TEWEN  =    137954.57255069
  -Hartree energ DENC   =   -182103.25794450
  -exchange      EXHF   =         0.00000000
  -V(xc)+E(xc)   XCENC  =     -1694.07820944
  PAW double counting   =     46185.50772310   -42660.36331601
  entropy T*S    EENTRO =        -0.01774039
  eigenvalues    EBANDS =     -3019.91331881
  atomic energy  EATOM  =     45086.50549395
  Solvation  Ediel_sol  =         0.00000000
  ---------------------------------------------------
  free energy    TOTEN  =      -175.79044463 eV

  energy without entropy =     -175.77270424  energy(sigma->0) =     -175.78600953


--------------------------------------------------------------------------------------------------------




--------------------------------------- Iteration      1(  20)  ---------------------------------------


    POTLOK:  cpu time   12.8526: real time   12.8531
    SETDIJ:  cpu time    0.1114: real time    0.1114
    EDDIAG:  cpu time   64.7786: real time   64.7781
  RMM-DIIS:  cpu time  184.0409: real time  184.0433
    ORTHCH:  cpu time   12.4622: real time   12.4621
       DOS:  cpu time    0.0013: real time    0.0013
    CHARGE:  cpu time   24.7872: real time   24.7871
    MIXING:  cpu time    0.9976: real time    0.9976
    --------------------------------------------
      LOOP:  cpu time  300.0318: real time  300.0340

 eigenvalue-minimisations  :   707
 total energy-change (2. order) : 0.1056620E+00  (-0.2369675E-01)
 number of electron     559.9999896 magnetization 
 augmentation part      241.1020511 magnetization 

 Broyden mixing:
  rms(total) = 0.13241E+01    rms(broyden)= 0.13240E+01
  rms(prec ) = 0.15575E+01
  weight for this iteration     100.00

 eigenvalues of (default mixing * dielectric matrix)
  average eigenvalue GAMMA=   0.3060
  1.7006  1.0250  0.3775  0.3775  0.1955  0.1955  0.1157  0.1157  0.0885  0.0885
  0.0831  0.0831  0.0688  0.0406  0.0349

 Free energy of the ion-electron system (eV)
  ---------------------------------------------------
  alpha Z        PSCENC =        75.25431677
  Ewald energy   TEWEN  =    137954.57255069
  -Hartree energ DENC   =   -182115.45427291
  -exchange      EXHF   =         0.00000000
  -V(xc)+E(xc)   XCENC  =     -1693.96091051
  PAW double counting   =     46189.90085788   -42664.16640383
  entropy T*S    EENTRO =         0.03129630
  eigenvalues    EBANDS =     -3008.36771092
  atomic energy  EATOM  =     45086.50549395
  Solvation  Ediel_sol  =         0.00000000
  ---------------------------------------------------
  free energy    TOTEN  =      -175.68478259 eV

  energy without entropy =     -175.71607889  energy(sigma->0) =     -175.69260667


--------------------------------------------------------------------------------------------------------




--------------------------------------- Iteration      1(  21)  ---------------------------------------


    POTLOK:  cpu time   12.9538: real time   12.9548
    SETDIJ:  cpu time    0.1102: real time    0.1102
    EDDIAG:  cpu time   64.8953: real time   64.8959
  RMM-DIIS:  cpu time  180.4902: real time  180.4903
    ORTHCH:  cpu time   12.4884: real time   12.4883
       DOS:  cpu time    0.0014: real time    0.0014
    CHARGE:  cpu time   24.6837: real time   24.6835
    MIXING:  cpu time    1.0837: real time    1.0837
    --------------------------------------------
      LOOP:  cpu time  296.7067: real time  296.7080

 eigenvalue-minimisations  :   693
 total energy-change (2. order) : 0.2715504E+00  (-0.2094825E-01)
 number of electron     559.9999882 magnetization 
 augmentation part      241.1624475 magnetization 

 Broyden mixing:
  rms(total) = 0.91803E+00    rms(broyden)= 0.91790E+00
  rms(prec ) = 0.10665E+01
  weight for this iteration     100.00

 eigenvalues of (default mixing * dielectric matrix)
  average eigenvalue GAMMA=   0.3127
  1.7681  1.0913  0.4301  0.4301  0.2269  0.2269  0.1181  0.1181  0.1094  0.1094
  0.0858  0.0858  0.0647  0.0647  0.0383  0.0352

 Free energy of the ion-electron system (eV)
  ---------------------------------------------------
  alpha Z        PSCENC =        75.25431677
  Ewald energy   TEWEN  =    137954.57255069
  -Hartree energ DENC   =   -182122.91071566
  -exchange      EXHF   =         0.00000000
  -V(xc)+E(xc)   XCENC  =     -1693.85769705
  PAW double counting   =     46197.61784722   -42671.28356337
  entropy T*S    EENTRO =        -0.02109746
  eigenvalues    EBANDS =     -3001.29036729
  atomic energy  EATOM  =     45086.50549395
  Solvation  Ediel_sol  =         0.00000000
  ---------------------------------------------------
  free energy    TOTEN  =      -175.41323219 eV

  energy without entropy =     -175.39213473  energy(sigma->0) =     -175.40795783


--------------------------------------------------------------------------------------------------------




--------------------------------------- Iteration      1(  22)  ---------------------------------------


    POTLOK:  cpu time   12.8410: real time   12.8415
    SETDIJ:  cpu time    0.1071: real time    0.1071
    EDDIAG:  cpu time   64.9516: real time   64.9523
  RMM-DIIS:  cpu time  179.6426: real time  179.6457
    ORTHCH:  cpu time   12.4374: real time   12.4374
       DOS:  cpu time    0.0013: real time    0.0013
    CHARGE:  cpu time   24.6396: real time   24.6395
    MIXING:  cpu time    1.1308: real time    1.1308
    --------------------------------------------
      LOOP:  cpu time  295.7514: real time  295.7557

 eigenvalue-minimisations  :   691
 total energy-change (2. order) : 0.1441344E+00  (-0.1918992E-01)
 number of electron     559.9999886 magnetization 
 augmentation part      241.1977096 magnetization 

 Broyden mixing:
  rms(total) = 0.60569E+00    rms(broyden)= 0.60553E+00
  rms(prec ) = 0.69112E+00
  weight for this iteration     100.00

 eigenvalues of (default mixing * dielectric matrix)
  average eigenvalue GAMMA=   0.3189
  1.7863  1.3430  0.4199  0.2715  0.2715  0.2882  0.2295  0.1176  0.1176  0.1056
  0.0920  0.0920  0.0830  0.0648  0.0648  0.0387  0.0352

 Free energy of the ion-electron system (eV)
  ---------------------------------------------------
  alpha Z        PSCENC =        75.25431677
  Ewald energy   TEWEN  =    137954.57255069
  -Hartree energ DENC   =   -182135.59647232
  -exchange      EXHF   =         0.00000000
  -V(xc)+E(xc)   XCENC  =     -1693.72941737
  PAW double counting   =     46198.69441080   -42671.75785562
  entropy T*S    EENTRO =        -0.09434241
  eigenvalues    EBANDS =     -2989.11778229
  atomic energy  EATOM  =     45086.50549395
  Solvation  Ediel_sol  =         0.00000000
  ---------------------------------------------------
  free energy    TOTEN  =      -175.26909779 eV

  energy without entropy =     -175.17475538  energy(sigma->0) =     -175.24551219


--------------------------------------------------------------------------------------------------------




--------------------------------------- Iteration      1(  23)  ---------------------------------------


    POTLOK:  cpu time   12.7825: real time   12.7830
    SETDIJ:  cpu time    0.1137: real time    0.1137
    EDDIAG:  cpu time   64.9566: real time   64.9611
  RMM-DIIS:  cpu time  183.4461: real time  183.4457
    ORTHCH:  cpu time   12.7150: real time   12.7148
       DOS:  cpu time    0.0014: real time    0.0014
    CHARGE:  cpu time   25.3315: real time   25.3316
    MIXING:  cpu time    1.2758: real time    1.2758
    --------------------------------------------
      LOOP:  cpu time  300.6225: real time  300.6271

 eigenvalue-minimisations  :   702
 total energy-change (2. order) : 0.5956834E-01  (-0.1763088E-01)
 number of electron     559.9999884 magnetization 
 augmentation part      241.1139873 magnetization 

 Broyden mixing:
  rms(total) = 0.60913E+00    rms(broyden)= 0.60896E+00
  rms(prec ) = 0.71093E+00
  weight for this iteration     100.00

 eigenvalues of (default mixing * dielectric matrix)
  average eigenvalue GAMMA=   0.3303
  1.9192  1.3398  0.6589  0.3478  0.3478  0.2078  0.2078  0.1166  0.1166  0.1181
[...]
 -0.007  -0.012   0.004   0.004   0.005  -0.006  -0.012   0.004
 -0.011  -0.020   0.006   0.007   0.009  -0.011  -0.020   0.006
 -0.015  -0.005   0.013   0.000   0.022  -0.014  -0.005   0.012
  0.000  -0.023  -0.006  -0.015  -0.000   0.000  -0.022  -0.006
 -0.022   0.000   0.009  -0.005  -0.016  -0.022   0.000   0.008
 -0.018  -0.006   0.015   0.000   0.027  -0.017  -0.006   0.015
  0.000  -0.027  -0.007  -0.018  -0.000   0.000  -0.027  -0.007
 -0.027   0.000   0.010  -0.006  -0.019  -0.026   0.000   0.010
 total augmentation occupancy for first ion, spin component:           1
  1.536  -0.029   0.004   0.016   0.022   0.076  -0.008  -0.002   0.036  -0.010   0.091  -0.032   0.012   0.002   0.002  -0.019
 -0.029   1.404   0.028   0.071  -0.002  -0.007   0.070   0.011  -0.015  -0.008   0.214  -0.065   0.019   0.001   0.002  -0.006
  0.004   0.028   1.541   0.002  -0.000  -0.002   0.012   0.074  -0.013   0.018  -0.055   0.018  -0.003  -0.007  -0.005   0.016
  0.016   0.071   0.002   1.337   0.042   0.033  -0.014  -0.012   0.092  -0.022  -0.085   0.022  -0.001  -0.009  -0.004   0.001
  0.022  -0.002  -0.000   0.042   1.437  -0.010  -0.008   0.016  -0.022   0.068  -0.098   0.031  -0.003  -0.010  -0.009   0.026
  0.076  -0.007  -0.002   0.033  -0.010   0.217   0.019  -0.002  -0.045   0.003  -0.048   0.002   0.017  -0.010   0.035  -0.004
 -0.008   0.070   0.012  -0.014  -0.008   0.019   0.264  -0.023  -0.003   0.006  -0.109   0.007  -0.001   0.052  -0.010  -0.000
 -0.002   0.011   0.074  -0.012   0.016  -0.002  -0.023   0.215   0.014  -0.020   0.028  -0.001  -0.012   0.009  -0.018   0.003
  0.036  -0.015  -0.013   0.092  -0.022  -0.045  -0.003   0.014   0.261   0.007   0.043  -0.004  -0.009   0.036   0.004   0.000
 -0.010  -0.008   0.018  -0.022   0.068   0.003   0.006  -0.020   0.007   0.258   0.047  -0.003  -0.038   0.002   0.049   0.007
  0.091   0.214  -0.055  -0.085  -0.098  -0.048  -0.109   0.028   0.043   0.047   0.945  -0.140   0.084   0.014   0.064  -0.013
 -0.032  -0.065   0.018   0.022   0.031   0.002   0.007  -0.001  -0.004  -0.003  -0.140   0.023  -0.014  -0.003  -0.010   0.003
  0.012   0.019  -0.003  -0.001  -0.003   0.017  -0.001  -0.012  -0.009  -0.038   0.084  -0.014   0.029  -0.008  -0.004  -0.003
  0.002   0.001  -0.007  -0.009  -0.010  -0.010   0.052   0.009   0.036   0.002   0.014  -0.003  -0.008   0.036   0.005   0.000
  0.002   0.002  -0.005  -0.004  -0.009   0.035  -0.010  -0.018   0.004   0.049   0.064  -0.010  -0.004   0.005   0.035  -0.000
 -0.019  -0.006   0.016   0.001   0.026  -0.004  -0.000   0.003   0.000   0.007  -0.013   0.003  -0.003   0.000  -0.000   0.001
  0.001  -0.028  -0.007  -0.018   0.001   0.001  -0.008  -0.001  -0.006  -0.000  -0.003   0.001   0.000  -0.003  -0.000   0.000
 -0.028   0.001   0.012  -0.005  -0.020  -0.006   0.001   0.003  -0.001  -0.007  -0.008   0.001  -0.000  -0.000  -0.003   0.000


------------------------ aborting loop because EDIFF is reached ----------------------------------------


    CHARGE:  cpu time   25.3246: real time   25.3252
    FORLOC:  cpu time    6.2862: real time    6.2864
    FORNL :  cpu time   66.9711: real time   66.9731
    STRESS:  cpu time  197.8469: real time  197.8525
    FORCOR:  cpu time   21.1176: real time   21.1184
    FORHAR:  cpu time    9.3594: real time    9.3597
    MIXING:  cpu time    4.1685: real time    4.1687
    OFIELD:  cpu time    0.0000: real time    0.0000

  FORCE on cell =-STRESS in cart. coord.  units (eV):
  Direction    XX          YY          ZZ          XY          YZ          ZX
  --------------------------------------------------------------------------------------
  Alpha Z    75.25432    75.25432    75.25432
  Ewald   44490.08212 46419.11367 47045.27104  -722.41390 -2111.40365  1017.17799
  Hartree 59360.70689 61156.50731 61791.25421  -699.48125 -1909.42113   953.54232
  E(xc)   -2905.25283 -2904.45883 -2904.71568     0.00849    -1.11942     0.11514
  Local  ************************************  1419.24044  4003.27154 -1966.06353
  n-local  -884.75444  -882.05664  -885.00729     2.13460     1.68171    -3.51535
  augment  4104.87539  4102.14189  4103.92068    -1.06238     1.86130     1.49973
  Kinetic  7811.20964  7801.16856  7803.56280     0.43759    12.66582    -1.63591
  Fock        0.00000     0.00000     0.00000     0.00000     0.00000     0.00000
  -------------------------------------------------------------------------------------
  Total    -114.51393  -111.79276  -111.03748    -1.13641    -2.46383     1.12039
  in kB      -6.79525    -6.63377    -6.58895    -0.06743    -0.14620     0.06648
  external pressure =       -6.67 kB  Pullay stress =        0.00 kB


 VOLUME and BASIS-vectors are now :
 -----------------------------------------------------------------------------
  energy-cutoff  :      400.00
  volume of cell :    27000.00
      direct lattice vectors                 reciprocal lattice vectors
    30.000000000  0.000000000  0.000000000     0.033333333  0.000000000  0.000000000
     0.000000000 30.000000000  0.000000000     0.000000000  0.033333333  0.000000000
     0.000000000  0.000000000 30.000000000     0.000000000  0.000000000  0.033333333

  length of vectors
    30.000000000 30.000000000 30.000000000     0.033333333  0.033333333  0.033333333


 FORCES acting on ions
    electron-ion (+dipol)            ewald-force                    non-local-force                 convergence-correction
 -----------------------------------------------------------------------------------------------
   0.400E+03 0.970E+03 0.428E+03   -.398E+03 -.967E+03 -.427E+03   -.150E+01 -.182E+01 -.215E+00   -.809E-02 0.270E-02 0.478E-02
   -.972E+03 -.399E+03 0.422E+03   0.969E+03 0.397E+03 -.422E+03   0.181E+01 0.152E+01 -.199E+00   0.420E-03 0.535E-02 0.493E-03
   -.391E+03 0.970E+03 0.433E+03   0.389E+03 -.967E+03 -.432E+03   0.149E+01 -.182E+01 -.236E+00   0.481E-03 -.187E-02 0.251E-02
   0.973E+03 -.397E+03 0.419E+03   -.971E+03 0.395E+03 -.419E+03   -.182E+01 0.152E+01 -.239E+00   -.124E-02 0.132E-02 0.114E-02
   0.242E+01 0.584E+03 0.971E+03   -.241E+01 -.583E+03 -.967E+03   -.201E-02 -.320E+00 -.234E+01   -.467E-02 0.430E-02 -.304E-02
   0.996E+02 0.520E+03 -.920E+03   -.997E+02 -.520E+03 0.917E+03   0.314E+00 -.244E+00 0.199E+01   -.524E-02 0.249E-02 0.133E-02
   0.119E+02 0.114E+04 0.270E+02   -.118E+02 -.113E+04 -.269E+02   -.415E-01 -.314E+01 -.316E-01   -.486E-02 -.205E-02 0.662E-02
   0.114E+04 -.343E+01 0.382E+01   -.113E+04 0.343E+01 -.383E+01   -.311E+01 -.167E-02 0.789E-02   0.233E-02 0.246E-02 -.225E-03
   -.114E+04 -.932E+01 0.105E+02   0.113E+04 0.936E+01 -.105E+02   0.307E+01 -.333E-01 0.316E-01   0.260E-02 0.429E-02 0.454E-02
   0.136E+01 -.114E+04 0.293E+01   -.136E+01 0.113E+04 -.292E+01   0.138E-02 0.311E+01 -.494E-02   -.105E-02 -.141E-02 -.192E-02
   -.578E+03 0.575E+03 0.820E+03   0.576E+03 -.573E+03 -.817E+03   0.155E+01 -.156E+01 -.219E+01   0.401E-02 0.698E-03 -.640E-02
   -.670E+03 0.376E+03 -.688E+03   0.665E+03 -.379E+03 0.687E+03   0.341E+01 0.301E+01 -.743E+00   -.190E-02 0.436E-02 0.486E-02
   0.579E+03 -.580E+03 0.814E+03   -.577E+03 0.578E+03 -.811E+03   -.156E+01 0.155E+01 -.220E+01   -.530E-02 0.101E-02 0.356E-02
   0.584E+03 -.586E+03 -.810E+03   -.581E+03 0.583E+03 0.807E+03   -.156E+01 0.155E+01 0.220E+01   -.113E-02 0.644E-03 -.120E-02
   0.581E+03 0.576E+03 0.817E+03   -.579E+03 -.574E+03 -.813E+03   -.156E+01 -.156E+01 -.220E+01   -.653E-02 0.374E-02 -.212E-03
   0.609E+03 0.567E+03 -.805E+03   -.606E+03 -.565E+03 0.802E+03   -.163E+01 -.158E+01 0.221E+01   -.817E-04 -.166E-02 -.473E-03
   -.578E+03 -.581E+03 0.815E+03   0.575E+03 0.579E+03 -.812E+03   0.155E+01 0.156E+01 -.220E+01   0.115E-02 0.454E-02 -.418E-03
   -.579E+03 -.593E+03 -.809E+03   0.577E+03 0.591E+03 0.806E+03   0.154E+01 0.152E+01 0.220E+01   0.431E-03 -.248E-02 0.354E-03
   0.429E+03 0.969E+03 -.387E+03   -.427E+03 -.966E+03 0.386E+03   -.142E+01 -.183E+01 0.285E+00   -.589E-02 0.384E-02 0.416E-02
   -.976E+03 -.410E+03 -.407E+03   0.973E+03 0.408E+03 0.407E+03   0.184E+01 0.156E+01 0.178E+00   -.401E-02 0.343E-02 0.604E-02
   -.319E+03 0.314E+03 0.466E+03   0.319E+03 -.315E+03 -.466E+03   -.365E+00 0.369E+00 0.526E+00   -.562E-02 0.644E-02 0.403E-02
   0.975E+03 0.391E+03 0.421E+03   -.972E+03 -.389E+03 -.420E+03   -.183E+01 -.152E+01 -.208E+00   -.671E-04 0.537E-02 0.336E-02
   -.393E+03 -.974E+03 0.419E+03   0.391E+03 0.971E+03 -.419E+03   0.150E+01 0.183E+01 -.224E+00   -.205E-02 0.460E-02 0.278E-02
   -.365E+03 0.968E+03 -.313E+03   0.363E+03 -.965E+03 0.312E+03   0.154E+01 -.153E+01 0.609E+00   -.523E-02 0.234E-02 0.494E-02
   0.977E+03 -.400E+03 -.412E+03   -.974E+03 0.398E+03 0.412E+03   -.182E+01 0.149E+01 0.226E+00   0.123E-03 0.455E-03 -.150E-02
   -.974E+03 0.388E+03 0.427E+03   0.971E+03 -.386E+03 -.427E+03   0.182E+01 -.151E+01 -.214E+00   0.208E-02 0.236E-02 -.485E-03
   0.395E+03 -.973E+03 0.419E+03   -.393E+03 0.970E+03 -.418E+03   -.151E+01 0.183E+01 -.221E+00   -.211E-02 0.182E-02 0.174E-02
   0.326E+03 0.316E+03 0.462E+03   -.326E+03 -.316E+03 -.463E+03   0.378E+00 0.350E+00 0.548E+00   -.688E-02 0.636E-02 0.604E-02
   0.115E+02 0.630E+03 0.260E+02   -.114E+02 -.631E+03 -.260E+02   -.145E-01 0.765E+00 -.334E-01   -.832E-02 0.660E-02 0.735E-02
   -.586E+03 -.377E+01 0.969E+03   0.585E+03 0.377E+01 -.966E+03   0.292E+00 0.555E-03 -.236E+01   0.226E-04 0.377E-02 -.462E-02
   -.593E+03 -.439E+02 -.954E+03   0.593E+03 0.439E+02 0.950E+03   0.268E+00 0.119E+00 0.251E+01   -.241E-02 0.487E-02 0.170E-02
   0.588E+03 -.264E+01 0.967E+03   -.588E+03 0.260E+01 -.964E+03   -.312E+00 0.189E-01 -.236E+01   -.414E-02 0.397E-02 0.422E-02
   0.600E+03 -.127E+02 -.960E+03   -.599E+03 0.127E+02 0.957E+03   -.325E+00 0.109E-01 0.235E+01   0.212E-03 -.579E-04 -.283E-02
   0.771E+03 0.756E+03 0.116E+02   -.769E+03 -.754E+03 -.116E+02   -.117E+01 -.112E+01 -.354E-01   -.193E-02 0.410E-02 0.480E-02
   -.760E+03 -.768E+03 0.605E+01   0.758E+03 0.766E+03 -.607E+01   0.116E+01 0.114E+01 0.116E-01   -.246E-02 0.241E-02 0.415E-02
   -.764E+03 0.750E+03 0.323E+02   0.762E+03 -.748E+03 -.323E+02   0.116E+01 -.118E+01 -.199E-03   -.890E-03 0.169E-02 0.550E-02
   0.763E+03 -.764E+03 0.383E+01   -.761E+03 0.762E+03 -.382E+01   -.114E+01 0.116E+01 -.357E-02   -.118E-02 -.197E-02 -.721E-03
   0.175E+01 -.343E+01 0.107E+04   -.175E+01 0.341E+01 -.107E+04   0.581E-02 0.106E-01 -.162E+01   -.455E-02 0.265E-02 0.398E-03
   0.168E+02 -.339E+02 -.106E+04   -.168E+02 0.340E+02 0.106E+04   0.780E-02 -.346E-01 0.165E+01   0.190E-02 0.767E-03 -.138E-02
   0.982E+03 0.388E+03 -.410E+03   -.979E+03 -.385E+03 0.409E+03   -.182E+01 -.150E+01 0.217E+00   0.842E-03 0.157E-03 -.101E-02
   -.393E+03 -.978E+03 -.412E+03   0.390E+03 0.975E+03 0.412E+03   0.152E+01 0.180E+01 0.203E+00   -.101E-03 -.228E-02 0.116E-02
   -.311E+03 0.283E+03 -.415E+03   0.312E+03 -.283E+03 0.415E+03   -.392E+00 0.119E+00 -.329E+00   -.476E-02 0.643E-02 0.516E-02
   0.324E+03 -.325E+03 0.458E+03   -.324E+03 0.326E+03 -.459E+03   0.355E+00 -.361E+00 0.504E+00   -.746E-02 0.994E-03 0.323E-02
   0.341E+03 0.304E+03 -.436E+03   -.341E+03 -.304E+03 0.436E+03   0.354E+00 0.427E+00 -.588E+00   -.245E-02 -.320E-03 0.979E-03
   -.990E+03 0.366E+03 -.389E+03   0.987E+03 -.364E+03 0.389E+03   0.203E+01 -.149E+01 0.368E-01   -.198E-02 0.525E-02 0.631E-02
   0.397E+03 -.976E+03 -.413E+03   -.395E+03 0.973E+03 0.412E+03   -.151E+01 0.181E+01 0.210E+00   -.135E-02 -.181E-02 0.395E-03
   -.320E+03 -.327E+03 0.460E+03   0.320E+03 0.327E+03 -.460E+03   -.372E+00 -.379E+00 0.525E+00   -.300E-02 0.427E-02 0.385E-02
   0.645E+03 -.651E+01 0.732E+01   -.646E+03 0.655E+01 -.736E+01   0.746E+00 -.290E-01 0.261E-01   -.217E-02 0.998E-03 0.437E-03
   -.640E+03 -.135E+02 0.152E+02   0.641E+03 0.134E+02 -.152E+02   -.709E+00 0.314E-01 -.487E-01   -.430E-02 0.593E-02 0.775E-02
   0.118E+01 -.589E+03 0.967E+03   -.117E+01 0.588E+03 -.963E+03   -.131E-02 0.309E+00 -.236E+01   -.383E-02 0.448E-02 0.358E-02
   0.431E+01 -.599E+03 -.961E+03   -.432E+01 0.598E+03 0.958E+03   0.189E-02 0.305E+00 0.235E+01   0.452E-03 -.201E-02 -.163E-02
   0.584E+01 -.117E+02 0.132E+02   -.584E+01 0.117E+02 -.132E+02   -.889E-02 -.452E-02 0.315E-03   -.541E-02 0.197E-02 0.519E-02
   0.328E+03 -.333E+03 -.446E+03   -.329E+03 0.333E+03 0.447E+03   0.368E+00 -.367E+00 -.521E+00   -.518E-03 0.837E-04 0.857E-04
   -.318E+03 -.339E+03 -.443E+03   0.318E+03 0.339E+03 0.443E+03   -.374E+00 -.310E+00 -.531E+00   -.415E-03 0.388E-03 0.437E-02
   0.255E+01 -.645E+03 0.561E+01   -.255E+01 0.646E+03 -.562E+01   -.428E-02 -.739E+00 0.429E-02   -.207E-02 0.134E-02 0.197E-02
   -.231E+02 0.190E+03 -.178E+03   0.162E+02 -.175E+03 0.162E+03   0.614E+01 -.106E+02 0.125E+02   -.726E-03 0.113E-02 0.129E-02
   -.219E+03 0.496E+03 -.549E+03   0.240E+03 -.537E+03 0.596E+03   -.193E+02 0.372E+02 -.429E+02   -.545E-03 0.900E-03 0.118E-02
 -----------------------------------------------------------------------------------------------
   0.111E+02 -.315E+02 0.331E+02   -.284E-13 0.114E-12 -.682E-12   -.110E+02 0.314E+02 -.332E+02   -.122E+00 0.122E+00 0.110E+00
 
 
 POSITION                                       TOTAL-FORCE (eV/Angst)
 -----------------------------------------------------------------------------------
     13.37281      9.84801     12.50759         0.701992      1.107983      0.293548
     20.15199     16.62719     12.50759        -1.111447     -0.711296      0.284969
     16.62719      9.84801     12.50759        -0.706805      1.107430      0.291443
      9.84801     16.62719     12.50759         1.103310     -0.713055      0.304773
     15.00000     11.47521     10.20639         0.000854      0.415505      1.279534
     15.00000     11.47521     19.79360         0.250137      0.077822     -1.084047
     15.00000      8.28283     15.00000         0.024779      1.531999      0.018007
      8.28283     15.00000     15.00000         1.518979      0.001676     -0.004936
     21.71717     15.00000     15.00000        -1.506181      0.012466     -0.028977
     15.00000     21.71717     15.00000         0.000734     -1.516835      0.003856
     18.35858     11.64142     10.25025        -0.755573      0.760852      1.074050
     18.35858     11.64142     19.74975        -1.334899     -0.002478     -0.772645
     11.64142     18.35858     10.25025         0.753739     -0.756070      1.071145
     11.64142     18.35858     19.74975         0.759930     -0.754775     -1.074951
     11.64142     11.64142     10.25025         0.754849      0.759635      1.072863
     11.64142     11.64142     19.74975         0.785032      0.765466     -1.071304
     18.35858     18.35858     10.25025        -0.753574     -0.759027      1.073643
     18.35858     18.35858     19.74975        -0.760523     -0.734137     -1.075039
     13.37281      9.84801     17.49241         0.667921      1.123460     -0.328045
     20.15199     16.62719     17.49241        -1.109498     -0.739088     -0.260322
     16.73751     13.26249     12.54279         0.115512     -0.114078     -0.154111
      9.84801     13.37281     12.50759         1.102155      0.711043      0.283125
     16.62719     20.15199     12.50759        -0.704974     -1.105841      0.289443
     16.62719      9.84801     17.49241        -0.743277      0.981317     -0.220512
      9.84801     16.62719     17.49241         1.108935     -0.701026     -0.292501
     20.15199     13.37281     12.50759        -1.109539      0.710718      0.285931
     13.37281     20.15199     12.50759         0.708640     -1.107458      0.293884
     13.26249     13.26249     12.54279        -0.119993     -0.104007     -0.169025
     15.00000     11.52498     15.00000        -0.000546     -0.221959     -0.003822
     18.52479     15.00000     10.20639        -0.407907     -0.002619      1.284304
     18.52479     15.00000     19.79360        -0.356179      0.084448     -1.314669
     11.47521     15.00000     10.20640         0.415580     -0.015533      1.284477
     11.47521     15.00000     19.79360         0.412856     -0.002929     -1.283739
     11.49535     11.49535     15.00000         0.838638      0.818003      0.014436
     18.50465     18.50465     15.00000        -0.834495     -0.822878     -0.007182
     18.50465     11.49535     15.00000        -0.823810      0.836933     -0.023630
     11.49535     18.50465     15.00000         0.827760     -0.826964      0.001685
     15.00000     15.00000     10.04368         0.001190     -0.000656      1.176203
     15.00000     15.00000     19.95633        -0.015717      0.032714     -1.181139
      9.84801     13.37281     17.49241         1.112146      0.699698     -0.291650
     16.62719     20.15199     17.49241        -0.715012     -1.107620     -0.290201
     16.73751     13.26249     17.45721         0.087059     -0.002312      0.053453
     13.26249     16.73751     12.54279        -0.103880      0.116064     -0.155725
     13.26249     13.26249     17.45721        -0.109440     -0.101859      0.153245
     20.15199     13.37281     17.49241        -1.066077      0.775204     -0.290846
     13.37281     20.15199     17.49241         0.707200     -1.109191     -0.287005
     16.73751     16.73751     12.54279         0.109535      0.108662     -0.158304
     11.52498     15.00000     15.00000        -0.244134      0.010227     -0.015882
     18.47502     15.00000     15.00000         0.222239     -0.003817      0.004200
     15.00000     18.52480     10.20639         0.004448     -0.411647      1.283418
     15.00000     18.52480     19.79360        -0.002763     -0.405822     -1.287167
     15.00000     15.00000     15.00000        -0.008437     -0.003847     -0.002920
     13.26249     16.73751     17.45721        -0.109133      0.109555      0.161572
     16.73751     16.73751     17.45721         0.111849      0.105119      0.154389
     15.00000     18.47502     15.00000        -0.005216      0.227739      0.000214
     17.41951     10.08901     20.57827        -0.679781      4.493578     -3.990960
     17.76869      9.38025     21.38333         0.990810     -3.626495      3.629447
 -----------------------------------------------------------------------------------
    total drift:                                0.004241     -0.000227      0.004657


--------------------------------------------------------------------------------------------------------



  FREE ENERGIE OF THE ION-ELECTRON SYSTEM (eV)
  ---------------------------------------------------
  free  energy   TOTEN  =      -174.92060092 eV

  energy  without entropy=     -174.82470399  energy(sigma->0) =     -174.89662669
 


--------------------------------------------------------------------------------------------------------


    POTLOK:  cpu time   14.0081: real time   14.0085


--------------------------------------------------------------------------------------------------------


     LOOP+:  cpu time18686.6225: real time18687.1399
    4ORBIT:  cpu time    0.0000: real time    0.0000

 total amount of memory used by VASP MPI-rank0  5486941. kBytes
=======================================================================

   base      :      30000. kBytes
   nonlr-proj:      17126. kBytes
   fftplans  :     924480. kBytes
   grid      :    1872000. kBytes
   one-center:        886. kBytes
   wavefun   :    2642449. kBytes
 
  
  
 General timing and accounting informations for this job:
 ========================================================
  
                  Total CPU time used (sec):    18758.391
                            User time (sec):    17742.765
                          System time (sec):     1015.625
                         Elapsed time (sec):    18758.954
  
                   Maximum memory used (kb):     7179096.
                   Average memory used (kb):           0.
  
                          Minor page faults:    843958887
                          Major page faults:            0
                 Voluntary context switches:          438
