 vasp.5.4.4.18Apr17-6-g9f103f2a35 (build Sep 03 2018 23:53:05) complex          
  
 executed on             LinuxIFC date 2021.12.01  10:22:44
 running on    1 total cores
 distrk:  each k-point on    1 cores,    1 groups
 distr:  one band on NCORES_PER_BAND=   1 cores,    1 groups


--------------------------------------------------------------------------------------------------------


 INCAR:
 POTCAR:    PAW_PBE Pd 04Jan2005                  
 POTCAR:    PAW_PBE C 08Apr2002                   
 POTCAR:    PAW_PBE O 08Apr2002                   
 POTCAR:    PAW_PBE Pd 04Jan2005                  
   VRHFIN =Pd : s1 d9                                                           
   LEXCH  = PE                                                                  
   EATOM  =   809.7530 eV,   59.5152 Ry                                         
                                                                                
   TITEL  = PAW_PBE Pd 04Jan2005                                                
   LULTRA =        F    use ultrasoft PP ?                                      
   IUNSCR =        1    unscreen: 0-lin 1-nonlin 2-no                           
   RPACOR =    2.000    partial core radius                                     
   POMASS =  106.420; ZVAL   =   10.000    mass and valenz                      
   RCORE  =    2.600    outmost cutoff radius                                   
   RWIGS  =    2.710; RWIGS  =    1.434    wigner-seitz radius (au A)           
   ENMAX  =  250.925; ENMIN  =  188.194 eV                                      
   ICORE  =        3    local potential                                         
   LCOR   =        T    correct aug charges                                     
   LPAW   =        T    paw PP                                                  
   EAUG   =  416.230                                                            
   DEXC   =    0.000                                                            
   RMAX   =    2.653    core radius for proj-oper                               
   RAUG   =    1.300    factor for augmentation sphere                          
   RDEP   =    2.734    radius for radial grids                                 
   RDEPT  =    2.103    core radius for aug-charge                              
                                                                                
   Atomic configuration                                                         
   12 entries                                                                   
     n  l   j            E        occ.                                          
     1  0  0.50    -24164.6631   2.0000                                         
     2  0  0.50     -3530.9218   2.0000                                         
     2  1  1.50     -3165.6822   6.0000                                         
     3  0  0.50      -639.4577   2.0000                                         
     3  1  1.50      -519.4532   6.0000                                         
     3  2  2.50      -328.9757  10.0000                                         
     4  0  0.50       -88.7014   2.0000                                         
     4  1  1.50       -54.4540   6.0000                                         
     4  2  2.50        -6.6878   9.0000                                         
     5  0  0.50        -4.3543   1.0000                                         
     5  1  0.50        -1.3606   0.0000                                         
     4  3  2.50        -1.3606   0.0000                                         
   Description                                                                  
     l       E           TYP  RCUT    TYP  RCUT                                 
     2     -6.6878251     23  2.400                                             
     2     -8.0484077     23  2.400                                             
     0     -4.3542939     23  2.400                                             
     0      4.3406793     23  2.400                                             
     1     -4.0817478     23  2.600                                             
     1     15.8380318     23  2.600                                             
     3     -4.0817478     23  2.400                                             
  local pseudopotential read in
  partial core-charges read in
  partial kinetic energy density read in
  atomic valenz-charges read in
  non local Contribution for L=           2  read in
    real space projection operators read in
  non local Contribution for L=           2  read in
    real space projection operators read in
  non local Contribution for L=           0  read in
    real space projection operators read in
  non local Contribution for L=           0  read in
    real space projection operators read in
  non local Contribution for L=           1  read in
    real space projection operators read in
  non local Contribution for L=           1  read in
    real space projection operators read in
    PAW grid and wavefunctions read in
 
   number of l-projection  operators is LMAX  =           6
   number of lm-projection operators is LMMAX =          18
 
 POTCAR:    PAW_PBE C 08Apr2002                   
   VRHFIN =C: s2p2                                                              
   LEXCH  = PE                                                                  
   EATOM  =   147.1560 eV,   10.8157 Ry                                         
                                                                                
   TITEL  = PAW_PBE C 08Apr2002                                                 
   LULTRA =        F    use ultrasoft PP ?                                      
   IUNSCR =        1    unscreen: 0-lin 1-nonlin 2-no                           
   RPACOR =    1.200    partial core radius                                     
   POMASS =   12.011; ZVAL   =    4.000    mass and valenz                      
   RCORE  =    1.500    outmost cutoff radius                                   
   RWIGS  =    1.630; RWIGS  =    0.863    wigner-seitz radius (au A)           
   ENMAX  =  400.000; ENMIN  =  300.000 eV                                      
   ICORE  =        2    local potential                                         
   LCOR   =        T    correct aug charges                                     
   LPAW   =        T    paw PP                                                  
   EAUG   =  644.873                                                            
   DEXC   =    0.000                                                            
   RMAX   =    1.529    core radius for proj-oper                               
   RAUG   =    1.300    factor for augmentation sphere                          
   RDEP   =    1.501    radius for radial grids                                 
   RDEPT  =    1.300    core radius for aug-charge                              
                                                                                
   Atomic configuration                                                         
    4 entries                                                                   
     n  l   j            E        occ.                                          
     1  0  0.50      -273.3789   2.0000                                         
     2  0  0.50       -13.7508   2.0000                                         
     2  1  0.50        -5.2854   2.0000                                         
     3  2  1.50        -5.4423   0.0000                                         
   Description                                                                  
     l       E           TYP  RCUT    TYP  RCUT                                 
     0    -13.7508458     23  1.200                                             
     0     -8.2022199     23  1.200                                             
     1     -5.2854383     23  1.500                                             
     1     34.0145650     23  1.500                                             
     2     -5.4423304      7  1.500                                             
  local pseudopotential read in
  partial core-charges read in
  partial kinetic energy density read in
  atomic valenz-charges read in
  non local Contribution for L=           0  read in
    real space projection operators read in
  non local Contribution for L=           0  read in
    real space projection operators read in
  non local Contribution for L=           1  read in
    real space projection operators read in
  non local Contribution for L=           1  read in
    real space projection operators read in
    PAW grid and wavefunctions read in
 
   number of l-projection  operators is LMAX  =           4
   number of lm-projection operators is LMMAX =           8
 
 POTCAR:    PAW_PBE O 08Apr2002                   
   VRHFIN =O: s2p4                                                              
   LEXCH  = PE                                                                  
   EATOM  =   432.3788 eV,   31.7789 Ry                                         
                                                                                
   TITEL  = PAW_PBE O 08Apr2002                                                 
   LULTRA =        F    use ultrasoft PP ?                                      
   IUNSCR =        1    unscreen: 0-lin 1-nonlin 2-no                           
   RPACOR =    1.200    partial core radius                                     
   POMASS =   16.000; ZVAL   =    6.000    mass and valenz                      
   RCORE  =    1.520    outmost cutoff radius                                   
   RWIGS  =    1.550; RWIGS  =    0.820    wigner-seitz radius (au A)           
   ENMAX  =  400.000; ENMIN  =  300.000 eV                                      
   ICORE  =        2    local potential                                         
   LCOR   =        T    correct aug charges                                     
   LPAW   =        T    paw PP                                                  
   EAUG   =  605.392                                                            
   DEXC   =    0.000                                                            
   RMAX   =    1.553    core radius for proj-oper                               
   RAUG   =    1.300    factor for augmentation sphere                          
   RDEP   =    1.550    radius for radial grids                                 
   RDEPT  =    1.329    core radius for aug-charge                              
                                                                                
   Atomic configuration                                                         
    4 entries                                                                   
     n  l   j            E        occ.                                          
     1  0  0.50      -514.6923   2.0000                                         
     2  0  0.50       -23.9615   2.0000                                         
     2  1  0.50        -9.0305   4.0000                                         
     3  2  1.50        -9.5241   0.0000                                         
   Description                                                                  
     l       E           TYP  RCUT    TYP  RCUT                                 
     0    -23.9615318     23  1.200                                             
     0     -9.5240782     23  1.200                                             
     1     -9.0304911     23  1.520                                             
     1      8.1634956     23  1.520                                             
     2     -9.5240782      7  1.500                                             
  local pseudopotential read in
  partial core-charges read in
  partial kinetic energy density read in
  kinetic energy density of atom read in
  atomic valenz-charges read in
  non local Contribution for L=           0  read in
    real space projection operators read in
  non local Contribution for L=           0  read in
    real space projection operators read in
  non local Contribution for L=           1  read in
    real space projection operators read in
  non local Contribution for L=           1  read in
    real space projection operators read in
    PAW grid and wavefunctions read in
 
   number of l-projection  operators is LMAX  =           4
   number of lm-projection operators is LMMAX =           8
 
 Optimization of the real space projectors (new method)

 maximal supplied QI-value         = 14.36
 optimisation between [QCUT,QGAM] = [ 10.20, 20.39] = [ 29.12,116.47] Ry 
 Optimized for a Real-space Cutoff    1.51 Angstroem

   l    n(q)    QCUT    max X(q) W(low)/X(q) W(high)/X(q)  e(spline) 
   2      8    10.197    59.108    0.26E-03    0.14E-03    0.96E-07
   2      8    10.197    58.101    0.27E-03    0.14E-03    0.98E-07
   0      9    10.197   102.235    0.54E-04    0.60E-05    0.72E-07
   0      9    10.197    58.388    0.52E-04    0.60E-05    0.68E-07
   1      9    10.197    22.191    0.18E-03    0.25E-03    0.79E-07
   1      9    10.197    15.590    0.15E-03    0.21E-03    0.69E-07
 Optimization of the real space projectors (new method)

 maximal supplied QI-value         = 25.13
 optimisation between [QCUT,QGAM] = [ 10.05, 20.36] = [ 28.30,116.06] Ry 
 Optimized for a Real-space Cutoff    1.30 Angstroem

   l    n(q)    QCUT    max X(q) W(low)/X(q) W(high)/X(q)  e(spline) 
   0      8    10.053   115.676    0.49E-03    0.72E-03    0.18E-06
   0      8    10.053    87.132    0.49E-03    0.71E-03    0.18E-06
   1      7    10.053     4.429    0.32E-03    0.31E-03    0.18E-06
   1      7    10.053     2.733    0.23E-03    0.19E-03    0.20E-06
 Optimization of the real space projectors (new method)

 maximal supplied QI-value         = 24.76
 optimisation between [QCUT,QGAM] = [ 10.15, 20.30] = [ 28.85,115.39] Ry 
 Optimized for a Real-space Cutoff    1.38 Angstroem

   l    n(q)    QCUT    max X(q) W(low)/X(q) W(high)/X(q)  e(spline) 
   0      8    10.150    20.381    0.22E-03    0.32E-03    0.29E-06
   0      8    10.150    15.268    0.23E-03    0.35E-03    0.30E-06
   1      8    10.150     5.964    0.46E-03    0.53E-03    0.21E-06
   1      8    10.150     5.382    0.38E-03    0.45E-03    0.19E-06

 ----------------------------------------------------------------------------- 
|                                                                             |
|  ADVICE TO THIS USER RUNNING 'VASP/VAMP'   (HEAR YOUR MASTER'S VOICE ...):  |
|                                                                             |
|      You enforced a specific xc-type in the INCAR file,                     |
|      a different type was found on the POTCAR file                          |
|          I HOPE YOU KNOW, WHAT YOU ARE  DOING                               |
|                                                                             |
 ----------------------------------------------------------------------------- 

  PAW_PBE Pd 04Jan2005                  :
 energy of atom  1       EATOM= -809.7530
 kinetic energy error for atom=    0.0091 (will be added to EATOM!!)
  PAW_PBE C 08Apr2002                   :
 energy of atom  2       EATOM= -147.1560
 kinetic energy error for atom=    0.0288 (will be added to EATOM!!)
  PAW_PBE O 08Apr2002                   :
 energy of atom  3       EATOM= -432.3788
 kinetic energy error for atom=    0.1156 (will be added to EATOM!!)
 
 
 POSCAR: Pd55PES                                 
  positions in cartesian coordinates
  No initial velocities read in
 exchange correlation table for  LEXCH =        9
   RHO(1)=    0.500       N(1)  =     2000
   RHO(2)=  100.500       N(2)  =     4000
 


--------------------------------------------------------------------------------------------------------


 ion  position               nearest neighbor table
   1  0.446  0.328  0.417-   3 3.25   5 3.25   7 3.36  15 3.36  29 3.42  28 3.42
   2  0.672  0.554  0.417-  26 3.25  30 3.25  17 3.36   9 3.36  47 3.42  49 3.42
   3  0.554  0.328  0.417-   1 3.25   5 3.25   7 3.36  11 3.36  29 3.42  21 3.42
   4  0.328  0.554  0.417-  32 3.25  22 3.25  13 3.36   8 3.36  43 3.42  48 3.42
   5  0.500  0.383  0.340-   1 3.25   3 3.25  11 3.36  15 3.36  21 3.42  28 3.42
   6  0.500  0.383  0.660-  24 3.25  19 3.25  16 3.36  12 3.36  42 3.42  44 3.42
   7  0.500  0.276  0.500-  29 3.24   3 3.36   1 3.36  19 3.36  24 3.36
   8  0.276  0.500  0.500-  48 3.24  22 3.36  40 3.36   4 3.36  25 3.36
   9  0.724  0.500  0.500-  49 3.24  26 3.36  45 3.36   2 3.36  20 3.36
  10  0.500  0.724  0.500-  55 3.24  27 3.36  23 3.36  46 3.36  41 3.36
  11  0.612  0.388  0.342-  21 3.24   5 3.36   3 3.36  30 3.36  26 3.36
  12  0.612  0.388  0.658-  42 3.24  24 3.36  45 3.36   6 3.36  31 3.36
  13  0.388  0.612  0.342-  43 3.24  32 3.36  50 3.36   4 3.36  27 3.36
  14  0.388  0.612  0.658-  53 3.24  25 3.36  33 3.36  51 3.36  46 3.36
  15  0.388  0.388  0.342-  28 3.24   5 3.36   1 3.36  32 3.36  22 3.36
  16  0.388  0.388  0.658-  44 3.24  19 3.36  40 3.36   6 3.36  33 3.36
  17  0.612  0.612  0.342-  56 2.36  47 3.24  30 3.36  50 3.36   2 3.36  23 3.36
  18  0.612  0.612  0.658-  54 3.24  31 3.36  20 3.36  51 3.36  41 3.36
  19  0.446  0.328  0.583-   6 3.25  24 3.25  16 3.36   7 3.36  44 3.42  29 3.42
  20  0.672  0.554  0.583-  31 3.25  45 3.25  18 3.36   9 3.36  54 3.42  49 3.42
  21  0.558  0.442  0.418-  11 3.24   5 3.42   3 3.42  30 3.42  26 3.42
  22  0.328  0.446  0.417-   4 3.25  32 3.25   8 3.36  15 3.36  48 3.42  28 3.42
  23  0.554  0.672  0.417-  27 3.25  50 3.25  10 3.36  17 3.36  55 3.42  47 3.42
  24  0.554  0.328  0.583-   6 3.25  19 3.25  12 3.36   7 3.36  42 3.42  29 3.42
  25  0.328  0.554  0.583-  33 3.25  40 3.25  14 3.36   8 3.36  53 3.42  48 3.42
  26  0.672  0.446  0.417-   2 3.25  30 3.25   9 3.36  11 3.36  49 3.42  21 3.42
  27  0.446  0.672  0.417-  23 3.25  50 3.25  10 3.36  13 3.36  55 3.42  43 3.42
  28  0.442  0.442  0.418-  15 3.24   5 3.42   1 3.42  32 3.42  22 3.42
  29  0.500  0.384  0.500-   7 3.24   3 3.42   1 3.42  24 3.42  19 3.42
  30  0.617  0.500  0.340-  56 1.72  57 2.64   2 3.25  26 3.25  17 3.36  11 3.36  47 3.42  21 3.42

  31  0.617  0.500  0.660-  20 3.25  45 3.25  18 3.36  12 3.36  54 3.42  42 3.42
  32  0.383  0.500  0.340-   4 3.25  22 3.25  13 3.36  15 3.36  43 3.42  28 3.42
  33  0.383  0.500  0.660-  25 3.25  40 3.25  14 3.36  16 3.36  53 3.42  44 3.42
  34  0.383  0.383  0.500-
  35  0.617  0.617  0.500-
  36  0.617  0.383  0.500-
  37  0.383  0.617  0.500-
  38  0.500  0.500  0.335-
  39  0.500  0.500  0.665-
  40  0.328  0.446  0.583-  33 3.25  25 3.25  16 3.36   8 3.36  44 3.42  48 3.42
  41  0.554  0.672  0.583-  46 3.25  51 3.25  10 3.36  18 3.36  54 3.42  55 3.42
  42  0.558  0.442  0.582-  12 3.24   6 3.42  24 3.42  31 3.42  45 3.42
  43  0.442  0.558  0.418-  13 3.24   4 3.42  32 3.42  27 3.42  50 3.42
  44  0.442  0.442  0.582-  16 3.24   6 3.42  19 3.42  33 3.42  40 3.42
  45  0.672  0.446  0.583-  20 3.25  31 3.25   9 3.36  12 3.36  49 3.42  42 3.42
  46  0.446  0.672  0.583-  41 3.25  51 3.25  10 3.36  14 3.36  53 3.42  55 3.42
  47  0.558  0.558  0.418-  17 3.24   2 3.42  30 3.42  23 3.42  50 3.42
  48  0.384  0.500  0.500-   8 3.24   4 3.42  22 3.42  25 3.42  40 3.42
  49  0.616  0.500  0.500-   9 3.24   2 3.42  26 3.42  20 3.42  45 3.42
  50  0.500  0.617  0.340-  27 3.25  23 3.25  13 3.36  17 3.36  43 3.42  47 3.42
  51  0.500  0.617  0.660-  41 3.25  46 3.25  14 3.36  18 3.36  53 3.42  54 3.42
  52  0.500  0.500  0.500-
  53  0.442  0.558  0.582-  14 3.24  25 3.42  33 3.42  51 3.42  46 3.42
  54  0.558  0.558  0.582-  18 3.24  31 3.42  20 3.42  51 3.42  41 3.42
  55  0.500  0.616  0.500-  10 3.24  23 3.42  27 3.42  41 3.42  46 3.42
  56  0.650  0.545  0.325-  57 1.13  30 1.72  17 2.36
  57  0.674  0.552  0.297-  56 1.13  30 2.64
 
  LATTYP: Found a simple cubic cell.
 ALAT       =    30.0000000000
  
  Lattice vectors:
  
 A1 = (  30.0000000000,   0.0000000000,   0.0000000000)
 A2 = (   0.0000000000,  30.0000000000,   0.0000000000)
 A3 = (   0.0000000000,   0.0000000000,  30.0000000000)


Analysis of symmetry for initial positions (statically):
=====================================================================
 Subroutine PRICEL returns:
 Original cell was already a primitive cell.
 

 Routine SETGRP: Setting up the symmetry group for a 
 simple cubic supercell.


 Subroutine GETGRP returns: Found  1 space group operations
 (whereof  1 operations were pure point group operations)
 out of a pool of 48 trial point group operations.


The static configuration has the point symmetry C_1 .


Analysis of symmetry for dynamics (positions and initial velocities):
=====================================================================
 Subroutine PRICEL returns:
 Original cell was already a primitive cell.
 

 Routine SETGRP: Setting up the symmetry group for a 
 simple cubic supercell.


 Subroutine GETGRP returns: Found  1 space group operations
 (whereof  1 operations were pure point group operations)
 out of a pool of 48 trial point group operations.


The dynamic configuration has the point symmetry C_1 .


Analysis of constrained symmetry for selective dynamics:
=====================================================================
 Subroutine PRICEL returns:
 Original cell was already a primitive cell.
 

 Routine SETGRP: Setting up the symmetry group for a 
 simple cubic supercell.


 Subroutine GETGRP returns: Found  1 space group operations
 (whereof  1 operations were pure point group operations)
 out of a pool of 48 trial point group operations.


The constrained configuration has the point symmetry C_1 .


 Subroutine INISYM returns: Found  1 space group operations
 (whereof  1 operations are pure point group operations),
 and found     1 'primitive' translations

 
 
 KPOINTS: K-points                                

Automatic generation of k-mesh.
Space group operators:
 irot       det(A)        alpha          n_x          n_y          n_z        tau_x        tau_y        tau_z
    1     1.000000     0.000000     1.000000     0.000000     0.000000     0.000000     0.000000     0.000000
 
 Subroutine IBZKPT returns following result:
 ===========================================
 
 Found      1 irreducible k-points:
 
 Following reciprocal coordinates:
            Coordinates               Weight
  0.000000  0.000000  0.000000      1.000000
 
 Following cartesian coordinates:
            Coordinates               Weight
  0.000000  0.000000  0.000000      1.000000
 


--------------------------------------------------------------------------------------------------------




 Dimension of arrays:
   k-points           NKPTS =      1   k-points in BZ     NKDIM =      1   number of bands    NBANDS=    336
   number of dos      NEDOS =    301   number of ions     NIONS =     57
   non local maximal  LDIM  =      6   non local SUM 2l+1 LMDIM =     18
   total plane-waves  NPLWV = ******
   max r-space proj   IRMAX =   1847   max aug-charges    IRDMAX=   6262
   dimension x,y,z NGX =   150 NGY =  150 NGZ =  150
   dimension x,y,z NGXF=   300 NGYF=  300 NGZF=  300
   support grid    NGXF=   300 NGYF=  300 NGZF=  300
   ions per type =              55   1   1
   NGX,Y,Z   is equivalent  to a cutoff of   8.31,  8.31,  8.31 a.u.
   NGXF,Y,Z  is equivalent  to a cutoff of  16.62, 16.62, 16.62 a.u.

 SYSTEM =  6_Pd100_top_free_z(O)                   
 POSCAR =  Pd55PES                                 

 Startparameter for this run:
   NWRITE =      2    write-flag & timer
   PREC   = normal    normal or accurate (medium, high low for compatibility)
   ISTART =      0    job   : 0-new  1-cont  2-samecut
   ICHARG =      2    charge: 1-file 2-atom 10-const
   ISPIN  =      1    spin polarized calculation?
   LNONCOLLINEAR =      F non collinear calculations
   LSORBIT =      F    spin-orbit coupling
   INIWAV =      1    electr: 0-lowe 1-rand  2-diag
   LASPH  =      F    aspherical Exc in radial PAW
   METAGGA=      F    non-selfconsistent MetaGGA calc.

 Electronic Relaxation 1
   ENCUT  =  400.0 eV  29.40 Ry    5.42 a.u.  48.92 48.92 48.92*2*pi/ulx,y,z
   ENINI  =  400.0     initial cutoff
   ENAUG  =  644.9 eV  augmentation charge cutoff
   NELM   =    100;   NELMIN=  6; NELMDL= -5     # of ELM steps 
   EDIFF  = 0.1E-03   stopping-criterion for ELM
   LREAL  =      T    real-space projection
   NLSPLINE    = F    spline interpolate recip. space projectors
   LCOMPAT=      F    compatible to vasp.4.4
   GGA_COMPAT  = T    GGA compatible to vasp.4.4-vasp.4.6
   LMAXPAW     = -100 max onsite density
   LMAXMIX     =    2 max onsite mixed and CHGCAR
   VOSKOWN=      0    Vosko Wilk Nusair interpolation
   ROPT   =   -0.00050  -0.00050  -0.00050
 Ionic relaxation
   EDIFFG = -.5E-01   stopping-criterion for IOM
   NSW    =      0    number of steps for IOM
   NBLOCK =      1;   KBLOCK =      1    inner block; outer block 
   IBRION =     -1    ionic relax: 0-MD 1-quasi-New 2-CG
   NFREE  =      1    steps in history (QN), initial steepest desc. (CG)
   ISIF   =      2    stress and relaxation
   IWAVPR =     10    prediction:  0-non 1-charg 2-wave 3-comb
   ISYM   =      2    0-nonsym 1-usesym 2-fastsym
   LCORR  =      T    Harris-Foulkes like correction to forces

   POTIM  = 0.5000    time-step for ionic-motion
   TEIN   =    0.0    initial temperature
   TEBEG  =    0.0;   TEEND  =   0.0 temperature during run
   SMASS  =  -3.00    Nose mass-parameter (am)
   estimated Nose-frequenzy (Omega)   =  0.10E-29 period in steps =****** mass=  -0.206E-25a.u.
   SCALEE = 1.0000    scale energy and forces
   NPACO  =    256;   APACO  = 16.0  distance and # of slots for P.C.
   PSTRESS=    0.0 pullay stress

  Mass of Ions in am
   POMASS = 106.42 12.01 16.00
  Ionic Valenz
   ZVAL   =  10.00  4.00  6.00
  Atomic Wigner-Seitz radii
   RWIGS  =  -1.00 -1.00 -1.00
  virtual crystal weights 
   VCA    =   1.00  1.00  1.00
   NELECT =     560.0000    total number of electrons
   NUPDOWN=      -1.0000    fix difference up-down

 DOS related values:
   EMIN   =  10.00;   EMAX   =-10.00  energy-range for DOS
   EFERMI =   0.00
   ISMEAR =     2;   SIGMA  =   0.20  broadening in eV -4-tet -1-fermi 0-gaus

 Electronic relaxation 2 (details)
   IALGO  =     68    algorithm
   LDIAG  =      T    sub-space diagonalisation (order eigenvalues)
   LSUBROT=      F    optimize rotation matrix (better conditioning)
   TURBO    =      0    0=normal 1=particle mesh
   IRESTART =      0    0=no restart 2=restart with 2 vectors
   NREBOOT  =      0    no. of reboots
   NMIN     =      0    reboot dimension
   EREF     =   0.00    reference energy to select bands
   IMIX   =      4    mixing-type and parameters
     AMIX     =   0.40;   BMIX     =  1.00
     AMIX_MAG =   1.60;   BMIX_MAG =  1.00
     AMIN     =   0.10
     WC   =   100.;   INIMIX=   1;  MIXPRE=   1;  MAXMIX= -45

 Intra band minimization:
   WEIMIN = 0.0000     energy-eigenvalue tresh-hold
   EBREAK =  0.74E-07  absolut break condition
   DEPER  =   0.30     relativ break condition  

   TIME   =   0.40     timestep for ELM

  volume/ion in A,a.u.               =     473.68      3196.58
  Fermi-wavevector in a.u.,A,eV,Ry     =   0.449797  0.849992  2.752691  0.202317
  Thomas-Fermi vector in A             =   1.430086
 
 Write flags
   LWAVE        =      F    write WAVECAR
   LDOWNSAMPLE  =      F    k-point downsampling of WAVECAR
   LCHARG       =      F    write CHGCAR
   LVTOT        =      F    write LOCPOT, total local potential
   LVHAR        =      F    write LOCPOT, Hartree potential only
   LELF         =      F    write electronic localiz. function (ELF)
   LORBIT       =      0    0 simple, 1 ext, 2 COOP (PROOUT), +10 PAW based schemes


 Dipole corrections
   LMONO  =      F    monopole corrections only (constant potential shift)
   LDIPOL =      F    correct potential (dipole corrections)
   IDIPOL =      0    1-x, 2-y, 3-z, 4-all directions 
   EPSILON=  1.0000000 bulk dielectric constant

 Exchange correlation treatment:
   GGA     =    RP    GGA type
   LEXCH   =     9    internal setting for exchange type
   VOSKOWN=      0    Vosko Wilk Nusair interpolation
   LHFCALC =     F    Hartree Fock is set to
   LHFONE  =     F    Hartree Fock one center treatment
   AEXX    =    0.0000 exact exchange contribution

 Linear response parameters
   LEPSILON=     F    determine dielectric tensor
   LRPA    =     F    only Hartree local field effects (RPA)
   LNABLA  =     F    use nabla operator in PAW spheres
   LVEL    =     F    velocity operator in full k-point grid
   LINTERFAST=   F  fast interpolation
   KINTER  =     0    interpolate to denser k-point grid
   CSHIFT  =0.1000    complex shift for real part using Kramers Kronig
   OMEGAMAX=  -1.0    maximum frequency
   DEG_THRESHOLD= 0.2000000E-02 threshold for treating states as degnerate
   RTIME   =   -0.100 relaxation time in fs
  (WPLASMAI=    0.000 imaginary part of plasma frequency in eV, 0.658/RTIME)
   DFIELD  = 0.0000000 0.0000000 0.0000000 field for delta impulse in time
 
 Orbital magnetization related:
   ORBITALMAG=     F  switch on orbital magnetization
   LCHIMAG   =     F  perturbation theory with respect to B field
   DQ        =  0.001000  dq finite difference perturbation B field
   LLRAUG    =     F  two centre corrections for induced B field



--------------------------------------------------------------------------------------------------------


 Static calculation
 charge density and potential will be updated during run
 non-spin polarized calculation
 RMM-DIIS sequential band-by-band and
  variant of blocked Davidson during initial phase
 perform sub-space diagonalisation
    before iterative eigenvector-optimisation
 modified Broyden-mixing scheme, WC =      100.0
 initial mixing is a Kerker type mixing with AMIX =  0.4000 and BMIX =      1.0000
 Hartree-type preconditioning will be used
 using additional bands           56
 real space projection scheme for non local part
 use partial core corrections
 calculate Harris-corrections to forces 
   (improved forces if not selfconsistent)
 use gradient corrections 
 use of overlap-Matrix (Vanderbilt PP)
 Methfessel and Paxton  Order N= 2 SIGMA  =   0.20


--------------------------------------------------------------------------------------------------------


  energy-cutoff  :      400.00
  volume of cell :    27000.00
      direct lattice vectors                 reciprocal lattice vectors
    30.000000000  0.000000000  0.000000000     0.033333333  0.000000000  0.000000000
     0.000000000 30.000000000  0.000000000     0.000000000  0.033333333  0.000000000
     0.000000000  0.000000000 30.000000000     0.000000000  0.000000000  0.033333333

  length of vectors
    30.000000000 30.000000000 30.000000000     0.033333333  0.033333333  0.033333333


 
 k-points in units of 2pi/SCALE and weight: K-points                                
   0.00000000  0.00000000  0.00000000       1.000
 
 k-points in reciprocal lattice and weights: K-points                                
   0.00000000  0.00000000  0.00000000       1.000
 
 position of ions in fractional coordinates (direct lattice) 
   0.44576020  0.32826710  0.41691983
   0.67173288  0.55423978  0.41691983
   0.55423980  0.32826710  0.41691983
   0.32826712  0.55423978  0.41691983
   0.50000000  0.38250690  0.34021317
   0.50000000  0.38250690  0.65978680
   0.50000000  0.27609440  0.50000000
   0.27609443  0.49999998  0.50000000
   0.72390557  0.49999998  0.50000000
   0.50000000  0.72390555  0.50000000
   0.61195280  0.38804720  0.34167483
   0.61195280  0.38804720  0.65832513
   0.38804722  0.61195278  0.34167483
   0.38804722  0.61195278  0.65832513
   0.38804720  0.38804720  0.34167483
   0.38804720  0.38804720  0.65832513
   0.61195278  0.61195278  0.34167483
   0.61195278  0.61195278  0.65832513
   0.44576020  0.32826710  0.58308023
   0.67173288  0.55423978  0.58308023
   0.55791699  0.44208301  0.41809300
   0.32826705  0.44576024  0.41691983
   0.55423973  0.67173293  0.41691983
   0.55423980  0.32826710  0.58308023
   0.32826712  0.55423978  0.58308023
   0.67173295  0.44576024  0.41691983
   0.44576027  0.67173293  0.41691983
   0.44208301  0.44208301  0.41809300
   0.50000000  0.38416601  0.50000000
   0.61749315  0.50000005  0.34021317
   0.61749315  0.50000005  0.65978680
   0.38250685  0.50000005  0.34021317
   0.38250685  0.50000005  0.65978680
   0.38317830  0.38317830  0.50000000
   0.61682172  0.61682172  0.50000000
   0.61682170  0.38317830  0.50000000
   0.38317828  0.61682172  0.50000000
   0.50000000  0.50000000  0.33478917
   0.50000000  0.50000000  0.66521087
   0.32826705  0.44576024  0.58308023
   0.55423973  0.67173293  0.58308023
   0.55791699  0.44208301  0.58190703
   0.44208298  0.55791702  0.41809300
   0.44208301  0.44208301  0.58190703
   0.67173295  0.44576024  0.58308023
   0.44576027  0.67173293  0.58308023
   0.55791702  0.55791702  0.41809300
   0.38416599  0.50000002  0.50000000
   0.61583401  0.50000002  0.50000000
   0.50000000  0.61749319  0.34021317
   0.50000000  0.61749319  0.65978680
   0.50000000  0.50000000  0.50000000
   0.44208298  0.55791702  0.58190703
   0.55791702  0.55791702  0.58190703
   0.50000000  0.61583404  0.50000000
   0.64972357  0.54487883  0.32508560
   0.67372257  0.55207240  0.29704883
 
 position of ions in cartesian coordinates  (Angst):
  13.37280588  9.84801292 12.50759500
  20.15198637 16.62719342 12.50759500
  16.62719412  9.84801292 12.50759500
   9.84801363 16.62719342 12.50759500
  15.00000000 11.47520705 10.20639500
  15.00000000 11.47520705 19.79360400
  15.00000000  8.28283206 15.00000000
   8.28283277 14.99999929 15.00000000
  21.71716723 14.99999929 15.00000000
  15.00000000 21.71716652 14.99999999
  18.35858397 11.64141603 10.25024500
  18.35858397 11.64141603 19.74975399
  11.64141674 18.35858326 10.25024500
  11.64141674 18.35858326 19.74975400
  11.64141603 11.64141603 10.25024500
  11.64141603 11.64141603 19.74975400
  18.35858326 18.35858326 10.25024500
  18.35858326 18.35858326 19.74975400
  13.37280588  9.84801291 17.49240700
  20.15198638 16.62719341 17.49240700
  16.73750985 13.26249015 12.54279000
   9.84801151 13.37280729 12.50759500
  16.62719200 20.15198779 12.50759500
  16.62719412  9.84801292 17.49240700
   9.84801363 16.62719342 17.49240700
  20.15198849 13.37280729 12.50759500
  13.37280800 20.15198779 12.50759500
  13.26249015 13.26249015 12.54279000
  15.00000000 11.52498029 15.00000000
  18.52479437 15.00000140 10.20639500
  18.52479437 15.00000141 19.79360400
  11.47520562 15.00000141 10.20639501
  11.47520563 15.00000141 19.79360400
  11.49534898 11.49534898 15.00000000
  18.50465172 18.50465172 15.00000000
  18.50465102 11.49534898 15.00000000
  11.49534828 18.50465172 15.00000000
  15.00000000 15.00000000 10.04367500
  15.00000000 15.00000000 19.95632599
   9.84801151 13.37280729 17.49240700
  16.62719200 20.15198779 17.49240700
  16.73750985 13.26249015 17.45721100
  13.26248944 16.73751056 12.54279001
  13.26249015 13.26249015 17.45721100
  20.15198849 13.37280729 17.49240699
  13.37280800 20.15198779 17.49240700
  16.73751056 16.73751056 12.54279000
  11.52497959 15.00000071 15.00000000
  18.47502041 15.00000071 15.00000000
  14.99999999 18.52479579 10.20639500
  15.00000000 18.52479578 19.79360400
  15.00000000 15.00000000 15.00000000
  13.26248944 16.73751057 17.45721101
  16.73751056 16.73751057 17.45721100
  15.00000000 18.47502112 15.00000000
  19.49170700 16.34636500  9.75256800
  20.21167700 16.56217200  8.91146500
 


--------------------------------------------------------------------------------------------------------


 k-point  1 :   0.0000 0.0000 0.0000  plane waves:  490521

 maximum and minimum number of plane-waves per node :    490521   490521

 maximum number of plane-waves:    490521
 maximum index in each direction: 
   IXMAX=   48   IYMAX=   48   IZMAX=   48
   IXMIN=  -48   IYMIN=  -48   IZMIN=  -48


 serial   3D FFT for wavefunctions
 parallel 3D FFT for charge:
    minimum data exchange during FFTs selected (reduces bandwidth)


 total amount of memory used by VASP MPI-rank0  5486941. kBytes
=======================================================================

   base      :      30000. kBytes
   nonlr-proj:      17126. kBytes
   fftplans  :     924480. kBytes
   grid      :    1872000. kBytes
   one-center:        886. kBytes
   wavefun   :    2642449. kBytes
 
     INWAV:  cpu time    0.0001: real time    0.0004
 Broyden mixing: mesh for mixing (old mesh)
   NGX = 97   NGY = 97   NGZ = 97
  (NGX  =300   NGY  =300   NGZ  =300)
  gives a total of 912673 points

 initial charge density was supplied:
 charge density of overlapping atoms calculated
 number of electron     560.0000000 magnetization 
 keeping initial charge density in first step


--------------------------------------------------------------------------------------------------------


 Maximum index for non-local projection operator         1763
 Maximum index for augmentation-charges         5898 (set IRDMAX)


--------------------------------------------------------------------------------------------------------


 First call to EWALD:  gamma=   0.059
 Maximum number of real-space cells 3x 3x 3
 Maximum number of reciprocal cells 3x 3x 3

    FEWALD:  cpu time    0.0145: real time    0.0145


--------------------------------------- Iteration      1(   1)  ---------------------------------------


    POTLOK:  cpu time   12.3078: real time   12.3122
    SETDIJ:  cpu time    0.1106: real time    0.1106
     EDDAV:  cpu time  341.6872: real time  341.7702
       DOS:  cpu time    0.0013: real time    0.0013
    --------------------------------------------
      LOOP:  cpu time  354.1068: real time  354.1942

 eigenvalue-minimisations  :   688
 total energy-change (2. order) : 0.4399021E+04  (-0.1005422E+05)
 number of electron     560.0000000 magnetization 
 augmentation part      560.0000000 magnetization 

 Free energy of the ion-electron system (eV)
  ---------------------------------------------------
  alpha Z        PSCENC =        75.25431677
  Ewald energy   TEWEN  =    138797.49948827
  -Hartree energ DENC   =   -182147.36690736
  -exchange      EXHF   =         0.00000000
  -V(xc)+E(xc)   XCENC  =     -1701.95259682
  PAW double counting   =     44873.02882129   -41398.84523641
  entropy T*S    EENTRO =         0.02880562
  eigenvalues    EBANDS =       814.86897363
  atomic energy  EATOM  =     45086.50549395
  Solvation  Ediel_sol  =         0.00000000
  ---------------------------------------------------
  free energy    TOTEN  =      4399.02115894 eV

  energy without entropy =     4398.99235333  energy(sigma->0) =     4399.01395754


--------------------------------------------------------------------------------------------------------




--------------------------------------- Iteration      1(   2)  ---------------------------------------


     EDDAV:  cpu time  552.6511: real time  552.7079
       DOS:  cpu time    0.0012: real time    0.0012
    --------------------------------------------
      LOOP:  cpu time  552.6523: real time  552.7091

 eigenvalue-minimisations  :  1224
 total energy-change (2. order) :-0.2388018E+04  (-0.2148404E+04)
 number of electron     560.0000000 magnetization 
 augmentation part      560.0000000 magnetization 

 Free energy of the ion-electron system (eV)
  ---------------------------------------------------
  alpha Z        PSCENC =        75.25431677
  Ewald energy   TEWEN  =    138797.49948827
  -Hartree energ DENC   =   -182147.36690736
  -exchange      EXHF   =         0.00000000
  -V(xc)+E(xc)   XCENC  =     -1701.95259682
  PAW double counting   =     44873.02882129   -41398.84523641
  entropy T*S    EENTRO =        -0.01014296
  eigenvalues    EBANDS =     -1573.10968821
  atomic energy  EATOM  =     45086.50549395
  Solvation  Ediel_sol  =         0.00000000
  ---------------------------------------------------
  free energy    TOTEN  =      2011.00354852 eV

  energy without entropy =     2011.01369149  energy(sigma->0) =     2011.00608426


--------------------------------------------------------------------------------------------------------




--------------------------------------- Iteration      1(   3)  ---------------------------------------


     EDDAV:  cpu time  458.9564: real time  458.9605
       DOS:  cpu time    0.0011: real time    0.0011
    --------------------------------------------
      LOOP:  cpu time  458.9575: real time  458.9617

 eigenvalue-minimisations  :   984
 total energy-change (2. order) :-0.1774050E+04  (-0.1669573E+04)
 number of electron     560.0000000 magnetization 
 augmentation part      560.0000000 magnetization 

 Free energy of the ion-electron system (eV)
  ---------------------------------------------------
  alpha Z        PSCENC =        75.25431677
  Ewald energy   TEWEN  =    138797.49948827
  -Hartree energ DENC   =   -182147.36690736
  -exchange      EXHF   =         0.00000000
  -V(xc)+E(xc)   XCENC  =     -1701.95259682
  PAW double counting   =     44873.02882129   -41398.84523641
  entropy T*S    EENTRO =        -0.01961199
  eigenvalues    EBANDS =     -3347.15036844
  atomic energy  EATOM  =     45086.50549395
  Solvation  Ediel_sol  =         0.00000000
  ---------------------------------------------------
  free energy    TOTEN  =       236.95339927 eV

  energy without entropy =      236.97301125  energy(sigma->0) =      236.95830226


--------------------------------------------------------------------------------------------------------




--------------------------------------- Iteration      1(   4)  ---------------------------------------


     EDDAV:  cpu time  404.0342: real time  404.0402
       DOS:  cpu time    0.0011: real time    0.0011
    --------------------------------------------
      LOOP:  cpu time  404.0353: real time  404.0413

 eigenvalue-minimisations  :   840
 total energy-change (2. order) :-0.3717113E+03  (-0.3158980E+03)
 number of electron     560.0000000 magnetization 
 augmentation part      560.0000000 magnetization 

 Free energy of the ion-electron system (eV)
  ---------------------------------------------------
  alpha Z        PSCENC =        75.25431677
  Ewald energy   TEWEN  =    138797.49948827
  -Hartree energ DENC   =   -182147.36690736
  -exchange      EXHF   =         0.00000000
  -V(xc)+E(xc)   XCENC  =     -1701.95259682
  PAW double counting   =     44873.02882129   -41398.84523641
  entropy T*S    EENTRO =        -0.00578740
  eigenvalues    EBANDS =     -3718.87553801
  atomic energy  EATOM  =     45086.50549395
  Solvation  Ediel_sol  =         0.00000000
  ---------------------------------------------------
  free energy    TOTEN  =      -134.75794572 eV

  energy without entropy =     -134.75215832  energy(sigma->0) =     -134.75649887


--------------------------------------------------------------------------------------------------------




--------------------------------------- Iteration      1(   5)  ---------------------------------------


     EDDAV:  cpu time  484.7596: real time  484.7629
       DOS:  cpu time    0.0014: real time    0.0013
    CHARGE:  cpu time   24.3831: real time   24.3830
    MIXING:  cpu time    0.4190: real time    0.4190
    --------------------------------------------
      LOOP:  cpu time  509.5630: real time  509.5663

 eigenvalue-minimisations  :  1056
 total energy-change (2. order) :-0.4603556E+02  (-0.3853714E+02)
 number of electron     559.9999887 magnetization 
 augmentation part      245.0108785 magnetization 

 Broyden mixing:
  rms(total) = 0.18671E+01    rms(broyden)= 0.18664E+01
  rms(prec ) = 0.19625E+01
  weight for this iteration     100.00

 Free energy of the ion-electron system (eV)
  ---------------------------------------------------
  alpha Z        PSCENC =        75.25431677
  Ewald energy   TEWEN  =    138797.49948827
  -Hartree energ DENC   =   -182147.36690736
  -exchange      EXHF   =         0.00000000
  -V(xc)+E(xc)   XCENC  =     -1701.95259682
  PAW double counting   =     44873.02882129   -41398.84523641
  entropy T*S    EENTRO =         0.50845985
  eigenvalues    EBANDS =     -3765.42534481
  atomic energy  EATOM  =     45086.50549395
  Solvation  Ediel_sol  =         0.00000000
  ---------------------------------------------------
  free energy    TOTEN  =      -180.79350527 eV

  energy without entropy =     -181.30196512  energy(sigma->0) =     -180.92062023


--------------------------------------------------------------------------------------------------------




--------------------------------------- Iteration      1(   6)  ---------------------------------------


    POTLOK:  cpu time   12.5337: real time   12.5343
    SETDIJ:  cpu time    0.1138: real time    0.1138
    EDDIAG:  cpu time   64.5191: real time   64.5206
  RMM-DIIS:  cpu time  180.9502: real time  180.9523
    ORTHCH:  cpu time   13.0180: real time   13.0179
       DOS:  cpu time    0.0014: real time    0.0014
    CHARGE:  cpu time   24.1810: real time   24.1808
    MIXING:  cpu time    0.4580: real time    0.4580
    --------------------------------------------
      LOOP:  cpu time  295.7753: real time  295.7793

 eigenvalue-minimisations  :   732
 total energy-change (2. order) : 0.7374018E+00  (-0.6585469E+01)
 number of electron     559.9999914 magnetization 
 augmentation part      240.4995792 magnetization 

 Broyden mixing:
  rms(total) = 0.22587E+01    rms(broyden)= 0.22584E+01
  rms(prec ) = 0.25873E+01
  weight for this iteration     100.00

 eigenvalues of (default mixing * dielectric matrix)
  average eigenvalue GAMMA=   0.4221
  0.4221

 Free energy of the ion-electron system (eV)
  ---------------------------------------------------
  alpha Z        PSCENC =        75.25431677
  Ewald energy   TEWEN  =    138797.49948827
  -Hartree energ DENC   =   -182550.62399055
  -exchange      EXHF   =         0.00000000
  -V(xc)+E(xc)   XCENC  =     -1695.38967404
  PAW double counting   =     45693.40403221   -42193.22518576
  entropy T*S    EENTRO =        -0.30214639
  eigenvalues    EBANDS =     -3393.17843796
  atomic energy  EATOM  =     45086.50549395
  Solvation  Ediel_sol  =         0.00000000
  ---------------------------------------------------
  free energy    TOTEN  =      -180.05610350 eV

  energy without entropy =     -179.75395711  energy(sigma->0) =     -179.98056690


--------------------------------------------------------------------------------------------------------




--------------------------------------- Iteration      1(   7)  ---------------------------------------


    POTLOK:  cpu time   12.2649: real time   12.2654
    SETDIJ:  cpu time    0.1131: real time    0.1131
    EDDIAG:  cpu time   64.3991: real time   64.3995
  RMM-DIIS:  cpu time  207.9699: real time  207.9758
    ORTHCH:  cpu time   12.5332: real time   12.5333
       DOS:  cpu time    0.0014: real time    0.0014
    CHARGE:  cpu time   24.4236: real time   24.4236
    MIXING:  cpu time    0.4417: real time    0.4417
    --------------------------------------------
      LOOP:  cpu time  322.1469: real time  322.1538

 eigenvalue-minimisations  :   839
 total energy-change (2. order) :-0.4318486E+01  (-0.2382083E+01)
 number of electron     559.9999862 magnetization 
 augmentation part      239.9625035 magnetization 

 Broyden mixing:
  rms(total) = 0.25105E+01    rms(broyden)= 0.25102E+01
  rms(prec ) = 0.30034E+01
  weight for this iteration     100.00

 eigenvalues of (default mixing * dielectric matrix)
  average eigenvalue GAMMA=   0.4067
  0.6380  0.1754

 Free energy of the ion-electron system (eV)
  ---------------------------------------------------
  alpha Z        PSCENC =        75.25431677
  Ewald energy   TEWEN  =    138797.49948827
  -Hartree energ DENC   =   -182658.61992807
  -exchange      EXHF   =         0.00000000
  -V(xc)+E(xc)   XCENC  =     -1695.73325457
  PAW double counting   =     45796.40484505   -42293.21507282
  entropy T*S    EENTRO =        -0.12966584
  eigenvalues    EBANDS =     -3292.34081222
  atomic energy  EATOM  =     45086.50549395
  Solvation  Ediel_sol  =         0.00000000
  ---------------------------------------------------
  free energy    TOTEN  =      -184.37458949 eV

  energy without entropy =     -184.24492365  energy(sigma->0) =     -184.34217303


--------------------------------------------------------------------------------------------------------




--------------------------------------- Iteration      1(   8)  ---------------------------------------


    POTLOK:  cpu time   12.2481: real time   12.2491
    SETDIJ:  cpu time    0.1180: real time    0.1180
    EDDIAG:  cpu time   64.5476: real time   64.5481
  RMM-DIIS:  cpu time  189.5778: real time  189.5800
    ORTHCH:  cpu time   12.6038: real time   12.6037
       DOS:  cpu time    0.0014: real time    0.0014
    CHARGE:  cpu time   24.2776: real time   24.2776
    MIXING:  cpu time    0.4532: real time    0.4532
    --------------------------------------------
      LOOP:  cpu time  303.8275: real time  303.8310

 eigenvalue-minimisations  :   764
 total energy-change (2. order) :-0.2711439E+01  (-0.1076039E+01)
 number of electron     559.9999876 magnetization 
 augmentation part      239.8747979 magnetization 

 Broyden mixing:
  rms(total) = 0.29773E+01    rms(broyden)= 0.29770E+01
  rms(prec ) = 0.34656E+01
  weight for this iteration     100.00

 eigenvalues of (default mixing * dielectric matrix)
  average eigenvalue GAMMA=   0.3780
  0.8133  0.1726  0.1482

 Free energy of the ion-electron system (eV)
  ---------------------------------------------------
  alpha Z        PSCENC =        75.25431677
  Ewald energy   TEWEN  =    138797.49948827
  -Hartree energ DENC   =   -182684.79549329
  -exchange      EXHF   =         0.00000000
  -V(xc)+E(xc)   XCENC  =     -1695.83717079
  PAW double counting   =     45888.72115815   -42382.96706551
  entropy T*S    EENTRO =        -0.13806728
  eigenvalues    EBANDS =     -3271.32868920
  atomic energy  EATOM  =     45086.50549395
  Solvation  Ediel_sol  =         0.00000000
  ---------------------------------------------------
  free energy    TOTEN  =      -187.08602893 eV

  energy without entropy =     -186.94796165  energy(sigma->0) =     -187.05151211


--------------------------------------------------------------------------------------------------------




--------------------------------------- Iteration      1(   9)  ---------------------------------------


    POTLOK:  cpu time   12.5174: real time   12.5180
    SETDIJ:  cpu time    0.1172: real time    0.1172
    EDDIAG:  cpu time   64.7294: real time   64.7298
  RMM-DIIS:  cpu time  179.4888: real time  179.4920
    ORTHCH:  cpu time   12.9414: real time   12.9414
       DOS:  cpu time    0.0014: real time    0.0014
    CHARGE:  cpu time   24.3829: real time   24.3830
    MIXING:  cpu time    0.5079: real time    0.5079
    --------------------------------------------
      LOOP:  cpu time  294.6865: real time  294.6908

 eigenvalue-minimisations  :   726
 total energy-change (2. order) : 0.3378027E+01  (-0.7745412E+00)
 number of electron     559.9999857 magnetization 
 augmentation part      241.0461164 magnetization 

 Broyden mixing:
  rms(total) = 0.25084E+01    rms(broyden)= 0.25080E+01
  rms(prec ) = 0.28723E+01
  weight for this iteration     100.00

 eigenvalues of (default mixing * dielectric matrix)
  average eigenvalue GAMMA=   0.3515
  0.9142  0.1873  0.1873  0.1171

 Free energy of the ion-electron system (eV)
  ---------------------------------------------------
  alpha Z        PSCENC =        75.25431677
  Ewald energy   TEWEN  =    138797.49948827
  -Hartree energ DENC   =   -182691.17229648
  -exchange      EXHF   =         0.00000000
  -V(xc)+E(xc)   XCENC  =     -1695.88663835
  PAW double counting   =     45964.33371981   -42456.63427739
  entropy T*S    EENTRO =        -0.12172443
  eigenvalues    EBANDS =     -3263.48608422
  atomic energy  EATOM  =     45086.50549395
  Solvation  Ediel_sol  =         0.00000000
  ---------------------------------------------------
  free energy    TOTEN  =      -183.70800206 eV

  energy without entropy =     -183.58627764  energy(sigma->0) =     -183.67757096


--------------------------------------------------------------------------------------------------------




--------------------------------------- Iteration      1(  10)  ---------------------------------------


    POTLOK:  cpu time   11.9153: real time   11.9162
    SETDIJ:  cpu time    0.1219: real time    0.1219
    EDDIAG:  cpu time   64.4950: real time   64.4968
  RMM-DIIS:  cpu time  180.5392: real time  180.5427
    ORTHCH:  cpu time   12.8016: real time   12.8016
       DOS:  cpu time    0.0014: real time    0.0014
    CHARGE:  cpu time   24.1547: real time   24.1546
    MIXING:  cpu time    0.5635: real time    0.5635
    --------------------------------------------
      LOOP:  cpu time  294.5926: real time  294.5988

 eigenvalue-minimisations  :   729
 total energy-change (2. order) : 0.2941255E+01  (-0.4257006E+00)
 number of electron     559.9999892 magnetization 
 augmentation part      241.6025600 magnetization 

 Broyden mixing:
  rms(total) = 0.24807E+01    rms(broyden)= 0.24803E+01
  rms(prec ) = 0.28562E+01
  weight for this iteration     100.00

 eigenvalues of (default mixing * dielectric matrix)
  average eigenvalue GAMMA=   0.3283
  1.0106  0.1810  0.1810  0.1781  0.0906

 Free energy of the ion-electron system (eV)
  ---------------------------------------------------
  alpha Z        PSCENC =        75.25431677
  Ewald energy   TEWEN  =    138797.49948827
  -Hartree energ DENC   =   -182725.59754058
  -exchange      EXHF   =         0.00000000
  -V(xc)+E(xc)   XCENC  =     -1695.74667651
  PAW double counting   =     46021.73153415   -42512.44194293
  entropy T*S    EENTRO =        -0.18205343
  eigenvalues    EBANDS =     -3227.78936676
  atomic energy  EATOM  =     45086.50549395
  Solvation  Ediel_sol  =         0.00000000
  ---------------------------------------------------
  free energy    TOTEN  =      -180.76674706 eV

  energy without entropy =     -180.58469363  energy(sigma->0) =     -180.72123370


--------------------------------------------------------------------------------------------------------




--------------------------------------- Iteration      1(  11)  ---------------------------------------


    POTLOK:  cpu time   12.6334: real time   12.6340
    SETDIJ:  cpu time    0.1216: real time    0.1216
    EDDIAG:  cpu time   64.5030: real time   64.5033
  RMM-DIIS:  cpu time  177.5722: real time  177.5750
    ORTHCH:  cpu time   12.9218: real time   12.9217
       DOS:  cpu time    0.0014: real time    0.0014
    CHARGE:  cpu time   24.1551: real time   24.1551
    MIXING:  cpu time    0.5867: real time    0.5867
    --------------------------------------------
      LOOP:  cpu time  292.4954: real time  292.4989

 eigenvalue-minimisations  :   717
 total energy-change (2. order) : 0.2175017E+01  (-0.3252635E+00)
 number of electron     559.9999908 magnetization 
 augmentation part      241.7109303 magnetization 

 Broyden mixing:
  rms(total) = 0.19995E+01    rms(broyden)= 0.19992E+01
  rms(prec ) = 0.23259E+01
  weight for this iteration     100.00

 eigenvalues of (default mixing * dielectric matrix)
  average eigenvalue GAMMA=   0.3145
  1.0928  0.2186  0.2186  0.1401  0.1401  0.0771

 Free energy of the ion-electron system (eV)
  ---------------------------------------------------
  alpha Z        PSCENC =        75.25431677
  Ewald energy   TEWEN  =    138797.49948827
  -Hartree energ DENC   =   -182753.11190267
  -exchange      EXHF   =         0.00000000
  -V(xc)+E(xc)   XCENC  =     -1695.54509870
  PAW double counting   =     46070.68877944   -42559.80499827
  entropy T*S    EENTRO =        -0.05547323
  eigenvalues    EBANDS =     -3200.02233514
  atomic energy  EATOM  =     45086.50549395
  Solvation  Ediel_sol  =         0.00000000
  ---------------------------------------------------
  free energy    TOTEN  =      -178.59172956 eV

  energy without entropy =     -178.53625634  energy(sigma->0) =     -178.57786126


--------------------------------------------------------------------------------------------------------




--------------------------------------- Iteration      1(  12)  ---------------------------------------


    POTLOK:  cpu time   12.5041: real time   12.5063
    SETDIJ:  cpu time    0.1174: real time    0.1175
    EDDIAG:  cpu time   64.2623: real time   64.2626
  RMM-DIIS:  cpu time  178.2388: real time  178.2399
    ORTHCH:  cpu time   13.0375: real time   13.0375
       DOS:  cpu time    0.0014: real time    0.0014
    CHARGE:  cpu time   23.7703: real time   23.7702
    MIXING:  cpu time    0.5852: real time    0.5852
    --------------------------------------------
      LOOP:  cpu time  292.5170: real time  292.5206

 eigenvalue-minimisations  :   722
 total energy-change (2. order) : 0.4653341E+00  (-0.2179370E+00)
 number of electron     559.9999898 magnetization 
 augmentation part      241.7473501 magnetization 

 Broyden mixing:
  rms(total) = 0.17716E+01    rms(broyden)= 0.17713E+01
  rms(prec ) = 0.21513E+01
  weight for this iteration     100.00

 eigenvalues of (default mixing * dielectric matrix)
  average eigenvalue GAMMA=   0.3125
  1.1750  0.2775  0.2775  0.1476  0.1476  0.0811  0.0811

 Free energy of the ion-electron system (eV)
  ---------------------------------------------------
  alpha Z        PSCENC =        75.25431677
  Ewald energy   TEWEN  =    138797.49948827
  -Hartree energ DENC   =   -182771.04489488
  -exchange      EXHF   =         0.00000000
  -V(xc)+E(xc)   XCENC  =     -1695.30145128
  PAW double counting   =     46110.04478150   -42597.70370173
  entropy T*S    EENTRO =        -0.10306204
  eigenvalues    EBANDS =     -3183.27736603
  atomic energy  EATOM  =     45086.50549395
  Solvation  Ediel_sol  =         0.00000000
  ---------------------------------------------------
  free energy    TOTEN  =      -178.12639547 eV

  energy without entropy =     -178.02333342  energy(sigma->0) =     -178.10062995


--------------------------------------------------------------------------------------------------------




--------------------------------------- Iteration      1(  13)  ---------------------------------------


    POTLOK:  cpu time   12.2100: real time   12.2121
    SETDIJ:  cpu time    0.1169: real time    0.1169
    EDDIAG:  cpu time   64.2065: real time   64.2067
  RMM-DIIS:  cpu time  177.8413: real time  177.8450
    ORTHCH:  cpu time   12.7495: real time   12.7495
       DOS:  cpu time    0.0014: real time    0.0014
    CHARGE:  cpu time   24.4123: real time   24.4124
    MIXING:  cpu time    0.6634: real time    0.6634
    --------------------------------------------
      LOOP:  cpu time  292.2013: real time  292.2074

 eigenvalue-minimisations  :   720
 total energy-change (2. order) :-0.7713538E+00  (-0.1617278E+00)
 number of electron     559.9999858 magnetization 
 augmentation part      241.4853442 magnetization 

 Broyden mixing:
  rms(total) = 0.23650E+01    rms(broyden)= 0.23647E+01
  rms(prec ) = 0.28316E+01
  weight for this iteration     100.00

 eigenvalues of (default mixing * dielectric matrix)
  average eigenvalue GAMMA=   0.3283
  1.3392  0.3647  0.3647  0.1796  0.1245  0.0967  0.0967  0.0601

 Free energy of the ion-electron system (eV)
  ---------------------------------------------------
  alpha Z        PSCENC =        75.25431677
  Ewald energy   TEWEN  =    138797.49948827
  -Hartree energ DENC   =   -182795.07116194
  -exchange      EXHF   =         0.00000000
  -V(xc)+E(xc)   XCENC  =     -1694.96340368
  PAW double counting   =     46152.58251170   -42638.53994275
  entropy T*S    EENTRO =        -0.08132699
  eigenvalues    EBANDS =     -3162.08372456
  atomic energy  EATOM  =     45086.50549395
  Solvation  Ediel_sol  =         0.00000000
  ---------------------------------------------------
  free energy    TOTEN  =      -178.89774923 eV

  energy without entropy =     -178.81642224  energy(sigma->0) =     -178.87741748


--------------------------------------------------------------------------------------------------------




--------------------------------------- Iteration      1(  14)  ---------------------------------------


    POTLOK:  cpu time   11.9330: real time   11.9361
    SETDIJ:  cpu time    0.1255: real time    0.1255
    EDDIAG:  cpu time   64.3313: real time   64.3317
  RMM-DIIS:  cpu time  176.4203: real time  176.4227
    ORTHCH:  cpu time   13.1511: real time   13.1511
       DOS:  cpu time    0.0014: real time    0.0014
    CHARGE:  cpu time   24.1325: real time   24.1324
    MIXING:  cpu time    0.7029: real time    0.7029
    --------------------------------------------
      LOOP:  cpu time  290.7980: real time  290.8039

 eigenvalue-minimisations  :   717
 total energy-change (2. order) : 0.6937556E+00  (-0.1963747E+00)
 number of electron     559.9999837 magnetization 
 augmentation part      241.2386889 magnetization 

 Broyden mixing:
  rms(total) = 0.25922E+01    rms(broyden)= 0.25920E+01
  rms(prec ) = 0.29514E+01
  weight for this iteration     100.00

 eigenvalues of (default mixing * dielectric matrix)
  average eigenvalue GAMMA=   0.3164
  1.4366  0.3885  0.3885  0.1310  0.1237  0.1237  0.1006  0.1006  0.0548

 Free energy of the ion-electron system (eV)
  ---------------------------------------------------
  alpha Z        PSCENC =        75.25431677
  Ewald energy   TEWEN  =    138797.49948827
  -Hartree energ DENC   =   -182844.04855813
  -exchange      EXHF   =         0.00000000
  -V(xc)+E(xc)   XCENC  =     -1694.28936086
  PAW double counting   =     46234.62434768   -42717.26850486
  entropy T*S    EENTRO =        -0.02292973
  eigenvalues    EBANDS =     -3116.45828669
  atomic energy  EATOM  =     45086.50549395
  Solvation  Ediel_sol  =         0.00000000
  ---------------------------------------------------
  free energy    TOTEN  =      -178.20399360 eV

  energy without entropy =     -178.18106387  energy(sigma->0) =     -178.19826117


--------------------------------------------------------------------------------------------------------




--------------------------------------- Iteration      1(  15)  ---------------------------------------


    POTLOK:  cpu time   12.7095: real time   12.7118
    SETDIJ:  cpu time    0.1170: real time    0.1170
    EDDIAG:  cpu time   64.5793: real time   64.5861
  RMM-DIIS:  cpu time  173.6226: real time  173.6347
    ORTHCH:  cpu time   13.1544: real time   13.1557
       DOS:  cpu time    0.0014: real time    0.0014
    CHARGE:  cpu time   24.0960: real time   24.0964
    MIXING:  cpu time    0.7248: real time    0.7248
    --------------------------------------------
      LOOP:  cpu time  289.0050: real time  289.0278

 eigenvalue-minimisations  :   705
 total energy-change (2. order) : 0.7710642E+00  (-0.1438417E+00)
 number of electron     559.9999880 magnetization 
 augmentation part      241.0062392 magnetization 

 Broyden mixing:
  rms(total) = 0.18561E+01    rms(broyden)= 0.18560E+01
  rms(prec ) = 0.21030E+01
  weight for this iteration     100.00

 eigenvalues of (default mixing * dielectric matrix)
  average eigenvalue GAMMA=   0.3110
  1.5242  0.4967  0.2950  0.1744  0.1744  0.1306  0.0957  0.0957  0.0703  0.0530

 Free energy of the ion-electron system (eV)
  ---------------------------------------------------
  alpha Z        PSCENC =        75.25431677
  Ewald energy   TEWEN  =    138797.49948827
  -Hartree energ DENC   =   -182871.41417381
  -exchange      EXHF   =         0.00000000
  -V(xc)+E(xc)   XCENC  =     -1693.89950595
  PAW double counting   =     46280.16188966   -42760.99934592
  entropy T*S    EENTRO =        -0.11818022
  eigenvalues    EBANDS =     -3090.42291215
  atomic energy  EATOM  =     45086.50549395
  Solvation  Ediel_sol  =         0.00000000
  ---------------------------------------------------
  free energy    TOTEN  =      -177.43292940 eV

  energy without entropy =     -177.31474918  energy(sigma->0) =     -177.40338435


--------------------------------------------------------------------------------------------------------




--------------------------------------- Iteration      1(  16)  ---------------------------------------


    POTLOK:  cpu time   12.6537: real time   12.6572
    SETDIJ:  cpu time    0.1192: real time    0.1192
    EDDIAG:  cpu time   64.1964: real time   64.2008
  RMM-DIIS:  cpu time  174.7759: real time  174.7863
    ORTHCH:  cpu time   13.1530: real time   13.1544
       DOS:  cpu time    0.0015: real time    0.0015
    CHARGE:  cpu time   24.0662: real time   24.0677
    MIXING:  cpu time    0.7664: real time    0.7664
    --------------------------------------------
      LOOP:  cpu time  289.7322: real time  289.7534

 eigenvalue-minimisations  :   711
 total energy-change (2. order) : 0.9715100E+00  (-0.1018744E+00)
 number of electron     559.9999877 magnetization 
 augmentation part      241.0776840 magnetization 

 Broyden mixing:
  rms(total) = 0.14374E+01    rms(broyden)= 0.14372E+01
  rms(prec ) = 0.16902E+01
  weight for this iteration     100.00

 eigenvalues of (default mixing * dielectric matrix)
  average eigenvalue GAMMA=   0.2998
  1.5597  0.5476  0.2448  0.2145  0.2145  0.1036  0.1036  0.0995  0.0785  0.0785
  0.0526

 Free energy of the ion-electron system (eV)
  ---------------------------------------------------
  alpha Z        PSCENC =        75.25431677
  Ewald energy   TEWEN  =    138797.49948827
  -Hartree energ DENC   =   -182887.53939815
  -exchange      EXHF   =         0.00000000
  -V(xc)+E(xc)   XCENC  =     -1693.64250492
  PAW double counting   =     46310.82817389   -42790.41299746
  entropy T*S    EENTRO =        -0.08240076
  eigenvalues    EBANDS =     -3074.87159101
  atomic energy  EATOM  =     45086.50549395
  Solvation  Ediel_sol  =         0.00000000
  ---------------------------------------------------
  free energy    TOTEN  =      -176.46141942 eV

  energy without entropy =     -176.37901866  energy(sigma->0) =     -176.44081923


--------------------------------------------------------------------------------------------------------




--------------------------------------- Iteration      1(  17)  ---------------------------------------


    POTLOK:  cpu time   12.5281: real time   12.5316
    SETDIJ:  cpu time    0.1176: real time    0.1176
    EDDIAG:  cpu time   63.9738: real time   63.9782
  RMM-DIIS:  cpu time  176.6445: real time  176.6511
    ORTHCH:  cpu time   12.5543: real time   12.5555
       DOS:  cpu time    0.0015: real time    0.0015
    CHARGE:  cpu time   24.4177: real time   24.4195
    MIXING:  cpu time    0.8364: real time    0.8363
    --------------------------------------------
      LOOP:  cpu time  291.0738: real time  291.0914

 eigenvalue-minimisations  :   715
 total energy-change (2. order) : 0.3940455E+00  (-0.4643589E-01)
 number of electron     559.9999907 magnetization 
 augmentation part      241.1139913 magnetization 

 Broyden mixing:
  rms(total) = 0.12553E+01    rms(broyden)= 0.12551E+01
  rms(prec ) = 0.14981E+01
  weight for this iteration     100.00

 eigenvalues of (default mixing * dielectric matrix)
  average eigenvalue GAMMA=   0.2979
  1.6014  0.6052  0.2841  0.2841  0.1891  0.1164  0.1164  0.0921  0.0921  0.0871
  0.0572  0.0492

 Free energy of the ion-electron system (eV)
  ---------------------------------------------------
  alpha Z        PSCENC =        75.25431677
  Ewald energy   TEWEN  =    138797.49948827
  -Hartree energ DENC   =   -182895.07324199
  -exchange      EXHF   =         0.00000000
  -V(xc)+E(xc)   XCENC  =     -1693.52935634
  PAW double counting   =     46322.99137836   -42802.04654107
  entropy T*S    EENTRO =         0.01572667
  eigenvalues    EBANDS =     -3067.68463857
  atomic energy  EATOM  =     45086.50549395
  Solvation  Ediel_sol  =         0.00000000
  ---------------------------------------------------
  free energy    TOTEN  =      -176.06737394 eV

  energy without entropy =     -176.08310061  energy(sigma->0) =     -176.07130561


--------------------------------------------------------------------------------------------------------




--------------------------------------- Iteration      1(  18)  ---------------------------------------


    POTLOK:  cpu time   11.9532: real time   11.9557
    SETDIJ:  cpu time    0.1110: real time    0.1110
    EDDIAG:  cpu time   64.6895: real time   64.6947
  RMM-DIIS:  cpu time  175.7933: real time  175.7972
    ORTHCH:  cpu time   13.1723: real time   13.1722
       DOS:  cpu time    0.0015: real time    0.0015
    CHARGE:  cpu time   23.6462: real time   23.6461
    MIXING:  cpu time    0.8688: real time    0.8688
    --------------------------------------------
      LOOP:  cpu time  290.2357: real time  290.2471

 eigenvalue-minimisations  :   713
 total energy-change (2. order) : 0.2284006E+00  (-0.4105956E-01)
 number of electron     559.9999914 magnetization 
 augmentation part      241.2015722 magnetization 

 Broyden mixing:
  rms(total) = 0.10649E+01    rms(broyden)= 0.10646E+01
  rms(prec ) = 0.12474E+01
  weight for this iteration     100.00

 eigenvalues of (default mixing * dielectric matrix)
  average eigenvalue GAMMA=   0.3075
  1.6651  0.7214  0.3634  0.3634  0.1453  0.1453  0.1168  0.1168  0.0934  0.0934
  0.0730  0.0546  0.0450

 Free energy of the ion-electron system (eV)
  ---------------------------------------------------
  alpha Z        PSCENC =        75.25431677
  Ewald energy   TEWEN  =    138797.49948827
  -Hartree energ DENC   =   -182901.10998582
  -exchange      EXHF   =         0.00000000
  -V(xc)+E(xc)   XCENC  =     -1693.42155004
  PAW double counting   =     46334.02676692   -42812.52771418
  entropy T*S    EENTRO =        -0.01246655
  eigenvalues    EBANDS =     -3062.05332265
  atomic energy  EATOM  =     45086.50549395
  Solvation  Ediel_sol  =         0.00000000
  ---------------------------------------------------
  free energy    TOTEN  =      -175.83897334 eV

  energy without entropy =     -175.82650679  energy(sigma->0) =     -175.83585670


--------------------------------------------------------------------------------------------------------




--------------------------------------- Iteration      1(  19)  ---------------------------------------


    POTLOK:  cpu time   12.5817: real time   12.5837
    SETDIJ:  cpu time    0.1232: real time    0.1232
    EDDIAG:  cpu time   64.1191: real time   64.1194
  RMM-DIIS:  cpu time  174.0566: real time  174.0584
    ORTHCH:  cpu time   12.8625: real time   12.8625
       DOS:  cpu time    0.0015: real time    0.0015
    CHARGE:  cpu time   24.3082: real time   24.3082
    MIXING:  cpu time    0.9307: real time    0.9307
    --------------------------------------------
      LOOP:  cpu time  288.9835: real time  288.9875

 eigenvalue-minimisations  :   703
 total energy-change (2. order) : 0.3501296E-01  (-0.4949626E-01)
 number of electron     559.9999914 magnetization 
 augmentation part      241.3062836 magnetization 

 Broyden mixing:
  rms(total) = 0.13456E+01    rms(broyden)= 0.13454E+01
  rms(prec ) = 0.15611E+01
  weight for this iteration     100.00

 eigenvalues of (default mixing * dielectric matrix)
  average eigenvalue GAMMA=   0.3113
  1.7219  0.8390  0.4049  0.4049  0.1635  0.1635  0.1156  0.1156  0.0864  0.0864
  0.0872  0.0741  0.0534  0.0427

 Free energy of the ion-electron system (eV)
  ---------------------------------------------------
  alpha Z        PSCENC =        75.25431677
  Ewald energy   TEWEN  =    138797.49948827
  -Hartree energ DENC   =   -182916.30384255
  -exchange      EXHF   =         0.00000000
  -V(xc)+E(xc)   XCENC  =     -1693.22265354
  PAW double counting   =     46351.07569655   -42828.53646951
  entropy T*S    EENTRO =         0.04077431
  eigenvalues    EBANDS =     -3048.11676464
  atomic energy  EATOM  =     45086.50549395
  Solvation  Ediel_sol  =         0.00000000
  ---------------------------------------------------
  free energy    TOTEN  =      -175.80396038 eV

  energy without entropy =     -175.84473469  energy(sigma->0) =     -175.81415396


--------------------------------------------------------------------------------------------------------




--------------------------------------- Iteration      1(  20)  ---------------------------------------


    POTLOK:  cpu time   11.6951: real time   11.6972
    SETDIJ:  cpu time    0.1106: real time    0.1106
    EDDIAG:  cpu time   64.6853: real time   64.6914
  RMM-DIIS:  cpu time  171.7472: real time  171.7480
    ORTHCH:  cpu time   12.9114: real time   12.9114
       DOS:  cpu time    0.0015: real time    0.0015
    CHARGE:  cpu time   23.6787: real time   23.6786
    MIXING:  cpu time    0.9756: real time    0.9756
    --------------------------------------------
      LOOP:  cpu time  285.8053: real time  285.8144

 eigenvalue-minimisations  :   698
 total energy-change (2. order) : 0.1010487E+00  (-0.4306627E-01)
 number of electron     559.9999894 magnetization 
 augmentation part      241.2731369 magnetization 

 Broyden mixing:
  rms(total) = 0.91475E+00    rms(broyden)= 0.91461E+00
  rms(prec ) = 0.10371E+01
  weight for this iteration     100.00

 eigenvalues of (default mixing * dielectric matrix)
  average eigenvalue GAMMA=   0.3128
  1.8062  0.9048  0.4143  0.4143  0.1882  0.1882  0.1185  0.1185  0.1034  0.0929
  0.0929  0.0816  0.0730  0.0533  0.0421

 Free energy of the ion-electron system (eV)
  ---------------------------------------------------
  alpha Z        PSCENC =        75.25431677
  Ewald energy   TEWEN  =    138797.49948827
  -Hartree energ DENC   =   -182931.14041306
  -exchange      EXHF   =         0.00000000
  -V(xc)+E(xc)   XCENC  =     -1693.05650542
  PAW double counting   =     46364.21802304   -42840.79258331
  entropy T*S    EENTRO =        -0.03772387
  eigenvalues    EBANDS =     -3034.15300803
  atomic energy  EATOM  =     45086.50549395
  Solvation  Ediel_sol  =         0.00000000
  ---------------------------------------------------
  free energy    TOTEN  =      -175.70291166 eV

  energy without entropy =     -175.66518779  energy(sigma->0) =     -175.69348069


--------------------------------------------------------------------------------------------------------




--------------------------------------- Iteration      1(  21)  ---------------------------------------


    POTLOK:  cpu time   12.5117: real time   12.5148
    SETDIJ:  cpu time    0.1193: real time    0.1193
    EDDIAG:  cpu time   63.9420: real time   63.9428
  RMM-DIIS:  cpu time  170.8436: real time  170.8445
    ORTHCH:  cpu time   12.6237: real time   12.6237
       DOS:  cpu time    0.0015: real time    0.0015
    CHARGE:  cpu time   24.4642: real time   24.4642
    MIXING:  cpu time    1.0582: real time    1.0582
    --------------------------------------------
      LOOP:  cpu time  285.5643: real time  285.5691

 eigenvalue-minimisations  :   696
 total energy-change (2. order) : 0.2182500E+00  (-0.3032102E-01)
 number of electron     559.9999904 magnetization 
 augmentation part      241.2318802 magnetization 

 Broyden mixing:
  rms(total) = 0.72441E+00    rms(broyden)= 0.72421E+00
  rms(prec ) = 0.82011E+00
  weight for this iteration     100.00

 eigenvalues of (default mixing * dielectric matrix)
  average eigenvalue GAMMA=   0.3142
  1.8672  0.9897  0.4091  0.4091  0.2179  0.2179  0.1169  0.1169  0.1389  0.1147
  0.0909  0.0909  0.0796  0.0720  0.0534  0.0422

 Free energy of the ion-electron system (eV)
  ---------------------------------------------------
  alpha Z        PSCENC =        75.25431677
  Ewald energy   TEWEN  =    138797.49948827
  -Hartree energ DENC   =   -182948.25579929
  -exchange      EXHF   =         0.00000000
  -V(xc)+E(xc)   XCENC  =     -1692.83724922
  PAW double counting   =     46379.74624634   -42855.34000595
  entropy T*S    EENTRO =        -0.06496275
  eigenvalues    EBANDS =     -3017.99218979
  atomic energy  EATOM  =     45086.50549395
  Solvation  Ediel_sol  =         0.00000000
  ---------------------------------------------------
  free energy    TOTEN  =      -175.48466167 eV

  energy without entropy =     -175.41969892  energy(sigma->0) =     -175.46842099


--------------------------------------------------------------------------------------------------------




--------------------------------------- Iteration      1(  22)  ---------------------------------------


    POTLOK:  cpu time   11.8813: real time   11.8835
    SETDIJ:  cpu time    0.1123: real time    0.1123
    EDDIAG:  cpu time   63.9298: real time   63.9313
  RMM-DIIS:  cpu time  170.5551: real time  170.5564
    ORTHCH:  cpu time   12.5628: real time   12.5627
       DOS:  cpu time    0.0015: real time    0.0015
    CHARGE:  cpu time   23.9380: real time   23.9379
    MIXING:  cpu time    1.1270: real time    1.1270
    --------------------------------------------
      LOOP:  cpu time  284.1077: real time  284.1127

 eigenvalue-minimisations  :   696
 total energy-change (2. order) : 0.2412714E-01  (-0.1774024E-01)
 number of electron     559.9999900 magnetization 
 augmentation part      241.1735554 magnetization 

 Broyden mixing:
  rms(total) = 0.89884E+00    rms(broyden)= 0.89871E+00
  rms(prec ) = 0.10645E+01
  weight for this iteration     100.00

 eigenvalues of (default mixing * dielectric matrix)
  average eigenvalue GAMMA=   0.3249
  1.9907  1.0483  0.5361  0.3725  0.3725  0.1660  0.1660  0.1360  0.1175  0.1175
  0.0886  0.0886  0.0917  0.0745  0.0620  0.0529  0.0421

 Free energy of the ion-electron system (eV)
  ---------------------------------------------------
  alpha Z        PSCENC =        75.25431677
  Ewald energy   TEWEN  =    138797.49948827
  -Hartree energ DENC   =   -182965.07282745
  -exchange      EXHF   =         0.00000000
  -V(xc)+E(xc)   XCENC  =     -1692.65938942
  PAW double counting   =     46387.46404542   -42862.25652128
  entropy T*S    EENTRO =        -0.03975929
  eigenvalues    EBANDS =     -3002.15538151
  atomic energy  EATOM  =     45086.50549395
  Solvation  Ediel_sol  =         0.00000000
  ---------------------------------------------------
  free energy    TOTEN  =      -175.46053454 eV

  energy without entropy =     -175.42077524  energy(sigma->0) =     -175.45059471


--------------------------------------------------------------------------------------------------------




--------------------------------------- Iteration      1(  23)  ---------------------------------------


    POTLOK:  cpu time   12.6931: real time   12.6953
    SETDIJ:  cpu time    0.1203: real time    0.1203
    EDDIAG:  cpu time   63.7140: real time   63.7150
  RMM-DIIS:  cpu time  169.2444: real time  169.2454
    ORTHCH:  cpu time   13.2415: real time   13.2415
       DOS:  cpu time    0.0015: real time    0.0015
    CHARGE:  cpu time   23.7842: real time   23.7841
    MIXING:  cpu time    1.0774: real time    1.0775
    --------------------------------------------
      LOOP:  cpu time  283.8763: real time  283.8805

 eigenvalue-minimisations  :   693
 total energy-change (2. order) : 0.1903209E+00  (-0.1865894E-01)
 number of electron     559.9999900 magnetization 
 augmentation part      241.1244611 magnetization 

 Broyden mixing:
  rms(total) = 0.61122E+00    rms(broyden)= 0.61102E+00
  rms(prec ) = 0.71531E+00
  weight for this iteration     100.00

 eigenvalues of (default mixing * dielectric matrix)
  average eigenvalue GAMMA=   0.3347
[...]
 -0.006  -0.012   0.003   0.004   0.006  -0.006  -0.012   0.003
 -0.011  -0.020   0.006   0.007   0.009  -0.010  -0.020   0.005
 -0.015  -0.005   0.013   0.000   0.022  -0.014  -0.005   0.012
  0.000  -0.023  -0.006  -0.015  -0.000   0.000  -0.022  -0.006
 -0.022   0.000   0.009  -0.005  -0.016  -0.022   0.000   0.008
 -0.017  -0.006   0.015   0.000   0.027  -0.017  -0.006   0.015
  0.000  -0.027  -0.007  -0.018   0.000   0.000  -0.027  -0.007
 -0.027   0.000   0.010  -0.006  -0.019  -0.026   0.000   0.010
 total augmentation occupancy for first ion, spin component:           1
  1.535  -0.031   0.005   0.020   0.025   0.075  -0.008  -0.001   0.035  -0.010   0.088  -0.030   0.012   0.002   0.003  -0.019
 -0.031   1.405   0.028   0.072   0.002  -0.007   0.070   0.011  -0.015  -0.008   0.217  -0.066   0.019   0.002   0.002  -0.006
  0.005   0.028   1.546   0.001   0.001  -0.001   0.013   0.072  -0.012   0.017  -0.049   0.016  -0.003  -0.007  -0.005   0.016
  0.020   0.072   0.001   1.340   0.044   0.033  -0.014  -0.012   0.091  -0.023  -0.081   0.022  -0.001  -0.008  -0.004   0.001
  0.025   0.002   0.001   0.044   1.446  -0.011  -0.009   0.016  -0.022   0.066  -0.094   0.031  -0.002  -0.010  -0.010   0.026
  0.075  -0.007  -0.001   0.033  -0.011   0.216   0.018  -0.002  -0.045   0.004  -0.048   0.002   0.017  -0.010   0.034  -0.004
 -0.008   0.070   0.013  -0.014  -0.009   0.018   0.262  -0.023  -0.003   0.006  -0.109   0.007  -0.001   0.051  -0.010  -0.000
 -0.001   0.011   0.072  -0.012   0.016  -0.002  -0.023   0.214   0.014  -0.020   0.028  -0.001  -0.012   0.009  -0.018   0.003
  0.035  -0.015  -0.012   0.091  -0.022  -0.045  -0.003   0.014   0.260   0.007   0.043  -0.004  -0.009   0.036   0.004   0.000
 -0.010  -0.008   0.017  -0.023   0.066   0.004   0.006  -0.020   0.007   0.258   0.046  -0.002  -0.038   0.002   0.049   0.007
  0.088   0.217  -0.049  -0.081  -0.094  -0.048  -0.109   0.028   0.043   0.046   0.950  -0.141   0.084   0.014   0.064  -0.013
 -0.030  -0.066   0.016   0.022   0.031   0.002   0.007  -0.001  -0.004  -0.002  -0.141   0.023  -0.014  -0.003  -0.010   0.003
  0.012   0.019  -0.003  -0.001  -0.002   0.017  -0.001  -0.012  -0.009  -0.038   0.084  -0.014   0.029  -0.008  -0.004  -0.003
  0.002   0.002  -0.007  -0.008  -0.010  -0.010   0.051   0.009   0.036   0.002   0.014  -0.003  -0.008   0.036   0.004   0.000
  0.003   0.002  -0.005  -0.004  -0.010   0.034  -0.010  -0.018   0.004   0.049   0.064  -0.010  -0.004   0.004   0.035  -0.000
 -0.019  -0.006   0.016   0.001   0.026  -0.004  -0.000   0.003   0.000   0.007  -0.013   0.003  -0.003   0.000  -0.000   0.001
  0.001  -0.028  -0.007  -0.018   0.001   0.001  -0.008  -0.001  -0.006  -0.000  -0.003   0.001   0.000  -0.003  -0.000   0.000
 -0.028   0.001   0.012  -0.005  -0.019  -0.006   0.001   0.003  -0.001  -0.007  -0.008   0.001  -0.000  -0.000  -0.003   0.000


------------------------ aborting loop because EDIFF is reached ----------------------------------------


    CHARGE:  cpu time   24.7313: real time   24.7313
    FORLOC:  cpu time    6.7022: real time    6.7023
    FORNL :  cpu time   61.1025: real time   61.1027
    STRESS:  cpu time  187.5484: real time  187.5524
    FORCOR:  cpu time   20.8225: real time   20.8225
    FORHAR:  cpu time    9.2326: real time    9.2327
    MIXING:  cpu time    3.1891: real time    3.1891
    OFIELD:  cpu time    0.0000: real time    0.0000

  FORCE on cell =-STRESS in cart. coord.  units (eV):
  Direction    XX          YY          ZZ          XY          YZ          ZX
  --------------------------------------------------------------------------------------
  Alpha Z    75.25432    75.25432    75.25432
  Ewald   46576.09882 44755.40766 47465.88711   504.16736  -675.20848 -2089.12316
  Hartree 61361.66181 59552.47155 62227.59172   420.50841  -601.74959 -1892.15285
  E(xc)   -2906.07757 -2905.96789 -2905.96218     0.36428    -0.20254    -0.86971
  Local  ************************************  -910.04958  1268.67090  3961.21138
  n-local  -879.68211  -875.62669  -883.55546     3.82625    -2.30999     0.91433
  augment  4103.50491  4100.76829  4105.37837    -3.90876     1.68572     1.77507
  Kinetic  7809.56450  7808.66760  7809.70317    -9.64109     5.52539    12.37143
  Fock        0.00000     0.00000     0.00000     0.00000     0.00000     0.00000
  -------------------------------------------------------------------------------------
  Total    -106.75074  -109.27508  -108.44523     5.26688    -3.58858    -5.87352
  in kB      -6.33458    -6.48437    -6.43513     0.31254    -0.21295    -0.34853
  external pressure =       -6.42 kB  Pullay stress =        0.00 kB


 VOLUME and BASIS-vectors are now :
 -----------------------------------------------------------------------------
  energy-cutoff  :      400.00
  volume of cell :    27000.00
      direct lattice vectors                 reciprocal lattice vectors
    30.000000000  0.000000000  0.000000000     0.033333333  0.000000000  0.000000000
     0.000000000 30.000000000  0.000000000     0.000000000  0.033333333  0.000000000
     0.000000000  0.000000000 30.000000000     0.000000000  0.000000000  0.033333333

  length of vectors
    30.000000000 30.000000000 30.000000000     0.033333333  0.033333333  0.033333333


 FORCES acting on ions
    electron-ion (+dipol)            ewald-force                    non-local-force                 convergence-correction
 -----------------------------------------------------------------------------------------------
   0.402E+03 0.979E+03 0.411E+03   -.400E+03 -.976E+03 -.411E+03   -.150E+01 -.182E+01 -.217E+00   -.489E-02 0.398E-02 -.172E-01
   -.985E+03 -.402E+03 0.281E+03   0.982E+03 0.400E+03 -.280E+03   0.148E+01 0.134E+01 -.377E+00   -.669E-02 0.119E-01 0.491E-02
   -.385E+03 0.987E+03 0.407E+03   0.383E+03 -.984E+03 -.407E+03   0.150E+01 -.184E+01 -.227E+00   0.154E-02 0.234E-02 -.148E-01
   0.979E+03 -.394E+03 0.412E+03   -.977E+03 0.392E+03 -.412E+03   -.180E+01 0.151E+01 -.209E+00   0.111E-01 0.147E-01 -.669E-02
   0.190E+02 0.605E+03 0.960E+03   -.189E+02 -.604E+03 -.956E+03   -.398E-01 -.355E+00 -.235E+01   -.459E-02 0.767E-02 -.155E-01
   0.304E+01 0.589E+03 -.968E+03   -.301E+01 -.588E+03 0.965E+03   -.161E-01 -.308E+00 0.237E+01   -.111E-02 0.607E-02 0.760E-02
   0.441E+01 0.114E+04 -.507E+01   -.441E+01 -.113E+04 0.508E+01   0.548E-02 -.311E+01 -.891E-02   -.151E-02 -.103E-01 -.155E-02
   0.114E+04 0.879E+00 -.325E+01   -.113E+04 -.886E+00 0.324E+01   -.311E+01 0.959E-03 0.404E-02   -.198E-03 0.635E-02 0.539E-02
   -.114E+04 0.864E+01 -.331E+02   0.114E+04 -.859E+01 0.331E+02   0.315E+01 -.426E-01 -.921E-02   -.638E-02 0.116E-01 0.140E-02
   0.817E+01 -.114E+04 -.947E+01   -.819E+01 0.114E+04 0.948E+01   0.116E-01 0.307E+01 0.280E-02   0.134E-02 -.924E-02 -.435E-02
   -.562E+03 0.627E+03 0.802E+03   0.560E+03 -.624E+03 -.799E+03   0.168E+01 -.176E+01 -.231E+01   -.321E-02 0.487E-02 -.108E-01
   -.576E+03 0.581E+03 -.818E+03   0.574E+03 -.579E+03 0.815E+03   0.157E+01 -.156E+01 0.220E+01   0.424E-02 0.738E-02 0.453E-02
   0.594E+03 -.582E+03 0.809E+03   -.592E+03 0.579E+03 -.806E+03   -.155E+01 0.153E+01 -.220E+01   0.192E-01 0.104E-01 0.224E-02
   0.581E+03 -.578E+03 -.815E+03   -.579E+03 0.576E+03 0.812E+03   -.156E+01 0.155E+01 0.220E+01   -.429E-03 0.429E-02 -.371E-02
   0.589E+03 0.584E+03 0.810E+03   -.586E+03 -.582E+03 -.807E+03   -.154E+01 -.156E+01 -.221E+01   0.480E-02 0.275E-02 -.120E-01
   0.580E+03 0.579E+03 -.815E+03   -.578E+03 -.577E+03 0.811E+03   -.156E+01 -.155E+01 0.221E+01   -.343E-02 0.557E-02 0.347E-02
   -.462E+03 -.730E+03 0.742E+03   0.461E+03 0.726E+03 -.740E+03   0.653E+00 0.252E+01 -.158E+01   -.119E-01 0.497E-02 0.255E-02
   -.576E+03 -.579E+03 -.820E+03   0.573E+03 0.577E+03 0.817E+03   0.157E+01 0.155E+01 0.219E+01   0.702E-04 0.616E-02 -.109E-01
   0.398E+03 0.974E+03 -.420E+03   -.395E+03 -.971E+03 0.420E+03   -.152E+01 -.182E+01 0.235E+00   -.630E-02 0.787E-03 0.711E-02
   -.971E+03 -.394E+03 -.435E+03   0.968E+03 0.392E+03 0.434E+03   0.181E+01 0.149E+01 0.262E+00   -.820E-02 0.104E-01 -.616E-02
   -.294E+03 0.347E+03 0.426E+03   0.295E+03 -.348E+03 -.426E+03   -.471E+00 0.383E+00 0.709E+00   -.173E-02 0.173E-01 -.666E-02
   0.978E+03 0.397E+03 0.412E+03   -.975E+03 -.394E+03 -.412E+03   -.181E+01 -.151E+01 -.213E+00   0.244E-02 0.221E-02 -.890E-02
   -.372E+03 -.995E+03 0.394E+03   0.369E+03 0.992E+03 -.393E+03   0.155E+01 0.188E+01 -.201E+00   -.123E-01 -.527E-02 -.995E-03
   -.391E+03 0.976E+03 -.423E+03   0.388E+03 -.973E+03 0.422E+03   0.153E+01 -.181E+01 0.194E+00   0.440E-02 0.126E-02 0.667E-02
   0.974E+03 -.394E+03 -.420E+03   -.972E+03 0.391E+03 0.419E+03   -.183E+01 0.150E+01 0.225E+00   0.348E-02 0.764E-02 0.273E-02
   -.975E+03 0.442E+03 0.366E+03   0.972E+03 -.440E+03 -.365E+03   0.183E+01 -.138E+01 -.315E+00   0.161E-02 0.134E-01 -.172E-04
   0.409E+03 -.979E+03 0.408E+03   -.407E+03 0.976E+03 -.407E+03   -.154E+01 0.184E+01 -.181E+00   0.753E-02 -.322E-02 -.734E-02
   0.337E+03 0.329E+03 0.444E+03   -.338E+03 -.329E+03 -.445E+03   0.353E+00 0.345E+00 0.524E+00   0.355E-02 0.131E-01 -.128E-01
   0.871E+01 0.646E+03 -.101E+02   -.875E+01 -.647E+03 0.101E+02   0.264E-01 0.746E+00 -.245E-01   -.725E-03 0.166E-01 -.360E-03
   -.393E+03 0.230E+03 0.849E+03   0.396E+03 -.226E+03 -.848E+03   -.574E+01 -.788E+01 0.120E+01   -.319E-02 0.139E-01 -.315E-02
   -.584E+03 0.158E+01 -.972E+03   0.583E+03 -.159E+01 0.969E+03   0.322E+00 -.212E-02 0.234E+01   0.328E-02 0.138E-01 -.472E-02
   0.602E+03 0.308E+01 0.962E+03   -.602E+03 -.310E+01 -.958E+03   -.309E+00 0.403E-02 -.236E+01   0.970E-02 0.106E-01 -.766E-02
   0.589E+03 0.772E+00 -.967E+03   -.588E+03 -.761E+00 0.964E+03   -.305E+00 -.109E-01 0.236E+01   -.300E-02 0.802E-02 -.146E-02
   0.766E+03 0.764E+03 -.482E+01   -.764E+03 -.762E+03 0.482E+01   -.115E+01 -.114E+01 -.168E-02   -.539E-02 0.547E-02 0.103E-02
   -.752E+03 -.771E+03 -.326E+02   0.750E+03 0.769E+03 0.326E+02   0.117E+01 0.118E+01 -.134E-01   -.455E-02 0.385E-02 0.294E-02
   -.755E+03 0.774E+03 -.167E+02   0.753E+03 -.772E+03 0.167E+02   0.112E+01 -.118E+01 0.519E-01   0.880E-02 0.124E-01 0.117E-02
   0.768E+03 -.762E+03 -.641E+01   -.766E+03 0.760E+03 0.644E+01   -.114E+01 0.116E+01 -.208E-01   0.116E-01 0.107E-01 -.609E-02
   0.499E+02 0.149E+02 0.106E+04   -.500E+02 -.151E+02 -.106E+04   0.365E-01 0.724E-01 -.170E+01   -.204E-02 0.149E-01 -.409E-02
   0.375E+01 0.115E+01 -.107E+04   -.374E+01 -.116E+01 0.107E+04   -.118E-01 0.399E-02 0.161E+01   0.234E-02 0.796E-02 -.305E-02
   0.974E+03 0.395E+03 -.419E+03   -.971E+03 -.393E+03 0.419E+03   -.182E+01 -.151E+01 0.231E+00   -.152E-02 0.734E-02 0.487E-02
   -.389E+03 -.976E+03 -.427E+03   0.386E+03 0.973E+03 0.426E+03   0.151E+01 0.182E+01 0.201E+00   0.388E-02 -.169E-03 -.995E-02
   -.315E+03 0.326E+03 -.465E+03   0.316E+03 -.326E+03 0.465E+03   -.355E+00 0.376E+00 -.543E+00   0.344E-02 0.207E-01 -.263E-02
   0.342E+03 -.321E+03 0.441E+03   -.343E+03 0.322E+03 -.442E+03   0.304E+00 -.360E+00 0.522E+00   0.949E-02 0.232E-01 -.968E-02
   0.326E+03 0.323E+03 -.459E+03   -.327E+03 -.324E+03 0.460E+03   0.362E+00 0.357E+00 -.504E+00   -.213E-03 0.144E-01 0.825E-03
   -.971E+03 0.400E+03 -.431E+03   0.968E+03 -.397E+03 0.430E+03   0.182E+01 -.150E+01 0.242E+00   0.142E-02 0.148E-01 -.211E-02
   0.399E+03 -.973E+03 -.422E+03   -.397E+03 0.971E+03 0.422E+03   -.151E+01 0.181E+01 0.198E+00   0.932E-02 0.324E-02 -.936E-02
   -.272E+03 -.325E+03 0.403E+03   0.272E+03 0.326E+03 -.403E+03   -.635E-01 -.414E+00 0.228E+00   -.278E-02 0.183E-01 -.104E-02
   0.647E+03 0.177E+01 -.670E+01   -.648E+03 -.178E+01 0.670E+01   0.740E+00 0.619E-03 -.907E-02   0.872E-02 0.137E-01 0.268E-02
   -.629E+03 0.919E+01 -.356E+02   0.630E+03 -.922E+01 0.356E+02   -.757E+00 -.528E-02 0.741E-03   -.290E-03 0.218E-01 0.331E-02
   0.433E+02 -.604E+03 0.956E+03   -.435E+02 0.603E+03 -.952E+03   0.475E-01 0.278E+00 -.243E+01   -.576E-02 0.797E-02 0.412E-02
   0.378E+01 -.587E+03 -.970E+03   -.378E+01 0.586E+03 0.966E+03   -.303E-02 0.294E+00 0.236E+01   0.696E-02 0.877E-02 -.102E-01
   0.147E+02 0.446E+01 -.171E+02   -.147E+02 -.446E+01 0.171E+02   -.143E-01 -.119E-01 0.246E-01   0.551E-02 0.196E-01 -.366E-03
   0.327E+03 -.321E+03 -.461E+03   -.328E+03 0.321E+03 0.461E+03   0.384E+00 -.369E+00 -.527E+00   0.312E-02 0.994E-02 -.644E-02
   -.314E+03 -.321E+03 -.468E+03   0.315E+03 0.321E+03 0.468E+03   -.363E+00 -.370E+00 -.524E+00   0.854E-02 0.150E-01 -.107E-01
   0.140E+02 -.643E+03 -.162E+02   -.139E+02 0.644E+03 0.162E+02   -.375E-01 -.690E+00 0.617E-01   0.561E-02 0.127E-01 -.589E-02
   -.213E+03 -.962E+02 0.221E+03   0.202E+03 0.955E+02 -.207E+03   0.832E+01 0.321E+01 -.964E+01   -.213E-02 0.484E-02 0.994E-03
   -.559E+03 -.156E+03 0.653E+03   0.602E+03 0.168E+03 -.703E+03   -.374E+02 -.110E+02 0.444E+02   -.343E-02 0.440E-02 0.194E-02
 -----------------------------------------------------------------------------------------------
   0.359E+02 0.145E+02 -.383E+02   0.682E-12 -.153E-11 -.682E-12   -.360E+02 -.150E+02 0.385E+02   0.591E-01 0.488E+00 -.167E+00
 
 
 POSITION                                       TOTAL-FORCE (eV/Angst)
 -----------------------------------------------------------------------------------
     13.37281      9.84801     12.50759         0.701117      1.110153      0.288964
     20.15199     16.62719     12.50759        -1.026710     -0.750264      0.098051
     16.62719      9.84801     12.50759        -0.698137      1.110183      0.291621
      9.84801     16.62719     12.50759         1.101214     -0.712874      0.291864
     15.00000     11.47521     10.20639         0.003623      0.416041      1.286777
     15.00000     11.47521     19.79360         0.015332      0.413790     -1.283562
     15.00000      8.28283     15.00000        -0.002855      1.518832      0.004574
      8.28283     15.00000     15.00000         1.513746      0.000212     -0.004417
     21.71717     15.00000     15.00000        -1.537775      0.022133     -0.010642
     15.00000     21.71717     15.00000        -0.005590     -1.509115      0.013634
     18.35858     11.64142     10.25025        -0.773094      0.752679      1.072847
     18.35858     11.64142     19.74975        -0.760176      0.754824     -1.072186
     11.64142     18.35858     10.25025         0.752739     -0.753636      1.075750
     11.64142     18.35858     19.74975         0.759591     -0.752385     -1.073935
     11.64142     11.64142     10.25025         0.753062      0.759195      1.076056
     11.64142     11.64142     19.74975         0.759184      0.747733     -1.071048
     18.35858     18.35858     10.25025        -0.332954     -1.400356      0.897039
     18.35858     18.35858     19.74975        -0.764020     -0.753813     -1.073935
     13.37281      9.84801     17.49241         0.711761      1.101304     -0.302816
     20.15199     16.62719     17.49241        -1.106978     -0.707009     -0.294964
     16.73751     13.26249     12.54279         0.074536     -0.142768     -0.129870
      9.84801     13.37281     12.50759         1.107628      0.705204      0.289122
     16.62719     20.15199     12.50759        -0.788620     -1.053522      0.343964
     16.62719      9.84801     17.49241        -0.716738      1.104095     -0.281921
      9.84801     16.62719     17.49241         1.104490     -0.703316     -0.290275
     20.15199     13.37281     12.50759        -1.099472      0.603331      0.374561
     13.37281     20.15199     12.50759         0.730044     -1.108498      0.267647
     13.26249     13.26249     12.54279        -0.108467     -0.114250     -0.164574
     15.00000     11.52498     15.00000        -0.013879     -0.246946      0.023641
     18.52479     15.00000     10.20639        -2.996462     -3.546375      2.798417
     18.52479     15.00000     19.79360        -0.417098      0.001263     -1.279971
     11.47521     15.00000     10.20640         0.394656     -0.005423      1.291710
     11.47521     15.00000     19.79360         0.410189      0.008201     -1.282421
     11.49535     11.49535     15.00000         0.825921      0.828133     -0.000967
     18.50465     18.50465     15.00000        -0.836524     -0.819458      0.033362
     18.50465     11.49535     15.00000        -0.815209      0.837632     -0.008410
     11.49535     18.50465     15.00000         0.827537     -0.835298      0.003339
     15.00000     15.00000     10.04368        -0.085209     -0.026126      1.177554
     15.00000     15.00000     19.95633         0.002555      0.001601     -1.176073
      9.84801     13.37281     17.49241         1.104910      0.707920     -0.297693
     16.62719     20.15199     17.49241        -0.713333     -1.112756     -0.283635
     16.73751     13.26249     17.45721         0.101492     -0.114192      0.165357
     13.26249     16.73751     12.54279        -0.108496      0.120472     -0.154354
     13.26249     13.26249     17.45721        -0.114146     -0.110013      0.156169
     20.15199     13.37281     17.49241        -1.104017      0.702596     -0.297866
     13.37281     20.15199     17.49241         0.705329     -1.109097     -0.278309
     16.73751     16.73751     12.54279        -0.001073      0.120909     -0.048990
     11.52498     15.00000     15.00000        -0.218625     -0.005543     -0.003266
     18.47502     15.00000     15.00000         0.221724     -0.013968      0.015831
     15.00000     18.52480     10.20639        -0.082010     -0.376489      1.302869
     15.00000     18.52480     19.79360         0.003909     -0.408142     -1.282274
     15.00000     15.00000     15.00000         0.016327      0.006299     -0.010628
     13.26249     16.73751     17.45721        -0.105587      0.111512      0.153929
     16.73751     16.73751     17.45721         0.113956      0.114765      0.157286
     15.00000     18.47502     15.00000         0.000903      0.224570     -0.003429
     19.49171     16.34637      9.75257        -2.619890      2.550645      3.776483
     20.21168     16.56217      8.91147         5.135669      1.735404     -5.265989
 -----------------------------------------------------------------------------------
    total drift:                                0.003765      0.007864      0.002407


--------------------------------------------------------------------------------------------------------



  FREE ENERGIE OF THE ION-ELECTRON SYSTEM (eV)
  ---------------------------------------------------
  free  energy   TOTEN  =      -175.00861634 eV

  energy  without entropy=     -174.92403930  energy(sigma->0) =     -174.98747208
 


--------------------------------------------------------------------------------------------------------


    POTLOK:  cpu time   13.1775: real time   13.1775


--------------------------------------------------------------------------------------------------------


     LOOP+:  cpu time17148.0221: real time17148.5029
    4ORBIT:  cpu time    0.0000: real time    0.0000

 total amount of memory used by VASP MPI-rank0  5486941. kBytes
=======================================================================

   base      :      30000. kBytes
   nonlr-proj:      17126. kBytes
   fftplans  :     924480. kBytes
   grid      :    1872000. kBytes
   one-center:        886. kBytes
   wavefun   :    2642449. kBytes
 
  
  
 General timing and accounting informations for this job:
 ========================================================
  
                  Total CPU time used (sec):    17216.406
                            User time (sec):    16288.101
                          System time (sec):      928.305
                         Elapsed time (sec):    17216.922
  
                   Maximum memory used (kb):     7178872.
                   Average memory used (kb):           0.
  
                          Minor page faults:    825924503
                          Major page faults:            0
                 Voluntary context switches:          616
