<?xml version="1.0" encoding="ISO-8859-1"?>
<modeling>
 <generator>
  <i name="program" type="string">vasp </i>
  <i name="version" type="string">5.4.4.18Apr17-6-g9f103f2a35  </i>
  <i name="subversion" type="string">(build Sep 03 2018 23:53:05) complex            parallel </i>
  <i name="platform" type="string">LinuxIFC </i>
  <i name="date" type="string">2021 12 02 </i>
  <i name="time" type="string">05:57:31 </i>
 </generator>
 <incar>
  <i type="string" name="SYSTEM"> 6_Pd100_top_free_z(O)</i>
  <i type="int" name="ISTART">     0</i>
  <i type="string" name="PREC">normal   			! encut=max(enmax), ngx,y,z</i>
  <i type="string" name="ALGO"> Fast     			! Mix RMM-DIIS and Dav</i>
  <i type="logical" name="ADDGRID"> F  </i>
  <i type="int" name="ISPIN">     1</i>
  <i type="int" name="ICHARG">     2</i>
  <i type="int" name="NELM">   100</i>
  <i type="int" name="NELMIN">     6</i>
  <i type="int" name="IBRION">     2</i>
  <i name="EDIFF">      0.00010000</i>
  <i name="EDIFFG">     -0.05000000</i>
  <i type="int" name="NSW">     0</i>
  <i type="int" name="ISIF">     2</i>
  <i type="int" name="ISYM">     2</i>
  <i name="ENCUT">    400.00000000</i>
  <i type="string" name="LREAL"> Auto     			! Auto or A projection done</i>
  <i type="int" name="ISMEAR">     2</i>
  <i name="SIGMA">      0.20000000</i>
  <i type="logical" name="LWAVE"> F  </i>
  <i type="logical" name="LCHARG"> F  </i>
  <v type="int" name="KPOINT_BSE">    -1     0     0     0</v>
  <i type="int" name="MAXMEM"> 10000</i>
  <i type="int" name="NELM">   100</i>
  <i type="string" name="GGA"> RP         			! Revised PBE</i>
 </incar>
 <structure name="primitive_cell" >
  <crystal>
   <varray name="basis" >
    <v>      30.00000000       0.00000000       0.00000000 </v>
    <v>       0.00000000      30.00000000       0.00000000 </v>
    <v>       0.00000000       0.00000000      30.00000000 </v>
   </varray>
   <i name="volume">  27000.00000000 </i>
   <varray name="rec_basis" >
    <v>       0.03333333       0.00000000       0.00000000 </v>
    <v>       0.00000000       0.03333333       0.00000000 </v>
    <v>       0.00000000       0.00000000       0.03333333 </v>
   </varray>
  </crystal>
  <varray name="positions" >
   <v>       0.44576020       0.32826710       0.41691983 </v>
   <v>      -0.44576020       0.32826710       0.41691983 </v>
   <v>      -0.50000000       0.38250690       0.34021317 </v>
   <v>      -0.50000000       0.27609440      -0.50000000 </v>
   <v>       0.38804720       0.38804720       0.34167483 </v>
   <v>      -0.50000000       0.38416601      -0.50000000 </v>
   <v>       0.44208300       0.44208300       0.41809300 </v>
   <v>       0.38317830       0.38317830      -0.50000000 </v>
   <v>      -0.44208300       0.44208300       0.41809300 </v>
   <v>       0.44576020       0.32826710      -0.41691977 </v>
   <v>       0.32826705       0.44576024       0.41691983 </v>
   <v>      -0.38804720       0.38804720       0.34167483 </v>
   <v>      -0.38317830       0.38317830      -0.50000000 </v>
   <v>      -0.50000000      -0.50000000       0.33478917 </v>
   <v>      -0.50000000      -0.50000000      -0.50000000 </v>
   <v>      -0.44576020       0.32826710      -0.41691977 </v>
   <v>       0.38250685      -0.49999995       0.34021317 </v>
   <v>       0.44208300       0.44208300      -0.41809297 </v>
   <v>       0.38416599      -0.49999998      -0.50000000 </v>
   <v>      -0.44208300       0.44208300      -0.41809297 </v>
   <v>       0.44208298      -0.44208298       0.41809300 </v>
   <v>       0.32826705       0.44576024      -0.41691977 </v>
   <v>      -0.50000000       0.38250690      -0.34021320 </v>
   <v>       0.32826712      -0.44576022       0.41691983 </v>
   <v>      -0.38250685      -0.49999995       0.34021317 </v>
   <v>      -0.32826705       0.44576024       0.41691983 </v>
   <v>       0.27609443       0.49999998      -0.50000000 </v>
   <v>       0.38804720       0.38804720      -0.34167487 </v>
   <v>      -0.38416599      -0.49999998      -0.50000000 </v>
   <v>      -0.44208298      -0.44208298       0.41809300 </v>
   <v>       0.44208298      -0.44208298      -0.41809297 </v>
   <v>      -0.38804720       0.38804720      -0.34167487 </v>
   <v>       0.38804722      -0.38804722       0.34167483 </v>
   <v>       0.38250685      -0.49999995      -0.34021320 </v>
   <v>       0.32826712      -0.44576022      -0.41691977 </v>
   <v>      -0.32826705       0.44576024      -0.41691977 </v>
   <v>       0.50000000      -0.38250681       0.34021317 </v>
   <v>      -0.50000000      -0.38416596      -0.50000000 </v>
   <v>      -0.44208298      -0.44208298      -0.41809297 </v>
   <v>      -0.50000000      -0.50000000      -0.33478913 </v>
   <v>       0.38317828      -0.38317828      -0.50000000 </v>
   <v>      -0.32826712      -0.44576022       0.41691983 </v>
   <v>      -0.27609443       0.49999998      -0.50000000 </v>
   <v>      -0.38804722      -0.38804722       0.34167483 </v>
   <v>      -0.38250685      -0.49999995      -0.34021320 </v>
   <v>       0.44576027      -0.32826707       0.41691983 </v>
   <v>      -0.38317828      -0.38317828      -0.50000000 </v>
   <v>      -0.47904470       0.49227320      -0.28072390 </v>
   <v>      -0.32826712      -0.44576022      -0.41691977 </v>
   <v>      -0.44576027      -0.32826707       0.41691983 </v>
   <v>       0.38804722      -0.38804722      -0.34167487 </v>
   <v>      -0.50000000      -0.38250681      -0.34021320 </v>
   <v>       0.44576027      -0.32826707      -0.41691977 </v>
   <v>      -0.47546993       0.49095507      -0.24331743 </v>
   <v>      -0.44576027      -0.32826707      -0.41691977 </v>
   <v>      -0.50000000      -0.27609445       0.50000000 </v>
   <v>      -0.38804722      -0.38804722      -0.34167487 </v>
  </varray>
 </structure>
 <varray name="primitive_index" >
  <v type="int" >        1 </v>
  <v type="int" >        3 </v>
  <v type="int" >        5 </v>
  <v type="int" >        7 </v>
  <v type="int" >       15 </v>
  <v type="int" >       29 </v>
  <v type="int" >       28 </v>
  <v type="int" >       34 </v>
  <v type="int" >       21 </v>
  <v type="int" >       19 </v>
  <v type="int" >       22 </v>
  <v type="int" >       11 </v>
  <v type="int" >       36 </v>
  <v type="int" >       38 </v>
  <v type="int" >       52 </v>
  <v type="int" >       24 </v>
  <v type="int" >       32 </v>
  <v type="int" >       44 </v>
  <v type="int" >       48 </v>
  <v type="int" >       42 </v>
  <v type="int" >       43 </v>
  <v type="int" >       40 </v>
  <v type="int" >        6 </v>
  <v type="int" >        4 </v>
  <v type="int" >       30 </v>
  <v type="int" >       26 </v>
  <v type="int" >        8 </v>
  <v type="int" >       16 </v>
  <v type="int" >       49 </v>
  <v type="int" >       47 </v>
  <v type="int" >       53 </v>
  <v type="int" >       12 </v>
  <v type="int" >       13 </v>
  <v type="int" >       33 </v>
  <v type="int" >       25 </v>
  <v type="int" >       45 </v>
  <v type="int" >       50 </v>
  <v type="int" >       55 </v>
  <v type="int" >       54 </v>
  <v type="int" >       39 </v>
  <v type="int" >       37 </v>
  <v type="int" >        2 </v>
  <v type="int" >        9 </v>
  <v type="int" >       17 </v>
  <v type="int" >       31 </v>
  <v type="int" >       27 </v>
  <v type="int" >       35 </v>
  <v type="int" >       56 </v>
  <v type="int" >       20 </v>
  <v type="int" >       23 </v>
  <v type="int" >       14 </v>
  <v type="int" >       51 </v>
  <v type="int" >       46 </v>
  <v type="int" >       57 </v>
  <v type="int" >       41 </v>
  <v type="int" >       10 </v>
  <v type="int" >       18 </v>
 </varray>
 <kpoints>
  <generation param="Monkhorst-Pack">
   <v type="int" name="divisions">       1        1        1 </v>
   <v name="usershift">      0.00000000       0.00000000       0.00000000 </v>
   <v name="genvec1">      1.00000000       0.00000000       0.00000000 </v>
   <v name="genvec2">      0.00000000       1.00000000       0.00000000 </v>
   <v name="genvec3">      0.00000000       0.00000000       1.00000000 </v>
   <v name="shift">      0.00000000       0.00000000       0.00000000 </v>
  </generation>
  <varray name="kpointlist" >
   <v>       0.00000000       0.00000000       0.00000000 </v>
  </varray>
  <varray name="weights" >
   <v>       1.00000000 </v>
  </varray>
 </kpoints>
 <parameters>
  <separator name="general" >
   <i type="string" name="SYSTEM">6_Pd100_top_free_z(O)</i>
   <i type="logical" name="LCOMPAT"> F  </i>
  </separator>
  <separator name="electronic" >
   <i type="string" name="PREC">normal</i>
   <i name="ENMAX">    400.00000000</i>
   <i name="ENAUG">    644.87300000</i>
   <i name="EDIFF">      0.00010000</i>
   <i type="int" name="IALGO">    68</i>
   <i type="int" name="IWAVPR">    10</i>
   <i type="int" name="NBANDS">   336</i>
   <i name="NELECT">    560.00000000</i>
   <i type="int" name="TURBO">     0</i>
   <i type="int" name="IRESTART">     0</i>
   <i type="int" name="NREBOOT">     0</i>
   <i type="int" name="NMIN">     0</i>
   <i name="EREF">      0.00000000</i>
   <separator name="electronic smearing" >
    <i type="int" name="ISMEAR">     2</i>
    <i name="SIGMA">      0.20000000</i>
    <i name="KSPACING">      0.50000000</i>
    <i type="logical" name="KGAMMA"> T  </i>
   </separator>
   <separator name="electronic projectors" >
    <i type="logical" name="LREAL"> T  </i>
    <v name="ROPT">     -0.00050000     -0.00050000     -0.00050000</v>
    <i type="int" name="LMAXPAW">  -100</i>
    <i type="int" name="LMAXMIX">     2</i>
    <i type="logical" name="NLSPLINE"> F  </i>
   </separator>
   <separator name="electronic startup" >
    <i type="int" name="ISTART">     0</i>
    <i type="int" name="ICHARG">     2</i>
    <i type="int" name="INIWAV">     1</i>
   </separator>
   <separator name="electronic spin" >
    <i type="int" name="ISPIN">     1</i>
    <i type="logical" name="LNONCOLLINEAR"> F  </i>
    <v name="MAGMOM">      1.00000000      1.00000000      1.00000000      1.00000000      1.00000000      1.00000000      1.00000000      1.00000000      1.00000000      1.00000000      1.00000000      1.00000000      1.00000000      1.00000000      1.00000000      1.00000000      1.00000000      1.00000000      1.00000000      1.00000000
      1.00000000      1.00000000      1.00000000      1.00000000      1.00000000      1.00000000      1.00000000      1.00000000      1.00000000      1.00000000      1.00000000      1.00000000      1.00000000      1.00000000      1.00000000      1.00000000      1.00000000      1.00000000      1.00000000      1.00000000
      1.00000000      1.00000000      1.00000000      1.00000000      1.00000000      1.00000000      1.00000000      1.00000000      1.00000000      1.00000000      1.00000000      1.00000000      1.00000000      1.00000000      1.00000000      1.00000000      1.00000000</v>
    <i name="NUPDOWN">     -1.00000000</i>
    <i type="logical" name="LSORBIT"> F  </i>
    <v name="SAXIS">      0.00000000      0.00000000      1.00000000</v>
    <i type="logical" name="LSPIRAL"> F  </i>
    <v name="QSPIRAL">      0.00000000      0.00000000      0.00000000</v>
    <i type="logical" name="LZEROZ"> F  </i>
   </separator>
   <separator name="electronic exchange-correlation" >
    <i type="logical" name="LASPH"> F  </i>
    <i type="logical" name="LMETAGGA"> F  </i>
   </separator>
   <separator name="electronic convergence" >
    <i type="int" name="NELM">   100</i>
    <i type="int" name="NELMDL">    -5</i>
    <i type="int" name="NELMIN">     6</i>
    <i name="ENINI">    400.00000000</i>
    <separator name="electronic convergence detail" >
     <i type="logical" name="LDIAG"> T  </i>
     <i type="logical" name="LSUBROT"> F  </i>
     <i name="WEIMIN">      0.00000000</i>
     <i name="EBREAK">      0.00000007</i>
     <i name="DEPER">      0.30000000</i>
     <i type="int" name="NRMM">     4</i>
     <i name="TIME">      0.40000000</i>
    </separator>
   </separator>
   <separator name="electronic mixer" >
    <i name="AMIX">      0.40000000</i>
    <i name="BMIX">      1.00000000</i>
    <i name="AMIN">      0.10000000</i>
    <i name="AMIX_MAG">      1.60000000</i>
    <i name="BMIX_MAG">      1.00000000</i>
    <separator name="electronic mixer details" >
     <i type="int" name="IMIX">     4</i>
     <i type="logical" name="MIXFIRST"> F  </i>
     <i type="int" name="MAXMIX">   -45</i>
     <i name="WC">    100.00000000</i>
     <i type="int" name="INIMIX">     1</i>
     <i type="int" name="MIXPRE">     1</i>
     <i type="int" name="MREMOVE">     5</i>
    </separator>
   </separator>
   <separator name="electronic dipolcorrection" >
    <i type="logical" name="LDIPOL"> F  </i>
    <i type="logical" name="LMONO"> F  </i>
    <i type="int" name="IDIPOL">     0</i>
    <i name="EPSILON">      1.00000000</i>
    <v name="DIPOL">   -100.00000000   -100.00000000   -100.00000000</v>
    <i name="EFIELD">      0.00000000</i>
   </separator>
  </separator>
  <separator name="grids" >
   <i type="int" name="NGX">   150</i>
   <i type="int" name="NGY">   150</i>
   <i type="int" name="NGZ">   150</i>
   <i type="int" name="NGXF">   300</i>
   <i type="int" name="NGYF">   300</i>
   <i type="int" name="NGZF">   300</i>
   <i type="logical" name="ADDGRID"> F  </i>
  </separator>
  <separator name="ionic" >
   <i type="int" name="NSW">     0</i>
   <i type="int" name="IBRION">    -1</i>
   <i type="int" name="MDALGO">     0</i>
   <i type="int" name="ISIF">     2</i>
   <i name="PSTRESS">      0.00000000</i>
   <i name="EDIFFG">     -0.05000000</i>
   <i type="int" name="NFREE">     1</i>
   <i name="POTIM">      0.50000000</i>
   <i name="SMASS">     -3.00000000</i>
   <i name="SCALEE">      1.00000000</i>
  </separator>
  <separator name="ionic md" >
   <i name="TEBEG">      0.00010000</i>
   <i name="TEEND">      0.00010000</i>
   <i type="int" name="NBLOCK">     1</i>
   <i type="int" name="KBLOCK">     1</i>
   <i type="int" name="NPACO">   256</i>
   <i name="APACO">     16.00000000</i>
  </separator>
  <separator name="symmetry" >
   <i type="int" name="ISYM">     2</i>
   <i name="SYMPREC">      0.00001000</i>
  </separator>
  <separator name="dos" >
   <i type="int" name="LORBIT">     0</i>
   <v name="RWIGS">     -1.00000000     -1.00000000     -1.00000000</v>
   <i type="int" name="NEDOS">   301</i>
   <i name="EMIN">     10.00000000</i>
   <i name="EMAX">    -10.00000000</i>
   <i name="EFERMI">      0.00000000</i>
  </separator>
  <separator name="writing" >
   <i type="int" name="NWRITE">     2</i>
   <i type="logical" name="LWAVE"> F  </i>
   <i type="logical" name="LDOWNSAMPLE"> F  </i>
   <i type="logical" name="LCHARG"> F  </i>
   <i type="logical" name="LPARD"> F  </i>
   <i type="logical" name="LVTOT"> F  </i>
   <i type="logical" name="LVHAR"> F  </i>
   <i type="logical" name="LELF"> F  </i>
   <i type="logical" name="LOPTICS"> F  </i>
   <v name="STM">      0.00000000      0.00000000      0.00000000      0.00000000      0.00000000      0.00000000      0.00000000</v>
  </separator>
  <separator name="performance" >
   <i type="int" name="NPAR">     1</i>
   <i type="int" name="NSIM">     4</i>
   <i type="int" name="NBLK">    -1</i>
   <i type="logical" name="LPLANE"> T  </i>
   <i type="logical" name="LSCALAPACK"> T  </i>
   <i type="logical" name="LSCAAWARE"> F  </i>
   <i type="logical" name="LSCALU"> F  </i>
   <i type="logical" name="LASYNC"> F  </i>
   <i type="logical" name="LORBITALREAL"> F  </i>
  </separator>
  <separator name="miscellaneous" >
   <i type="int" name="IDIOT">     3</i>
   <i type="int" name="ISPECIAL">     0</i>
   <i type="logical" name="LMUSIC"> F  </i>
   <v name="POMASS">    106.42000000     12.01100000     16.00000000</v>
   <v name="DARWINR">      0.00000000      0.00000000      0.00000000</v>
   <v name="DARWINV">      1.00000000      1.00000000      1.00000000</v>
   <i type="logical" name="LCORR"> T  </i>
  </separator>
  <i type="logical" name="GGA_COMPAT"> T  </i>
  <i type="logical" name="LBERRY"> F  </i>
  <i type="int" name="ICORELEVEL">     0</i>
  <i type="logical" name="LDAU"> F  </i>
  <i type="int" name="I_CONSTRAINED_M">     0</i>
  <separator name="electronic exchange-correlation" >
   <i type="string" name="GGA">RP</i>
   <i type="int" name="VOSKOWN">     0</i>
   <i type="logical" name="LHFCALC"> F  </i>
   <i type="string" name="PRECFOCK"></i>
   <i type="logical" name="LSYMGRAD"> F  </i>
   <i type="logical" name="LHFONE"> F  </i>
   <i type="logical" name="LRHFCALC"> F  </i>
   <i type="logical" name="LTHOMAS"> F  </i>
   <i type="logical" name="LMODELHF"> F  </i>
   <i name="ENCUT4O">     -1.00000000</i>
   <i type="int" name="EXXOEP">     0</i>
   <i type="int" name="FOURORBIT">     0</i>
   <i name="AEXX">      0.00000000</i>
   <i name="HFALPHA">      0.00000000</i>
   <i name="MCALPHA">      0.00000000</i>
   <i name="ALDAX">      1.00000000</i>
   <i name="AGGAX">      1.00000000</i>
   <i name="ALDAC">      1.00000000</i>
   <i name="AGGAC">      1.00000000</i>
   <i type="int" name="NKREDX">     1</i>
   <i type="int" name="NKREDY">     1</i>
   <i type="int" name="NKREDZ">     1</i>
   <i type="logical" name="SHIFTRED"> F  </i>
   <i type="logical" name="ODDONLY"> F  </i>
   <i type="logical" name="EVENONLY"> F  </i>
   <i type="int" name="LMAXFOCK">     0</i>
   <i type="int" name="NMAXFOCKAE">     0</i>
   <i type="logical" name="LFOCKAEDFT"> F  </i>
   <i name="HFSCREEN">      0.00000000</i>
   <i name="HFSCREENC">      0.00000000</i>
   <i type="int" name="NBANDSGWLOW">     0</i>
  </separator>
  <separator name="vdW DFT" >
   <i type="logical" name="LUSE_VDW"> F  </i>
   <i name="Zab_VDW">     -0.84910000</i>
   <i name="PARAM1">      0.12340000</i>
   <i name="PARAM2">      1.00000000</i>
   <i name="PARAM3">      0.00000000</i>
  </separator>
  <separator name="model GW" >
   <i type="int" name="MODEL_GW">     0</i>
   <i name="MODEL_EPS0">    284.21052632</i>
   <i name="MODEL_ALPHA">      1.00000000</i>
  </separator>
  <separator name="linear response parameters" >
   <i type="logical" name="LEPSILON"> F  </i>
   <i type="logical" name="LRPA"> F  </i>
   <i type="logical" name="LNABLA"> F  </i>
   <i type="logical" name="LVEL"> F  </i>
   <i type="int" name="KINTER">     0</i>
   <i name="CSHIFT">      0.10000000</i>
   <i name="OMEGAMAX">     -1.00000000</i>
   <i name="DEG_THRESHOLD">      0.00200000</i>
   <i name="RTIME">     -0.10000000</i>
   <i name="WPLASMAI">      0.00000000</i>
   <v name="DFIELD">      0.00000000      0.00000000      0.00000000</v>
   <v name="WPLASMA">      0.00000000      0.00000000      0.00000000      0.00000000      0.00000000      0.00000000      0.00000000      0.00000000      0.00000000</v>
  </separator>
  <separator name="orbital magnetization" >
   <i type="logical" name="NUCIND"> F  </i>
   <v name="MAGPOS">      0.00000000      0.00000000      0.00000000</v>
   <i type="logical" name="LNICSALL"> T  </i>
   <i type="logical" name="ORBITALMAG"> F  </i>
   <i type="logical" name="LMAGBLOCH"> F  </i>
   <i type="logical" name="LCHIMAG"> F  </i>
   <i type="logical" name="LGAUGE"> T  </i>
   <i type="int" name="MAGATOM">     0</i>
   <v name="MAGDIPOL">      0.00000000      0.00000000      0.00000000</v>
   <v name="AVECCONST">      0.00000000      0.00000000      0.00000000</v>
  </separator>
  <separator name="response functions" >
   <i type="logical" name="LADDER"> F  </i>
   <i type="logical" name="LRPAFORCE"> F  </i>
   <i type="logical" name="LFXC"> F  </i>
   <i type="logical" name="LHARTREE"> T  </i>
   <i type="int" name="IBSE">     0</i>
   <v type="int" name="KPOINT">    -1     0     0     0</v>
   <i type="logical" name="LTCTE"> F  </i>
   <i type="logical" name="LTETE"> F  </i>
   <i type="logical" name="LTRIPLET"> F  </i>
   <i type="logical" name="LFXCEPS"> F  </i>
   <i type="logical" name="LFXHEG"> F  </i>
   <i type="int" name="NATURALO">     2</i>
   <i type="logical" name="L2ORDER"> F  </i>
   <i type="logical" name="LMP2LT"> F  </i>
   <i type="logical" name="LUSEW"> F  </i>
   <i name="ENCUTGW">     -2.00000000</i>
   <i name="ENCUTGWSOFT">     -2.00000000</i>
   <i name="ENCUTLF">     -1.00000000</i>
   <i type="int" name="LMAXMP2">    -1</i>
   <i name="SCISSOR">      0.00000000</i>
   <i type="int" name="NOMEGA">     0</i>
   <i type="int" name="NOMEGAR">     0</i>
   <i type="int" name="NBANDSGW">    -1</i>
   <i type="int" name="NBANDSO">    -1</i>
   <i type="int" name="NBANDSV">    -1</i>
   <i type="int" name="NELM">   100</i>
   <i type="int" name="NELMHF">     1</i>
   <i type="int" name="DIM">     3</i>
   <i type="int" name="ANTIRES">     0</i>
   <i name="OMEGAMAX">    -30.00000000</i>
   <i name="OMEGAMIN">    -30.00000000</i>
   <i name="OMEGATL">   -200.00000000</i>
   <i type="int" name="OMEGAGRID">   140</i>
   <i name="CSHIFT">     -0.10000000</i>
   <i type="logical" name="SELFENERGY"> F  </i>
   <i type="logical" name="LSPECTRAL"> F  </i>
   <i type="logical" name="LSPECTRALGW"> F  </i>
   <i type="logical" name="LSINGLES"> F  </i>
   <i type="logical" name="LFERMIGW"> F  </i>
   <i type="logical" name="ODDONLYGW"> F  </i>
   <i type="logical" name="EVENONLYGW"> F  </i>
   <i type="int" name="NKREDLFX">     1</i>
   <i type="int" name="NKREDLFY">     1</i>
   <i type="int" name="NKREDLFZ">     1</i>
   <i type="int" name="MAXMEM"> 10000</i>
   <i type="int" name="TELESCOPE">     0</i>
   <i type="int" name="TAUPAR">     1</i>
   <i type="int" name="OMEGAPAR">    -1</i>
   <i name="LAMBDA">      1.00000000</i>
  </separator>
  <separator name="External order field" >
   <i name="OFIELD_KAPPA">      0.00000000</i>
   <v name="OFIELD_K">      0.00000000      0.00000000      0.00000000</v>
   <i name="OFIELD_Q6_NEAR">      0.00000000</i>
   <i name="OFIELD_Q6_FAR">      0.00000000</i>
   <i name="OFIELD_A">      0.00000000</i>
  </separator>
 </parameters>
 <atominfo>
  <atoms>      57 </atoms>
  <types>       3 </types>
  <array name="atoms" >
   <dimension dim="1">ion</dimension>
   <field type="string">element</field>
   <field type="int">atomtype</field>
   <set>
    <rc><c>Pd</c><c>   1</c></rc>
    <rc><c>Pd</c><c>   1</c></rc>
    <rc><c>Pd</c><c>   1</c></rc>
    <rc><c>Pd</c><c>   1</c></rc>
    <rc><c>Pd</c><c>   1</c></rc>
    <rc><c>Pd</c><c>   1</c></rc>
    <rc><c>Pd</c><c>   1</c></rc>
    <rc><c>Pd</c><c>   1</c></rc>
    <rc><c>Pd</c><c>   1</c></rc>
    <rc><c>Pd</c><c>   1</c></rc>
    <rc><c>Pd</c><c>   1</c></rc>
    <rc><c>Pd</c><c>   1</c></rc>
    <rc><c>Pd</c><c>   1</c></rc>
    <rc><c>Pd</c><c>   1</c></rc>
    <rc><c>Pd</c><c>   1</c></rc>
    <rc><c>Pd</c><c>   1</c></rc>
    <rc><c>Pd</c><c>   1</c></rc>
    <rc><c>Pd</c><c>   1</c></rc>
    <rc><c>Pd</c><c>   1</c></rc>
    <rc><c>Pd</c><c>   1</c></rc>
    <rc><c>Pd</c><c>   1</c></rc>
    <rc><c>Pd</c><c>   1</c></rc>
    <rc><c>Pd</c><c>   1</c></rc>
    <rc><c>Pd</c><c>   1</c></rc>
    <rc><c>Pd</c><c>   1</c></rc>
    <rc><c>Pd</c><c>   1</c></rc>
    <rc><c>Pd</c><c>   1</c></rc>
    <rc><c>Pd</c><c>   1</c></rc>
    <rc><c>Pd</c><c>   1</c></rc>
    <rc><c>Pd</c><c>   1</c></rc>
    <rc><c>Pd</c><c>   1</c></rc>
    <rc><c>Pd</c><c>   1</c></rc>
    <rc><c>Pd</c><c>   1</c></rc>
    <rc><c>Pd</c><c>   1</c></rc>
    <rc><c>Pd</c><c>   1</c></rc>
    <rc><c>Pd</c><c>   1</c></rc>
    <rc><c>Pd</c><c>   1</c></rc>
    <rc><c>Pd</c><c>   1</c></rc>
    <rc><c>Pd</c><c>   1</c></rc>
    <rc><c>Pd</c><c>   1</c></rc>
    <rc><c>Pd</c><c>   1</c></rc>
    <rc><c>Pd</c><c>   1</c></rc>
    <rc><c>Pd</c><c>   1</c></rc>
    <rc><c>Pd</c><c>   1</c></rc>
    <rc><c>Pd</c><c>   1</c></rc>
    <rc><c>Pd</c><c>   1</c></rc>
    <rc><c>Pd</c><c>   1</c></rc>
    <rc><c>Pd</c><c>   1</c></rc>
    <rc><c>Pd</c><c>   1</c></rc>
    <rc><c>Pd</c><c>   1</c></rc>
    <rc><c>Pd</c><c>   1</c></rc>
    <rc><c>Pd</c><c>   1</c></rc>
    <rc><c>Pd</c><c>   1</c></rc>
    <rc><c>Pd</c><c>   1</c></rc>
    <rc><c>Pd</c><c>   1</c></rc>
    <rc><c>C </c><c>   2</c></rc>
    <rc><c>O </c><c>   3</c></rc>
   </set>
  </array>
  <array name="atomtypes" >
   <dimension dim="1">type</dimension>
   <field type="int">atomspertype</field>
   <field type="string">element</field>
   <field>mass</field>
   <field>valence</field>
   <field type="string">pseudopotential</field>
   <set>
    <rc><c>  55</c><c>Pd</c><c>    106.42000000</c><c>     10.00000000</c><c>  PAW_PBE Pd 04Jan2005                  </c></rc>
    <rc><c>   1</c><c>C </c><c>     12.01100000</c><c>      4.00000000</c><c>  PAW_PBE C 08Apr2002                   </c></rc>
    <rc><c>   1</c><c>O </c><c>     16.00000000</c><c>      6.00000000</c><c>  PAW_PBE O 08Apr2002                   </c></rc>
   </set>
  </array>
 </atominfo>
 <structure name="initialpos" >
  <crystal>
   <varray name="basis" >
    <v>      30.00000000       0.00000000       0.00000000 </v>
    <v>       0.00000000      30.00000000       0.00000000 </v>
    <v>       0.00000000       0.00000000      30.00000000 </v>
   </varray>
   <i name="volume">  27000.00000000 </i>
   <varray name="rec_basis" >
    <v>       0.03333333       0.00000000       0.00000000 </v>
    <v>       0.00000000       0.03333333       0.00000000 </v>
    <v>       0.00000000       0.00000000       0.03333333 </v>
   </varray>
  </crystal>
  <varray name="positions" >
   <v>       0.44576020       0.32826710       0.41691983 </v>
   <v>       0.67173288       0.55423978       0.41691983 </v>
   <v>       0.55423980       0.32826710       0.41691983 </v>
   <v>       0.32826712       0.55423978       0.41691983 </v>
   <v>       0.50000000       0.38250690       0.34021317 </v>
   <v>       0.50000000       0.38250690       0.65978680 </v>
   <v>       0.50000000       0.27609440       0.50000000 </v>
   <v>       0.27609443       0.49999998       0.50000000 </v>
   <v>       0.72390557       0.49999998       0.50000000 </v>
   <v>       0.50000000       0.72390555       0.50000000 </v>
   <v>       0.61195280       0.38804720       0.34167483 </v>
   <v>       0.61195280       0.38804720       0.65832513 </v>
   <v>       0.38804722       0.61195278       0.34167483 </v>
   <v>       0.38804722       0.61195278       0.65832513 </v>
   <v>       0.38804720       0.38804720       0.34167483 </v>
   <v>       0.38804720       0.38804720       0.65832513 </v>
   <v>       0.61195278       0.61195278       0.34167483 </v>
   <v>       0.61195278       0.61195278       0.65832513 </v>
   <v>       0.44576020       0.32826710       0.58308023 </v>
   <v>       0.67173288       0.55423978       0.58308023 </v>
   <v>       0.55791699       0.44208301       0.41809300 </v>
   <v>       0.32826705       0.44576024       0.41691983 </v>
   <v>       0.55423973       0.67173293       0.41691983 </v>
   <v>       0.55423980       0.32826710       0.58308023 </v>
   <v>       0.32826712       0.55423978       0.58308023 </v>
   <v>       0.67173295       0.44576024       0.41691983 </v>
   <v>       0.44576027       0.67173293       0.41691983 </v>
   <v>       0.44208301       0.44208301       0.41809300 </v>
   <v>       0.50000000       0.38416601       0.50000000 </v>
   <v>       0.61749315       0.50000005       0.34021317 </v>
   <v>       0.61749315       0.50000005       0.65978680 </v>
   <v>       0.38250685       0.50000005       0.34021317 </v>
   <v>       0.38250685       0.50000005       0.65978680 </v>
   <v>       0.38317830       0.38317830       0.50000000 </v>
   <v>       0.61682172       0.61682172       0.50000000 </v>
   <v>       0.61682170       0.38317830       0.50000000 </v>
   <v>       0.38317828       0.61682172       0.50000000 </v>
   <v>       0.50000000       0.50000000       0.33478917 </v>
   <v>       0.50000000       0.50000000       0.66521087 </v>
   <v>       0.32826705       0.44576024       0.58308023 </v>
   <v>       0.55423973       0.67173293       0.58308023 </v>
   <v>       0.55791699       0.44208301       0.58190703 </v>
   <v>       0.44208298       0.55791702       0.41809300 </v>
   <v>       0.44208301       0.44208301       0.58190703 </v>
   <v>       0.67173295       0.44576024       0.58308023 </v>
   <v>       0.44576027       0.67173293       0.58308023 </v>
   <v>       0.55791702       0.55791702       0.41809300 </v>
   <v>       0.38416599       0.50000002       0.50000000 </v>
   <v>       0.61583401       0.50000002       0.50000000 </v>
   <v>       0.50000000       0.61749319       0.34021317 </v>
   <v>       0.50000000       0.61749319       0.65978680 </v>
   <v>       0.50000000       0.50000000       0.50000000 </v>
   <v>       0.44208298       0.55791702       0.58190703 </v>
   <v>       0.55791702       0.55791702       0.58190703 </v>
   <v>       0.50000000       0.61583404       0.50000000 </v>
   <v>       0.52095530       0.49227320       0.71927610 </v>
   <v>       0.52453007       0.49095507       0.75668257 </v>
  </varray>
  <varray name="selective"  type="logical" >
   <v type="logical" >  F  F  F </v>
   <v type="logical" >  F  F  F </v>
   <v type="logical" >  F  F  F </v>
   <v type="logical" >  F  F  F </v>
   <v type="logical" >  F  F  F </v>
   <v type="logical" >  F  F  F </v>
   <v type="logical" >  F  F  F </v>
   <v type="logical" >  F  F  F </v>
   <v type="logical" >  F  F  F </v>
   <v type="logical" >  F  F  F </v>
   <v type="logical" >  F  F  F </v>
   <v type="logical" >  F  F  F </v>
   <v type="logical" >  F  F  F </v>
   <v type="logical" >  F  F  F </v>
   <v type="logical" >  F  F  F </v>
   <v type="logical" >  F  F  F </v>
   <v type="logical" >  F  F  F </v>
   <v type="logical" >  F  F  F </v>
   <v type="logical" >  F  F  F </v>
   <v type="logical" >  F  F  F </v>
   <v type="logical" >  F  F  F </v>
   <v type="logical" >  F  F  F </v>
   <v type="logical" >  F  F  F </v>
   <v type="logical" >  F  F  F </v>
   <v type="logical" >  F  F  F </v>
   <v type="logical" >  F  F  F </v>
   <v type="logical" >  F  F  F </v>
   <v type="logical" >  F  F  F </v>
   <v type="logical" >  F  F  F </v>
   <v type="logical" >  F  F  F </v>
   <v type="logical" >  F  F  F </v>
   <v type="logical" >  F  F  F </v>
   <v type="logical" >  F  F  F </v>
   <v type="logical" >  F  F  F </v>
   <v type="logical" >  F  F  F </v>
   <v type="logical" >  F  F  F </v>
   <v type="logical" >  F  F  F </v>
   <v type="logical" >  F  F  F </v>
   <v type="logical" >  F  F  F </v>
   <v type="logical" >  F  F  F </v>
   <v type="logical" >  F  F  F </v>
   <v type="logical" >  F  F  F </v>
   <v type="logical" >  F  F  F </v>
   <v type="logical" >  F  F  F </v>
   <v type="logical" >  F  F  F </v>
   <v type="logical" >  F  F  F </v>
   <v type="logical" >  F  F  F </v>
   <v type="logical" >  F  F  F </v>
   <v type="logical" >  F  F  F </v>
   <v type="logical" >  F  F  F </v>
   <v type="logical" >  F  F  F </v>
   <v type="logical" >  F  F  F </v>
   <v type="logical" >  F  F  F </v>
   <v type="logical" >  F  F  F </v>
   <v type="logical" >  F  F  F </v>
   <v type="logical" >  F  F  F </v>
   <v type="logical" >  F  F  F </v>
  </varray>
  <nose>
   <v>      -3.00000000       0.00000000       0.00010000       0.00010000 </v>
  </nose>
 </structure>
 <calculation>
  <scstep>
   <time name="dav">  353.51  353.59</time>
   <time name="total">  367.71  367.80</time>
   <energy>
    <i name="alphaZ">     75.25431677 </i>
    <i name="ewald"> 138909.87968802 </i>
    <i name="hartreedc">-182265.11522829 </i>
    <i name="XCdc">  -1702.69621013 </i>
    <i name="pawpsdc">  44873.02882129 </i>
    <i name="pawaedc"> -41398.84523641 </i>
    <i name="eentropy">     -0.01555808 </i>
    <i name="bandstr">    818.69315720 </i>
    <i name="atom">  45086.50549395 </i>
    <i name="e_fr_energy">   4396.68924431 </i>
    <i name="e_wo_entrp">   4396.70480239 </i>
    <i name="e_0_energy">   4396.69313383 </i>
   </energy>
  </scstep>
  <scstep>
   <time name="dav">  559.20  559.24</time>
   <time name="total">  559.20  559.24</time>
   <energy>
    <i name="e_fr_energy">   2009.92366431 </i>
    <i name="e_wo_entrp">   2009.94797738 </i>
    <i name="e_0_energy">   2009.92974258 </i>
   </energy>
  </scstep>
  <scstep>
   <time name="dav">  471.28  471.31</time>
   <time name="total">  471.28  471.31</time>
   <energy>
    <i name="e_fr_energy">    233.35515069 </i>
    <i name="e_wo_entrp">    233.35878617 </i>
    <i name="e_0_energy">    233.35605956 </i>
   </energy>
  </scstep>
  <scstep>
   <time name="dav">  397.79  397.83</time>
   <time name="total">  397.79  397.84</time>
   <energy>
    <i name="e_fr_energy">   -135.65778785 </i>
    <i name="e_wo_entrp">   -135.68014415 </i>
    <i name="e_0_energy">   -135.66337692 </i>
   </energy>
  </scstep>
  <scstep>
   <time name="dav">  486.76  486.80</time>
   <time name="total">  511.67  511.70</time>
   <energy>
    <i name="e_fr_energy">   -180.63975219 </i>
    <i name="e_wo_entrp">   -181.14186596 </i>
    <i name="e_0_energy">   -180.76528064 </i>
   </energy>
  </scstep>
  <scstep>
   <time name="diag">   65.94   65.95</time>
   <time name="diis">  183.37  183.38</time>
   <time name="orth">   13.34   13.35</time>
   <time name="total">  301.23  301.26</time>
   <energy>
    <i name="e_fr_energy">   -180.60917501 </i>
    <i name="e_wo_entrp">   -180.35606290 </i>
    <i name="e_0_energy">   -180.54589699 </i>
   </energy>
  </scstep>
  <scstep>
   <time name="diag">   66.65   66.66</time>
   <time name="diis">  207.16  207.18</time>
   <time name="orth">   13.07   13.07</time>
   <time name="total">  325.05  325.08</time>
   <energy>
    <i name="e_fr_energy">   -182.40865870 </i>
    <i name="e_wo_entrp">   -182.32397739 </i>
    <i name="e_0_energy">   -182.38748837 </i>
   </energy>
  </scstep>
  <scstep>
   <time name="diag">   65.98   65.98</time>
   <time name="diis">  186.64  186.66</time>
   <time name="orth">   13.07   13.07</time>
   <time name="total">  303.60  303.63</time>
   <energy>
    <i name="e_fr_energy">   -185.68711156 </i>
    <i name="e_wo_entrp">   -185.63754080 </i>
    <i name="e_0_energy">   -185.67471887 </i>
   </energy>
  </scstep>
  <scstep>
   <time name="diag">   65.88   65.89</time>
   <time name="diis">  192.24  192.25</time>
   <time name="orth">   13.06   13.06</time>
   <time name="total">  309.09  309.11</time>
   <energy>
    <i name="e_fr_energy">   -182.81434908 </i>
    <i name="e_wo_entrp">   -182.62320778 </i>
    <i name="e_0_energy">   -182.76656375 </i>
   </energy>
  </scstep>
  <scstep>
   <time name="diag">   65.72   65.73</time>
   <time name="diis">  180.67  180.68</time>
   <time name="orth">   13.21   13.21</time>
   <time name="total">  297.74  297.76</time>
   <energy>
    <i name="e_fr_energy">   -179.81003728 </i>
    <i name="e_wo_entrp">   -179.73820458 </i>
    <i name="e_0_energy">   -179.79207910 </i>
   </energy>
  </scstep>
  <scstep>
   <time name="diag">   66.35   66.36</time>
   <time name="diis">  187.95  187.98</time>
   <time name="orth">   13.65   13.65</time>
   <time name="total">  307.47  307.51</time>
   <energy>
    <i name="e_fr_energy">   -178.96185300 </i>
    <i name="e_wo_entrp">   -179.03194554 </i>
    <i name="e_0_energy">   -178.97937613 </i>
   </energy>
  </scstep>
  <scstep>
   <time name="diag">   68.67   68.67</time>
   <time name="diis">  180.89  180.91</time>
   <time name="orth">   13.57   13.58</time>
   <time name="total">  302.89  302.93</time>
   <energy>
    <i name="e_fr_energy">   -178.13131235 </i>
    <i name="e_wo_entrp">   -178.06313239 </i>
    <i name="e_0_energy">   -178.11426736 </i>
   </energy>
  </scstep>
  <scstep>
   <time name="diag">   68.58   68.59</time>
   <time name="diis">  180.99  181.00</time>
   <time name="orth">   13.51   13.51</time>
   <time name="total">  302.70  302.74</time>
   <energy>
    <i name="e_fr_energy">   -177.70058415 </i>
    <i name="e_wo_entrp">   -177.70682275 </i>
    <i name="e_0_energy">   -177.70214380 </i>
   </energy>
  </scstep>
  <scstep>
   <time name="diag">   68.90   68.90</time>
   <time name="diis">  180.88  180.88</time>
   <time name="orth">   13.39   13.39</time>
   <time name="total">  302.46  302.46</time>
   <energy>
    <i name="e_fr_energy">   -177.25232288 </i>
    <i name="e_wo_entrp">   -177.29564846 </i>
    <i name="e_0_energy">   -177.26315428 </i>
   </energy>
  </scstep>
  <scstep>
   <time name="diag">   69.07   69.08</time>
   <time name="diis">  184.10  184.10</time>
   <time name="orth">   13.45   13.45</time>
   <time name="total">  305.94  305.95</time>
   <energy>
    <i name="e_fr_energy">   -176.94728912 </i>
    <i name="e_wo_entrp">   -177.01107060 </i>
    <i name="e_0_energy">   -176.96323449 </i>
   </energy>
  </scstep>
  <scstep>
   <time name="diag">   69.05   69.04</time>
   <time name="diis">  179.50  179.50</time>
   <time name="orth">   13.44   13.43</time>
   <time name="total">  301.45  301.46</time>
   <energy>
    <i name="e_fr_energy">   -176.50871710 </i>
    <i name="e_wo_entrp">   -176.48317223 </i>
    <i name="e_0_energy">   -176.50233088 </i>
   </energy>
  </scstep>
  <scstep>
   <time name="diag">   68.94   68.94</time>
   <time name="diis">  185.40  185.40</time>
   <time name="orth">   13.74   13.74</time>
   <time name="total">  308.38  308.39</time>
   <energy>
    <i name="e_fr_energy">   -176.44315079 </i>
    <i name="e_wo_entrp">   -176.42280449 </i>
    <i name="e_0_energy">   -176.43806421 </i>
   </energy>
  </scstep>
  <scstep>
   <time name="diag">   70.64   70.64</time>
   <time name="diis">  181.68  181.68</time>
   <time name="orth">   13.20   13.20</time>
   <time name="total">  305.23  305.24</time>
   <energy>
    <i name="e_fr_energy">   -175.99543425 </i>
    <i name="e_wo_entrp">   -176.00821340 </i>
    <i name="e_0_energy">   -175.99862904 </i>
   </energy>
  </scstep>
  <scstep>
   <time name="diag">   68.43   68.43</time>
   <time name="diis">  178.25  178.25</time>
   <time name="orth">   13.14   13.14</time>
   <time name="total">  299.36  299.36</time>
   <energy>
    <i name="e_fr_energy">   -175.65205879 </i>
    <i name="e_wo_entrp">   -175.63189675 </i>
    <i name="e_0_energy">   -175.64701828 </i>
   </energy>
  </scstep>
  <scstep>
   <time name="diag">   68.27   68.27</time>
   <time name="diis">  179.45  179.45</time>
   <time name="orth">   13.19   13.19</time>
   <time name="total">  300.23  300.23</time>
   <energy>
    <i name="e_fr_energy">   -175.62329827 </i>
    <i name="e_wo_entrp">   -175.58562787 </i>
    <i name="e_0_energy">   -175.61388067 </i>
   </energy>
  </scstep>
  <scstep>
   <time name="diag">   68.10   68.10</time>
   <time name="diis">  177.53  177.54</time>
   <time name="orth">   13.21   13.21</time>
   <time name="total">  298.10  298.11</time>
   <energy>
    <i name="e_fr_energy">   -175.36859598 </i>
    <i name="e_wo_entrp">   -175.33866387 </i>
    <i name="e_0_energy">   -175.36111295 </i>
   </energy>
  </scstep>
  <scstep>
   <time name="diag">   67.65   67.65</time>
   <time name="diis">  177.12  177.12</time>
   <time name="orth">   13.26   13.26</time>
   <time name="total">  297.29  297.29</time>
   <energy>
    <i name="e_fr_energy">   -175.28432350 </i>
    <i name="e_wo_entrp">   -175.25487386 </i>
    <i name="e_0_energy">   -175.27696109 </i>
   </energy>
  </scstep>
  <scstep>
   <time name="diag">   67.69   67.69</time>
   <time name="diis">  177.75  177.75</time>
   <time name="orth">   13.24   13.24</time>
   <time name="total">  297.90  297.90</time>
   <energy>
    <i name="e_fr_energy">   -175.28252945 </i>
    <i name="e_wo_entrp">   -175.25488107 </i>
    <i name="e_0_energy">   -175.27561735 </i>
   </energy>
  </scstep>
  <scstep>
   <time name="diag">   68.92   68.92</time>
   <time name="diis">  185.40  185.40</time>
   <time name="orth">   13.56   13.56</time>
   <time name="total">  308.03  308.03</time>
   <energy>
    <i name="e_fr_energy">   -175.27502036 </i>
    <i name="e_wo_entrp">   -175.25593005 </i>
    <i name="e_0_energy">   -175.27024778 </i>
   </energy>
  </scstep>
  <scstep>
   <time name="diag">   69.29   69.29</time>
   <time name="diis">  176.69  176.69</time>
   <time name="orth">   13.21   13.21</time>
   <time name="total">  299.04  299.04</time>
   <energy>
    <i name="e_fr_energy">   -175.25137149 </i>
    <i name="e_wo_entrp">   -175.22302015 </i>
    <i name="e_0_energy">   -175.24428366 </i>
   </energy>
  </scstep>
  <scstep>
   <time name="diag">   67.70   67.70</time>
   <time name="diis">  177.77  177.77</time>
   <time name="orth">   13.15   13.15</time>
   <time name="total">  297.99  298.00</time>
   <energy>
    <i name="e_fr_energy">   -175.20050508 </i>
    <i name="e_wo_entrp">   -175.16778384 </i>
    <i name="e_0_energy">   -175.19232477 </i>
   </energy>
  </scstep>
  <scstep>
   <time name="diag">   67.60   67.60</time>
   <time name="diis">  177.34  177.34</time>
   <time name="orth">   13.10   13.10</time>
   <time name="total">  297.42  297.42</time>
   <energy>
    <i name="e_fr_energy">   -175.16366731 </i>
    <i name="e_wo_entrp">   -175.13201016 </i>
    <i name="e_0_energy">   -175.15575302 </i>
   </energy>
  </scstep>
  <scstep>
   <time name="diag">   67.61   67.61</time>
   <time name="diis">  176.89  176.89</time>
   <time name="orth">   13.06   13.06</time>
   <time name="total">  297.15  297.15</time>
   <energy>
    <i name="e_fr_energy">   -175.10610758 </i>
    <i name="e_wo_entrp">   -175.07095359 </i>
    <i name="e_0_energy">   -175.09731908 </i>
   </energy>
  </scstep>
  <scstep>
   <time name="diag">   67.75   67.75</time>
   <time name="diis">  179.00  179.00</time>
   <time name="orth">   13.05   13.05</time>
   <time name="total">  299.36  299.36</time>
   <energy>
    <i name="e_fr_energy">   -175.10074670 </i>
    <i name="e_wo_entrp">   -175.05944259 </i>
    <i name="e_0_energy">   -175.09042067 </i>
   </energy>
  </scstep>
  <scstep>
   <time name="diag">   68.15   68.15</time>
   <time name="diis">  178.23  178.23</time>
   <time name="orth">   13.11   13.11</time>
   <time name="total">  299.25  299.25</time>
   <energy>
    <i name="e_fr_energy">   -175.07427598 </i>
    <i name="e_wo_entrp">   -175.03161783 </i>
    <i name="e_0_energy">   -175.06361144 </i>
   </energy>
  </scstep>
  <scstep>
   <time name="diag">   67.85   67.85</time>
   <time name="diis">  177.54  177.54</time>
   <time name="orth">   13.08   13.08</time>
   <time name="total">  298.66  298.66</time>
   <energy>
    <i name="e_fr_energy">   -175.06533638 </i>
    <i name="e_wo_entrp">   -175.01839029 </i>
    <i name="e_0_energy">   -175.05359986 </i>
   </energy>
  </scstep>
  <scstep>
   <time name="diag">   69.52   69.53</time>
   <time name="diis">  184.48  184.48</time>
   <time name="orth">   13.46   13.46</time>
   <time name="total">  309.07  309.07</time>
   <energy>
    <i name="e_fr_energy">   -175.06187653 </i>
    <i name="e_wo_entrp">   -175.02106570 </i>
    <i name="e_0_energy">   -175.05167382 </i>
   </energy>
  </scstep>
  <scstep>
   <time name="diag">   68.13   68.13</time>
   <time name="diis">  176.74  176.74</time>
   <time name="orth">   13.12   13.12</time>
   <time name="total">  298.46  298.46</time>
   <energy>
    <i name="e_fr_energy">   -175.05806663 </i>
    <i name="e_wo_entrp">   -175.01788990 </i>
    <i name="e_0_energy">   -175.04802245 </i>
   </energy>
  </scstep>
  <scstep>
   <time name="diag">   67.55   67.55</time>
   <time name="diis">  176.63  176.63</time>
   <time name="orth">   13.07   13.07</time>
   <time name="total">  297.37  297.37</time>
   <energy>
    <i name="e_fr_energy">   -175.05586199 </i>
    <i name="e_wo_entrp">   -175.01517333 </i>
    <i name="e_0_energy">   -175.04568982 </i>
   </energy>
  </scstep>
  <scstep>
   <time name="diag">   67.76   67.77</time>
   <time name="diis">  177.13  177.14</time>
   <time name="orth">   13.01   13.01</time>
   <time name="total">  298.13  298.16</time>
   <energy>
    <i name="e_fr_energy">   -175.05390717 </i>
    <i name="e_wo_entrp">   -175.01029246 </i>
    <i name="e_0_energy">   -175.04300349 </i>
   </energy>
  </scstep>
  <scstep>
   <time name="diag">   67.68   67.69</time>
   <time name="diis">  176.05  176.07</time>
   <time name="orth">   13.11   13.11</time>
   <time name="total">  297.17  297.19</time>
   <energy>
    <i name="e_fr_energy">   -175.05440695 </i>
    <i name="e_wo_entrp">   -175.01159161 </i>
    <i name="e_0_energy">   -175.04370311 </i>
   </energy>
  </scstep>
  <scstep>
   <time name="diag">   67.71   67.72</time>
   <time name="diis">  176.64  176.65</time>
   <time name="orth">   13.07   13.07</time>
   <time name="total">  297.83  297.85</time>
   <energy>
    <i name="e_fr_energy">   -175.05651809 </i>
    <i name="e_wo_entrp">   -175.01374930 </i>
    <i name="e_0_energy">   -175.04582589 </i>
   </energy>
  </scstep>
  <scstep>
   <time name="diag">   67.61   67.62</time>
   <time name="diis">  176.16  176.17</time>
   <time name="orth">   13.09   13.09</time>
   <time name="total">  297.45  297.48</time>
   <energy>
    <i name="e_fr_energy">   -175.05740502 </i>
    <i name="e_wo_entrp">   -175.01559361 </i>
    <i name="e_0_energy">   -175.04695216 </i>
   </energy>
  </scstep>
  <scstep>
   <time name="diag">   67.62   67.63</time>
   <time name="diis">  171.71  171.72</time>
   <time name="orth">   13.20   13.20</time>
   <time name="total">  293.06  293.09</time>
   <energy>
    <i name="e_fr_energy">   -175.06009200 </i>
    <i name="e_wo_entrp">   -175.01910542 </i>
    <i name="e_0_energy">   -175.04984536 </i>
   </energy>
  </scstep>
  <scstep>
   <time name="diag">   68.09   68.10</time>
   <time name="diis">  173.92  173.94</time>
   <time name="orth">   13.14   13.14</time>
   <time name="total">  295.55  295.57</time>
   <energy>
    <i name="e_fr_energy">   -175.06315854 </i>
    <i name="e_wo_entrp">   -175.02229682 </i>
    <i name="e_0_energy">   -175.05294311 </i>
   </energy>
  </scstep>
  <scstep>
   <time name="diag">   67.39   67.39</time>
   <time name="diis">  140.37  140.38</time>
   <time name="orth">   12.97   12.97</time>
   <time name="total">  261.00  261.02</time>
   <energy>
    <i name="e_fr_energy">   -175.06515141 </i>
    <i name="e_wo_entrp">   -175.02408254 </i>
    <i name="e_0_energy">   -175.05488419 </i>
   </energy>
  </scstep>
  <scstep>
   <time name="diag">   66.79   66.80</time>
   <time name="diis">  152.14  152.14</time>
   <time name="orth">   13.20   13.20</time>
   <time name="total">  272.50  272.51</time>
   <energy>
    <i name="e_fr_energy">   -175.06848785 </i>
    <i name="e_wo_entrp">   -175.02670966 </i>
    <i name="e_0_energy">   -175.05804330 </i>
   </energy>
  </scstep>
  <scstep>
   <time name="diag">   66.08   66.08</time>
   <time name="diis">  136.82  136.82</time>
   <time name="orth">   13.44   13.44</time>
   <time name="total">  258.05  258.06</time>
   <energy>
    <i name="e_fr_energy">   -175.07061406 </i>
    <i name="e_wo_entrp">   -175.02951189 </i>
    <i name="e_0_energy">   -175.06033852 </i>
   </energy>
  </scstep>
  <scstep>
   <time name="diag">   66.94   66.95</time>
   <time name="diis">  126.94  126.95</time>
   <time name="orth">   13.90   13.90</time>
   <time name="total">  251.06  251.07</time>
   <energy>
    <i name="e_fr_energy">   -175.07278695 </i>
    <i name="e_wo_entrp">   -175.03214655 </i>
    <i name="e_0_energy">   -175.06262685 </i>
   </energy>
  </scstep>
  <scstep>
   <time name="diag">   68.11   68.11</time>
   <time name="diis">  118.40  118.40</time>
   <time name="orth">   13.73   13.73</time>
   <time name="total">  244.52  244.53</time>
   <energy>
    <i name="e_fr_energy">   -175.07414856 </i>
    <i name="e_wo_entrp">   -175.03296273 </i>
    <i name="e_0_energy">   -175.06385211 </i>
   </energy>
  </scstep>
  <scstep>
   <time name="diag">   69.62   69.63</time>
   <time name="diis">  116.07  116.08</time>
   <time name="orth">   13.43   13.43</time>
   <time name="total">  242.53  242.54</time>
   <energy>
    <i name="e_fr_energy">   -175.07503110 </i>
    <i name="e_wo_entrp">   -175.03416085 </i>
    <i name="e_0_energy">   -175.06481354 </i>
   </energy>
  </scstep>
  <scstep>
   <time name="diag">   69.36   69.37</time>
   <time name="diis">  117.81  117.82</time>
   <time name="orth">   13.45   13.45</time>
   <time name="total">  243.66  243.67</time>
   <energy>
    <i name="e_fr_energy">   -175.07689737 </i>
    <i name="e_wo_entrp">   -175.03609896 </i>
    <i name="e_0_energy">   -175.06669777 </i>
   </energy>
  </scstep>
  <scstep>
   <time name="diag">   68.35   68.35</time>
   <time name="diis">  118.37  118.37</time>
   <time name="orth">   13.40   13.40</time>
   <time name="total">  243.40  243.40</time>
   <energy>
    <i name="e_fr_energy">   -175.07765729 </i>
    <i name="e_wo_entrp">   -175.03676107 </i>
    <i name="e_0_energy">   -175.06743323 </i>
   </energy>
  </scstep>
  <scstep>
   <time name="diag">   67.50   67.51</time>
   <time name="diis">  114.95  114.95</time>
   <time name="orth">   13.69   13.69</time>
   <time name="total">  239.89  239.90</time>
   <energy>
    <i name="e_fr_energy">   -175.07906143 </i>
    <i name="e_wo_entrp">   -175.03830569 </i>
    <i name="e_0_energy">   -175.06887250 </i>
   </energy>
  </scstep>
  <scstep>
   <time name="diag">   68.01   68.01</time>
   <time name="diis">  115.26  115.26</time>
   <time name="orth">   13.71   13.71</time>
   <time name="total">  240.56  240.57</time>
   <energy>
    <i name="e_fr_energy">   -175.07947198 </i>
    <i name="e_wo_entrp">   -175.03877889 </i>
    <i name="e_0_energy">   -175.06929871 </i>
   </energy>
  </scstep>
  <scstep>
   <time name="diag">   68.20   68.20</time>
   <time name="diis">  114.11  114.12</time>
   <time name="orth">   13.47   13.47</time>
   <time name="total">  239.35  239.36</time>
   <energy>
    <i name="e_fr_energy">   -175.08022124 </i>
    <i name="e_wo_entrp">   -175.03954162 </i>
    <i name="e_0_energy">   -175.07005133 </i>
   </energy>
  </scstep>
  <scstep>
   <time name="diag">   68.22   68.22</time>
   <time name="diis">  110.17  110.17</time>
   <time name="orth">   13.43   13.43</time>
   <time name="total">  235.40  235.41</time>
   <energy>
    <i name="e_fr_energy">   -175.08082612 </i>
    <i name="e_wo_entrp">   -175.04006382 </i>
    <i name="e_0_energy">   -175.07063554 </i>
   </energy>
  </scstep>
  <scstep>
   <time name="diag">   68.52   68.52</time>
   <time name="diis">   92.02   92.02</time>
   <time name="orth">   13.41   13.41</time>
   <time name="total">  217.55  217.55</time>
   <energy>
    <i name="e_fr_energy">   -175.08109482 </i>
    <i name="e_wo_entrp">   -175.04038487 </i>
    <i name="e_0_energy">   -175.07091733 </i>
   </energy>
  </scstep>
  <scstep>
   <time name="diag">   68.71   68.71</time>
   <time name="diis">  100.31  100.31</time>
   <time name="orth">   13.61   13.61</time>
   <time name="total">  226.30  226.31</time>
   <energy>
    <i name="e_fr_energy">   -175.08170868 </i>
    <i name="e_wo_entrp">   -175.04096348 </i>
    <i name="e_0_energy">   -175.07152238 </i>
   </energy>
  </scstep>
  <scstep>
   <time name="diag">   69.08   69.08</time>
   <time name="diis">   83.40   83.41</time>
   <time name="orth">   13.26   13.26</time>
   <time name="total">  208.55  208.55</time>
   <energy>
    <i name="e_fr_energy">   -175.08188418 </i>
    <i name="e_wo_entrp">   -175.04112182 </i>
    <i name="e_0_energy">   -175.07169359 </i>
   </energy>
  </scstep>
  <scstep>
   <time name="diag">   67.95   67.95</time>
   <time name="diis">   90.05   90.05</time>
   <time name="orth">   13.79   13.79</time>
   <time name="total">  215.14  215.14</time>
   <energy>
    <i name="e_fr_energy">   -175.08217137 </i>
    <i name="e_wo_entrp">   -175.04136736 </i>
    <i name="e_0_energy">   -175.07197037 </i>
   </energy>
  </scstep>
  <scstep>
   <time name="diag">   68.14   68.14</time>
   <time name="diis">   89.42   89.42</time>
   <time name="orth">   13.91   13.91</time>
   <time name="total">  215.56  215.56</time>
   <energy>
    <i name="e_fr_energy">   -175.08240374 </i>
    <i name="e_wo_entrp">   -175.04168136 </i>
    <i name="e_0_energy">   -175.07222314 </i>
   </energy>
  </scstep>
  <scstep>
   <time name="diag">   68.39   68.39</time>
   <time name="diis">   90.35   90.35</time>
   <time name="orth">   13.32   13.32</time>
   <time name="total">  215.83  215.83</time>
   <energy>
    <i name="e_fr_energy">   -175.08262109 </i>
    <i name="e_wo_entrp">   -175.04186863 </i>
    <i name="e_0_energy">   -175.07243298 </i>
   </energy>
  </scstep>
  <scstep>
   <time name="diag">   67.61   67.61</time>
   <time name="diis">   80.88   80.88</time>
   <time name="orth">   13.81   13.81</time>
   <time name="total">  206.51  206.51</time>
   <energy>
    <i name="e_fr_energy">   -175.08274445 </i>
    <i name="e_wo_entrp">   -175.04198157 </i>
    <i name="e_0_energy">   -175.07255373 </i>
   </energy>
  </scstep>
  <scstep>
   <time name="diag">   68.29   68.29</time>
   <time name="diis">   83.44   83.44</time>
   <time name="orth">   13.69   13.69</time>
   <time name="total">  179.71  179.72</time>
   <energy>
    <i name="alphaZ">     75.25431677 </i>
    <i name="ewald"> 138909.87968802 </i>
    <i name="hartreedc">-183262.48473135 </i>
    <i name="XCdc">  -1691.87681953 </i>
    <i name="pawpsdc">  46302.98310311 </i>
    <i name="pawaedc"> -42774.73647711 </i>
    <i name="eentropy">     -0.04077500 </i>
    <i name="bandstr">  -2820.56662937 </i>
    <i name="atom">  45086.50549395 </i>
    <i name="e_fr_energy">   -175.08283051 </i>
    <i name="e_wo_entrp">   -175.04205551 </i>
    <i name="e_0_energy">   -175.07263676 </i>
   </energy>
  </scstep>
  <structure>
   <crystal>
    <varray name="basis" >
     <v>      30.00000000       0.00000000       0.00000000 </v>
     <v>       0.00000000      30.00000000       0.00000000 </v>
     <v>       0.00000000       0.00000000      30.00000000 </v>
    </varray>
    <i name="volume">  27000.00000000 </i>
    <varray name="rec_basis" >
     <v>       0.03333333       0.00000000       0.00000000 </v>
     <v>       0.00000000       0.03333333       0.00000000 </v>
     <v>       0.00000000       0.00000000       0.03333333 </v>
    </varray>
   </crystal>
   <varray name="positions" >
    <v>       0.44576020       0.32826710       0.41691983 </v>
    <v>       0.67173288       0.55423978       0.41691983 </v>
    <v>       0.55423980       0.32826710       0.41691983 </v>
    <v>       0.32826712       0.55423978       0.41691983 </v>
    <v>       0.50000000       0.38250690       0.34021317 </v>
    <v>       0.50000000       0.38250690       0.65978680 </v>
    <v>       0.50000000       0.27609440       0.50000000 </v>
    <v>       0.27609443       0.49999998       0.50000000 </v>
    <v>       0.72390557       0.49999998       0.50000000 </v>
    <v>       0.50000000       0.72390555       0.50000000 </v>
    <v>       0.61195280       0.38804720       0.34167483 </v>
    <v>       0.61195280       0.38804720       0.65832513 </v>
    <v>       0.38804722       0.61195278       0.34167483 </v>
    <v>       0.38804722       0.61195278       0.65832513 </v>
    <v>       0.38804720       0.38804720       0.34167483 </v>
    <v>       0.38804720       0.38804720       0.65832513 </v>
    <v>       0.61195278       0.61195278       0.34167483 </v>
    <v>       0.61195278       0.61195278       0.65832513 </v>
    <v>       0.44576020       0.32826710       0.58308023 </v>
    <v>       0.67173288       0.55423978       0.58308023 </v>
    <v>       0.55791699       0.44208301       0.41809300 </v>
    <v>       0.32826705       0.44576024       0.41691983 </v>
    <v>       0.55423973       0.67173293       0.41691983 </v>
    <v>       0.55423980       0.32826710       0.58308023 </v>
    <v>       0.32826712       0.55423978       0.58308023 </v>
    <v>       0.67173295       0.44576024       0.41691983 </v>
    <v>       0.44576027       0.67173293       0.41691983 </v>
    <v>       0.44208301       0.44208301       0.41809300 </v>
    <v>       0.50000000       0.38416601       0.50000000 </v>
    <v>       0.61749315       0.50000005       0.34021317 </v>
    <v>       0.61749315       0.50000005       0.65978680 </v>
    <v>       0.38250685       0.50000005       0.34021317 </v>
    <v>       0.38250685       0.50000005       0.65978680 </v>
    <v>       0.38317830       0.38317830       0.50000000 </v>
    <v>       0.61682172       0.61682172       0.50000000 </v>
    <v>       0.61682170       0.38317830       0.50000000 </v>
    <v>       0.38317828       0.61682172       0.50000000 </v>
    <v>       0.50000000       0.50000000       0.33478917 </v>
    <v>       0.50000000       0.50000000       0.66521087 </v>
    <v>       0.32826705       0.44576024       0.58308023 </v>
    <v>       0.55423973       0.67173293       0.58308023 </v>
    <v>       0.55791699       0.44208301       0.58190703 </v>
    <v>       0.44208298       0.55791702       0.41809300 </v>
    <v>       0.44208301       0.44208301       0.58190703 </v>
    <v>       0.67173295       0.44576024       0.58308023 </v>
    <v>       0.44576027       0.67173293       0.58308023 </v>
    <v>       0.55791702       0.55791702       0.41809300 </v>
    <v>       0.38416599       0.50000002       0.50000000 </v>
    <v>       0.61583401       0.50000002       0.50000000 </v>
    <v>       0.50000000       0.61749319       0.34021317 </v>
    <v>       0.50000000       0.61749319       0.65978680 </v>
    <v>       0.50000000       0.50000000       0.50000000 </v>
    <v>       0.44208298       0.55791702       0.58190703 </v>
    <v>       0.55791702       0.55791702       0.58190703 </v>
    <v>       0.50000000       0.61583404       0.50000000 </v>
    <v>       0.52095530       0.49227320       0.71927610 </v>
    <v>       0.52453007       0.49095507       0.75668257 </v>
   </varray>
  </structure>
  <varray name="forces" >
   <v>       0.69481022       1.11155208       0.28489495 </v>
   <v>      -1.11262689      -0.69623303       0.28396867 </v>
   <v>      -0.69776103       1.11032530       0.28604894 </v>
   <v>       1.10863203      -0.69620455       0.28778569 </v>
   <v>       0.00181912       0.40495761       1.28007296 </v>
   <v>      -0.01577915       0.39773621      -1.32846109 </v>
   <v>       0.00426997       1.50503723       0.01602917 </v>
   <v>       1.50876447      -0.00165773       0.00880285 </v>
   <v>      -1.50416814      -0.00194951       0.01999772 </v>
   <v>       0.00429875      -1.50714800       0.01224218 </v>
   <v>      -0.75219530       0.75368000       1.07339221 </v>
   <v>      -0.72409881       0.72232531      -1.07244750 </v>
   <v>       0.75221679      -0.75048002       1.07529066 </v>
   <v>       0.74638391      -0.74658030      -1.07067677 </v>
   <v>       0.75337826       0.74989377       1.07491900 </v>
   <v>       0.74092277       0.74210377      -1.07202264 </v>
   <v>      -0.75079257      -0.75408434       1.07408093 </v>
   <v>      -0.73190246      -0.72956704      -1.07228817 </v>
   <v>       0.70528367       1.10307131      -0.28964645 </v>
   <v>      -1.09599111      -0.70409609      -0.29832024 </v>
   <v>       0.11289197      -0.11412596      -0.15210620 </v>
   <v>       1.10817032       0.69681363       0.28730591 </v>
   <v>      -0.69782362      -1.10927747       0.28674224 </v>
   <v>      -0.70199553       1.09597365      -0.30238143 </v>
   <v>       1.10583364      -0.70045133      -0.28815920 </v>
   <v>      -1.11202788       0.69722939       0.28464571 </v>
   <v>       0.69522136      -1.11050867       0.28668409 </v>
   <v>      -0.11447182      -0.11418992      -0.14949166 </v>
   <v>       0.00061758      -0.21350838      -0.00021220 </v>
   <v>      -0.40654157      -0.00074895       1.27949652 </v>
   <v>      -0.45226413       0.00110057      -1.29718750 </v>
   <v>       0.39969755      -0.00098166       1.28141962 </v>
   <v>       0.38898290       0.00459539      -1.33115075 </v>
   <v>       0.81432888       0.81828371      -0.02065351 </v>
   <v>      -0.82609812      -0.82231354      -0.00617487 </v>
   <v>      -0.82922397       0.82746481       0.00204797 </v>
   <v>       0.81134861      -0.81342612      -0.02787650 </v>
   <v>       0.00870789      -0.00322013       1.18641362 </v>
   <v>      -0.70313672       0.25242356      -3.11378001 </v>
   <v>       1.10450258       0.69893889      -0.29153029 </v>
   <v>      -0.70045592      -1.10028287      -0.29818082 </v>
   <v>       0.15525199      -0.16763175       0.09419989 </v>
   <v>      -0.11445425       0.11460247      -0.14805316 </v>
   <v>      -0.13693985      -0.10182719       0.13640248 </v>
   <v>      -1.09277861       0.70292896      -0.30341579 </v>
   <v>       0.70369362      -1.10517421      -0.28694600 </v>
   <v>       0.11284993       0.11454472      -0.15151784 </v>
   <v>      -0.20875759       0.00016494       0.00072821 </v>
   <v>       0.21510945      -0.00061746      -0.00032431 </v>
   <v>       0.00200303      -0.40255821       1.28068806 </v>
   <v>      -0.01480188      -0.38684326      -1.33177030 </v>
   <v>      -0.00139624       0.00030067       0.01252730 </v>
   <v>      -0.09181002       0.07207022       0.17604101 </v>
   <v>       0.13934293       0.16725625       0.10503590 </v>
   <v>      -0.00024491       0.21134660      -0.00004562 </v>
   <v>      -0.09941236       0.08060029      -2.73251315 </v>
   <v>       0.79061625      -0.30163362       4.95942946 </v>
  </varray>
  <varray name="stress" >
   <v>      -6.68241963      -0.00857843       0.11113437 </v>
   <v>      -0.00857842      -6.69972599      -0.03802787 </v>
   <v>       0.11113437      -0.03802787      -6.19737803 </v>
  </varray>
  <energy>
   <i name="e_fr_energy">   -175.08283051 </i>
   <i name="e_wo_entrp">   -175.07263676 </i>
   <i name="e_0_energy">     -0.04077500 </i>
  </energy>
  <time name="totalsc">17863.3817864.24</time>
  <eigenvalues>
   <array>
    <dimension dim="1">band</dimension>
    <dimension dim="2">kpoint</dimension>
    <dimension dim="3">spin</dimension>
    <field>eigene</field>
    <field>occ</field>
    <set>
     <set comment="spin 1">
      <set comment="kpoint 1">
       <r>  -28.2803    1.0000 </r>
       <r>  -13.5089    1.0000 </r>
       <r>  -11.2350    1.0000 </r>
       <r>  -10.8708    1.0000 </r>
       <r>  -10.7986    1.0000 </r>
       <r>   -6.7202    1.0000 </r>
       <r>   -6.7019    1.0000 </r>
       <r>   -6.6646    1.0000 </r>
       <r>   -6.1857    1.0000 </r>
       <r>   -6.1317    1.0000 </r>
       <r>   -6.1271    1.0000 </r>
       <r>   -5.8742    1.0000 </r>
       <r>   -5.8381    1.0000 </r>
       <r>   -5.8170    1.0000 </r>
       <r>   -5.8046    1.0000 </r>
       <r>   -5.7847    1.0000 </r>
       <r>   -5.7591    1.0000 </r>
       <r>   -5.7060    1.0000 </r>
       <r>   -5.6913    1.0000 </r>
       <r>   -5.6852    1.0000 </r>
       <r>   -5.6838    1.0000 </r>
       <r>   -5.6825    1.0000 </r>
       <r>   -5.6189    1.0000 </r>
       <r>   -5.6013    1.0000 </r>
       <r>   -5.5960    1.0000 </r>
       <r>   -5.5956    1.0000 </r>
       <r>   -5.5939    1.0000 </r>
       <r>   -5.5864    1.0000 </r>
       <r>   -5.5468    1.0000 </r>
       <r>   -5.5357    1.0000 </r>
       <r>   -5.5343    1.0000 </r>
       <r>   -5.5282    1.0000 </r>
       <r>   -5.5206    1.0000 </r>
       <r>   -5.5186    1.0000 </r>
       <r>   -5.5179    1.0000 </r>
       <r>   -5.5122    1.0000 </r>
       <r>   -5.5080    1.0000 </r>
       <r>   -5.5062    1.0000 </r>
       <r>   -5.5014    1.0000 </r>
       <r>   -5.4827    1.0000 </r>
       <r>   -5.4782    1.0000 </r>
       <r>   -5.4747    1.0000 </r>
       <r>   -5.4710    1.0000 </r>
       <r>   -5.4679    1.0000 </r>
       <r>   -5.4674    1.0000 </r>
       <r>   -5.4667    1.0000 </r>
       <r>   -5.4590    1.0000 </r>
       <r>   -5.4517    1.0000 </r>
       <r>   -5.4294    1.0000 </r>
       <r>   -5.4288    1.0000 </r>
       <r>   -5.4267    1.0000 </r>
       <r>   -5.4161    1.0000 </r>
       <r>   -5.4094    1.0000 </r>
       <r>   -5.4090    1.0000 </r>
       <r>   -5.3964    1.0000 </r>
       <r>   -5.3961    1.0000 </r>
       <r>   -5.3925    1.0000 </r>
       <r>   -5.3833    1.0000 </r>
       <r>   -5.3506    1.0000 </r>
       <r>   -5.3251    1.0000 </r>
       <r>   -5.3220    1.0000 </r>
       <r>   -5.3171    1.0000 </r>
       <r>   -5.3158    1.0000 </r>
       <r>   -5.3149    1.0000 </r>
       <r>   -5.3138    1.0000 </r>
       <r>   -5.3093    1.0000 </r>
       <r>   -5.3089    1.0000 </r>
       <r>   -5.3001    1.0000 </r>
       <r>   -5.2885    1.0000 </r>
       <r>   -5.2875    1.0000 </r>
       <r>   -5.2547    1.0000 </r>
       <r>   -5.1967    1.0000 </r>
       <r>   -5.1887    1.0000 </r>
       <r>   -5.1850    1.0000 </r>
       <r>   -5.1815    1.0000 </r>
       <r>   -5.1807    1.0000 </r>
       <r>   -5.1789    1.0000 </r>
       <r>   -5.1770    1.0000 </r>
       <r>   -5.1766    1.0000 </r>
       <r>   -5.1542    1.0000 </r>
       <r>   -5.1513    1.0000 </r>
       <r>   -5.1473    1.0000 </r>
       <r>   -5.1449    1.0000 </r>
       <r>   -5.1402    1.0000 </r>
       <r>   -5.1229    1.0000 </r>
       <r>   -5.1222    1.0000 </r>
       <r>   -5.1149    1.0000 </r>
       <r>   -5.1021    1.0000 </r>
       <r>   -5.1000    1.0000 </r>
       <r>   -5.0992    1.0000 </r>
       <r>   -5.0794    1.0000 </r>
       <r>   -5.0583    1.0000 </r>
       <r>   -5.0568    1.0000 </r>
       <r>   -5.0524    1.0000 </r>
       <r>   -5.0519    1.0000 </r>
       <r>   -5.0474    1.0000 </r>
       <r>   -5.0470    1.0000 </r>
       <r>   -5.0345    1.0000 </r>
       <r>   -5.0277    1.0000 </r>
       <r>   -5.0212    1.0000 </r>
       <r>   -5.0202    1.0000 </r>
       <r>   -5.0158    1.0000 </r>
       <r>   -5.0115    1.0000 </r>
       <r>   -5.0079    1.0000 </r>
       <r>   -5.0057    1.0000 </r>
       <r>   -5.0044    1.0000 </r>
       <r>   -5.0041    1.0000 </r>
       <r>   -4.9893    1.0000 </r>
       <r>   -4.9854    1.0000 </r>
       <r>   -4.9799    1.0000 </r>
       <r>   -4.9794    1.0000 </r>
       <r>   -4.9776    1.0000 </r>
       <r>   -4.9726    1.0000 </r>
       <r>   -4.9664    1.0000 </r>
       <r>   -4.9634    1.0000 </r>
       <r>   -4.9593    1.0000 </r>
       <r>   -4.9485    1.0000 </r>
       <r>   -4.9484    1.0000 </r>
       <r>   -4.9312    1.0000 </r>
       <r>   -4.9248    1.0000 </r>
       <r>   -4.9173    1.0000 </r>
       <r>   -4.9163    1.0000 </r>
       <r>   -4.9143    1.0000 </r>
       <r>   -4.9118    1.0000 </r>
       <r>   -4.9041    1.0000 </r>
       <r>   -4.9009    1.0000 </r>
       <r>   -4.9004    1.0000 </r>
       <r>   -4.8807    1.0000 </r>
       <r>   -4.8794    1.0000 </r>
       <r>   -4.8695    1.0000 </r>
       <r>   -4.8426    1.0000 </r>
       <r>   -4.8373    1.0000 </r>
       <r>   -4.8338    1.0000 </r>
       <r>   -4.8319    1.0000 </r>
       <r>   -4.8297    1.0000 </r>
       <r>   -4.8281    1.0000 </r>
       <r>   -4.8210    1.0000 </r>
       <r>   -4.7998    0.9999 </r>
       <r>   -4.7960    0.9999 </r>
       <r>   -4.7895    0.9999 </r>
       <r>   -4.7851    0.9999 </r>
       <r>   -4.7769    0.9999 </r>
       <r>   -4.7658    0.9998 </r>
       <r>   -4.7517    0.9997 </r>
       <r>   -4.7380    0.9996 </r>
       <r>   -4.7367    0.9996 </r>
       <r>   -4.7340    0.9996 </r>
       <r>   -4.7332    0.9996 </r>
       <r>   -4.7207    0.9995 </r>
       <r>   -4.7092    0.9993 </r>
       <r>   -4.7045    0.9993 </r>
       <r>   -4.7023    0.9992 </r>
       <r>   -4.6817    0.9989 </r>
       <r>   -4.6802    0.9988 </r>
       <r>   -4.6780    0.9988 </r>
       <r>   -4.6760    0.9987 </r>
       <r>   -4.6720    0.9986 </r>
       <r>   -4.6717    0.9986 </r>
       <r>   -4.6652    0.9985 </r>
       <r>   -4.6606    0.9983 </r>
       <r>   -4.6573    0.9983 </r>
       <r>   -4.6523    0.9981 </r>
       <r>   -4.6513    0.9981 </r>
       <r>   -4.6509    0.9981 </r>
       <r>   -4.6480    0.9980 </r>
       <r>   -4.6435    0.9978 </r>
       <r>   -4.6431    0.9978 </r>
       <r>   -4.6351    0.9976 </r>
       <r>   -4.6329    0.9975 </r>
       <r>   -4.6290    0.9973 </r>
       <r>   -4.6283    0.9973 </r>
       <r>   -4.6231    0.9971 </r>
       <r>   -4.6223    0.9971 </r>
       <r>   -4.5956    0.9961 </r>
       <r>   -4.5952    0.9961 </r>
       <r>   -4.5907    0.9959 </r>
       <r>   -4.5904    0.9959 </r>
       <r>   -4.5868    0.9958 </r>
       <r>   -4.5858    0.9958 </r>
       <r>   -4.5810    0.9956 </r>
       <r>   -4.5732    0.9954 </r>
       <r>   -4.5659    0.9952 </r>
       <r>   -4.5532    0.9951 </r>
       <r>   -4.5528    0.9951 </r>
       <r>   -4.5502    0.9951 </r>
       <r>   -4.5501    0.9951 </r>
       <r>   -4.5493    0.9951 </r>
       <r>   -4.5488    0.9951 </r>
       <r>   -4.5456    0.9951 </r>
       <r>   -4.5447    0.9951 </r>
       <r>   -4.5144    0.9964 </r>
       <r>   -4.5114    0.9966 </r>
       <r>   -4.5093    0.9968 </r>
       <r>   -4.5057    0.9972 </r>
       <r>   -4.5012    0.9977 </r>
       <r>   -4.4891    0.9995 </r>
       <r>   -4.4807    1.0011 </r>
       <r>   -4.4801    1.0012 </r>
       <r>   -4.4727    1.0029 </r>
       <r>   -4.4712    1.0033 </r>
       <r>   -4.4658    1.0047 </r>
       <r>   -4.4643    1.0051 </r>
       <r>   -4.4610    1.0060 </r>
       <r>   -4.4584    1.0069 </r>
       <r>   -4.4573    1.0072 </r>
       <r>   -4.4531    1.0085 </r>
       <r>   -4.4501    1.0096 </r>
       <r>   -4.4437    1.0119 </r>
       <r>   -4.4429    1.0122 </r>
       <r>   -4.4377    1.0142 </r>
       <r>   -4.4285    1.0180 </r>
       <r>   -4.4191    1.0222 </r>
       <r>   -4.4078    1.0275 </r>
       <r>   -4.4067    1.0280 </r>
       <r>   -4.4047    1.0290 </r>
       <r>   -4.4014    1.0306 </r>
       <r>   -4.4007    1.0309 </r>
       <r>   -4.3978    1.0323 </r>
       <r>   -4.3958    1.0333 </r>
       <r>   -4.3937    1.0343 </r>
       <r>   -4.3915    1.0353 </r>
       <r>   -4.3869    1.0374 </r>
       <r>   -4.3611    1.0477 </r>
       <r>   -4.3525    1.0500 </r>
       <r>   -4.3500    1.0505 </r>
       <r>   -4.3399    1.0516 </r>
       <r>   -4.3359    1.0516 </r>
       <r>   -4.3350    1.0515 </r>
       <r>   -4.3343    1.0515 </r>
       <r>   -4.3315    1.0513 </r>
       <r>   -4.3274    1.0506 </r>
       <r>   -4.3274    1.0506 </r>
       <r>   -4.3240    1.0498 </r>
       <r>   -4.3226    1.0494 </r>
       <r>   -4.3217    1.0491 </r>
       <r>   -4.3195    1.0484 </r>
       <r>   -4.3187    1.0481 </r>
       <r>   -4.3139    1.0459 </r>
       <r>   -4.3130    1.0454 </r>
       <r>   -4.3109    1.0442 </r>
       <r>   -4.3065    1.0414 </r>
       <r>   -4.2977    1.0341 </r>
       <r>   -4.2976    1.0340 </r>
       <r>   -4.2960    1.0324 </r>
       <r>   -4.2894    1.0250 </r>
       <r>   -4.2866    1.0215 </r>
       <r>   -4.2814    1.0141 </r>
       <r>   -4.2810    1.0136 </r>
       <r>   -4.2803    1.0125 </r>
       <r>   -4.2802    1.0123 </r>
       <r>   -4.2663    0.9875 </r>
       <r>   -4.2570    0.9668 </r>
       <r>   -4.2566    0.9659 </r>
       <r>   -4.2536    0.9584 </r>
       <r>   -4.2490    0.9465 </r>
       <r>   -4.2479    0.9434 </r>
       <r>   -4.2475    0.9424 </r>
       <r>   -4.2473    0.9418 </r>
       <r>   -4.2410    0.9236 </r>
       <r>   -4.2409    0.9231 </r>
       <r>   -4.2354    0.9061 </r>
       <r>   -4.2345    0.9030 </r>
       <r>   -4.2337    0.9004 </r>
       <r>   -4.2330    0.8982 </r>
       <r>   -4.2306    0.8901 </r>
       <r>   -4.2185    0.8462 </r>
       <r>   -4.2172    0.8410 </r>
       <r>   -4.2158    0.8356 </r>
       <r>   -4.2154    0.8338 </r>
       <r>   -4.2123    0.8214 </r>
       <r>   -4.2119    0.8199 </r>
       <r>   -4.1973    0.7572 </r>
       <r>   -4.1932    0.7382 </r>
       <r>   -4.1923    0.7341 </r>
       <r>   -4.1858    0.7032 </r>
       <r>   -4.1815    0.6823 </r>
       <r>   -4.1805    0.6774 </r>
       <r>   -4.1772    0.6609 </r>
       <r>   -4.1667    0.6074 </r>
       <r>   -4.1660    0.6040 </r>
       <r>   -4.1657    0.6024 </r>
       <r>   -4.1523    0.5322 </r>
       <r>   -4.1458    0.4980 </r>
       <r>   -4.1294    0.4113 </r>
       <r>   -4.1290    0.4095 </r>
       <r>   -4.1233    0.3798 </r>
       <r>   -4.1172    0.3491 </r>
       <r>   -4.1076    0.3014 </r>
       <r>   -4.0250    0.0103 </r>
       <r>   -3.9571   -0.0516 </r>
       <r>   -3.9034   -0.0365 </r>
       <r>   -3.8246   -0.0041 </r>
       <r>   -3.8192   -0.0028 </r>
       <r>   -3.8115   -0.0011 </r>
       <r>   -3.4948    0.0001 </r>
       <r>   -3.4921    0.0001 </r>
       <r>   -3.3673    0.0000 </r>
       <r>   -3.0644    0.0000 </r>
       <r>   -3.0632    0.0000 </r>
       <r>   -3.0239    0.0000 </r>
       <r>   -3.0195    0.0000 </r>
       <r>   -3.0114    0.0000 </r>
       <r>   -3.0108    0.0000 </r>
       <r>   -2.9310    0.0000 </r>
       <r>   -2.7954    0.0000 </r>
       <r>   -2.5599    0.0000 </r>
       <r>   -2.5496    0.0000 </r>
       <r>   -2.5179    0.0000 </r>
       <r>   -2.2147    0.0000 </r>
       <r>   -2.1451    0.0000 </r>
       <r>   -2.1281    0.0000 </r>
       <r>   -2.1162    0.0000 </r>
       <r>   -1.9516    0.0000 </r>
       <r>   -1.9482    0.0000 </r>
       <r>   -1.8658    0.0000 </r>
       <r>   -1.8479    0.0000 </r>
       <r>   -1.8470    0.0000 </r>
       <r>   -1.7313    0.0000 </r>
       <r>   -1.7065    0.0000 </r>
       <r>   -1.6793    0.0000 </r>
       <r>   -1.6376    0.0000 </r>
       <r>   -1.5517    0.0000 </r>
       <r>   -1.4998    0.0000 </r>
       <r>   -1.3328    0.0000 </r>
       <r>   -1.2993    0.0000 </r>
       <r>   -1.0366    0.0000 </r>
       <r>   -1.0223    0.0000 </r>
       <r>   -1.0183    0.0000 </r>
       <r>   -0.9480    0.0000 </r>
       <r>   -0.9389    0.0000 </r>
       <r>   -0.9351    0.0000 </r>
       <r>   -0.9294    0.0000 </r>
       <r>   -0.8603    0.0000 </r>
       <r>   -0.8523    0.0000 </r>
       <r>   -0.8093    0.0000 </r>
       <r>   -0.5839    0.0000 </r>
      </set>
     </set>
    </set>
   </array>
  </eigenvalues>
  <separator name="orbital magnetization" >
   <v name="MAGDIPOLOUT">      0.00000000      0.00000000      0.00000000</v>
  </separator>
  <dos>
   <i name="efermi">     -4.14621603 </i>
   <total>
    <array>
     <dimension dim="1">gridpoints</dimension>
     <dimension dim="2">spin</dimension>
     <field>energy</field>
     <field>total</field>
     <field>integrated</field>
     <set>
      <set comment="spin 1">
       <r>   -30.2803     0.0000     0.0000 </r>
       <r>   -30.1747     0.0000     0.0000 </r>
       <r>   -30.0690     0.0000     0.0000 </r>
       <r>   -29.9634     0.0000     0.0000 </r>
       <r>   -29.8577     0.0000     0.0000 </r>
       <r>   -29.7521     0.0000     0.0000 </r>
       <r>   -29.6464     0.0000     0.0000 </r>
       <r>   -29.5408     0.0000     0.0000 </r>
       <r>   -29.4351     0.0000     0.0000 </r>
       <r>   -29.3295     0.0000     0.0000 </r>
       <r>   -29.2238     0.0000     0.0000 </r>
       <r>   -29.1181     0.0000     0.0000 </r>
       <r>   -29.0125     0.0001     0.0000 </r>
       <r>   -28.9068     0.0028     0.0003 </r>
       <r>   -28.8012     0.0251     0.0030 </r>
       <r>   -28.6955     0.0637     0.0097 </r>
       <r>   -28.5899    -0.2371    -0.0154 </r>
       <r>   -28.4842    -0.8100    -0.1009 </r>
       <r>   -28.3786     2.2110     0.1327 </r>
       <r>   -28.2729     8.9533     1.0786 </r>
       <r>   -28.1672     8.1961     1.9446 </r>
       <r>   -28.0616     1.4044     2.0930 </r>
       <r>   -27.9559    -0.8152     2.0068 </r>
       <r>   -27.8503    -0.1504     1.9910 </r>
       <r>   -27.7446     0.0641     1.9977 </r>
       <r>   -27.6390     0.0195     1.9998 </r>
       <r>   -27.5333     0.0019     2.0000 </r>
       <r>   -27.4277     0.0001     2.0000 </r>
       <r>   -27.3220     0.0000     2.0000 </r>
       <r>   -27.2164     0.0000     2.0000 </r>
       <r>   -27.1107     0.0000     2.0000 </r>
       <r>   -27.0050     0.0000     2.0000 </r>
       <r>   -26.8994     0.0000     2.0000 </r>
       <r>   -26.7937     0.0000     2.0000 </r>
       <r>   -26.6881     0.0000     2.0000 </r>
       <r>   -26.5824     0.0000     2.0000 </r>
       <r>   -26.4768     0.0000     2.0000 </r>
       <r>   -26.3711     0.0000     2.0000 </r>
       <r>   -26.2655     0.0000     2.0000 </r>
       <r>   -26.1598     0.0000     2.0000 </r>
       <r>   -26.0542     0.0000     2.0000 </r>
       <r>   -25.9485     0.0000     2.0000 </r>
       <r>   -25.8428     0.0000     2.0000 </r>
       <r>   -25.7372     0.0000     2.0000 </r>
       <r>   -25.6315     0.0000     2.0000 </r>
       <r>   -25.5259     0.0000     2.0000 </r>
       <r>   -25.4202     0.0000     2.0000 </r>
       <r>   -25.3146     0.0000     2.0000 </r>
       <r>   -25.2089     0.0000     2.0000 </r>
       <r>   -25.1033     0.0000     2.0000 </r>
       <r>   -24.9976     0.0000     2.0000 </r>
       <r>   -24.8920     0.0000     2.0000 </r>
       <r>   -24.7863     0.0000     2.0000 </r>
       <r>   -24.6806     0.0000     2.0000 </r>
       <r>   -24.5750     0.0000     2.0000 </r>
       <r>   -24.4693     0.0000     2.0000 </r>
       <r>   -24.3637     0.0000     2.0000 </r>
       <r>   -24.2580     0.0000     2.0000 </r>
       <r>   -24.1524     0.0000     2.0000 </r>
       <r>   -24.0467     0.0000     2.0000 </r>
       <r>   -23.9411     0.0000     2.0000 </r>
       <r>   -23.8354     0.0000     2.0000 </r>
       <r>   -23.7297     0.0000     2.0000 </r>
       <r>   -23.6241     0.0000     2.0000 </r>
       <r>   -23.5184     0.0000     2.0000 </r>
       <r>   -23.4128     0.0000     2.0000 </r>
       <r>   -23.3071     0.0000     2.0000 </r>
       <r>   -23.2015     0.0000     2.0000 </r>
       <r>   -23.0958     0.0000     2.0000 </r>
       <r>   -22.9902     0.0000     2.0000 </r>
       <r>   -22.8845     0.0000     2.0000 </r>
       <r>   -22.7789     0.0000     2.0000 </r>
       <r>   -22.6732     0.0000     2.0000 </r>
       <r>   -22.5675     0.0000     2.0000 </r>
       <r>   -22.4619     0.0000     2.0000 </r>
       <r>   -22.3562     0.0000     2.0000 </r>
       <r>   -22.2506     0.0000     2.0000 </r>
       <r>   -22.1449     0.0000     2.0000 </r>
       <r>   -22.0393     0.0000     2.0000 </r>
       <r>   -21.9336     0.0000     2.0000 </r>
       <r>   -21.8280     0.0000     2.0000 </r>
       <r>   -21.7223     0.0000     2.0000 </r>
       <r>   -21.6167     0.0000     2.0000 </r>
       <r>   -21.5110     0.0000     2.0000 </r>
       <r>   -21.4053     0.0000     2.0000 </r>
       <r>   -21.2997     0.0000     2.0000 </r>
       <r>   -21.1940     0.0000     2.0000 </r>
       <r>   -21.0884     0.0000     2.0000 </r>
       <r>   -20.9827     0.0000     2.0000 </r>
       <r>   -20.8771     0.0000     2.0000 </r>
       <r>   -20.7714     0.0000     2.0000 </r>
       <r>   -20.6658     0.0000     2.0000 </r>
       <r>   -20.5601     0.0000     2.0000 </r>
       <r>   -20.4545     0.0000     2.0000 </r>
       <r>   -20.3488     0.0000     2.0000 </r>
       <r>   -20.2431     0.0000     2.0000 </r>
       <r>   -20.1375     0.0000     2.0000 </r>
       <r>   -20.0318     0.0000     2.0000 </r>
       <r>   -19.9262     0.0000     2.0000 </r>
       <r>   -19.8205     0.0000     2.0000 </r>
       <r>   -19.7149     0.0000     2.0000 </r>
       <r>   -19.6092     0.0000     2.0000 </r>
       <r>   -19.5036     0.0000     2.0000 </r>
       <r>   -19.3979     0.0000     2.0000 </r>
       <r>   -19.2922     0.0000     2.0000 </r>
       <r>   -19.1866     0.0000     2.0000 </r>
       <r>   -19.0809     0.0000     2.0000 </r>
       <r>   -18.9753     0.0000     2.0000 </r>
       <r>   -18.8696     0.0000     2.0000 </r>
       <r>   -18.7640     0.0000     2.0000 </r>
       <r>   -18.6583     0.0000     2.0000 </r>
       <r>   -18.5527     0.0000     2.0000 </r>
       <r>   -18.4470     0.0000     2.0000 </r>
       <r>   -18.3414     0.0000     2.0000 </r>
       <r>   -18.2357     0.0000     2.0000 </r>
       <r>   -18.1300     0.0000     2.0000 </r>
       <r>   -18.0244     0.0000     2.0000 </r>
       <r>   -17.9187     0.0000     2.0000 </r>
       <r>   -17.8131     0.0000     2.0000 </r>
       <r>   -17.7074     0.0000     2.0000 </r>
       <r>   -17.6018     0.0000     2.0000 </r>
       <r>   -17.4961     0.0000     2.0000 </r>
       <r>   -17.3905     0.0000     2.0000 </r>
       <r>   -17.2848     0.0000     2.0000 </r>
       <r>   -17.1792     0.0000     2.0000 </r>
       <r>   -17.0735     0.0000     2.0000 </r>
       <r>   -16.9678     0.0000     2.0000 </r>
       <r>   -16.8622     0.0000     2.0000 </r>
       <r>   -16.7565     0.0000     2.0000 </r>
       <r>   -16.6509     0.0000     2.0000 </r>
       <r>   -16.5452     0.0000     2.0000 </r>
       <r>   -16.4396     0.0000     2.0000 </r>
       <r>   -16.3339     0.0000     2.0000 </r>
       <r>   -16.2283     0.0000     2.0000 </r>
       <r>   -16.1226     0.0000     2.0000 </r>
       <r>   -16.0169     0.0000     2.0000 </r>
       <r>   -15.9113     0.0000     2.0000 </r>
       <r>   -15.8056     0.0000     2.0000 </r>
       <r>   -15.7000     0.0000     2.0000 </r>
       <r>   -15.5943     0.0000     2.0000 </r>
       <r>   -15.4887     0.0000     2.0000 </r>
       <r>   -15.3830     0.0000     2.0000 </r>
       <r>   -15.2774     0.0000     2.0000 </r>
       <r>   -15.1717     0.0000     2.0000 </r>
       <r>   -15.0661     0.0000     2.0000 </r>
       <r>   -14.9604     0.0000     2.0000 </r>
       <r>   -14.8547     0.0000     2.0000 </r>
       <r>   -14.7491     0.0000     2.0000 </r>
       <r>   -14.6434     0.0000     2.0000 </r>
       <r>   -14.5378     0.0000     2.0000 </r>
       <r>   -14.4321     0.0000     2.0000 </r>
       <r>   -14.3265     0.0000     2.0000 </r>
       <r>   -14.2208     0.0003     2.0000 </r>
       <r>   -14.1152     0.0046     2.0005 </r>
       <r>   -14.0095     0.0341     2.0041 </r>
       <r>   -13.9039     0.0532     2.0097 </r>
       <r>   -13.7982    -0.3772     1.9699 </r>
       <r>   -13.6925    -0.6810     1.8979 </r>
       <r>   -13.5869     3.4766     2.2652 </r>
       <r>   -13.4812     9.6869     3.2887 </r>
       <r>   -13.3756     6.9474     4.0227 </r>
       <r>   -13.2699     0.5083     4.0764 </r>
       <r>   -13.1643    -0.7384     3.9984 </r>
       <r>   -13.0586    -0.0581     3.9923 </r>
       <r>   -12.9530     0.0584     3.9985 </r>
       <r>   -12.8473     0.0134     3.9999 </r>
       <r>   -12.7417     0.0011     4.0000 </r>
       <r>   -12.6360     0.0000     4.0000 </r>
       <r>   -12.5303     0.0000     4.0000 </r>
       <r>   -12.4247     0.0000     4.0000 </r>
       <r>   -12.3190     0.0000     4.0000 </r>
       <r>   -12.2134     0.0000     4.0000 </r>
       <r>   -12.1077     0.0000     4.0000 </r>
       <r>   -12.0021     0.0000     4.0000 </r>
       <r>   -11.8964     0.0011     4.0001 </r>
       <r>   -11.7908     0.0135     4.0016 </r>
       <r>   -11.6851     0.0585     4.0077 </r>
       <r>   -11.5794    -0.0585     4.0016 </r>
       <r>   -11.4738    -0.7338     3.9240 </r>
       <r>   -11.3681     0.5615     3.9833 </r>
       <r>   -11.2625     7.0626     4.7295 </r>
       <r>   -11.1568     9.2680     5.7088 </r>
       <r>   -11.0512     2.1658     5.9376 </r>
       <r>   -10.9455     3.0524     6.2601 </r>
       <r>   -10.8399    15.4141     7.8887 </r>
       <r>   -10.7342    16.7412     9.6574 </r>
       <r>   -10.6286     4.8234    10.1671 </r>
       <r>   -10.5229    -1.2105    10.0392 </r>
       <r>   -10.4172    -0.5260     9.9836 </r>
       <r>   -10.3116     0.0942     9.9935 </r>
       <r>   -10.2059     0.0534     9.9992 </r>
       <r>   -10.1003     0.0073    10.0000 </r>
       <r>    -9.9946     0.0004    10.0000 </r>
       <r>    -9.8890     0.0000    10.0000 </r>
       <r>    -9.7833     0.0000    10.0000 </r>
       <r>    -9.6777     0.0000    10.0000 </r>
       <r>    -9.5720     0.0000    10.0000 </r>
       <r>    -9.4664     0.0000    10.0000 </r>
       <r>    -9.3607     0.0000    10.0000 </r>
       <r>    -9.2550     0.0000    10.0000 </r>
       <r>    -9.1494     0.0000    10.0000 </r>
       <r>    -9.0437     0.0000    10.0000 </r>
       <r>    -8.9381     0.0000    10.0000 </r>
       <r>    -8.8324     0.0000    10.0000 </r>
       <r>    -8.7268     0.0000    10.0000 </r>
       <r>    -8.6211     0.0000    10.0000 </r>
       <r>    -8.5155     0.0000    10.0000 </r>
       <r>    -8.4098     0.0000    10.0000 </r>
       <r>    -8.3042     0.0000    10.0000 </r>
       <r>    -8.1985     0.0000    10.0000 </r>
       <r>    -8.0928     0.0000    10.0000 </r>
       <r>    -7.9872     0.0000    10.0000 </r>
       <r>    -7.8815     0.0000    10.0000 </r>
       <r>    -7.7759     0.0000    10.0000 </r>
       <r>    -7.6702     0.0000    10.0000 </r>
       <r>    -7.5646     0.0000    10.0000 </r>
       <r>    -7.4589     0.0002    10.0000 </r>
       <r>    -7.3533     0.0044    10.0005 </r>
       <r>    -7.2476     0.0466    10.0054 </r>
       <r>    -7.1419     0.1722    10.0236 </r>
       <r>    -7.0363    -0.2784     9.9942 </r>
       <r>    -6.9306    -2.1618     9.7658 </r>
       <r>    -6.8250     2.4751    10.0273 </r>
       <r>    -6.7193    21.3633    12.2844 </r>
       <r>    -6.6137    28.0816    15.2514 </r>
       <r>    -6.5080     9.8058    16.2874 </r>
       <r>    -6.4024    -3.5716    15.9101 </r>
       <r>    -6.2967    -0.1785    15.8912 </r>
       <r>    -6.1911    17.8181    17.7738 </r>
       <r>    -6.0854    26.6738    20.5920 </r>
       <r>    -5.9797    12.5871    21.9219 </r>
       <r>    -5.8741    21.6988    24.2144 </r>
       <r>    -5.7684    59.0983    30.4585 </r>
       <r>    -5.6628    99.0352    40.9220 </r>
       <r>    -5.5571   185.2069    60.4900 </r>
       <r>    -5.4515   285.3643    90.6401 </r>
       <r>    -5.3458   275.4824   119.7461 </r>
       <r>    -5.2402   207.2901   141.6473 </r>
       <r>    -5.1345   229.4918   165.8942 </r>
       <r>    -5.0289   329.1839   200.6741 </r>
       <r>    -4.9232   362.5993   238.9844 </r>
       <r>    -4.8175   301.8446   270.8757 </r>
       <r>    -4.7119   304.7938   303.0787 </r>
       <r>    -4.6062   389.6993   344.2522 </r>
       <r>    -4.5006   417.8569   388.4008 </r>
       <r>    -4.3949   439.4419   434.8300 </r>
       <r>    -4.2893   534.7640   491.3303 </r>
       <r>    -4.1836   518.8207   546.1462 </r>
       <r>    -4.0780   274.2372   575.1207 </r>
       <r>    -3.9723    54.7876   580.9092 </r>
       <r>    -3.8667    19.3450   582.9531 </r>
       <r>    -3.7610    33.6433   586.5077 </r>
       <r>    -3.6553    14.5531   588.0453 </r>
       <r>    -3.5497     8.1999   588.9117 </r>
       <r>    -3.4440    22.5347   591.2926 </r>
       <r>    -3.3384    19.2396   593.3253 </r>
       <r>    -3.2327     2.2257   593.5605 </r>
       <r>    -3.1271    13.5263   594.9896 </r>
       <r>    -3.0214    54.5130   600.7492 </r>
       <r>    -2.9158    57.6306   606.8381 </r>
       <r>    -2.8101    22.3211   609.1965 </r>
       <r>    -2.7044     5.0748   609.7326 </r>
       <r>    -2.5988    16.0681   611.4303 </r>
       <r>    -2.4931    28.5800   614.4499 </r>
       <r>    -2.3875    14.0408   615.9334 </r>
       <r>    -2.2818     3.8667   616.3419 </r>
       <r>    -2.1762    23.2513   618.7985 </r>
       <r>    -2.0705    35.7291   622.5735 </r>
       <r>    -1.9649    32.8246   626.0416 </r>
       <r>    -1.8592    40.5453   630.3254 </r>
       <r>    -1.7536    46.8574   635.2761 </r>
       <r>    -1.6479    44.4038   639.9676 </r>
       <r>    -1.5422    34.4147   643.6036 </r>
       <r>    -1.4366    21.7444   645.9010 </r>
       <r>    -1.3309    18.5506   647.8610 </r>
       <r>    -1.2253    13.0350   649.2382 </r>
       <r>    -1.1196     8.4824   650.1344 </r>
       <r>    -1.0140    39.2264   654.2789 </r>
       <r>    -0.9083    74.6624   662.1673 </r>
       <r>    -0.8027    59.1661   668.4185 </r>
       <r>    -0.6970    19.4265   670.4710 </r>
       <r>    -0.5914     5.8032   671.0841 </r>
       <r>    -0.4857     6.9902   671.8227 </r>
       <r>    -0.3800     2.3757   672.0737 </r>
       <r>    -0.2744    -0.5958   672.0107 </r>
       <r>    -0.1687    -0.1968   671.9899 </r>
       <r>    -0.0631     0.0670   671.9970 </r>
       <r>     0.0426     0.0252   671.9997 </r>
       <r>     0.1482     0.0028   672.0000 </r>
       <r>     0.2539     0.0001   672.0000 </r>
       <r>     0.3595     0.0000   672.0000 </r>
       <r>     0.4652     0.0000   672.0000 </r>
       <r>     0.5708     0.0000   672.0000 </r>
       <r>     0.6765     0.0000   672.0000 </r>
       <r>     0.7822     0.0000   672.0000 </r>
       <r>     0.8878     0.0000   672.0000 </r>
       <r>     0.9935     0.0000   672.0000 </r>
       <r>     1.0991     0.0000   672.0000 </r>
       <r>     1.2048     0.0000   672.0000 </r>
       <r>     1.3104     0.0000   672.0000 </r>
       <r>     1.4161     0.0000   672.0000 </r>
      </set>
     </set>
    </array>
   </total>
  </dos>
 </calculation>
 <structure name="finalpos" >
  <crystal>
   <varray name="basis" >
    <v>      30.00000000       0.00000000       0.00000000 </v>
    <v>       0.00000000      30.00000000       0.00000000 </v>
    <v>       0.00000000       0.00000000      30.00000000 </v>
   </varray>
   <i name="volume">  27000.00000000 </i>
   <varray name="rec_basis" >
    <v>       0.03333333       0.00000000       0.00000000 </v>
    <v>       0.00000000       0.03333333       0.00000000 </v>
    <v>       0.00000000       0.00000000       0.03333333 </v>
   </varray>
  </crystal>
  <varray name="positions" >
   <v>       0.44576020       0.32826710       0.41691983 </v>
   <v>       0.67173288       0.55423978       0.41691983 </v>
   <v>       0.55423980       0.32826710       0.41691983 </v>
   <v>       0.32826712       0.55423978       0.41691983 </v>
   <v>       0.50000000       0.38250690       0.34021317 </v>
   <v>       0.50000000       0.38250690       0.65978680 </v>
   <v>       0.50000000       0.27609440       0.50000000 </v>
   <v>       0.27609443       0.49999998       0.50000000 </v>
   <v>       0.72390557       0.49999998       0.50000000 </v>
   <v>       0.50000000       0.72390555       0.50000000 </v>
   <v>       0.61195280       0.38804720       0.34167483 </v>
   <v>       0.61195280       0.38804720       0.65832513 </v>
   <v>       0.38804722       0.61195278       0.34167483 </v>
   <v>       0.38804722       0.61195278       0.65832513 </v>
   <v>       0.38804720       0.38804720       0.34167483 </v>
   <v>       0.38804720       0.38804720       0.65832513 </v>
   <v>       0.61195278       0.61195278       0.34167483 </v>
   <v>       0.61195278       0.61195278       0.65832513 </v>
   <v>       0.44576020       0.32826710       0.58308023 </v>
   <v>       0.67173288       0.55423978       0.58308023 </v>
   <v>       0.55791699       0.44208301       0.41809300 </v>
   <v>       0.32826705       0.44576024       0.41691983 </v>
   <v>       0.55423973       0.67173293       0.41691983 </v>
   <v>       0.55423980       0.32826710       0.58308023 </v>
   <v>       0.32826712       0.55423978       0.58308023 </v>
   <v>       0.67173295       0.44576024       0.41691983 </v>
   <v>       0.44576027       0.67173293       0.41691983 </v>
   <v>       0.44208301       0.44208301       0.41809300 </v>
   <v>       0.50000000       0.38416601       0.50000000 </v>
   <v>       0.61749315       0.50000005       0.34021317 </v>
   <v>       0.61749315       0.50000005       0.65978680 </v>
   <v>       0.38250685       0.50000005       0.34021317 </v>
   <v>       0.38250685       0.50000005       0.65978680 </v>
   <v>       0.38317830       0.38317830       0.50000000 </v>
   <v>       0.61682172       0.61682172       0.50000000 </v>
   <v>       0.61682170       0.38317830       0.50000000 </v>
   <v>       0.38317828       0.61682172       0.50000000 </v>
   <v>       0.50000000       0.50000000       0.33478917 </v>
   <v>       0.50000000       0.50000000       0.66521087 </v>
   <v>       0.32826705       0.44576024       0.58308023 </v>
   <v>       0.55423973       0.67173293       0.58308023 </v>
   <v>       0.55791699       0.44208301       0.58190703 </v>
   <v>       0.44208298       0.55791702       0.41809300 </v>
   <v>       0.44208301       0.44208301       0.58190703 </v>
   <v>       0.67173295       0.44576024       0.58308023 </v>
   <v>       0.44576027       0.67173293       0.58308023 </v>
   <v>       0.55791702       0.55791702       0.41809300 </v>
   <v>       0.38416599       0.50000002       0.50000000 </v>
   <v>       0.61583401       0.50000002       0.50000000 </v>
   <v>       0.50000000       0.61749319       0.34021317 </v>
   <v>       0.50000000       0.61749319       0.65978680 </v>
   <v>       0.50000000       0.50000000       0.50000000 </v>
   <v>       0.44208298       0.55791702       0.58190703 </v>
   <v>       0.55791702       0.55791702       0.58190703 </v>
   <v>       0.50000000       0.61583404       0.50000000 </v>
   <v>       0.52095530       0.49227320       0.71927610 </v>
   <v>       0.52453007       0.49095507       0.75668257 </v>
  </varray>
  <varray name="selective"  type="logical" >
   <v type="logical" >  F  F  F </v>
   <v type="logical" >  F  F  F </v>
   <v type="logical" >  F  F  F </v>
   <v type="logical" >  F  F  F </v>
   <v type="logical" >  F  F  F </v>
   <v type="logical" >  F  F  F </v>
   <v type="logical" >  F  F  F </v>
   <v type="logical" >  F  F  F </v>
   <v type="logical" >  F  F  F </v>
   <v type="logical" >  F  F  F </v>
   <v type="logical" >  F  F  F </v>
   <v type="logical" >  F  F  F </v>
   <v type="logical" >  F  F  F </v>
   <v type="logical" >  F  F  F </v>
   <v type="logical" >  F  F  F </v>
   <v type="logical" >  F  F  F </v>
   <v type="logical" >  F  F  F </v>
   <v type="logical" >  F  F  F </v>
   <v type="logical" >  F  F  F </v>
   <v type="logical" >  F  F  F </v>
   <v type="logical" >  F  F  F </v>
   <v type="logical" >  F  F  F </v>
   <v type="logical" >  F  F  F </v>
   <v type="logical" >  F  F  F </v>
   <v type="logical" >  F  F  F </v>
   <v type="logical" >  F  F  F </v>
   <v type="logical" >  F  F  F </v>
   <v type="logical" >  F  F  F </v>
   <v type="logical" >  F  F  F </v>
   <v type="logical" >  F  F  F </v>
   <v type="logical" >  F  F  F </v>
   <v type="logical" >  F  F  F </v>
   <v type="logical" >  F  F  F </v>
   <v type="logical" >  F  F  F </v>
   <v type="logical" >  F  F  F </v>
   <v type="logical" >  F  F  F </v>
   <v type="logical" >  F  F  F </v>
   <v type="logical" >  F  F  F </v>
   <v type="logical" >  F  F  F </v>
   <v type="logical" >  F  F  F </v>
   <v type="logical" >  F  F  F </v>
   <v type="logical" >  F  F  F </v>
   <v type="logical" >  F  F  F </v>
   <v type="logical" >  F  F  F </v>
   <v type="logical" >  F  F  F </v>
   <v type="logical" >  F  F  F </v>
   <v type="logical" >  F  F  F </v>
   <v type="logical" >  F  F  F </v>
   <v type="logical" >  F  F  F </v>
   <v type="logical" >  F  F  F </v>
   <v type="logical" >  F  F  F </v>
   <v type="logical" >  F  F  F </v>
   <v type="logical" >  F  F  F </v>
   <v type="logical" >  F  F  F </v>
   <v type="logical" >  F  F  F </v>
   <v type="logical" >  F  F  F </v>
   <v type="logical" >  F  F  F </v>
  </varray>
  <nose>
   <v>      -3.00000000       0.00000000       0.00010000       0.00010000 </v>
  </nose>
 </structure>
</modeling>
