   57   57    1    1
  0.4736842E+03  0.3000000E-08  0.3000000E-08  0.3000000E-08  0.5000000E-15
  1.000000000000000E-004
  CAR 
 6_Pd100_top_free_z(O)                   
    560      1    336
 
  0.0000000E+00  0.0000000E+00  0.0000000E+00  0.1000000E+01
    1      -28.238512   1.000000
    2      -13.284384   1.000000
    3      -11.245004   1.000000
    4      -10.827079   1.000000
    5      -10.093549   1.000000
    6       -6.659602   1.000000
    7       -6.294262   1.000000
    8       -6.230361   1.000000
    9       -6.138370   1.000000
   10       -6.131022   1.000000
   11       -6.059107   1.000000
   12       -5.854880   1.000000
   13       -5.820460   1.000000
   14       -5.811081   1.000000
   15       -5.763555   1.000000
   16       -5.746282   1.000000
   17       -5.694262   1.000000
   18       -5.692963   1.000000
   19       -5.685816   1.000000
   20       -5.663222   1.000000
   21       -5.662332   1.000000
   22       -5.628645   1.000000
   23       -5.610997   1.000000
   24       -5.600440   1.000000
   25       -5.597010   1.000000
   26       -5.578984   1.000000
   27       -5.566333   1.000000
   28       -5.560507   1.000000
   29       -5.551899   1.000000
   30       -5.547743   1.000000
   31       -5.542704   1.000000
   32       -5.526340   1.000000
   33       -5.520268   1.000000
   34       -5.519114   1.000000
   35       -5.515211   1.000000
   36       -5.514574   1.000000
   37       -5.507784   1.000000
   38       -5.492898   1.000000
   39       -5.485772   1.000000
   40       -5.480382   1.000000
   41       -5.474913   1.000000
   42       -5.471901   1.000000
   43       -5.468628   1.000000
   44       -5.464322   1.000000
   45       -5.463080   1.000000
   46       -5.451611   1.000000
   47       -5.437466   1.000000
   48       -5.432566   1.000000
   49       -5.430505   1.000000
   50       -5.426886   1.000000
   51       -5.424098   1.000000
   52       -5.411786   1.000000
   53       -5.406065   1.000000
   54       -5.405372   1.000000
   55       -5.395954   1.000000
   56       -5.383939   1.000000
   57       -5.367493   1.000000
   58       -5.346170   1.000000
   59       -5.336205   1.000000
   60       -5.331820   1.000000
   61       -5.327167   1.000000
   62       -5.326729   1.000000
   63       -5.317090   1.000000
   64       -5.316811   1.000000
   65       -5.302518   1.000000
   66       -5.300890   1.000000
   67       -5.293659   1.000000
   68       -5.268714   1.000000
   69       -5.254702   1.000000
   70       -5.237244   1.000000
   71       -5.217693   1.000000
   72       -5.215228   1.000000
   73       -5.201434   1.000000
   74       -5.198386   1.000000
   75       -5.191127   1.000000
   76       -5.182155   1.000000
   77       -5.179753   1.000000
   78       -5.175576   1.000000
   79       -5.170642   1.000000
   80       -5.165245   1.000000
   81       -5.163642   1.000000
   82       -5.140711   1.000000
   83       -5.134377   1.000000
   84       -5.128572   1.000000
   85       -5.122540   1.000000
   86       -5.120306   1.000000
   87       -5.110902   1.000000
   88       -5.101099   1.000000
   89       -5.085046   1.000000
   90       -5.073743   1.000000
   91       -5.070581   1.000000
   92       -5.059613   1.000000
   93       -5.055868   1.000000
   94       -5.055089   1.000000
   95       -5.052598   1.000000
   96       -5.050880   1.000000
   97       -5.048454   1.000000
   98       -5.040011   1.000000
   99       -5.037666   1.000000
  100       -5.031395   1.000000
  101       -5.023952   1.000000
  102       -5.021688   1.000000
  103       -5.011173   1.000000
  104       -5.010279   1.000000
  105       -5.004481   1.000000
  106       -5.001634   1.000000
  107       -4.996203   1.000000
  108       -4.992995   1.000000
  109       -4.992155   1.000000
  110       -4.980700   1.000000
  111       -4.978128   1.000000
  112       -4.974550   1.000000
  113       -4.966017   1.000000
  114       -4.962730   1.000000
  115       -4.959541   0.999999
  116       -4.957001   0.999999
  117       -4.945841   0.999999
  118       -4.939098   0.999999
  119       -4.932274   0.999999
  120       -4.927233   0.999998
  121       -4.918662   0.999998
  122       -4.913012   0.999997
  123       -4.910545   0.999997
  124       -4.908326   0.999997
  125       -4.902454   0.999996
  126       -4.900814   0.999996
  127       -4.878143   0.999991
  128       -4.874619   0.999990
  129       -4.864864   0.999987
  130       -4.852802   0.999981
  131       -4.845898   0.999977
  132       -4.841383   0.999974
  133       -4.840146   0.999973
  134       -4.837481   0.999971
  135       -4.833259   0.999967
  136       -4.830861   0.999965
  137       -4.813377   0.999942
  138       -4.801608   0.999920
  139       -4.797816   0.999912
  140       -4.783944   0.999874
  141       -4.781481   0.999866
  142       -4.771304   0.999826
  143       -4.759289   0.999767
  144       -4.756394   0.999751
  145       -4.746394   0.999685
  146       -4.738437   0.999623
  147       -4.732289   0.999567
  148       -4.730646   0.999551
  149       -4.716570   0.999394
  150       -4.704217   0.999220
  151       -4.699026   0.999136
  152       -4.691181   0.998995
  153       -4.687321   0.998920
  154       -4.685788   0.998889
  155       -4.680577   0.998778
  156       -4.677792   0.998716
  157       -4.675235   0.998656
  158       -4.672793   0.998597
  159       -4.670475   0.998540
  160       -4.662308   0.998325
  161       -4.659636   0.998251
  162       -4.656712   0.998167
  163       -4.652368   0.998037
  164       -4.649191   0.997939
  165       -4.647662   0.997891
  166       -4.646259   0.997846
  167       -4.644749   0.997797
  168       -4.641612   0.997694
  169       -4.637950   0.997570
  170       -4.630501   0.997309
  171       -4.621371   0.996975
  172       -4.615209   0.996744
  173       -4.608530   0.996493
  174       -4.608414   0.996489
  175       -4.598588   0.996125
  176       -4.597175   0.996074
  177       -4.596869   0.996063
  178       -4.592629   0.995913
  179       -4.592212   0.995899
  180       -4.589961   0.995822
  181       -4.579290   0.995489
  182       -4.568651   0.995232
  183       -4.566446   0.995192
  184       -4.561210   0.995115
  185       -4.557844   0.995084
  186       -4.556128   0.995073
  187       -4.554847   0.995068
  188       -4.551365   0.995066
  189       -4.549301   0.995074
  190       -4.539209   0.995221
  191       -4.532123   0.995448
  192       -4.527117   0.995679
  193       -4.515035   0.996517
  194       -4.511065   0.996888
  195       -4.504270   0.997646
  196       -4.502727   0.997841
  197       -4.498850   0.998370
  198       -4.489673   0.999853
  199       -4.486245   1.000495
  200       -4.476911   1.002499
  201       -4.475064   1.002941
  202       -4.468682   1.004587
  203       -4.462746   1.006285
  204       -4.459959   1.007137
  205       -4.457509   1.007916
  206       -4.453764   1.009159
  207       -4.450580   1.010265
  208       -4.446141   1.011880
  209       -4.441032   1.013842
  210       -4.439654   1.014390
  211       -4.433075   1.017103
  212       -4.424107   1.021039
  213       -4.419171   1.023302
  214       -4.417870   1.023908
  215       -4.412537   1.026424
  216       -4.407125   1.029015
  217       -4.405012   1.030033
  218       -4.404347   1.030353
  219       -4.398525   1.033153
  220       -4.395864   1.034423
  221       -4.383390   1.040175
  222       -4.379650   1.041792
  223       -4.369134   1.045910
  224       -4.362688   1.048019
  225       -4.355538   1.049875
  226       -4.346780   1.051297
  227       -4.338495   1.051592
  228       -4.337686   1.051559
  229       -4.336485   1.051487
  230       -4.334723   1.051335
  231       -4.333141   1.051147
  232       -4.332917   1.051117
  233       -4.329656   1.050560
  234       -4.325366   1.049488
  235       -4.323373   1.048853
  236       -4.322104   1.048401
  237       -4.321469   1.048161
  238       -4.319363   1.047296
  239       -4.316791   1.046092
  240       -4.311112   1.042836
  241       -4.308758   1.041235
  242       -4.301689   1.035481
  243       -4.297147   1.030998
  244       -4.293698   1.027164
  245       -4.289155   1.021525
  246       -4.287710   1.019587
  247       -4.284396   1.014875
  248       -4.283666   1.013786
  249       -4.278884   1.006189
  250       -4.276320   1.001781
  251       -4.267031   0.983787
  252       -4.264420   0.978148
  253       -4.264016   0.977253
  254       -4.258435   0.964240
  255       -4.256280   0.958894
  256       -4.253546   0.951852
  257       -4.249841   0.941850
  258       -4.247968   0.936590
  259       -4.244154   0.925458
  260       -4.243476   0.923423
  261       -4.242326   0.919925
  262       -4.239404   0.910813
  263       -4.236110   0.900145
  264       -4.235418   0.897855
  265       -4.234397   0.894436
  266       -4.225224   0.862000
  267       -4.223814   0.856742
  268       -4.221454   0.847779
  269       -4.220438   0.843861
  270       -4.216844   0.829712
  271       -4.214204   0.819041
  272       -4.208202   0.793918
  273       -4.201587   0.764937
  274       -4.192082   0.721117
  275       -4.185431   0.689117
  276       -4.184243   0.683297
  277       -4.176497   0.644678
  278       -4.172828   0.626019
  279       -4.172210   0.622858
  280       -4.168606   0.604315
  281       -4.164152   0.581185
  282       -4.156956   0.543440
  283       -4.140830   0.458252
  284       -4.128375   0.393185
  285       -4.127246   0.387368
  286       -4.126928   0.385730
  287       -4.117442   0.337608
  288       -4.109647   0.299282
  289       -4.038358   0.034133
  290       -3.967772  -0.050567
  291       -3.906016  -0.036507
  292       -3.828859  -0.004608
  293       -3.816443  -0.001570
  294       -3.748095   0.004926
  295       -3.502110   0.000094
  296       -3.491205   0.000070
  297       -3.365579   0.000001
  298       -3.062982   0.000000
  299       -3.061226   0.000000
  300       -3.037104   0.000000
  301       -3.034322   0.000000
  302       -3.023800   0.000000
  303       -2.983536   0.000000
  304       -2.940216   0.000000
  305       -2.854381   0.000000
  306       -2.544968   0.000000
  307       -2.522842   0.000000
  308       -2.438753   0.000000
  309       -2.251548   0.000000
  310       -2.133471   0.000000
  311       -2.117637   0.000000
  312       -2.115156   0.000000
  313       -1.992800   0.000000
  314       -1.976115   0.000000
  315       -1.947940   0.000000
  316       -1.863813   0.000000
  317       -1.849698   0.000000
  318       -1.743461   0.000000
  319       -1.675603   0.000000
  320       -1.643167   0.000000
  321       -1.603024   0.000000
  322       -1.561298   0.000000
  323       -1.471701   0.000000
  324       -1.377178   0.000000
  325       -1.275693   0.000000
  326       -1.128531   0.000000
  327       -1.048999   0.000000
  328       -1.008026   0.000000
  329       -0.984908   0.000000
  330       -0.961808   0.000000
  331       -0.941846   0.000000
  332       -0.907216   0.000000
  333       -0.903099   0.000000
  334       -0.884486   0.000000
  335       -0.815152   0.000000
  336       -0.590839   0.000000
