<?xml version="1.0" encoding="ISO-8859-1"?>
<modeling>
 <generator>
  <i name="program" type="string">vasp </i>
  <i name="version" type="string">5.4.4.18Apr17-6-g9f103f2a35  </i>
  <i name="subversion" type="string">(build Sep 03 2018 23:53:05) complex            parallel </i>
  <i name="platform" type="string">LinuxIFC </i>
  <i name="date" type="string">2021 12 02 </i>
  <i name="time" type="string">13:59:23 </i>
 </generator>
 <incar>
  <i type="string" name="SYSTEM"> 6_Pd100_top_free_z(O)</i>
  <i type="int" name="ISTART">     0</i>
  <i type="string" name="PREC">normal   			! encut=max(enmax), ngx,y,z</i>
  <i type="string" name="ALGO"> Fast     			! Mix RMM-DIIS and Dav</i>
  <i type="logical" name="ADDGRID"> F  </i>
  <i type="int" name="ISPIN">     1</i>
  <i type="int" name="ICHARG">     2</i>
  <i type="int" name="NELM">   100</i>
  <i type="int" name="NELMIN">     6</i>
  <i type="int" name="IBRION">     2</i>
  <i name="EDIFF">      0.00010000</i>
  <i name="EDIFFG">     -0.05000000</i>
  <i type="int" name="NSW">     0</i>
  <i type="int" name="ISIF">     2</i>
  <i type="int" name="ISYM">     2</i>
  <i name="ENCUT">    400.00000000</i>
  <i type="string" name="LREAL"> Auto     			! Auto or A projection done</i>
  <i type="int" name="ISMEAR">     2</i>
  <i name="SIGMA">      0.20000000</i>
  <i type="logical" name="LWAVE"> F  </i>
  <i type="logical" name="LCHARG"> F  </i>
  <v type="int" name="KPOINT_BSE">    -1     0     0     0</v>
  <i type="int" name="MAXMEM"> 10000</i>
  <i type="int" name="NELM">   100</i>
  <i type="string" name="GGA"> RP         			! Revised PBE</i>
 </incar>
 <structure name="primitive_cell" >
  <crystal>
   <varray name="basis" >
    <v>      30.00000000       0.00000000       0.00000000 </v>
    <v>       0.00000000      30.00000000       0.00000000 </v>
    <v>       0.00000000       0.00000000      30.00000000 </v>
   </varray>
   <i name="volume">  27000.00000000 </i>
   <varray name="rec_basis" >
    <v>       0.03333333       0.00000000       0.00000000 </v>
    <v>       0.00000000       0.03333333       0.00000000 </v>
    <v>       0.00000000       0.00000000       0.03333333 </v>
   </varray>
  </crystal>
  <varray name="positions" >
   <v>       0.44576020       0.32826710       0.41691983 </v>
   <v>      -0.44576020       0.32826710       0.41691983 </v>
   <v>      -0.50000000       0.38250690       0.34021317 </v>
   <v>      -0.50000000       0.27609440      -0.50000000 </v>
   <v>       0.38804720       0.38804720       0.34167483 </v>
   <v>      -0.50000000       0.38416601      -0.50000000 </v>
   <v>       0.44208300       0.44208300       0.41809300 </v>
   <v>       0.38317830       0.38317830      -0.50000000 </v>
   <v>      -0.44208300       0.44208300       0.41809300 </v>
   <v>       0.44576020       0.32826710      -0.41691977 </v>
   <v>       0.32826705       0.44576024       0.41691983 </v>
   <v>      -0.38804720       0.38804720       0.34167483 </v>
   <v>      -0.38317830       0.38317830      -0.50000000 </v>
   <v>      -0.50000000      -0.50000000       0.33478917 </v>
   <v>      -0.50000000      -0.50000000      -0.50000000 </v>
   <v>      -0.44576020       0.32826710      -0.41691977 </v>
   <v>       0.38250685      -0.49999995       0.34021317 </v>
   <v>       0.44208300       0.44208300      -0.41809297 </v>
   <v>       0.38416599      -0.49999998      -0.50000000 </v>
   <v>      -0.44208300       0.44208300      -0.41809297 </v>
   <v>       0.44208298      -0.44208298       0.41809300 </v>
   <v>       0.32826705       0.44576024      -0.41691977 </v>
   <v>      -0.50000000       0.38250690      -0.34021320 </v>
   <v>       0.32826712      -0.44576022       0.41691983 </v>
   <v>      -0.38250685      -0.49999995       0.34021317 </v>
   <v>      -0.32826705       0.44576024       0.41691983 </v>
   <v>       0.27609443       0.49999998      -0.50000000 </v>
   <v>       0.38804720       0.38804720      -0.34167487 </v>
   <v>      -0.38416599      -0.49999998      -0.50000000 </v>
   <v>      -0.44208298      -0.44208298       0.41809300 </v>
   <v>       0.47113493       0.44029733      -0.34457300 </v>
   <v>       0.44208298      -0.44208298      -0.41809297 </v>
   <v>       0.46471223       0.42701303      -0.30998927 </v>
   <v>      -0.38804720       0.38804720      -0.34167487 </v>
   <v>       0.38804722      -0.38804722       0.34167483 </v>
   <v>       0.38250685      -0.49999995      -0.34021320 </v>
   <v>       0.32826712      -0.44576022      -0.41691977 </v>
   <v>      -0.32826705       0.44576024      -0.41691977 </v>
   <v>       0.50000000      -0.38250681       0.34021317 </v>
   <v>      -0.50000000      -0.38416596      -0.50000000 </v>
   <v>      -0.44208298      -0.44208298      -0.41809297 </v>
   <v>      -0.50000000      -0.50000000      -0.33478913 </v>
   <v>       0.38317828      -0.38317828      -0.50000000 </v>
   <v>      -0.32826712      -0.44576022       0.41691983 </v>
   <v>      -0.27609443       0.49999998      -0.50000000 </v>
   <v>      -0.38804722      -0.38804722       0.34167483 </v>
   <v>      -0.38250685      -0.49999995      -0.34021320 </v>
   <v>       0.44576027      -0.32826707       0.41691983 </v>
   <v>      -0.38317828      -0.38317828      -0.50000000 </v>
   <v>      -0.32826712      -0.44576022      -0.41691977 </v>
   <v>      -0.44576027      -0.32826707       0.41691983 </v>
   <v>       0.38804722      -0.38804722      -0.34167487 </v>
   <v>      -0.50000000      -0.38250681      -0.34021320 </v>
   <v>       0.44576027      -0.32826707      -0.41691977 </v>
   <v>      -0.44576027      -0.32826707      -0.41691977 </v>
   <v>      -0.50000000      -0.27609445       0.50000000 </v>
   <v>      -0.38804722      -0.38804722      -0.34167487 </v>
  </varray>
 </structure>
 <varray name="primitive_index" >
  <v type="int" >        1 </v>
  <v type="int" >        3 </v>
  <v type="int" >        5 </v>
  <v type="int" >        7 </v>
  <v type="int" >       15 </v>
  <v type="int" >       29 </v>
  <v type="int" >       28 </v>
  <v type="int" >       34 </v>
  <v type="int" >       21 </v>
  <v type="int" >       19 </v>
  <v type="int" >       22 </v>
  <v type="int" >       11 </v>
  <v type="int" >       36 </v>
  <v type="int" >       38 </v>
  <v type="int" >       52 </v>
  <v type="int" >       24 </v>
  <v type="int" >       32 </v>
  <v type="int" >       44 </v>
  <v type="int" >       48 </v>
  <v type="int" >       42 </v>
  <v type="int" >       43 </v>
  <v type="int" >       40 </v>
  <v type="int" >        6 </v>
  <v type="int" >        4 </v>
  <v type="int" >       30 </v>
  <v type="int" >       26 </v>
  <v type="int" >        8 </v>
  <v type="int" >       16 </v>
  <v type="int" >       49 </v>
  <v type="int" >       47 </v>
  <v type="int" >       56 </v>
  <v type="int" >       53 </v>
  <v type="int" >       57 </v>
  <v type="int" >       12 </v>
  <v type="int" >       13 </v>
  <v type="int" >       33 </v>
  <v type="int" >       25 </v>
  <v type="int" >       45 </v>
  <v type="int" >       50 </v>
  <v type="int" >       55 </v>
  <v type="int" >       54 </v>
  <v type="int" >       39 </v>
  <v type="int" >       37 </v>
  <v type="int" >        2 </v>
  <v type="int" >        9 </v>
  <v type="int" >       17 </v>
  <v type="int" >       31 </v>
  <v type="int" >       27 </v>
  <v type="int" >       35 </v>
  <v type="int" >       20 </v>
  <v type="int" >       23 </v>
  <v type="int" >       14 </v>
  <v type="int" >       51 </v>
  <v type="int" >       46 </v>
  <v type="int" >       41 </v>
  <v type="int" >       10 </v>
  <v type="int" >       18 </v>
 </varray>
 <kpoints>
  <generation param="Monkhorst-Pack">
   <v type="int" name="divisions">       1        1        1 </v>
   <v name="usershift">      0.00000000       0.00000000       0.00000000 </v>
   <v name="genvec1">      1.00000000       0.00000000       0.00000000 </v>
   <v name="genvec2">      0.00000000       1.00000000       0.00000000 </v>
   <v name="genvec3">      0.00000000       0.00000000       1.00000000 </v>
   <v name="shift">      0.00000000       0.00000000       0.00000000 </v>
  </generation>
  <varray name="kpointlist" >
   <v>       0.00000000       0.00000000       0.00000000 </v>
  </varray>
  <varray name="weights" >
   <v>       1.00000000 </v>
  </varray>
 </kpoints>
 <parameters>
  <separator name="general" >
   <i type="string" name="SYSTEM">6_Pd100_top_free_z(O)</i>
   <i type="logical" name="LCOMPAT"> F  </i>
  </separator>
  <separator name="electronic" >
   <i type="string" name="PREC">normal</i>
   <i name="ENMAX">    400.00000000</i>
   <i name="ENAUG">    644.87300000</i>
   <i name="EDIFF">      0.00010000</i>
   <i type="int" name="IALGO">    68</i>
   <i type="int" name="IWAVPR">    10</i>
   <i type="int" name="NBANDS">   336</i>
   <i name="NELECT">    560.00000000</i>
   <i type="int" name="TURBO">     0</i>
   <i type="int" name="IRESTART">     0</i>
   <i type="int" name="NREBOOT">     0</i>
   <i type="int" name="NMIN">     0</i>
   <i name="EREF">      0.00000000</i>
   <separator name="electronic smearing" >
    <i type="int" name="ISMEAR">     2</i>
    <i name="SIGMA">      0.20000000</i>
    <i name="KSPACING">      0.50000000</i>
    <i type="logical" name="KGAMMA"> T  </i>
   </separator>
   <separator name="electronic projectors" >
    <i type="logical" name="LREAL"> T  </i>
    <v name="ROPT">     -0.00050000     -0.00050000     -0.00050000</v>
    <i type="int" name="LMAXPAW">  -100</i>
    <i type="int" name="LMAXMIX">     2</i>
    <i type="logical" name="NLSPLINE"> F  </i>
   </separator>
   <separator name="electronic startup" >
    <i type="int" name="ISTART">     0</i>
    <i type="int" name="ICHARG">     2</i>
    <i type="int" name="INIWAV">     1</i>
   </separator>
   <separator name="electronic spin" >
    <i type="int" name="ISPIN">     1</i>
    <i type="logical" name="LNONCOLLINEAR"> F  </i>
    <v name="MAGMOM">      1.00000000      1.00000000      1.00000000      1.00000000      1.00000000      1.00000000      1.00000000      1.00000000      1.00000000      1.00000000      1.00000000      1.00000000      1.00000000      1.00000000      1.00000000      1.00000000      1.00000000      1.00000000      1.00000000      1.00000000
      1.00000000      1.00000000      1.00000000      1.00000000      1.00000000      1.00000000      1.00000000      1.00000000      1.00000000      1.00000000      1.00000000      1.00000000      1.00000000      1.00000000      1.00000000      1.00000000      1.00000000      1.00000000      1.00000000      1.00000000
      1.00000000      1.00000000      1.00000000      1.00000000      1.00000000      1.00000000      1.00000000      1.00000000      1.00000000      1.00000000      1.00000000      1.00000000      1.00000000      1.00000000      1.00000000      1.00000000      1.00000000</v>
    <i name="NUPDOWN">     -1.00000000</i>
    <i type="logical" name="LSORBIT"> F  </i>
    <v name="SAXIS">      0.00000000      0.00000000      1.00000000</v>
    <i type="logical" name="LSPIRAL"> F  </i>
    <v name="QSPIRAL">      0.00000000      0.00000000      0.00000000</v>
    <i type="logical" name="LZEROZ"> F  </i>
   </separator>
   <separator name="electronic exchange-correlation" >
    <i type="logical" name="LASPH"> F  </i>
    <i type="logical" name="LMETAGGA"> F  </i>
   </separator>
   <separator name="electronic convergence" >
    <i type="int" name="NELM">   100</i>
    <i type="int" name="NELMDL">    -5</i>
    <i type="int" name="NELMIN">     6</i>
    <i name="ENINI">    400.00000000</i>
    <separator name="electronic convergence detail" >
     <i type="logical" name="LDIAG"> T  </i>
     <i type="logical" name="LSUBROT"> F  </i>
     <i name="WEIMIN">      0.00000000</i>
     <i name="EBREAK">      0.00000007</i>
     <i name="DEPER">      0.30000000</i>
     <i type="int" name="NRMM">     4</i>
     <i name="TIME">      0.40000000</i>
    </separator>
   </separator>
   <separator name="electronic mixer" >
    <i name="AMIX">      0.40000000</i>
    <i name="BMIX">      1.00000000</i>
    <i name="AMIN">      0.10000000</i>
    <i name="AMIX_MAG">      1.60000000</i>
    <i name="BMIX_MAG">      1.00000000</i>
    <separator name="electronic mixer details" >
     <i type="int" name="IMIX">     4</i>
     <i type="logical" name="MIXFIRST"> F  </i>
     <i type="int" name="MAXMIX">   -45</i>
     <i name="WC">    100.00000000</i>
     <i type="int" name="INIMIX">     1</i>
     <i type="int" name="MIXPRE">     1</i>
     <i type="int" name="MREMOVE">     5</i>
    </separator>
   </separator>
   <separator name="electronic dipolcorrection" >
    <i type="logical" name="LDIPOL"> F  </i>
    <i type="logical" name="LMONO"> F  </i>
    <i type="int" name="IDIPOL">     0</i>
    <i name="EPSILON">      1.00000000</i>
    <v name="DIPOL">   -100.00000000   -100.00000000   -100.00000000</v>
    <i name="EFIELD">      0.00000000</i>
   </separator>
  </separator>
  <separator name="grids" >
   <i type="int" name="NGX">   150</i>
   <i type="int" name="NGY">   150</i>
   <i type="int" name="NGZ">   150</i>
   <i type="int" name="NGXF">   300</i>
   <i type="int" name="NGYF">   300</i>
   <i type="int" name="NGZF">   300</i>
   <i type="logical" name="ADDGRID"> F  </i>
  </separator>
  <separator name="ionic" >
   <i type="int" name="NSW">     0</i>
   <i type="int" name="IBRION">    -1</i>
   <i type="int" name="MDALGO">     0</i>
   <i type="int" name="ISIF">     2</i>
   <i name="PSTRESS">      0.00000000</i>
   <i name="EDIFFG">     -0.05000000</i>
   <i type="int" name="NFREE">     1</i>
   <i name="POTIM">      0.50000000</i>
   <i name="SMASS">     -3.00000000</i>
   <i name="SCALEE">      1.00000000</i>
  </separator>
  <separator name="ionic md" >
   <i name="TEBEG">      0.00010000</i>
   <i name="TEEND">      0.00010000</i>
   <i type="int" name="NBLOCK">     1</i>
   <i type="int" name="KBLOCK">     1</i>
   <i type="int" name="NPACO">   256</i>
   <i name="APACO">     16.00000000</i>
  </separator>
  <separator name="symmetry" >
   <i type="int" name="ISYM">     2</i>
   <i name="SYMPREC">      0.00001000</i>
  </separator>
  <separator name="dos" >
   <i type="int" name="LORBIT">     0</i>
   <v name="RWIGS">     -1.00000000     -1.00000000     -1.00000000</v>
   <i type="int" name="NEDOS">   301</i>
   <i name="EMIN">     10.00000000</i>
   <i name="EMAX">    -10.00000000</i>
   <i name="EFERMI">      0.00000000</i>
  </separator>
  <separator name="writing" >
   <i type="int" name="NWRITE">     2</i>
   <i type="logical" name="LWAVE"> F  </i>
   <i type="logical" name="LDOWNSAMPLE"> F  </i>
   <i type="logical" name="LCHARG"> F  </i>
   <i type="logical" name="LPARD"> F  </i>
   <i type="logical" name="LVTOT"> F  </i>
   <i type="logical" name="LVHAR"> F  </i>
   <i type="logical" name="LELF"> F  </i>
   <i type="logical" name="LOPTICS"> F  </i>
   <v name="STM">      0.00000000      0.00000000      0.00000000      0.00000000      0.00000000      0.00000000      0.00000000</v>
  </separator>
  <separator name="performance" >
   <i type="int" name="NPAR">     1</i>
   <i type="int" name="NSIM">     4</i>
   <i type="int" name="NBLK">    -1</i>
   <i type="logical" name="LPLANE"> T  </i>
   <i type="logical" name="LSCALAPACK"> T  </i>
   <i type="logical" name="LSCAAWARE"> F  </i>
   <i type="logical" name="LSCALU"> F  </i>
   <i type="logical" name="LASYNC"> F  </i>
   <i type="logical" name="LORBITALREAL"> F  </i>
  </separator>
  <separator name="miscellaneous" >
   <i type="int" name="IDIOT">     3</i>
   <i type="int" name="ISPECIAL">     0</i>
   <i type="logical" name="LMUSIC"> F  </i>
   <v name="POMASS">    106.42000000     12.01100000     16.00000000</v>
   <v name="DARWINR">      0.00000000      0.00000000      0.00000000</v>
   <v name="DARWINV">      1.00000000      1.00000000      1.00000000</v>
   <i type="logical" name="LCORR"> T  </i>
  </separator>
  <i type="logical" name="GGA_COMPAT"> T  </i>
  <i type="logical" name="LBERRY"> F  </i>
  <i type="int" name="ICORELEVEL">     0</i>
  <i type="logical" name="LDAU"> F  </i>
  <i type="int" name="I_CONSTRAINED_M">     0</i>
  <separator name="electronic exchange-correlation" >
   <i type="string" name="GGA">RP</i>
   <i type="int" name="VOSKOWN">     0</i>
   <i type="logical" name="LHFCALC"> F  </i>
   <i type="string" name="PRECFOCK"></i>
   <i type="logical" name="LSYMGRAD"> F  </i>
   <i type="logical" name="LHFONE"> F  </i>
   <i type="logical" name="LRHFCALC"> F  </i>
   <i type="logical" name="LTHOMAS"> F  </i>
   <i type="logical" name="LMODELHF"> F  </i>
   <i name="ENCUT4O">     -1.00000000</i>
   <i type="int" name="EXXOEP">     0</i>
   <i type="int" name="FOURORBIT">     0</i>
   <i name="AEXX">      0.00000000</i>
   <i name="HFALPHA">      0.00000000</i>
   <i name="MCALPHA">      0.00000000</i>
   <i name="ALDAX">      1.00000000</i>
   <i name="AGGAX">      1.00000000</i>
   <i name="ALDAC">      1.00000000</i>
   <i name="AGGAC">      1.00000000</i>
   <i type="int" name="NKREDX">     1</i>
   <i type="int" name="NKREDY">     1</i>
   <i type="int" name="NKREDZ">     1</i>
   <i type="logical" name="SHIFTRED"> F  </i>
   <i type="logical" name="ODDONLY"> F  </i>
   <i type="logical" name="EVENONLY"> F  </i>
   <i type="int" name="LMAXFOCK">     0</i>
   <i type="int" name="NMAXFOCKAE">     0</i>
   <i type="logical" name="LFOCKAEDFT"> F  </i>
   <i name="HFSCREEN">      0.00000000</i>
   <i name="HFSCREENC">      0.00000000</i>
   <i type="int" name="NBANDSGWLOW">     0</i>
  </separator>
  <separator name="vdW DFT" >
   <i type="logical" name="LUSE_VDW"> F  </i>
   <i name="Zab_VDW">     -0.84910000</i>
   <i name="PARAM1">      0.12340000</i>
   <i name="PARAM2">      1.00000000</i>
   <i name="PARAM3">      0.00000000</i>
  </separator>
  <separator name="model GW" >
   <i type="int" name="MODEL_GW">     0</i>
   <i name="MODEL_EPS0">    284.21052632</i>
   <i name="MODEL_ALPHA">      1.00000000</i>
  </separator>
  <separator name="linear response parameters" >
   <i type="logical" name="LEPSILON"> F  </i>
   <i type="logical" name="LRPA"> F  </i>
   <i type="logical" name="LNABLA"> F  </i>
   <i type="logical" name="LVEL"> F  </i>
   <i type="int" name="KINTER">     0</i>
   <i name="CSHIFT">      0.10000000</i>
   <i name="OMEGAMAX">     -1.00000000</i>
   <i name="DEG_THRESHOLD">      0.00200000</i>
   <i name="RTIME">     -0.10000000</i>
   <i name="WPLASMAI">      0.00000000</i>
   <v name="DFIELD">      0.00000000      0.00000000      0.00000000</v>
   <v name="WPLASMA">      0.00000000      0.00000000      0.00000000      0.00000000      0.00000000      0.00000000      0.00000000      0.00000000      0.00000000</v>
  </separator>
  <separator name="orbital magnetization" >
   <i type="logical" name="NUCIND"> F  </i>
   <v name="MAGPOS">      0.00000000      0.00000000      0.00000000</v>
   <i type="logical" name="LNICSALL"> T  </i>
   <i type="logical" name="ORBITALMAG"> F  </i>
   <i type="logical" name="LMAGBLOCH"> F  </i>
   <i type="logical" name="LCHIMAG"> F  </i>
   <i type="logical" name="LGAUGE"> T  </i>
   <i type="int" name="MAGATOM">     0</i>
   <v name="MAGDIPOL">      0.00000000      0.00000000      0.00000000</v>
   <v name="AVECCONST">      0.00000000      0.00000000      0.00000000</v>
  </separator>
  <separator name="response functions" >
   <i type="logical" name="LADDER"> F  </i>
   <i type="logical" name="LRPAFORCE"> F  </i>
   <i type="logical" name="LFXC"> F  </i>
   <i type="logical" name="LHARTREE"> T  </i>
   <i type="int" name="IBSE">     0</i>
   <v type="int" name="KPOINT">    -1     0     0     0</v>
   <i type="logical" name="LTCTE"> F  </i>
   <i type="logical" name="LTETE"> F  </i>
   <i type="logical" name="LTRIPLET"> F  </i>
   <i type="logical" name="LFXCEPS"> F  </i>
   <i type="logical" name="LFXHEG"> F  </i>
   <i type="int" name="NATURALO">     2</i>
   <i type="logical" name="L2ORDER"> F  </i>
   <i type="logical" name="LMP2LT"> F  </i>
   <i type="logical" name="LUSEW"> F  </i>
   <i name="ENCUTGW">     -2.00000000</i>
   <i name="ENCUTGWSOFT">     -2.00000000</i>
   <i name="ENCUTLF">     -1.00000000</i>
   <i type="int" name="LMAXMP2">    -1</i>
   <i name="SCISSOR">      0.00000000</i>
   <i type="int" name="NOMEGA">     0</i>
   <i type="int" name="NOMEGAR">     0</i>
   <i type="int" name="NBANDSGW">    -1</i>
   <i type="int" name="NBANDSO">    -1</i>
   <i type="int" name="NBANDSV">    -1</i>
   <i type="int" name="NELM">   100</i>
   <i type="int" name="NELMHF">     1</i>
   <i type="int" name="DIM">     3</i>
   <i type="int" name="ANTIRES">     0</i>
   <i name="OMEGAMAX">    -30.00000000</i>
   <i name="OMEGAMIN">    -30.00000000</i>
   <i name="OMEGATL">   -200.00000000</i>
   <i type="int" name="OMEGAGRID">   140</i>
   <i name="CSHIFT">     -0.10000000</i>
   <i type="logical" name="SELFENERGY"> F  </i>
   <i type="logical" name="LSPECTRAL"> F  </i>
   <i type="logical" name="LSPECTRALGW"> F  </i>
   <i type="logical" name="LSINGLES"> F  </i>
   <i type="logical" name="LFERMIGW"> F  </i>
   <i type="logical" name="ODDONLYGW"> F  </i>
   <i type="logical" name="EVENONLYGW"> F  </i>
   <i type="int" name="NKREDLFX">     1</i>
   <i type="int" name="NKREDLFY">     1</i>
   <i type="int" name="NKREDLFZ">     1</i>
   <i type="int" name="MAXMEM"> 10000</i>
   <i type="int" name="TELESCOPE">     0</i>
   <i type="int" name="TAUPAR">     1</i>
   <i type="int" name="OMEGAPAR">    -1</i>
   <i name="LAMBDA">      1.00000000</i>
  </separator>
  <separator name="External order field" >
   <i name="OFIELD_KAPPA">      0.00000000</i>
   <v name="OFIELD_K">      0.00000000      0.00000000      0.00000000</v>
   <i name="OFIELD_Q6_NEAR">      0.00000000</i>
   <i name="OFIELD_Q6_FAR">      0.00000000</i>
   <i name="OFIELD_A">      0.00000000</i>
  </separator>
 </parameters>
 <atominfo>
  <atoms>      57 </atoms>
  <types>       3 </types>
  <array name="atoms" >
   <dimension dim="1">ion</dimension>
   <field type="string">element</field>
   <field type="int">atomtype</field>
   <set>
    <rc><c>Pd</c><c>   1</c></rc>
    <rc><c>Pd</c><c>   1</c></rc>
    <rc><c>Pd</c><c>   1</c></rc>
    <rc><c>Pd</c><c>   1</c></rc>
    <rc><c>Pd</c><c>   1</c></rc>
    <rc><c>Pd</c><c>   1</c></rc>
    <rc><c>Pd</c><c>   1</c></rc>
    <rc><c>Pd</c><c>   1</c></rc>
    <rc><c>Pd</c><c>   1</c></rc>
    <rc><c>Pd</c><c>   1</c></rc>
    <rc><c>Pd</c><c>   1</c></rc>
    <rc><c>Pd</c><c>   1</c></rc>
    <rc><c>Pd</c><c>   1</c></rc>
    <rc><c>Pd</c><c>   1</c></rc>
    <rc><c>Pd</c><c>   1</c></rc>
    <rc><c>Pd</c><c>   1</c></rc>
    <rc><c>Pd</c><c>   1</c></rc>
    <rc><c>Pd</c><c>   1</c></rc>
    <rc><c>Pd</c><c>   1</c></rc>
    <rc><c>Pd</c><c>   1</c></rc>
    <rc><c>Pd</c><c>   1</c></rc>
    <rc><c>Pd</c><c>   1</c></rc>
    <rc><c>Pd</c><c>   1</c></rc>
    <rc><c>Pd</c><c>   1</c></rc>
    <rc><c>Pd</c><c>   1</c></rc>
    <rc><c>Pd</c><c>   1</c></rc>
    <rc><c>Pd</c><c>   1</c></rc>
    <rc><c>Pd</c><c>   1</c></rc>
    <rc><c>Pd</c><c>   1</c></rc>
    <rc><c>Pd</c><c>   1</c></rc>
    <rc><c>Pd</c><c>   1</c></rc>
    <rc><c>Pd</c><c>   1</c></rc>
    <rc><c>Pd</c><c>   1</c></rc>
    <rc><c>Pd</c><c>   1</c></rc>
    <rc><c>Pd</c><c>   1</c></rc>
    <rc><c>Pd</c><c>   1</c></rc>
    <rc><c>Pd</c><c>   1</c></rc>
    <rc><c>Pd</c><c>   1</c></rc>
    <rc><c>Pd</c><c>   1</c></rc>
    <rc><c>Pd</c><c>   1</c></rc>
    <rc><c>Pd</c><c>   1</c></rc>
    <rc><c>Pd</c><c>   1</c></rc>
    <rc><c>Pd</c><c>   1</c></rc>
    <rc><c>Pd</c><c>   1</c></rc>
    <rc><c>Pd</c><c>   1</c></rc>
    <rc><c>Pd</c><c>   1</c></rc>
    <rc><c>Pd</c><c>   1</c></rc>
    <rc><c>Pd</c><c>   1</c></rc>
    <rc><c>Pd</c><c>   1</c></rc>
    <rc><c>Pd</c><c>   1</c></rc>
    <rc><c>Pd</c><c>   1</c></rc>
    <rc><c>Pd</c><c>   1</c></rc>
    <rc><c>Pd</c><c>   1</c></rc>
    <rc><c>Pd</c><c>   1</c></rc>
    <rc><c>Pd</c><c>   1</c></rc>
    <rc><c>C </c><c>   2</c></rc>
    <rc><c>O </c><c>   3</c></rc>
   </set>
  </array>
  <array name="atomtypes" >
   <dimension dim="1">type</dimension>
   <field type="int">atomspertype</field>
   <field type="string">element</field>
   <field>mass</field>
   <field>valence</field>
   <field type="string">pseudopotential</field>
   <set>
    <rc><c>  55</c><c>Pd</c><c>    106.42000000</c><c>     10.00000000</c><c>  PAW_PBE Pd 04Jan2005                  </c></rc>
    <rc><c>   1</c><c>C </c><c>     12.01100000</c><c>      4.00000000</c><c>  PAW_PBE C 08Apr2002                   </c></rc>
    <rc><c>   1</c><c>O </c><c>     16.00000000</c><c>      6.00000000</c><c>  PAW_PBE O 08Apr2002                   </c></rc>
   </set>
  </array>
 </atominfo>
 <structure name="initialpos" >
  <crystal>
   <varray name="basis" >
    <v>      30.00000000       0.00000000       0.00000000 </v>
    <v>       0.00000000      30.00000000       0.00000000 </v>
    <v>       0.00000000       0.00000000      30.00000000 </v>
   </varray>
   <i name="volume">  27000.00000000 </i>
   <varray name="rec_basis" >
    <v>       0.03333333       0.00000000       0.00000000 </v>
    <v>       0.00000000       0.03333333       0.00000000 </v>
    <v>       0.00000000       0.00000000       0.03333333 </v>
   </varray>
  </crystal>
  <varray name="positions" >
   <v>       0.44576020       0.32826710       0.41691983 </v>
   <v>       0.67173288       0.55423978       0.41691983 </v>
   <v>       0.55423980       0.32826710       0.41691983 </v>
   <v>       0.32826712       0.55423978       0.41691983 </v>
   <v>       0.50000000       0.38250690       0.34021317 </v>
   <v>       0.50000000       0.38250690       0.65978680 </v>
   <v>       0.50000000       0.27609440       0.50000000 </v>
   <v>       0.27609443       0.49999998       0.50000000 </v>
   <v>       0.72390557       0.49999998       0.50000000 </v>
   <v>       0.50000000       0.72390555       0.50000000 </v>
   <v>       0.61195280       0.38804720       0.34167483 </v>
   <v>       0.61195280       0.38804720       0.65832513 </v>
   <v>       0.38804722       0.61195278       0.34167483 </v>
   <v>       0.38804722       0.61195278       0.65832513 </v>
   <v>       0.38804720       0.38804720       0.34167483 </v>
   <v>       0.38804720       0.38804720       0.65832513 </v>
   <v>       0.61195278       0.61195278       0.34167483 </v>
   <v>       0.61195278       0.61195278       0.65832513 </v>
   <v>       0.44576020       0.32826710       0.58308023 </v>
   <v>       0.67173288       0.55423978       0.58308023 </v>
   <v>       0.55791699       0.44208301       0.41809300 </v>
   <v>       0.32826705       0.44576024       0.41691983 </v>
   <v>       0.55423973       0.67173293       0.41691983 </v>
   <v>       0.55423980       0.32826710       0.58308023 </v>
   <v>       0.32826712       0.55423978       0.58308023 </v>
   <v>       0.67173295       0.44576024       0.41691983 </v>
   <v>       0.44576027       0.67173293       0.41691983 </v>
   <v>       0.44208301       0.44208301       0.41809300 </v>
   <v>       0.50000000       0.38416601       0.50000000 </v>
   <v>       0.61749315       0.50000005       0.34021317 </v>
   <v>       0.61749315       0.50000005       0.65978680 </v>
   <v>       0.38250685       0.50000005       0.34021317 </v>
   <v>       0.38250685       0.50000005       0.65978680 </v>
   <v>       0.38317830       0.38317830       0.50000000 </v>
   <v>       0.61682172       0.61682172       0.50000000 </v>
   <v>       0.61682170       0.38317830       0.50000000 </v>
   <v>       0.38317828       0.61682172       0.50000000 </v>
   <v>       0.50000000       0.50000000       0.33478917 </v>
   <v>       0.50000000       0.50000000       0.66521087 </v>
   <v>       0.32826705       0.44576024       0.58308023 </v>
   <v>       0.55423973       0.67173293       0.58308023 </v>
   <v>       0.55791699       0.44208301       0.58190703 </v>
   <v>       0.44208298       0.55791702       0.41809300 </v>
   <v>       0.44208301       0.44208301       0.58190703 </v>
   <v>       0.67173295       0.44576024       0.58308023 </v>
   <v>       0.44576027       0.67173293       0.58308023 </v>
   <v>       0.55791702       0.55791702       0.41809300 </v>
   <v>       0.38416599       0.50000002       0.50000000 </v>
   <v>       0.61583401       0.50000002       0.50000000 </v>
   <v>       0.50000000       0.61749319       0.34021317 </v>
   <v>       0.50000000       0.61749319       0.65978680 </v>
   <v>       0.50000000       0.50000000       0.50000000 </v>
   <v>       0.44208298       0.55791702       0.58190703 </v>
   <v>       0.55791702       0.55791702       0.58190703 </v>
   <v>       0.50000000       0.61583404       0.50000000 </v>
   <v>       0.47113493       0.44029733       0.65542700 </v>
   <v>       0.46471223       0.42701303       0.69001073 </v>
  </varray>
  <varray name="selective"  type="logical" >
   <v type="logical" >  F  F  F </v>
   <v type="logical" >  F  F  F </v>
   <v type="logical" >  F  F  F </v>
   <v type="logical" >  F  F  F </v>
   <v type="logical" >  F  F  F </v>
   <v type="logical" >  F  F  F </v>
   <v type="logical" >  F  F  F </v>
   <v type="logical" >  F  F  F </v>
   <v type="logical" >  F  F  F </v>
   <v type="logical" >  F  F  F </v>
   <v type="logical" >  F  F  F </v>
   <v type="logical" >  F  F  F </v>
   <v type="logical" >  F  F  F </v>
   <v type="logical" >  F  F  F </v>
   <v type="logical" >  F  F  F </v>
   <v type="logical" >  F  F  F </v>
   <v type="logical" >  F  F  F </v>
   <v type="logical" >  F  F  F </v>
   <v type="logical" >  F  F  F </v>
   <v type="logical" >  F  F  F </v>
   <v type="logical" >  F  F  F </v>
   <v type="logical" >  F  F  F </v>
   <v type="logical" >  F  F  F </v>
   <v type="logical" >  F  F  F </v>
   <v type="logical" >  F  F  F </v>
   <v type="logical" >  F  F  F </v>
   <v type="logical" >  F  F  F </v>
   <v type="logical" >  F  F  F </v>
   <v type="logical" >  F  F  F </v>
   <v type="logical" >  F  F  F </v>
   <v type="logical" >  F  F  F </v>
   <v type="logical" >  F  F  F </v>
   <v type="logical" >  F  F  F </v>
   <v type="logical" >  F  F  F </v>
   <v type="logical" >  F  F  F </v>
   <v type="logical" >  F  F  F </v>
   <v type="logical" >  F  F  F </v>
   <v type="logical" >  F  F  F </v>
   <v type="logical" >  F  F  F </v>
   <v type="logical" >  F  F  F </v>
   <v type="logical" >  F  F  F </v>
   <v type="logical" >  F  F  F </v>
   <v type="logical" >  F  F  F </v>
   <v type="logical" >  F  F  F </v>
   <v type="logical" >  F  F  F </v>
   <v type="logical" >  F  F  F </v>
   <v type="logical" >  F  F  F </v>
   <v type="logical" >  F  F  F </v>
   <v type="logical" >  F  F  F </v>
   <v type="logical" >  F  F  F </v>
   <v type="logical" >  F  F  F </v>
   <v type="logical" >  F  F  F </v>
   <v type="logical" >  F  F  F </v>
   <v type="logical" >  F  F  F </v>
   <v type="logical" >  F  F  F </v>
   <v type="logical" >  F  F  F </v>
   <v type="logical" >  F  F  F </v>
  </varray>
  <nose>
   <v>      -3.00000000       0.00000000       0.00010000       0.00010000 </v>
  </nose>
 </structure>
 <calculation>
  <scstep>
   <time name="dav">  369.62  369.69</time>
   <time name="total">  384.42  384.49</time>
   <energy>
    <i name="alphaZ">     75.25431677 </i>
    <i name="ewald"> 140890.05199936 </i>
    <i name="hartreedc">-184232.00445445 </i>
    <i name="XCdc">  -1700.63491914 </i>
    <i name="pawpsdc">  44873.02882129 </i>
    <i name="pawaedc"> -41398.84523641 </i>
    <i name="eentropy">     -0.01840578 </i>
    <i name="bandstr">    813.68210495 </i>
    <i name="atom">  45086.50549395 </i>
    <i name="e_fr_energy">   4407.01972055 </i>
    <i name="e_wo_entrp">   4407.03812633 </i>
    <i name="e_0_energy">   4407.02432199 </i>
   </energy>
  </scstep>
  <scstep>
   <time name="dav">  582.68  582.69</time>
   <time name="total">  582.68  582.69</time>
   <energy>
    <i name="e_fr_energy">   2030.84160061 </i>
    <i name="e_wo_entrp">   2030.90066908 </i>
    <i name="e_0_energy">   2030.85636773 </i>
   </energy>
  </scstep>
  <scstep>
   <time name="dav">  499.22  499.23</time>
   <time name="total">  499.22  499.23</time>
   <energy>
    <i name="e_fr_energy">    243.52901255 </i>
    <i name="e_wo_entrp">    243.55094754 </i>
    <i name="e_0_energy">    243.53449630 </i>
   </energy>
  </scstep>
  <scstep>
   <time name="dav">  429.45  429.45</time>
   <time name="total">  429.45  429.45</time>
   <energy>
    <i name="e_fr_energy">   -131.09920155 </i>
    <i name="e_wo_entrp">   -131.08119856 </i>
    <i name="e_0_energy">   -131.09470080 </i>
   </energy>
  </scstep>
  <scstep>
   <time name="dav">  519.05  519.05</time>
   <time name="total">  544.96  544.96</time>
   <energy>
    <i name="e_fr_energy">   -179.25345505 </i>
    <i name="e_wo_entrp">   -179.70583855 </i>
    <i name="e_0_energy">   -179.36655092 </i>
   </energy>
  </scstep>
  <scstep>
   <time name="diag">   68.12   68.12</time>
   <time name="diis">  191.99  192.00</time>
   <time name="orth">   13.73   13.72</time>
   <time name="total">  313.87  313.88</time>
   <energy>
    <i name="e_fr_energy">   -180.40362241 </i>
    <i name="e_wo_entrp">   -180.11848305 </i>
    <i name="e_0_energy">   -180.33233757 </i>
   </energy>
  </scstep>
  <scstep>
   <time name="diag">   69.21   69.21</time>
   <time name="diis">  221.93  221.93</time>
   <time name="orth">   13.58   13.58</time>
   <time name="total">  344.71  344.71</time>
   <energy>
    <i name="e_fr_energy">   -181.57507263 </i>
    <i name="e_wo_entrp">   -181.47005921 </i>
    <i name="e_0_energy">   -181.54881927 </i>
   </energy>
  </scstep>
  <scstep>
   <time name="diag">   67.89   67.89</time>
   <time name="diis">  198.38  198.38</time>
   <time name="orth">   13.32   13.32</time>
   <time name="total">  319.71  319.71</time>
   <energy>
    <i name="e_fr_energy">   -185.20225253 </i>
    <i name="e_wo_entrp">   -185.07995048 </i>
    <i name="e_0_energy">   -185.17167702 </i>
   </energy>
  </scstep>
  <scstep>
   <time name="diag">   67.34   67.34</time>
   <time name="diis">  195.86  195.86</time>
   <time name="orth">   13.54   13.54</time>
   <time name="total">  315.74  315.75</time>
   <energy>
    <i name="e_fr_energy">   -180.99445040 </i>
    <i name="e_wo_entrp">   -180.99373791 </i>
    <i name="e_0_energy">   -180.99427228 </i>
   </energy>
  </scstep>
  <scstep>
   <time name="diag">   67.60   67.60</time>
   <time name="diis">  186.91  186.91</time>
   <time name="orth">   13.50   13.50</time>
   <time name="total">  307.44  307.44</time>
   <energy>
    <i name="e_fr_energy">   -179.02071279 </i>
    <i name="e_wo_entrp">   -178.95208444 </i>
    <i name="e_0_energy">   -179.00355570 </i>
   </energy>
  </scstep>
  <scstep>
   <time name="diag">   67.70   67.71</time>
   <time name="diis">  192.61  192.62</time>
   <time name="orth">   13.61   13.61</time>
   <time name="total">  313.40  313.41</time>
   <energy>
    <i name="e_fr_energy">   -179.53933091 </i>
    <i name="e_wo_entrp">   -179.53139734 </i>
    <i name="e_0_energy">   -179.53734751 </i>
   </energy>
  </scstep>
  <scstep>
   <time name="diag">   67.32   67.32</time>
   <time name="diis">  186.28  186.28</time>
   <time name="orth">   13.31   13.31</time>
   <time name="total">  305.80  305.81</time>
   <energy>
    <i name="e_fr_energy">   -177.37156907 </i>
    <i name="e_wo_entrp">   -177.31569344 </i>
    <i name="e_0_energy">   -177.35760016 </i>
   </energy>
  </scstep>
  <scstep>
   <time name="diag">   66.99   66.99</time>
   <time name="diis">  186.21  186.21</time>
   <time name="orth">   13.36   13.36</time>
   <time name="total">  305.56  305.56</time>
   <energy>
    <i name="e_fr_energy">   -177.46143509 </i>
    <i name="e_wo_entrp">   -177.56329000 </i>
    <i name="e_0_energy">   -177.48689882 </i>
   </energy>
  </scstep>
  <scstep>
   <time name="diag">   67.83   67.84</time>
   <time name="diis">  190.05  190.05</time>
   <time name="orth">   13.54   13.54</time>
   <time name="total">  310.90  310.91</time>
   <energy>
    <i name="e_fr_energy">   -176.25216078 </i>
    <i name="e_wo_entrp">   -176.23599965 </i>
    <i name="e_0_energy">   -176.24812050 </i>
   </energy>
  </scstep>
  <scstep>
   <time name="diag">   67.61   67.61</time>
   <time name="diis">  188.33  188.33</time>
   <time name="orth">   13.51   13.51</time>
   <time name="total">  308.91  308.91</time>
   <energy>
    <i name="e_fr_energy">   -176.17290396 </i>
    <i name="e_wo_entrp">   -176.24461423 </i>
    <i name="e_0_energy">   -176.19083152 </i>
   </energy>
  </scstep>
  <scstep>
   <time name="diag">   67.24   67.24</time>
   <time name="diis">  188.70  188.70</time>
   <time name="orth">   13.39   13.39</time>
   <time name="total">  308.13  308.13</time>
   <energy>
    <i name="e_fr_energy">   -175.79870410 </i>
    <i name="e_wo_entrp">   -175.99609428 </i>
    <i name="e_0_energy">   -175.84805164 </i>
   </energy>
  </scstep>
  <scstep>
   <time name="diag">   67.69   67.69</time>
   <time name="diis">  183.78  183.78</time>
   <time name="orth">   13.54   13.54</time>
   <time name="total">  304.11  304.11</time>
   <energy>
    <i name="e_fr_energy">   -175.07480837 </i>
    <i name="e_wo_entrp">   -175.15654305 </i>
    <i name="e_0_energy">   -175.09524204 </i>
   </energy>
  </scstep>
  <scstep>
   <time name="diag">   67.37   67.38</time>
   <time name="diis">  181.76  181.76</time>
   <time name="orth">   13.25   13.25</time>
   <time name="total">  302.14  302.14</time>
   <energy>
    <i name="e_fr_energy">   -174.68189688 </i>
    <i name="e_wo_entrp">   -174.74622910 </i>
    <i name="e_0_energy">   -174.69797993 </i>
   </energy>
  </scstep>
  <scstep>
   <time name="diag">   68.34   68.34</time>
   <time name="diis">  182.09  182.10</time>
   <time name="orth">   13.43   13.43</time>
   <time name="total">  303.21  303.22</time>
   <energy>
    <i name="e_fr_energy">   -174.35070133 </i>
    <i name="e_wo_entrp">   -174.35829623 </i>
    <i name="e_0_energy">   -174.35260005 </i>
   </energy>
  </scstep>
  <scstep>
   <time name="diag">   68.76   68.76</time>
   <time name="diis">  181.95  181.95</time>
   <time name="orth">   13.33   13.33</time>
   <time name="total">  303.68  303.68</time>
   <energy>
    <i name="e_fr_energy">   -174.22376409 </i>
    <i name="e_wo_entrp">   -174.18925240 </i>
    <i name="e_0_energy">   -174.21513617 </i>
   </energy>
  </scstep>
  <scstep>
   <time name="diag">   67.89   67.90</time>
   <time name="diis">  184.00  184.00</time>
   <time name="orth">   13.54   13.54</time>
   <time name="total">  304.54  304.54</time>
   <energy>
    <i name="e_fr_energy">   -174.22315159 </i>
    <i name="e_wo_entrp">   -174.18468637 </i>
    <i name="e_0_energy">   -174.21353529 </i>
   </energy>
  </scstep>
  <scstep>
   <time name="diag">   65.68   65.68</time>
   <time name="diis">  182.77  182.78</time>
   <time name="orth">   13.86   13.86</time>
   <time name="total">  302.39  302.41</time>
   <energy>
    <i name="e_fr_energy">   -174.05469297 </i>
    <i name="e_wo_entrp">   -174.00549291 </i>
    <i name="e_0_energy">   -174.04239295 </i>
   </energy>
  </scstep>
  <scstep>
   <time name="diag">   67.38   67.38</time>
   <time name="diis">  183.81  183.81</time>
   <time name="orth">   13.64   13.64</time>
   <time name="total">  304.67  304.68</time>
   <energy>
    <i name="e_fr_energy">   -173.99449344 </i>
    <i name="e_wo_entrp">   -173.96253193 </i>
    <i name="e_0_energy">   -173.98650307 </i>
   </energy>
  </scstep>
  <scstep>
   <time name="diag">   67.98   67.98</time>
   <time name="diis">  181.29  181.30</time>
   <time name="orth">   13.72   13.72</time>
   <time name="total">  303.54  303.55</time>
   <energy>
    <i name="e_fr_energy">   -173.99232632 </i>
    <i name="e_wo_entrp">   -173.97448264 </i>
    <i name="e_0_energy">   -173.98786540 </i>
   </energy>
  </scstep>
  <scstep>
   <time name="diag">   68.68   68.69</time>
   <time name="diis">  180.69  180.69</time>
   <time name="orth">   13.81   13.81</time>
   <time name="total">  304.53  304.54</time>
   <energy>
    <i name="e_fr_energy">   -173.97000161 </i>
    <i name="e_wo_entrp">   -173.98079667 </i>
    <i name="e_0_energy">   -173.97270038 </i>
   </energy>
  </scstep>
  <scstep>
   <time name="diag">   68.57   68.57</time>
   <time name="diis">  180.51  180.52</time>
   <time name="orth">   13.78   13.78</time>
   <time name="total">  303.84  303.86</time>
   <energy>
    <i name="e_fr_energy">   -173.88696041 </i>
    <i name="e_wo_entrp">   -173.88614689 </i>
    <i name="e_0_energy">   -173.88675703 </i>
   </energy>
  </scstep>
  <scstep>
   <time name="diag">   67.65   67.65</time>
   <time name="diis">  182.10  182.10</time>
   <time name="orth">   13.65   13.65</time>
   <time name="total">  303.84  303.84</time>
   <energy>
    <i name="e_fr_energy">   -173.83808108 </i>
    <i name="e_wo_entrp">   -173.79666086 </i>
    <i name="e_0_energy">   -173.82772602 </i>
   </energy>
  </scstep>
  <scstep>
   <time name="diag">   68.35   68.35</time>
   <time name="diis">  182.51  182.51</time>
   <time name="orth">   13.65   13.65</time>
   <time name="total">  305.85  305.86</time>
   <energy>
    <i name="e_fr_energy">   -173.84748506 </i>
    <i name="e_wo_entrp">   -173.81047391 </i>
    <i name="e_0_energy">   -173.83823227 </i>
   </energy>
  </scstep>
  <scstep>
   <time name="diag">   68.61   68.61</time>
   <time name="diis">  179.14  179.14</time>
   <time name="orth">   13.96   13.96</time>
   <time name="total">  302.68  302.69</time>
   <energy>
    <i name="e_fr_energy">   -173.81944844 </i>
    <i name="e_wo_entrp">   -173.78389979 </i>
    <i name="e_0_energy">   -173.81056128 </i>
   </energy>
  </scstep>
  <scstep>
   <time name="diag">   67.69   67.69</time>
   <time name="diis">  179.45  179.45</time>
   <time name="orth">   13.74   13.74</time>
   <time name="total">  302.42  302.43</time>
   <energy>
    <i name="e_fr_energy">   -173.80601372 </i>
    <i name="e_wo_entrp">   -173.77196377 </i>
    <i name="e_0_energy">   -173.79750124 </i>
   </energy>
  </scstep>
  <scstep>
   <time name="diag">   69.54   69.54</time>
   <time name="diis">  179.55  179.55</time>
   <time name="orth">   13.81   13.81</time>
   <time name="total">  304.99  305.00</time>
   <energy>
    <i name="e_fr_energy">   -173.79889455 </i>
    <i name="e_wo_entrp">   -173.76806774 </i>
    <i name="e_0_energy">   -173.79118784 </i>
   </energy>
  </scstep>
  <scstep>
   <time name="diag">   69.39   69.39</time>
   <time name="diis">  181.19  181.20</time>
   <time name="orth">   13.63   13.63</time>
   <time name="total">  305.31  305.32</time>
   <energy>
    <i name="e_fr_energy">   -173.79416707 </i>
    <i name="e_wo_entrp">   -173.76338565 </i>
    <i name="e_0_energy">   -173.78647172 </i>
   </energy>
  </scstep>
  <scstep>
   <time name="diag">   68.42   68.42</time>
   <time name="diis">  181.21  181.22</time>
   <time name="orth">   13.60   13.60</time>
   <time name="total">  304.45  304.46</time>
   <energy>
    <i name="e_fr_energy">   -173.79032977 </i>
    <i name="e_wo_entrp">   -173.75607832 </i>
    <i name="e_0_energy">   -173.78176691 </i>
   </energy>
  </scstep>
  <scstep>
   <time name="diag">   69.32   69.32</time>
   <time name="diis">  176.88  176.89</time>
   <time name="orth">   13.21   13.21</time>
   <time name="total">  300.01  300.02</time>
   <energy>
    <i name="e_fr_energy">   -173.78861567 </i>
    <i name="e_wo_entrp">   -173.75275550 </i>
    <i name="e_0_energy">   -173.77965063 </i>
   </energy>
  </scstep>
  <scstep>
   <time name="diag">   68.57   68.58</time>
   <time name="diis">  179.99  180.00</time>
   <time name="orth">   13.37   13.37</time>
   <time name="total">  302.72  302.73</time>
   <energy>
    <i name="e_fr_energy">   -173.78703699 </i>
    <i name="e_wo_entrp">   -173.74775155 </i>
    <i name="e_0_energy">   -173.77721563 </i>
   </energy>
  </scstep>
  <scstep>
   <time name="diag">   67.01   67.01</time>
   <time name="diis">  176.36  176.36</time>
   <time name="orth">   13.50   13.50</time>
   <time name="total">  297.86  297.87</time>
   <energy>
    <i name="e_fr_energy">   -173.78647920 </i>
    <i name="e_wo_entrp">   -173.74630074 </i>
    <i name="e_0_energy">   -173.77643459 </i>
   </energy>
  </scstep>
  <scstep>
   <time name="diag">   68.57   68.56</time>
   <time name="diis">  179.01  179.01</time>
   <time name="orth">   13.60   13.60</time>
   <time name="total">  302.61  302.61</time>
   <energy>
    <i name="e_fr_energy">   -173.78693254 </i>
    <i name="e_wo_entrp">   -173.74758451 </i>
    <i name="e_0_energy">   -173.77709553 </i>
   </energy>
  </scstep>
  <scstep>
   <time name="diag">   68.28   68.28</time>
   <time name="diis">  179.35  179.35</time>
   <time name="orth">   13.61   13.61</time>
   <time name="total">  302.90  302.90</time>
   <energy>
    <i name="e_fr_energy">   -173.78818628 </i>
    <i name="e_wo_entrp">   -173.74874153 </i>
    <i name="e_0_energy">   -173.77832510 </i>
   </energy>
  </scstep>
  <scstep>
   <time name="diag">   68.36   68.36</time>
   <time name="diis">  178.56  178.56</time>
   <time name="orth">   13.60   13.60</time>
   <time name="total">  302.43  302.43</time>
   <energy>
    <i name="e_fr_energy">   -173.79024305 </i>
    <i name="e_wo_entrp">   -173.75087704 </i>
    <i name="e_0_energy">   -173.78040155 </i>
   </energy>
  </scstep>
  <scstep>
   <time name="diag">   68.23   68.24</time>
   <time name="diis">  179.20  179.21</time>
   <time name="orth">   13.64   13.64</time>
   <time name="total">  303.19  303.19</time>
   <energy>
    <i name="e_fr_energy">   -173.79272288 </i>
    <i name="e_wo_entrp">   -173.75481765 </i>
    <i name="e_0_energy">   -173.78324657 </i>
   </energy>
  </scstep>
  <scstep>
   <time name="diag">   68.08   68.08</time>
   <time name="diis">  170.80  170.81</time>
   <time name="orth">   13.47   13.47</time>
   <time name="total">  294.76  294.76</time>
   <energy>
    <i name="e_fr_energy">   -173.79528542 </i>
    <i name="e_wo_entrp">   -173.75698297 </i>
    <i name="e_0_energy">   -173.78570981 </i>
   </energy>
  </scstep>
  <scstep>
   <time name="diag">   67.97   67.97</time>
   <time name="diis">  146.20  146.20</time>
   <time name="orth">   13.52   13.52</time>
   <time name="total">  270.02  270.03</time>
   <energy>
    <i name="e_fr_energy">   -173.79754845 </i>
    <i name="e_wo_entrp">   -173.75989492 </i>
    <i name="e_0_energy">   -173.78813507 </i>
   </energy>
  </scstep>
  <scstep>
   <time name="diag">   68.27   68.27</time>
   <time name="diis">  157.17  157.17</time>
   <time name="orth">   13.74   13.74</time>
   <time name="total">  281.88  281.88</time>
   <energy>
    <i name="e_fr_energy">   -173.80108770 </i>
    <i name="e_wo_entrp">   -173.76254851 </i>
    <i name="e_0_energy">   -173.79145290 </i>
   </energy>
  </scstep>
  <scstep>
   <time name="diag">   69.84   69.84</time>
   <time name="diis">  138.69  138.69</time>
   <time name="orth">   13.41   13.41</time>
   <time name="total">  264.83  264.83</time>
   <energy>
    <i name="e_fr_energy">   -173.80324942 </i>
    <i name="e_wo_entrp">   -173.76564020 </i>
    <i name="e_0_energy">   -173.79384712 </i>
   </energy>
  </scstep>
  <scstep>
   <time name="diag">   69.24   69.24</time>
   <time name="diis">  125.55  125.55</time>
   <time name="orth">   13.94   13.94</time>
   <time name="total">  252.06  252.06</time>
   <energy>
    <i name="e_fr_energy">   -173.80478578 </i>
    <i name="e_wo_entrp">   -173.76760181 </i>
    <i name="e_0_energy">   -173.79548979 </i>
   </energy>
  </scstep>
  <scstep>
   <time name="diag">   68.54   68.54</time>
   <time name="diis">  124.44  124.46</time>
   <time name="orth">   13.99   13.99</time>
   <time name="total">  250.62  250.64</time>
   <energy>
    <i name="e_fr_energy">   -173.80661102 </i>
    <i name="e_wo_entrp">   -173.76919893 </i>
    <i name="e_0_energy">   -173.79725800 </i>
   </energy>
  </scstep>
  <scstep>
   <time name="diag">   69.06   69.06</time>
   <time name="diis">  120.25  120.26</time>
   <time name="orth">   13.72   13.72</time>
   <time name="total">  247.19  247.21</time>
   <energy>
    <i name="e_fr_energy">   -173.80749854 </i>
    <i name="e_wo_entrp">   -173.76987361 </i>
    <i name="e_0_energy">   -173.79809231 </i>
   </energy>
  </scstep>
  <scstep>
   <time name="diag">   69.88   69.88</time>
   <time name="diis">  115.83  115.84</time>
   <time name="orth">   13.84   13.84</time>
   <time name="total">  244.23  244.25</time>
   <energy>
    <i name="e_fr_energy">   -173.80890074 </i>
    <i name="e_wo_entrp">   -173.77139439 </i>
    <i name="e_0_energy">   -173.79952415 </i>
   </energy>
  </scstep>
  <scstep>
   <time name="diag">   69.04   69.05</time>
   <time name="diis">  117.53  117.54</time>
   <time name="orth">   13.47   13.47</time>
   <time name="total">  243.91  243.93</time>
   <energy>
    <i name="e_fr_energy">   -173.80979144 </i>
    <i name="e_wo_entrp">   -173.77221163 </i>
    <i name="e_0_energy">   -173.80039649 </i>
   </energy>
  </scstep>
  <scstep>
   <time name="diag">   69.76   69.76</time>
   <time name="diis">  117.98  117.99</time>
   <time name="orth">   14.21   14.21</time>
   <time name="total">  246.05  246.07</time>
   <energy>
    <i name="e_fr_energy">   -173.81069423 </i>
    <i name="e_wo_entrp">   -173.77286872 </i>
    <i name="e_0_energy">   -173.80123785 </i>
   </energy>
  </scstep>
  <scstep>
   <time name="diag">   68.60   68.60</time>
   <time name="diis">  117.62  117.62</time>
   <time name="orth">   13.74   13.74</time>
   <time name="total">  243.39  243.40</time>
   <energy>
    <i name="e_fr_energy">   -173.81144526 </i>
    <i name="e_wo_entrp">   -173.77402406 </i>
    <i name="e_0_energy">   -173.80208996 </i>
   </energy>
  </scstep>
  <scstep>
   <time name="diag">   69.24   69.24</time>
   <time name="diis">  115.76  115.77</time>
   <time name="orth">   14.54   14.54</time>
   <time name="total">  243.19  243.20</time>
   <energy>
    <i name="e_fr_energy">   -173.81192700 </i>
    <i name="e_wo_entrp">   -173.77427519 </i>
    <i name="e_0_energy">   -173.80251405 </i>
   </energy>
  </scstep>
  <scstep>
   <time name="diag">   68.89   68.89</time>
   <time name="diis">  110.77  110.78</time>
   <time name="orth">   13.70   13.70</time>
   <time name="total">  237.43  237.44</time>
   <energy>
    <i name="e_fr_energy">   -173.81251567 </i>
    <i name="e_wo_entrp">   -173.77505187 </i>
    <i name="e_0_energy">   -173.80314972 </i>
   </energy>
  </scstep>
  <scstep>
   <time name="diag">   70.09   70.09</time>
   <time name="diis">   94.00   94.00</time>
   <time name="orth">   13.98   13.98</time>
   <time name="total">  221.91  221.92</time>
   <energy>
    <i name="e_fr_energy">   -173.81284331 </i>
    <i name="e_wo_entrp">   -173.77528525 </i>
    <i name="e_0_energy">   -173.80345380 </i>
   </energy>
  </scstep>
  <scstep>
   <time name="diag">   68.61   68.61</time>
   <time name="diis">  101.05  101.05</time>
   <time name="orth">   13.50   13.50</time>
   <time name="total">  227.53  227.54</time>
   <energy>
    <i name="e_fr_energy">   -173.81336113 </i>
    <i name="e_wo_entrp">   -173.77602012 </i>
    <i name="e_0_energy">   -173.80402588 </i>
   </energy>
  </scstep>
  <scstep>
   <time name="diag">   69.12   69.12</time>
   <time name="diis">   93.38   93.39</time>
   <time name="orth">   13.84   13.84</time>
   <time name="total">  221.68  221.69</time>
   <energy>
    <i name="e_fr_energy">   -173.81373124 </i>
    <i name="e_wo_entrp">   -173.77614523 </i>
    <i name="e_0_energy">   -173.80433474 </i>
   </energy>
  </scstep>
  <scstep>
   <time name="diag">   68.62   68.62</time>
   <time name="diis">   88.66   88.66</time>
   <time name="orth">   13.81   13.81</time>
   <time name="total">  215.29  215.29</time>
   <energy>
    <i name="e_fr_energy">   -173.81398347 </i>
    <i name="e_wo_entrp">   -173.77645214 </i>
    <i name="e_0_energy">   -173.80460064 </i>
   </energy>
  </scstep>
  <scstep>
   <time name="diag">   69.25   69.25</time>
   <time name="diis">   83.99   83.99</time>
   <time name="orth">   13.68   13.68</time>
   <time name="total">  211.03  211.03</time>
   <energy>
    <i name="e_fr_energy">   -173.81417731 </i>
    <i name="e_wo_entrp">   -173.77661172 </i>
    <i name="e_0_energy">   -173.80478591 </i>
   </energy>
  </scstep>
  <scstep>
   <time name="diag">   69.97   69.97</time>
   <time name="diis">   84.81   84.81</time>
   <time name="orth">   13.61   13.61</time>
   <time name="total">  212.79  212.79</time>
   <energy>
    <i name="e_fr_energy">   -173.81433608 </i>
    <i name="e_wo_entrp">   -173.77677357 </i>
    <i name="e_0_energy">   -173.80494545 </i>
   </energy>
  </scstep>
  <scstep>
   <time name="diag">   68.71   68.71</time>
   <time name="diis">   85.61   85.61</time>
   <time name="orth">   13.49   13.49</time>
   <time name="total">  211.03  211.03</time>
   <energy>
    <i name="e_fr_energy">   -173.81450655 </i>
    <i name="e_wo_entrp">   -173.77693596 </i>
    <i name="e_0_energy">   -173.80511390 </i>
   </energy>
  </scstep>
  <scstep>
   <time name="diag">   69.28   69.28</time>
   <time name="diis">   76.10   76.10</time>
   <time name="orth">   13.48   13.48</time>
   <time name="total">  173.03  173.03</time>
   <energy>
    <i name="alphaZ">     75.25431677 </i>
    <i name="ewald"> 140890.05199936 </i>
    <i name="hartreedc">-185245.95366644 </i>
    <i name="XCdc">  -1689.95787603 </i>
    <i name="pawpsdc">  46409.66961669 </i>
    <i name="pawaedc"> -42881.33645053 </i>
    <i name="eentropy">     -0.03756061 </i>
    <i name="bandstr">  -2818.01041808 </i>
    <i name="atom">  45086.50549395 </i>
    <i name="e_fr_energy">   -173.81454490 </i>
    <i name="e_wo_entrp">   -173.77698430 </i>
    <i name="e_0_energy">   -173.80515475 </i>
   </energy>
  </scstep>
  <structure>
   <crystal>
    <varray name="basis" >
     <v>      30.00000000       0.00000000       0.00000000 </v>
     <v>       0.00000000      30.00000000       0.00000000 </v>
     <v>       0.00000000       0.00000000      30.00000000 </v>
    </varray>
    <i name="volume">  27000.00000000 </i>
    <varray name="rec_basis" >
     <v>       0.03333333       0.00000000       0.00000000 </v>
     <v>       0.00000000       0.03333333       0.00000000 </v>
     <v>       0.00000000       0.00000000       0.03333333 </v>
    </varray>
   </crystal>
   <varray name="positions" >
    <v>       0.44576020       0.32826710       0.41691983 </v>
    <v>       0.67173288       0.55423978       0.41691983 </v>
    <v>       0.55423980       0.32826710       0.41691983 </v>
    <v>       0.32826712       0.55423978       0.41691983 </v>
    <v>       0.50000000       0.38250690       0.34021317 </v>
    <v>       0.50000000       0.38250690       0.65978680 </v>
    <v>       0.50000000       0.27609440       0.50000000 </v>
    <v>       0.27609443       0.49999998       0.50000000 </v>
    <v>       0.72390557       0.49999998       0.50000000 </v>
    <v>       0.50000000       0.72390555       0.50000000 </v>
    <v>       0.61195280       0.38804720       0.34167483 </v>
    <v>       0.61195280       0.38804720       0.65832513 </v>
    <v>       0.38804722       0.61195278       0.34167483 </v>
    <v>       0.38804722       0.61195278       0.65832513 </v>
    <v>       0.38804720       0.38804720       0.34167483 </v>
    <v>       0.38804720       0.38804720       0.65832513 </v>
    <v>       0.61195278       0.61195278       0.34167483 </v>
    <v>       0.61195278       0.61195278       0.65832513 </v>
    <v>       0.44576020       0.32826710       0.58308023 </v>
    <v>       0.67173288       0.55423978       0.58308023 </v>
    <v>       0.55791699       0.44208301       0.41809300 </v>
    <v>       0.32826705       0.44576024       0.41691983 </v>
    <v>       0.55423973       0.67173293       0.41691983 </v>
    <v>       0.55423980       0.32826710       0.58308023 </v>
    <v>       0.32826712       0.55423978       0.58308023 </v>
    <v>       0.67173295       0.44576024       0.41691983 </v>
    <v>       0.44576027       0.67173293       0.41691983 </v>
    <v>       0.44208301       0.44208301       0.41809300 </v>
    <v>       0.50000000       0.38416601       0.50000000 </v>
    <v>       0.61749315       0.50000005       0.34021317 </v>
    <v>       0.61749315       0.50000005       0.65978680 </v>
    <v>       0.38250685       0.50000005       0.34021317 </v>
    <v>       0.38250685       0.50000005       0.65978680 </v>
    <v>       0.38317830       0.38317830       0.50000000 </v>
    <v>       0.61682172       0.61682172       0.50000000 </v>
    <v>       0.61682170       0.38317830       0.50000000 </v>
    <v>       0.38317828       0.61682172       0.50000000 </v>
    <v>       0.50000000       0.50000000       0.33478917 </v>
    <v>       0.50000000       0.50000000       0.66521087 </v>
    <v>       0.32826705       0.44576024       0.58308023 </v>
    <v>       0.55423973       0.67173293       0.58308023 </v>
    <v>       0.55791699       0.44208301       0.58190703 </v>
    <v>       0.44208298       0.55791702       0.41809300 </v>
    <v>       0.44208301       0.44208301       0.58190703 </v>
    <v>       0.67173295       0.44576024       0.58308023 </v>
    <v>       0.44576027       0.67173293       0.58308023 </v>
    <v>       0.55791702       0.55791702       0.41809300 </v>
    <v>       0.38416599       0.50000002       0.50000000 </v>
    <v>       0.61583401       0.50000002       0.50000000 </v>
    <v>       0.50000000       0.61749319       0.34021317 </v>
    <v>       0.50000000       0.61749319       0.65978680 </v>
    <v>       0.50000000       0.50000000       0.50000000 </v>
    <v>       0.44208298       0.55791702       0.58190703 </v>
    <v>       0.55791702       0.55791702       0.58190703 </v>
    <v>       0.50000000       0.61583404       0.50000000 </v>
    <v>       0.47113493       0.44029733       0.65542700 </v>
    <v>       0.46471223       0.42701303       0.69001073 </v>
   </varray>
  </structure>
  <varray name="forces" >
   <v>       0.69988675       1.11011993       0.29343174 </v>
   <v>      -1.10689470      -0.69996986       0.29586648 </v>
   <v>      -0.69563973       1.11077382       0.28723137 </v>
   <v>       1.10418034      -0.69016346       0.27365644 </v>
   <v>       0.00101056       0.42081143       1.27797753 </v>
   <v>       2.96999577      -3.81394301      -3.11381992 </v>
   <v>      -0.02510641       1.51279935       0.02269872 </v>
   <v>       1.50686533      -0.00574875       0.00534106 </v>
   <v>      -1.51437753      -0.00019466       0.00051698 </v>
   <v>      -0.00331279      -1.51585360       0.00199144 </v>
   <v>      -0.75463443       0.75565368       1.07219232 </v>
   <v>      -0.65445623       0.73039775      -1.07883361 </v>
   <v>       0.74957443      -0.75761454       1.07184883 </v>
   <v>       0.74486126      -0.74338894      -1.06927394 </v>
   <v>       0.75578536       0.75488771       1.07160390 </v>
   <v>       0.28703485       0.52811688      -1.09134177 </v>
   <v>      -0.75002204      -0.75269258       1.07740587 </v>
   <v>      -0.75970932      -0.76123345      -1.06313636 </v>
   <v>       0.72255694       0.98840925      -0.41932937 </v>
   <v>      -1.11251419      -0.70556023      -0.28600798 </v>
   <v>       0.11284169      -0.10573774      -0.16243497 </v>
   <v>       1.11413835       0.70502146       0.29806228 </v>
   <v>      -0.69583643      -1.10673937       0.29091497 </v>
   <v>      -0.70418293       1.09542263      -0.24266956 </v>
   <v>       1.10096966      -0.69918813      -0.29776788 </v>
   <v>      -1.11046672       0.70085634       0.28834159 </v>
   <v>       0.69991122      -1.10998736       0.29126504 </v>
   <v>      -0.10934048      -0.11015741      -0.15168017 </v>
   <v>       0.01022908      -0.24344763      -0.01129096 </v>
   <v>      -0.41147186      -0.01004602       1.27980692 </v>
   <v>      -0.34259150       0.01545466      -1.29827738 </v>
   <v>       0.41887983       0.00368712       1.27566132 </v>
   <v>       0.27743094       0.12056797      -1.30007806 </v>
   <v>       0.83593183       0.86035125       0.00087330 </v>
   <v>      -0.82849733      -0.82468917      -0.00975040 </v>
   <v>      -0.82749674       0.83668891       0.00412915 </v>
   <v>       0.83264533      -0.82747650       0.00243226 </v>
   <v>      -0.00711956      -0.01052817       1.17880312 </v>
   <v>       0.04600909       0.39344244      -1.61916513 </v>
   <v>       1.05460939       0.73470929      -0.33521471 </v>
   <v>      -0.70267592      -1.11685767      -0.28806587 </v>
   <v>       0.28695890      -0.08404662       0.01289643 </v>
   <v>      -0.11080748       0.10641846      -0.15463102 </v>
   <v>       0.17582169      -0.10695351       1.20249506 </v>
   <v>      -1.11088602       0.68725107      -0.29920807 </v>
   <v>       0.69656812      -1.10922111      -0.29857200 </v>
   <v>       0.11395460       0.11428650      -0.15082154 </v>
   <v>      -0.24129349      -0.01225277       0.01042701 </v>
   <v>       0.22583751       0.00115813      -0.00382463 </v>
   <v>      -0.00780510      -0.40860399       1.27988528 </v>
   <v>       0.01046021      -0.31282339      -1.29677760 </v>
   <v>       0.01676797       0.01294838      -0.04044292 </v>
   <v>      -0.11680008       0.17546573       0.11525374 </v>
   <v>       0.12724950       0.13768625       0.14267216 </v>
   <v>       0.00038028       0.22751741       0.00174072 </v>
   <v>       1.52554717       5.75432749     -10.74261053 </v>
   <v>      -4.52095495      -1.95011164      12.39760334 </v>
  </varray>
  <varray name="stress" >
   <v>      -6.38294843      -0.17171375      -0.31245655 </v>
   <v>      -0.17171376      -6.12176224      -0.16059780 </v>
   <v>      -0.31245655      -0.16059780      -6.10280167 </v>
  </varray>
  <energy>
   <i name="e_fr_energy">   -173.81454490 </i>
   <i name="e_wo_entrp">   -173.80515475 </i>
   <i name="e_0_energy">     -0.03756061 </i>
  </energy>
  <time name="totalsc">18539.3018539.81</time>
  <eigenvalues>
   <array>
    <dimension dim="1">band</dimension>
    <dimension dim="2">kpoint</dimension>
    <dimension dim="3">spin</dimension>
    <field>eigene</field>
    <field>occ</field>
    <set>
     <set comment="spin 1">
      <set comment="kpoint 1">
       <r>  -29.4257    1.0000 </r>
       <r>  -14.1547    1.0000 </r>
       <r>  -12.8040    1.0000 </r>
       <r>  -12.2187    1.0000 </r>
       <r>  -10.5223    1.0000 </r>
       <r>   -7.0911    1.0000 </r>
       <r>   -6.6154    1.0000 </r>
       <r>   -6.2928    1.0000 </r>
       <r>   -6.1425    1.0000 </r>
       <r>   -6.1068    1.0000 </r>
       <r>   -6.0635    1.0000 </r>
       <r>   -5.9794    1.0000 </r>
       <r>   -5.8629    1.0000 </r>
       <r>   -5.8355    1.0000 </r>
       <r>   -5.7851    1.0000 </r>
       <r>   -5.7833    1.0000 </r>
       <r>   -5.7542    1.0000 </r>
       <r>   -5.7042    1.0000 </r>
       <r>   -5.6850    1.0000 </r>
       <r>   -5.6640    1.0000 </r>
       <r>   -5.6578    1.0000 </r>
       <r>   -5.6538    1.0000 </r>
       <r>   -5.6438    1.0000 </r>
       <r>   -5.6061    1.0000 </r>
       <r>   -5.5973    1.0000 </r>
       <r>   -5.5824    1.0000 </r>
       <r>   -5.5598    1.0000 </r>
       <r>   -5.5582    1.0000 </r>
       <r>   -5.5506    1.0000 </r>
       <r>   -5.5468    1.0000 </r>
       <r>   -5.5361    1.0000 </r>
       <r>   -5.5198    1.0000 </r>
       <r>   -5.5118    1.0000 </r>
       <r>   -5.5043    1.0000 </r>
       <r>   -5.4984    1.0000 </r>
       <r>   -5.4952    1.0000 </r>
       <r>   -5.4873    1.0000 </r>
       <r>   -5.4819    1.0000 </r>
       <r>   -5.4807    1.0000 </r>
       <r>   -5.4750    1.0000 </r>
       <r>   -5.4696    1.0000 </r>
       <r>   -5.4553    1.0000 </r>
       <r>   -5.4458    1.0000 </r>
       <r>   -5.4434    1.0000 </r>
       <r>   -5.4398    1.0000 </r>
       <r>   -5.4384    1.0000 </r>
       <r>   -5.4328    1.0000 </r>
       <r>   -5.4270    1.0000 </r>
       <r>   -5.4192    1.0000 </r>
       <r>   -5.4072    1.0000 </r>
       <r>   -5.4019    1.0000 </r>
       <r>   -5.3918    1.0000 </r>
       <r>   -5.3846    1.0000 </r>
       <r>   -5.3802    1.0000 </r>
       <r>   -5.3778    1.0000 </r>
       <r>   -5.3720    1.0000 </r>
       <r>   -5.3619    1.0000 </r>
       <r>   -5.3521    1.0000 </r>
       <r>   -5.3377    1.0000 </r>
       <r>   -5.3268    1.0000 </r>
       <r>   -5.3107    1.0000 </r>
       <r>   -5.3044    1.0000 </r>
       <r>   -5.2953    1.0000 </r>
       <r>   -5.2925    1.0000 </r>
       <r>   -5.2815    1.0000 </r>
       <r>   -5.2805    1.0000 </r>
       <r>   -5.2734    1.0000 </r>
       <r>   -5.2715    1.0000 </r>
       <r>   -5.2612    1.0000 </r>
       <r>   -5.2512    1.0000 </r>
       <r>   -5.2414    1.0000 </r>
       <r>   -5.2296    1.0000 </r>
       <r>   -5.2161    1.0000 </r>
       <r>   -5.1948    1.0000 </r>
       <r>   -5.1766    1.0000 </r>
       <r>   -5.1657    1.0000 </r>
       <r>   -5.1647    1.0000 </r>
       <r>   -5.1506    1.0000 </r>
       <r>   -5.1484    1.0000 </r>
       <r>   -5.1449    1.0000 </r>
       <r>   -5.1388    1.0000 </r>
       <r>   -5.1224    1.0000 </r>
       <r>   -5.1207    1.0000 </r>
       <r>   -5.1133    1.0000 </r>
       <r>   -5.1004    1.0000 </r>
       <r>   -5.0985    1.0000 </r>
       <r>   -5.0958    1.0000 </r>
       <r>   -5.0889    1.0000 </r>
       <r>   -5.0784    1.0000 </r>
       <r>   -5.0744    1.0000 </r>
       <r>   -5.0654    1.0000 </r>
       <r>   -5.0542    1.0000 </r>
       <r>   -5.0445    1.0000 </r>
       <r>   -5.0386    1.0000 </r>
       <r>   -5.0341    1.0000 </r>
       <r>   -5.0304    1.0000 </r>
       <r>   -5.0230    1.0000 </r>
       <r>   -5.0203    1.0000 </r>
       <r>   -5.0188    1.0000 </r>
       <r>   -5.0150    1.0000 </r>
       <r>   -5.0084    1.0000 </r>
       <r>   -5.0012    1.0000 </r>
       <r>   -4.9902    1.0000 </r>
       <r>   -4.9846    1.0000 </r>
       <r>   -4.9805    1.0000 </r>
       <r>   -4.9759    1.0000 </r>
       <r>   -4.9726    1.0000 </r>
       <r>   -4.9712    1.0000 </r>
       <r>   -4.9676    1.0000 </r>
       <r>   -4.9657    1.0000 </r>
       <r>   -4.9577    1.0000 </r>
       <r>   -4.9522    1.0000 </r>
       <r>   -4.9477    1.0000 </r>
       <r>   -4.9409    1.0000 </r>
       <r>   -4.9325    1.0000 </r>
       <r>   -4.9270    1.0000 </r>
       <r>   -4.9255    1.0000 </r>
       <r>   -4.9199    1.0000 </r>
       <r>   -4.9133    1.0000 </r>
       <r>   -4.9048    1.0000 </r>
       <r>   -4.8992    1.0000 </r>
       <r>   -4.8921    1.0000 </r>
       <r>   -4.8871    1.0000 </r>
       <r>   -4.8835    1.0000 </r>
       <r>   -4.8805    1.0000 </r>
       <r>   -4.8733    1.0000 </r>
       <r>   -4.8711    1.0000 </r>
       <r>   -4.8677    1.0000 </r>
       <r>   -4.8615    1.0000 </r>
       <r>   -4.8428    1.0000 </r>
       <r>   -4.8326    1.0000 </r>
       <r>   -4.8308    1.0000 </r>
       <r>   -4.8272    1.0000 </r>
       <r>   -4.8150    1.0000 </r>
       <r>   -4.8096    1.0000 </r>
       <r>   -4.8026    1.0000 </r>
       <r>   -4.8011    1.0000 </r>
       <r>   -4.7955    1.0000 </r>
       <r>   -4.7825    0.9999 </r>
       <r>   -4.7672    0.9999 </r>
       <r>   -4.7640    0.9999 </r>
       <r>   -4.7559    0.9999 </r>
       <r>   -4.7390    0.9998 </r>
       <r>   -4.7333    0.9998 </r>
       <r>   -4.7313    0.9998 </r>
       <r>   -4.7195    0.9997 </r>
       <r>   -4.7090    0.9996 </r>
       <r>   -4.7063    0.9996 </r>
       <r>   -4.7038    0.9996 </r>
       <r>   -4.6942    0.9995 </r>
       <r>   -4.6823    0.9994 </r>
       <r>   -4.6773    0.9993 </r>
       <r>   -4.6724    0.9992 </r>
       <r>   -4.6672    0.9991 </r>
       <r>   -4.6575    0.9990 </r>
       <r>   -4.6498    0.9988 </r>
       <r>   -4.6477    0.9988 </r>
       <r>   -4.6463    0.9987 </r>
       <r>   -4.6421    0.9986 </r>
       <r>   -4.6405    0.9986 </r>
       <r>   -4.6346    0.9984 </r>
       <r>   -4.6300    0.9983 </r>
       <r>   -4.6246    0.9982 </r>
       <r>   -4.6218    0.9981 </r>
       <r>   -4.6200    0.9980 </r>
       <r>   -4.6174    0.9979 </r>
       <r>   -4.6135    0.9978 </r>
       <r>   -4.6106    0.9977 </r>
       <r>   -4.6081    0.9976 </r>
       <r>   -4.6003    0.9974 </r>
       <r>   -4.5982    0.9973 </r>
       <r>   -4.5937    0.9971 </r>
       <r>   -4.5884    0.9969 </r>
       <r>   -4.5835    0.9967 </r>
       <r>   -4.5767    0.9965 </r>
       <r>   -4.5720    0.9963 </r>
       <r>   -4.5667    0.9961 </r>
       <r>   -4.5642    0.9960 </r>
       <r>   -4.5594    0.9959 </r>
       <r>   -4.5545    0.9957 </r>
       <r>   -4.5530    0.9957 </r>
       <r>   -4.5496    0.9955 </r>
       <r>   -4.5411    0.9953 </r>
       <r>   -4.5331    0.9952 </r>
       <r>   -4.5285    0.9951 </r>
       <r>   -4.5234    0.9951 </r>
       <r>   -4.5203    0.9951 </r>
       <r>   -4.5188    0.9951 </r>
       <r>   -4.5149    0.9951 </r>
       <r>   -4.5112    0.9951 </r>
       <r>   -4.5014    0.9954 </r>
       <r>   -4.4917    0.9959 </r>
       <r>   -4.4914    0.9959 </r>
       <r>   -4.4779    0.9970 </r>
       <r>   -4.4741    0.9975 </r>
       <r>   -4.4721    0.9977 </r>
       <r>   -4.4668    0.9984 </r>
       <r>   -4.4583    0.9998 </r>
       <r>   -4.4548    1.0004 </r>
       <r>   -4.4527    1.0009 </r>
       <r>   -4.4454    1.0025 </r>
       <r>   -4.4435    1.0029 </r>
       <r>   -4.4413    1.0034 </r>
       <r>   -4.4348    1.0052 </r>
       <r>   -4.4300    1.0066 </r>
       <r>   -4.4260    1.0078 </r>
       <r>   -4.4233    1.0087 </r>
       <r>   -4.4193    1.0101 </r>
       <r>   -4.4156    1.0115 </r>
       <r>   -4.4092    1.0139 </r>
       <r>   -4.4073    1.0146 </r>
       <r>   -4.4025    1.0166 </r>
       <r>   -4.3926    1.0209 </r>
       <r>   -4.3886    1.0228 </r>
       <r>   -4.3844    1.0247 </r>
       <r>   -4.3790    1.0273 </r>
       <r>   -4.3747    1.0293 </r>
       <r>   -4.3725    1.0304 </r>
       <r>   -4.3694    1.0319 </r>
       <r>   -4.3676    1.0328 </r>
       <r>   -4.3659    1.0336 </r>
       <r>   -4.3508    1.0406 </r>
       <r>   -4.3412    1.0445 </r>
       <r>   -4.3377    1.0458 </r>
       <r>   -4.3221    1.0502 </r>
       <r>   -4.3169    1.0511 </r>
       <r>   -4.3110    1.0516 </r>
       <r>   -4.3075    1.0516 </r>
       <r>   -4.3061    1.0516 </r>
       <r>   -4.3048    1.0515 </r>
       <r>   -4.3031    1.0513 </r>
       <r>   -4.2998    1.0509 </r>
       <r>   -4.2988    1.0507 </r>
       <r>   -4.2971    1.0504 </r>
       <r>   -4.2960    1.0501 </r>
       <r>   -4.2942    1.0497 </r>
       <r>   -4.2915    1.0488 </r>
       <r>   -4.2875    1.0473 </r>
       <r>   -4.2842    1.0457 </r>
       <r>   -4.2826    1.0448 </r>
       <r>   -4.2753    1.0399 </r>
       <r>   -4.2710    1.0364 </r>
       <r>   -4.2688    1.0344 </r>
       <r>   -4.2665    1.0321 </r>
       <r>   -4.2639    1.0293 </r>
       <r>   -4.2616    1.0267 </r>
       <r>   -4.2561    1.0197 </r>
       <r>   -4.2528    1.0151 </r>
       <r>   -4.2497    1.0104 </r>
       <r>   -4.2434    0.9997 </r>
       <r>   -4.2382    0.9897 </r>
       <r>   -4.2353    0.9838 </r>
       <r>   -4.2296    0.9711 </r>
       <r>   -4.2275    0.9661 </r>
       <r>   -4.2225    0.9536 </r>
       <r>   -4.2209    0.9494 </r>
       <r>   -4.2163    0.9367 </r>
       <r>   -4.2147    0.9322 </r>
       <r>   -4.2140    0.9303 </r>
       <r>   -4.2128    0.9266 </r>
       <r>   -4.2081    0.9122 </r>
       <r>   -4.2070    0.9088 </r>
       <r>   -4.2064    0.9068 </r>
       <r>   -4.2043    0.8999 </r>
       <r>   -4.2030    0.8955 </r>
       <r>   -4.1958    0.8706 </r>
       <r>   -4.1944    0.8653 </r>
       <r>   -4.1885    0.8431 </r>
       <r>   -4.1868    0.8364 </r>
       <r>   -4.1843    0.8265 </r>
       <r>   -4.1821    0.8177 </r>
       <r>   -4.1772    0.7970 </r>
       <r>   -4.1683    0.7578 </r>
       <r>   -4.1627    0.7324 </r>
       <r>   -4.1567    0.7037 </r>
       <r>   -4.1522    0.6819 </r>
       <r>   -4.1473    0.6572 </r>
       <r>   -4.1438    0.6398 </r>
       <r>   -4.1408    0.6245 </r>
       <r>   -4.1357    0.5980 </r>
       <r>   -4.1282    0.5590 </r>
       <r>   -4.1258    0.5466 </r>
       <r>   -4.1099    0.4627 </r>
       <r>   -4.1042    0.4322 </r>
       <r>   -4.0977    0.3987 </r>
       <r>   -4.0931    0.3749 </r>
       <r>   -4.0858    0.3380 </r>
       <r>   -4.0789    0.3043 </r>
       <r>   -3.9588   -0.0399 </r>
       <r>   -3.8940   -0.0450 </r>
       <r>   -3.8759   -0.0372 </r>
       <r>   -3.7917   -0.0032 </r>
       <r>   -3.7815   -0.0009 </r>
       <r>   -3.6727    0.0041 </r>
       <r>   -3.4753    0.0001 </r>
       <r>   -3.4454    0.0000 </r>
       <r>   -3.2048    0.0000 </r>
       <r>   -3.0368    0.0000 </r>
       <r>   -3.0319    0.0000 </r>
       <r>   -3.0198    0.0000 </r>
       <r>   -3.0024    0.0000 </r>
       <r>   -2.9843    0.0000 </r>
       <r>   -2.9469    0.0000 </r>
       <r>   -2.8990    0.0000 </r>
       <r>   -2.7703    0.0000 </r>
       <r>   -2.4942    0.0000 </r>
       <r>   -2.4848    0.0000 </r>
       <r>   -2.3616    0.0000 </r>
       <r>   -2.3202    0.0000 </r>
       <r>   -2.1519    0.0000 </r>
       <r>   -2.0923    0.0000 </r>
       <r>   -2.0090    0.0000 </r>
       <r>   -1.9562    0.0000 </r>
       <r>   -1.9166    0.0000 </r>
       <r>   -1.8640    0.0000 </r>
       <r>   -1.8286    0.0000 </r>
       <r>   -1.7742    0.0000 </r>
       <r>   -1.7615    0.0000 </r>
       <r>   -1.6665    0.0000 </r>
       <r>   -1.6038    0.0000 </r>
       <r>   -1.5667    0.0000 </r>
       <r>   -1.4985    0.0000 </r>
       <r>   -1.4110    0.0000 </r>
       <r>   -1.3864    0.0000 </r>
       <r>   -1.2363    0.0000 </r>
       <r>   -1.1908    0.0000 </r>
       <r>   -1.1374    0.0000 </r>
       <r>   -1.0201    0.0000 </r>
       <r>   -0.9542    0.0000 </r>
       <r>   -0.9505    0.0000 </r>
       <r>   -0.9056    0.0000 </r>
       <r>   -0.8934    0.0000 </r>
       <r>   -0.8464    0.0000 </r>
       <r>   -0.7976    0.0000 </r>
       <r>   -0.7462    0.0000 </r>
       <r>   -0.6135    0.0000 </r>
      </set>
     </set>
    </set>
   </array>
  </eigenvalues>
  <separator name="orbital magnetization" >
   <v name="MAGDIPOLOUT">      0.00000000      0.00000000      0.00000000</v>
  </separator>
  <dos>
   <i name="efermi">     -4.11700325 </i>
   <total>
    <array>
     <dimension dim="1">gridpoints</dimension>
     <dimension dim="2">spin</dimension>
     <field>energy</field>
     <field>total</field>
     <field>integrated</field>
     <set>
      <set comment="spin 1">
       <r>   -31.4257     0.0000     0.0000 </r>
       <r>   -31.3163     0.0000     0.0000 </r>
       <r>   -31.2069     0.0000     0.0000 </r>
       <r>   -31.0976     0.0000     0.0000 </r>
       <r>   -30.9882     0.0000     0.0000 </r>
       <r>   -30.8788     0.0000     0.0000 </r>
       <r>   -30.7694     0.0000     0.0000 </r>
       <r>   -30.6601     0.0000     0.0000 </r>
       <r>   -30.5507     0.0000     0.0000 </r>
       <r>   -30.4413     0.0000     0.0000 </r>
       <r>   -30.3319     0.0000     0.0000 </r>
       <r>   -30.2226     0.0000     0.0000 </r>
       <r>   -30.1132     0.0005     0.0001 </r>
       <r>   -30.0038     0.0083     0.0010 </r>
       <r>   -29.8944     0.0491     0.0063 </r>
       <r>   -29.7851    -0.0067     0.0056 </r>
       <r>   -29.6757    -0.6555    -0.0661 </r>
       <r>   -29.5663     0.2054    -0.0436 </r>
       <r>   -29.4570     6.5743     0.6754 </r>
       <r>   -29.3476     9.6955     1.7359 </r>
       <r>   -29.2382     3.3561     2.1029 </r>
       <r>   -29.1288    -0.7201     2.0242 </r>
       <r>   -29.0195    -0.3112     1.9901 </r>
       <r>   -28.9101     0.0606     1.9968 </r>
       <r>   -28.8007     0.0266     1.9997 </r>
       <r>   -28.6913     0.0029     2.0000 </r>
       <r>   -28.5820     0.0001     2.0000 </r>
       <r>   -28.4726     0.0000     2.0000 </r>
       <r>   -28.3632     0.0000     2.0000 </r>
       <r>   -28.2538     0.0000     2.0000 </r>
       <r>   -28.1445     0.0000     2.0000 </r>
       <r>   -28.0351     0.0000     2.0000 </r>
       <r>   -27.9257     0.0000     2.0000 </r>
       <r>   -27.8163     0.0000     2.0000 </r>
       <r>   -27.7070     0.0000     2.0000 </r>
       <r>   -27.5976     0.0000     2.0000 </r>
       <r>   -27.4882     0.0000     2.0000 </r>
       <r>   -27.3788     0.0000     2.0000 </r>
       <r>   -27.2695     0.0000     2.0000 </r>
       <r>   -27.1601     0.0000     2.0000 </r>
       <r>   -27.0507     0.0000     2.0000 </r>
       <r>   -26.9414     0.0000     2.0000 </r>
       <r>   -26.8320     0.0000     2.0000 </r>
       <r>   -26.7226     0.0000     2.0000 </r>
       <r>   -26.6132     0.0000     2.0000 </r>
       <r>   -26.5039     0.0000     2.0000 </r>
       <r>   -26.3945     0.0000     2.0000 </r>
       <r>   -26.2851     0.0000     2.0000 </r>
       <r>   -26.1757     0.0000     2.0000 </r>
       <r>   -26.0664     0.0000     2.0000 </r>
       <r>   -25.9570     0.0000     2.0000 </r>
       <r>   -25.8476     0.0000     2.0000 </r>
       <r>   -25.7382     0.0000     2.0000 </r>
       <r>   -25.6289     0.0000     2.0000 </r>
       <r>   -25.5195     0.0000     2.0000 </r>
       <r>   -25.4101     0.0000     2.0000 </r>
       <r>   -25.3007     0.0000     2.0000 </r>
       <r>   -25.1914     0.0000     2.0000 </r>
       <r>   -25.0820     0.0000     2.0000 </r>
       <r>   -24.9726     0.0000     2.0000 </r>
       <r>   -24.8632     0.0000     2.0000 </r>
       <r>   -24.7539     0.0000     2.0000 </r>
       <r>   -24.6445     0.0000     2.0000 </r>
       <r>   -24.5351     0.0000     2.0000 </r>
       <r>   -24.4258     0.0000     2.0000 </r>
       <r>   -24.3164     0.0000     2.0000 </r>
       <r>   -24.2070     0.0000     2.0000 </r>
       <r>   -24.0976     0.0000     2.0000 </r>
       <r>   -23.9883     0.0000     2.0000 </r>
       <r>   -23.8789     0.0000     2.0000 </r>
       <r>   -23.7695     0.0000     2.0000 </r>
       <r>   -23.6601     0.0000     2.0000 </r>
       <r>   -23.5508     0.0000     2.0000 </r>
       <r>   -23.4414     0.0000     2.0000 </r>
       <r>   -23.3320     0.0000     2.0000 </r>
       <r>   -23.2226     0.0000     2.0000 </r>
       <r>   -23.1133     0.0000     2.0000 </r>
       <r>   -23.0039     0.0000     2.0000 </r>
       <r>   -22.8945     0.0000     2.0000 </r>
       <r>   -22.7851     0.0000     2.0000 </r>
       <r>   -22.6758     0.0000     2.0000 </r>
       <r>   -22.5664     0.0000     2.0000 </r>
       <r>   -22.4570     0.0000     2.0000 </r>
       <r>   -22.3476     0.0000     2.0000 </r>
       <r>   -22.2383     0.0000     2.0000 </r>
       <r>   -22.1289     0.0000     2.0000 </r>
       <r>   -22.0195     0.0000     2.0000 </r>
       <r>   -21.9101     0.0000     2.0000 </r>
       <r>   -21.8008     0.0000     2.0000 </r>
       <r>   -21.6914     0.0000     2.0000 </r>
       <r>   -21.5820     0.0000     2.0000 </r>
       <r>   -21.4727     0.0000     2.0000 </r>
       <r>   -21.3633     0.0000     2.0000 </r>
       <r>   -21.2539     0.0000     2.0000 </r>
       <r>   -21.1445     0.0000     2.0000 </r>
       <r>   -21.0352     0.0000     2.0000 </r>
       <r>   -20.9258     0.0000     2.0000 </r>
       <r>   -20.8164     0.0000     2.0000 </r>
       <r>   -20.7070     0.0000     2.0000 </r>
       <r>   -20.5977     0.0000     2.0000 </r>
       <r>   -20.4883     0.0000     2.0000 </r>
       <r>   -20.3789     0.0000     2.0000 </r>
       <r>   -20.2695     0.0000     2.0000 </r>
       <r>   -20.1602     0.0000     2.0000 </r>
       <r>   -20.0508     0.0000     2.0000 </r>
       <r>   -19.9414     0.0000     2.0000 </r>
       <r>   -19.8320     0.0000     2.0000 </r>
       <r>   -19.7227     0.0000     2.0000 </r>
       <r>   -19.6133     0.0000     2.0000 </r>
       <r>   -19.5039     0.0000     2.0000 </r>
       <r>   -19.3945     0.0000     2.0000 </r>
       <r>   -19.2852     0.0000     2.0000 </r>
       <r>   -19.1758     0.0000     2.0000 </r>
       <r>   -19.0664     0.0000     2.0000 </r>
       <r>   -18.9571     0.0000     2.0000 </r>
       <r>   -18.8477     0.0000     2.0000 </r>
       <r>   -18.7383     0.0000     2.0000 </r>
       <r>   -18.6289     0.0000     2.0000 </r>
       <r>   -18.5196     0.0000     2.0000 </r>
       <r>   -18.4102     0.0000     2.0000 </r>
       <r>   -18.3008     0.0000     2.0000 </r>
       <r>   -18.1914     0.0000     2.0000 </r>
       <r>   -18.0821     0.0000     2.0000 </r>
       <r>   -17.9727     0.0000     2.0000 </r>
       <r>   -17.8633     0.0000     2.0000 </r>
       <r>   -17.7539     0.0000     2.0000 </r>
       <r>   -17.6446     0.0000     2.0000 </r>
       <r>   -17.5352     0.0000     2.0000 </r>
       <r>   -17.4258     0.0000     2.0000 </r>
       <r>   -17.3164     0.0000     2.0000 </r>
       <r>   -17.2071     0.0000     2.0000 </r>
       <r>   -17.0977     0.0000     2.0000 </r>
       <r>   -16.9883     0.0000     2.0000 </r>
       <r>   -16.8789     0.0000     2.0000 </r>
       <r>   -16.7696     0.0000     2.0000 </r>
       <r>   -16.6602     0.0000     2.0000 </r>
       <r>   -16.5508     0.0000     2.0000 </r>
       <r>   -16.4415     0.0000     2.0000 </r>
       <r>   -16.3321     0.0000     2.0000 </r>
       <r>   -16.2227     0.0000     2.0000 </r>
       <r>   -16.1133     0.0000     2.0000 </r>
       <r>   -16.0040     0.0000     2.0000 </r>
       <r>   -15.8946     0.0000     2.0000 </r>
       <r>   -15.7852     0.0000     2.0000 </r>
       <r>   -15.6758     0.0000     2.0000 </r>
       <r>   -15.5665     0.0000     2.0000 </r>
       <r>   -15.4571     0.0000     2.0000 </r>
       <r>   -15.3477     0.0000     2.0000 </r>
       <r>   -15.2383     0.0000     2.0000 </r>
       <r>   -15.1290     0.0000     2.0000 </r>
       <r>   -15.0196     0.0000     2.0000 </r>
       <r>   -14.9102     0.0001     2.0000 </r>
       <r>   -14.8008     0.0017     2.0002 </r>
       <r>   -14.6915     0.0187     2.0022 </r>
       <r>   -14.5821     0.0636     2.0092 </r>
       <r>   -14.4727    -0.1775     1.9898 </r>
       <r>   -14.3633    -0.8107     1.9011 </r>
       <r>   -14.2540     2.0599     2.1264 </r>
       <r>   -14.1446     8.9589     3.1063 </r>
       <r>   -14.0352     7.9184     3.9723 </r>
       <r>   -13.9259     1.0331     4.0853 </r>
       <r>   -13.8165    -0.7736     4.0007 </r>
       <r>   -13.7071    -0.0790     3.9921 </r>
       <r>   -13.5977     0.0585     3.9985 </r>
       <r>   -13.4884     0.0134     4.0000 </r>
       <r>   -13.3790     0.0099     4.0010 </r>
       <r>   -13.2696     0.0506     4.0066 </r>
       <r>   -13.1602    -0.0155     4.0049 </r>
       <r>   -13.0509    -0.6762     3.9309 </r>
       <r>   -12.9415     0.3109     3.9649 </r>
       <r>   -12.8321     6.7876     4.7073 </r>
       <r>   -12.7227     9.6451     5.7622 </r>
       <r>   -12.6134     3.2066     6.1130 </r>
       <r>   -12.5040    -1.1383     5.9885 </r>
       <r>   -12.3946    -0.8852     5.8916 </r>
       <r>   -12.2852     4.1927     6.3502 </r>
       <r>   -12.1759     9.9375     7.4371 </r>
       <r>   -12.0665     5.7825     8.0696 </r>
       <r>   -11.9571    -0.1336     8.0550 </r>
       <r>   -11.8477    -0.5730     7.9923 </r>
       <r>   -11.7384     0.0204     7.9945 </r>
       <r>   -11.6290     0.0433     7.9992 </r>
       <r>   -11.5196     0.0065     8.0000 </r>
       <r>   -11.4103     0.0004     8.0000 </r>
       <r>   -11.3009     0.0000     8.0000 </r>
       <r>   -11.1915     0.0009     8.0001 </r>
       <r>   -11.0821     0.0121     8.0014 </r>
       <r>   -10.9728     0.0574     8.0077 </r>
       <r>   -10.8634    -0.0675     8.0003 </r>
       <r>   -10.7540    -0.7614     7.9171 </r>
       <r>   -10.6446     0.9061     8.0162 </r>
       <r>   -10.5353     7.7495     8.8638 </r>
       <r>   -10.4259     9.0816     9.8570 </r>
       <r>   -10.3165     2.2229    10.1002 </r>
       <r>   -10.2071    -0.8074    10.0119 </r>
       <r>   -10.0978    -0.1938     9.9907 </r>
       <r>    -9.9884     0.0638     9.9976 </r>
       <r>    -9.8790     0.0196     9.9998 </r>
       <r>    -9.7696     0.0018    10.0000 </r>
       <r>    -9.6603     0.0001    10.0000 </r>
       <r>    -9.5509     0.0000    10.0000 </r>
       <r>    -9.4415     0.0000    10.0000 </r>
       <r>    -9.3321     0.0000    10.0000 </r>
       <r>    -9.2228     0.0000    10.0000 </r>
       <r>    -9.1134     0.0000    10.0000 </r>
       <r>    -9.0040     0.0000    10.0000 </r>
       <r>    -8.8946     0.0000    10.0000 </r>
       <r>    -8.7853     0.0000    10.0000 </r>
       <r>    -8.6759     0.0000    10.0000 </r>
       <r>    -8.5665     0.0000    10.0000 </r>
       <r>    -8.4572     0.0000    10.0000 </r>
       <r>    -8.3478     0.0000    10.0000 </r>
       <r>    -8.2384     0.0000    10.0000 </r>
       <r>    -8.1290     0.0000    10.0000 </r>
       <r>    -8.0197     0.0000    10.0000 </r>
       <r>    -7.9103     0.0000    10.0000 </r>
       <r>    -7.8009     0.0003    10.0000 </r>
       <r>    -7.6915     0.0051    10.0006 </r>
       <r>    -7.5822     0.0379    10.0047 </r>
       <r>    -7.4728     0.0386    10.0090 </r>
       <r>    -7.3634    -0.4923     9.9551 </r>
       <r>    -7.2540    -0.3770     9.9139 </r>
       <r>    -7.1447     5.0534    10.4666 </r>
       <r>    -7.0353    10.0507    11.5659 </r>
       <r>    -6.9259     4.6522    12.0747 </r>
       <r>    -6.8165    -1.1957    11.9439 </r>
       <r>    -6.7072     2.1029    12.1739 </r>
       <r>    -6.5978     9.1683    13.1767 </r>
       <r>    -6.4884     6.8158    13.9222 </r>
       <r>    -6.3790     2.2438    14.1676 </r>
       <r>    -6.2697     8.1467    15.0586 </r>
       <r>    -6.1603    21.0577    17.3618 </r>
       <r>    -6.0509    30.4330    20.6904 </r>
       <r>    -5.9416    26.2319    23.5595 </r>
       <r>    -5.8322    32.6447    27.1299 </r>
       <r>    -5.7228    61.9304    33.9035 </r>
       <r>    -5.6134   117.2485    46.7274 </r>
       <r>    -5.5041   215.1179    70.2557 </r>
       <r>    -5.3947   283.6253   101.2770 </r>
       <r>    -5.2853   252.5388   128.8981 </r>
       <r>    -5.1759   213.1992   152.2166 </r>
       <r>    -5.0666   265.9978   181.3098 </r>
       <r>    -4.9572   349.3758   219.5224 </r>
       <r>    -4.8478   337.2403   256.4077 </r>
       <r>    -4.7384   288.2169   287.9311 </r>
       <r>    -4.6291   344.3482   325.5938 </r>
       <r>    -4.5197   414.4808   370.9272 </r>
       <r>    -4.4103   420.0577   416.8706 </r>
       <r>    -4.3009   485.9869   470.0249 </r>
       <r>    -4.1916   543.1990   529.4367 </r>
       <r>    -4.0822   362.2222   569.0544 </r>
       <r>    -3.9728    97.4080   579.7083 </r>
       <r>    -3.8634    14.6399   581.3095 </r>
       <r>    -3.7541    30.5848   584.6547 </r>
       <r>    -3.6447    23.5967   587.2356 </r>
       <r>    -3.5353    13.7215   588.7363 </r>
       <r>    -3.4260    18.0095   590.7061 </r>
       <r>    -3.3166    12.1664   592.0368 </r>
       <r>    -3.2072     4.6153   592.5416 </r>
       <r>    -3.0978    22.0444   594.9527 </r>
       <r>    -2.9885    56.3830   601.1195 </r>
       <r>    -2.8791    54.2969   607.0582 </r>
       <r>    -2.7697    21.3851   609.3971 </r>
       <r>    -2.6603     3.8236   609.8153 </r>
       <r>    -2.5510     7.8257   610.6713 </r>
       <r>    -2.4416    23.2893   613.2185 </r>
       <r>    -2.3322    26.9993   616.1715 </r>
       <r>    -2.2228    18.2966   618.1727 </r>
       <r>    -2.1135    18.1578   620.1587 </r>
       <r>    -2.0041    29.2124   623.3538 </r>
       <r>    -1.8947    41.2676   627.8674 </r>
       <r>    -1.7853    45.5146   632.8455 </r>
       <r>    -1.6760    38.4011   637.0456 </r>
       <r>    -1.5666    33.3938   640.6980 </r>
       <r>    -1.4572    32.2374   644.2239 </r>
       <r>    -1.3478    26.6458   647.1383 </r>
       <r>    -1.2385    23.1499   649.6703 </r>
       <r>    -1.1291    24.6125   652.3622 </r>
       <r>    -1.0197    30.1133   655.6558 </r>
       <r>    -0.9104    48.8300   660.9966 </r>
       <r>    -0.8010    52.3457   666.7218 </r>
       <r>    -0.6916    30.8323   670.0941 </r>
       <r>    -0.5822    13.3640   671.5557 </r>
       <r>    -0.4729     4.5610   672.0546 </r>
       <r>    -0.3635    -0.1639   672.0367 </r>
       <r>    -0.2541    -0.4582   671.9866 </r>
       <r>    -0.1447     0.0576   671.9929 </r>
       <r>    -0.0354     0.0560   671.9990 </r>
       <r>     0.0740     0.0087   671.9999 </r>
       <r>     0.1834     0.0005   672.0000 </r>
       <r>     0.2928     0.0000   672.0000 </r>
       <r>     0.4021     0.0000   672.0000 </r>
       <r>     0.5115     0.0000   672.0000 </r>
       <r>     0.6209     0.0000   672.0000 </r>
       <r>     0.7303     0.0000   672.0000 </r>
       <r>     0.8396     0.0000   672.0000 </r>
       <r>     0.9490     0.0000   672.0000 </r>
       <r>     1.0584     0.0000   672.0000 </r>
       <r>     1.1678     0.0000   672.0000 </r>
       <r>     1.2771     0.0000   672.0000 </r>
       <r>     1.3865     0.0000   672.0000 </r>
      </set>
     </set>
    </array>
   </total>
  </dos>
 </calculation>
 <structure name="finalpos" >
  <crystal>
   <varray name="basis" >
    <v>      30.00000000       0.00000000       0.00000000 </v>
    <v>       0.00000000      30.00000000       0.00000000 </v>
    <v>       0.00000000       0.00000000      30.00000000 </v>
   </varray>
   <i name="volume">  27000.00000000 </i>
   <varray name="rec_basis" >
    <v>       0.03333333       0.00000000       0.00000000 </v>
    <v>       0.00000000       0.03333333       0.00000000 </v>
    <v>       0.00000000       0.00000000       0.03333333 </v>
   </varray>
  </crystal>
  <varray name="positions" >
   <v>       0.44576020       0.32826710       0.41691983 </v>
   <v>       0.67173288       0.55423978       0.41691983 </v>
   <v>       0.55423980       0.32826710       0.41691983 </v>
   <v>       0.32826712       0.55423978       0.41691983 </v>
   <v>       0.50000000       0.38250690       0.34021317 </v>
   <v>       0.50000000       0.38250690       0.65978680 </v>
   <v>       0.50000000       0.27609440       0.50000000 </v>
   <v>       0.27609443       0.49999998       0.50000000 </v>
   <v>       0.72390557       0.49999998       0.50000000 </v>
   <v>       0.50000000       0.72390555       0.50000000 </v>
   <v>       0.61195280       0.38804720       0.34167483 </v>
   <v>       0.61195280       0.38804720       0.65832513 </v>
   <v>       0.38804722       0.61195278       0.34167483 </v>
   <v>       0.38804722       0.61195278       0.65832513 </v>
   <v>       0.38804720       0.38804720       0.34167483 </v>
   <v>       0.38804720       0.38804720       0.65832513 </v>
   <v>       0.61195278       0.61195278       0.34167483 </v>
   <v>       0.61195278       0.61195278       0.65832513 </v>
   <v>       0.44576020       0.32826710       0.58308023 </v>
   <v>       0.67173288       0.55423978       0.58308023 </v>
   <v>       0.55791699       0.44208301       0.41809300 </v>
   <v>       0.32826705       0.44576024       0.41691983 </v>
   <v>       0.55423973       0.67173293       0.41691983 </v>
   <v>       0.55423980       0.32826710       0.58308023 </v>
   <v>       0.32826712       0.55423978       0.58308023 </v>
   <v>       0.67173295       0.44576024       0.41691983 </v>
   <v>       0.44576027       0.67173293       0.41691983 </v>
   <v>       0.44208301       0.44208301       0.41809300 </v>
   <v>       0.50000000       0.38416601       0.50000000 </v>
   <v>       0.61749315       0.50000005       0.34021317 </v>
   <v>       0.61749315       0.50000005       0.65978680 </v>
   <v>       0.38250685       0.50000005       0.34021317 </v>
   <v>       0.38250685       0.50000005       0.65978680 </v>
   <v>       0.38317830       0.38317830       0.50000000 </v>
   <v>       0.61682172       0.61682172       0.50000000 </v>
   <v>       0.61682170       0.38317830       0.50000000 </v>
   <v>       0.38317828       0.61682172       0.50000000 </v>
   <v>       0.50000000       0.50000000       0.33478917 </v>
   <v>       0.50000000       0.50000000       0.66521087 </v>
   <v>       0.32826705       0.44576024       0.58308023 </v>
   <v>       0.55423973       0.67173293       0.58308023 </v>
   <v>       0.55791699       0.44208301       0.58190703 </v>
   <v>       0.44208298       0.55791702       0.41809300 </v>
   <v>       0.44208301       0.44208301       0.58190703 </v>
   <v>       0.67173295       0.44576024       0.58308023 </v>
   <v>       0.44576027       0.67173293       0.58308023 </v>
   <v>       0.55791702       0.55791702       0.41809300 </v>
   <v>       0.38416599       0.50000002       0.50000000 </v>
   <v>       0.61583401       0.50000002       0.50000000 </v>
   <v>       0.50000000       0.61749319       0.34021317 </v>
   <v>       0.50000000       0.61749319       0.65978680 </v>
   <v>       0.50000000       0.50000000       0.50000000 </v>
   <v>       0.44208298       0.55791702       0.58190703 </v>
   <v>       0.55791702       0.55791702       0.58190703 </v>
   <v>       0.50000000       0.61583404       0.50000000 </v>
   <v>       0.47113493       0.44029733       0.65542700 </v>
   <v>       0.46471223       0.42701303       0.69001073 </v>
  </varray>
  <varray name="selective"  type="logical" >
   <v type="logical" >  F  F  F </v>
   <v type="logical" >  F  F  F </v>
   <v type="logical" >  F  F  F </v>
   <v type="logical" >  F  F  F </v>
   <v type="logical" >  F  F  F </v>
   <v type="logical" >  F  F  F </v>
   <v type="logical" >  F  F  F </v>
   <v type="logical" >  F  F  F </v>
   <v type="logical" >  F  F  F </v>
   <v type="logical" >  F  F  F </v>
   <v type="logical" >  F  F  F </v>
   <v type="logical" >  F  F  F </v>
   <v type="logical" >  F  F  F </v>
   <v type="logical" >  F  F  F </v>
   <v type="logical" >  F  F  F </v>
   <v type="logical" >  F  F  F </v>
   <v type="logical" >  F  F  F </v>
   <v type="logical" >  F  F  F </v>
   <v type="logical" >  F  F  F </v>
   <v type="logical" >  F  F  F </v>
   <v type="logical" >  F  F  F </v>
   <v type="logical" >  F  F  F </v>
   <v type="logical" >  F  F  F </v>
   <v type="logical" >  F  F  F </v>
   <v type="logical" >  F  F  F </v>
   <v type="logical" >  F  F  F </v>
   <v type="logical" >  F  F  F </v>
   <v type="logical" >  F  F  F </v>
   <v type="logical" >  F  F  F </v>
   <v type="logical" >  F  F  F </v>
   <v type="logical" >  F  F  F </v>
   <v type="logical" >  F  F  F </v>
   <v type="logical" >  F  F  F </v>
   <v type="logical" >  F  F  F </v>
   <v type="logical" >  F  F  F </v>
   <v type="logical" >  F  F  F </v>
   <v type="logical" >  F  F  F </v>
   <v type="logical" >  F  F  F </v>
   <v type="logical" >  F  F  F </v>
   <v type="logical" >  F  F  F </v>
   <v type="logical" >  F  F  F </v>
   <v type="logical" >  F  F  F </v>
   <v type="logical" >  F  F  F </v>
   <v type="logical" >  F  F  F </v>
   <v type="logical" >  F  F  F </v>
   <v type="logical" >  F  F  F </v>
   <v type="logical" >  F  F  F </v>
   <v type="logical" >  F  F  F </v>
   <v type="logical" >  F  F  F </v>
   <v type="logical" >  F  F  F </v>
   <v type="logical" >  F  F  F </v>
   <v type="logical" >  F  F  F </v>
   <v type="logical" >  F  F  F </v>
   <v type="logical" >  F  F  F </v>
   <v type="logical" >  F  F  F </v>
   <v type="logical" >  F  F  F </v>
   <v type="logical" >  F  F  F </v>
  </varray>
  <nose>
   <v>      -3.00000000       0.00000000       0.00010000       0.00010000 </v>
  </nose>
 </structure>
</modeling>
