   57   57    1    1
  0.4736842E+03  0.3000000E-08  0.3000000E-08  0.3000000E-08  0.5000000E-15
  1.000000000000000E-004
  CAR 
 6_Pd100_top_free_z(O)                   
    560      1    336
 
  0.0000000E+00  0.0000000E+00  0.0000000E+00  0.1000000E+01
    1      -28.658983   1.000000
    2      -13.428878   1.000000
    3      -11.053490   1.000000
    4      -11.053471   1.000000
    5      -10.634176   1.000000
    6       -6.645587   1.000000
    7       -6.143716   1.000000
    8       -6.143699   1.000000
    9       -6.136216   1.000000
   10       -6.021908   1.000000
   11       -6.021897   1.000000
   12       -5.805355   1.000000
   13       -5.790002   1.000000
   14       -5.789991   1.000000
   15       -5.741802   1.000000
   16       -5.688736   1.000000
   17       -5.678099   1.000000
   18       -5.677231   1.000000
   19       -5.677208   1.000000
   20       -5.634676   1.000000
   21       -5.622559   1.000000
   22       -5.612139   1.000000
   23       -5.599087   1.000000
   24       -5.591512   1.000000
   25       -5.586982   1.000000
   26       -5.586955   1.000000
   27       -5.582058   1.000000
   28       -5.534718   1.000000
   29       -5.525052   1.000000
   30       -5.525048   1.000000
   31       -5.518478   1.000000
   32       -5.510661   1.000000
   33       -5.510431   1.000000
   34       -5.510414   1.000000
   35       -5.504176   1.000000
   36       -5.498903   1.000000
   37       -5.495357   1.000000
   38       -5.495325   1.000000
   39       -5.470270   1.000000
   40       -5.464232   1.000000
   41       -5.463688   1.000000
   42       -5.461826   1.000000
   43       -5.459808   1.000000
   44       -5.459580   1.000000
   45       -5.459549   1.000000
   46       -5.456702   1.000000
   47       -5.449416   1.000000
   48       -5.449389   1.000000
   49       -5.421010   1.000000
   50       -5.421005   1.000000
   51       -5.419230   1.000000
   52       -5.404543   1.000000
   53       -5.401246   1.000000
   54       -5.401184   1.000000
   55       -5.386443   1.000000
   56       -5.378886   1.000000
   57       -5.378869   1.000000
   58       -5.351836   1.000000
   59       -5.333603   1.000000
   60       -5.309799   1.000000
   61       -5.308552   1.000000
   62       -5.308244   1.000000
   63       -5.308239   1.000000
   64       -5.305971   1.000000
   65       -5.305962   1.000000
   66       -5.294861   1.000000
   67       -5.291555   1.000000
   68       -5.275587   1.000000
   69       -5.275535   1.000000
   70       -5.265557   1.000000
   71       -5.232604   1.000000
   72       -5.178351   1.000000
   73       -5.178315   1.000000
   74       -5.173059   1.000000
   75       -5.171365   1.000000
   76       -5.168680   1.000000
   77       -5.168652   1.000000
   78       -5.168337   1.000000
   79       -5.166264   1.000000
   80       -5.139222   1.000000
   81       -5.138874   1.000000
   82       -5.138841   1.000000
   83       -5.124657   1.000000
   84       -5.115664   1.000000
   85       -5.114117   1.000000
   86       -5.114101   1.000000
   87       -5.104249   1.000000
   88       -5.089889   1.000000
   89       -5.089882   1.000000
   90       -5.089111   1.000000
   91       -5.065680   1.000000
   92       -5.050190   1.000000
   93       -5.048546   1.000000
   94       -5.044187   1.000000
   95       -5.044178   1.000000
   96       -5.039319   1.000000
   97       -5.039307   1.000000
   98       -5.018496   1.000000
   99       -5.014377   1.000000
  100       -5.010578   1.000000
  101       -5.001744   1.000000
  102       -5.001718   1.000000
  103       -4.999575   1.000000
  104       -4.998176   1.000000
  105       -4.995847   1.000000
  106       -4.995834   1.000000
  107       -4.987545   1.000000
  108       -4.981628   1.000000
  109       -4.971428   1.000000
  110       -4.971420   1.000000
  111       -4.970206   1.000000
  112       -4.969528   1.000000
  113       -4.961514   1.000000
  114       -4.961485   1.000000
  115       -4.959266   1.000000
  116       -4.951614   0.999999
  117       -4.939183   0.999999
  118       -4.939177   0.999999
  119       -4.929437   0.999999
  120       -4.912320   0.999998
  121       -4.908640   0.999998
  122       -4.908613   0.999998
  123       -4.907688   0.999998
  124       -4.903626   0.999997
  125       -4.893396   0.999996
  126       -4.893362   0.999996
  127       -4.876816   0.999993
  128       -4.871450   0.999992
  129       -4.871439   0.999992
  130       -4.858900   0.999989
  131       -4.834334   0.999976
  132       -4.830739   0.999973
  133       -4.823655   0.999967
  134       -4.823634   0.999967
  135       -4.821928   0.999966
  136       -4.811371   0.999954
  137       -4.811361   0.999954
  138       -4.789622   0.999916
  139       -4.782099   0.999897
  140       -4.780489   0.999893
  141       -4.780477   0.999893
  142       -4.757748   0.999810
  143       -4.753617   0.999790
  144       -4.730022   0.999635
  145       -4.729973   0.999635
  146       -4.729660   0.999632
  147       -4.726488   0.999605
  148       -4.723430   0.999577
  149       -4.723414   0.999577
  150       -4.700594   0.999313
  151       -4.692571   0.999193
  152       -4.691502   0.999176
  153       -4.673575   0.998841
  154       -4.668712   0.998735
  155       -4.668709   0.998735
  156       -4.666862   0.998692
  157       -4.663795   0.998620
  158       -4.663790   0.998620
  159       -4.653885   0.998366
  160       -4.649698   0.998250
  161       -4.649075   0.998233
  162       -4.649068   0.998232
  163       -4.643088   0.998057
  164       -4.640935   0.997991
  165       -4.640816   0.997987
  166       -4.635984   0.997834
  167       -4.635981   0.997834
  168       -4.631559   0.997689
  169       -4.622719   0.997385
  170       -4.620316   0.997299
  171       -4.619373   0.997265
  172       -4.619354   0.997265
  173       -4.614345   0.997082
  174       -4.587864   0.996096
  175       -4.587858   0.996095
  176       -4.584685   0.995982
  177       -4.583696   0.995947
  178       -4.577524   0.995738
  179       -4.577523   0.995738
  180       -4.574549   0.995643
  181       -4.564518   0.995361
  182       -4.556064   0.995184
  183       -4.545082   0.995069
  184       -4.545066   0.995069
  185       -4.542623   0.995065
  186       -4.541743   0.995066
  187       -4.541542   0.995066
  188       -4.541532   0.995066
  189       -4.537837   0.995085
  190       -4.537834   0.995085
  191       -4.505458   0.996487
  192       -4.500751   0.996928
  193       -4.500747   0.996928
  194       -4.496074   0.997439
  195       -4.493886   0.997704
  196       -4.481425   0.999557
  197       -4.472286   1.001315
  198       -4.472281   1.001316
  199       -4.466093   1.002712
  200       -4.460263   1.004183
  201       -4.458415   1.004682
  202       -4.455484   1.005504
  203       -4.449492   1.007309
  204       -4.449482   1.007312
  205       -4.446310   1.008333
  206       -4.440983   1.010150
  207       -4.440978   1.010152
  208       -4.435873   1.012010
  209       -4.435860   1.012015
  210       -4.429697   1.014404
  211       -4.418389   1.019163
  212       -4.408800   1.023511
  213       -4.398818   1.028240
  214       -4.398801   1.028248
  215       -4.397617   1.028817
  216       -4.392215   1.031418
  217       -4.392182   1.031434
  218       -4.391310   1.031853
  219       -4.388160   1.033365
  220       -4.381154   1.036681
  221       -4.381140   1.036688
  222       -4.358769   1.046066
  223       -4.349611   1.048907
  224       -4.343582   1.050296
  225       -4.343562   1.050300
  226       -4.330724   1.051625
  227       -4.328219   1.051579
  228       -4.327071   1.051521
  229       -4.327045   1.051519
  230       -4.322657   1.051069
  231       -4.319870   1.050587
  232       -4.319858   1.050585
  233       -4.314642   1.049243
  234       -4.313906   1.049006
  235       -4.312215   1.048413
  236       -4.311231   1.048037
  237       -4.311224   1.048035
  238       -4.310468   1.047730
  239       -4.306363   1.045835
  240       -4.306306   1.045806
  241       -4.297918   1.040568
  242       -4.290320   1.034120
  243       -4.287034   1.030795
  244       -4.287023   1.030782
  245       -4.280044   1.022580
  246       -4.273547   1.013487
  247       -4.273506   1.013425
  248       -4.273291   1.013099
  249       -4.271803   1.010799
  250       -4.271264   1.009946
  251       -4.256697   0.982911
  252       -4.248460   0.964106
  253       -4.248444   0.964068
  254       -4.246163   0.958398
  255       -4.241045   0.944944
  256       -4.239776   0.941449
  257       -4.239759   0.941401
  258       -4.239109   0.939587
  259       -4.233443   0.923083
  260       -4.233410   0.922984
  261       -4.227741   0.905223
  262       -4.226170   0.900084
  263       -4.226155   0.900032
  264       -4.225892   0.899163
  265       -4.222990   0.889394
  266       -4.211172   0.846392
  267       -4.208391   0.835545
  268       -4.208193   0.834764
  269       -4.208188   0.834742
  270       -4.204974   0.821853
  271       -4.203855   0.817284
  272       -4.188252   0.749475
  273       -4.185211   0.735438
  274       -4.185205   0.735410
  275       -4.183507   0.727469
  276       -4.173809   0.680775
  277       -4.173794   0.680701
  278       -4.168036   0.652040
  279       -4.158557   0.603650
  280       -4.158543   0.603577
  281       -4.158441   0.603051
  282       -4.144622   0.530712
  283       -4.131554   0.461651
  284       -4.121114   0.406962
  285       -4.121092   0.406848
  286       -4.115436   0.377665
  287       -4.108746   0.343734
  288       -4.100385   0.302471
  289       -4.044711   0.078526
  290       -3.948316  -0.051612
  291       -3.893179  -0.035135
  292       -3.814051  -0.003329
  293       -3.810367  -0.002436
  294       -3.810354  -0.002433
  295       -3.483931   0.000075
  296       -3.483929   0.000075
  297       -3.393011   0.000005
  298       -3.053756   0.000000
  299       -3.053749   0.000000
  300       -3.009087   0.000000
  301       -3.007576   0.000000
  302       -3.003546   0.000000
  303       -3.003536   0.000000
  304       -2.921377   0.000000
  305       -2.808874   0.000000
  306       -2.548991   0.000000
  307       -2.548974   0.000000
  308       -2.510324   0.000000
  309       -2.219028   0.000000
  310       -2.131573   0.000000
  311       -2.131562   0.000000
  312       -2.108251   0.000000
  313       -1.941999   0.000000
  314       -1.941989   0.000000
  315       -1.848268   0.000000
  316       -1.845813   0.000000
  317       -1.839733   0.000000
  318       -1.713490   0.000000
  319       -1.713464   0.000000
  320       -1.705580   0.000000
  321       -1.631319   0.000000
  322       -1.542989   0.000000
  323       -1.495255   0.000000
  324       -1.330227   0.000000
  325       -1.330209   0.000000
  326       -1.034852   0.000000
  327       -1.034052   0.000000
  328       -1.025183   0.000000
  329       -0.937272   0.000000
  330       -0.935825   0.000000
  331       -0.933494   0.000000
  332       -0.928690   0.000000
  333       -0.908651   0.000000
  334       -0.903548   0.000000
  335       -0.755419   0.000000
  336       -0.593354   0.000000
