       N       E                     dE             d eps       ncg     rms          rms(c)
DAV:   1     0.439556786574E+04    0.43956E+04   -0.10051E+05   688   0.815E+02
DAV:   2     0.201139337019E+04   -0.23842E+04   -0.21455E+04  1224   0.105E+02
DAV:   3     0.232348835416E+03   -0.17790E+04   -0.16732E+04  1000   0.922E+01
DAV:   4    -0.136144963632E+03   -0.36849E+03   -0.31611E+03   840   0.435E+01
DAV:   5    -0.180244691666E+03   -0.44100E+02   -0.36777E+02  1048   0.145E+01    0.168E+01
RMM:   6    -0.179424396559E+03    0.82030E+00   -0.58552E+01   726   0.899E+00    0.240E+01
RMM:   7    -0.182281381687E+03   -0.28570E+01   -0.21218E+01   858   0.479E+00    0.217E+01
RMM:   8    -0.187361810742E+03   -0.50804E+01   -0.82422E+00   763   0.390E+00    0.327E+01
RMM:   9    -0.183788186019E+03    0.35736E+01   -0.62432E+00   738   0.325E+00    0.261E+01
RMM:  10    -0.180616920928E+03    0.31713E+01   -0.47696E+00   721   0.326E+00    0.249E+01
RMM:  11    -0.178846298764E+03    0.17706E+01   -0.19179E+00   741   0.202E+00    0.198E+01
RMM:  12    -0.177763100796E+03    0.10832E+01   -0.17939E+00   731   0.198E+00    0.151E+01
RMM:  13    -0.177375505521E+03    0.38760E+00   -0.18175E+00   717   0.201E+00    0.199E+01
RMM:  14    -0.177454827354E+03   -0.79322E-01   -0.20221E+00   705   0.205E+00    0.238E+01
RMM:  15    -0.177158782771E+03    0.29604E+00   -0.14434E+00   705   0.174E+00    0.268E+01
RMM:  16    -0.175799260679E+03    0.13595E+01   -0.10357E+00   703   0.146E+00    0.104E+01
RMM:  17    -0.175500772077E+03    0.29849E+00   -0.71488E-01   707   0.124E+00    0.102E+01
RMM:  18    -0.175633246047E+03   -0.13247E+00   -0.34522E-01   714   0.899E-01    0.130E+01
RMM:  19    -0.175288859489E+03    0.34439E+00   -0.20445E-01   708   0.703E-01    0.928E+00
RMM:  20    -0.175094364711E+03    0.19449E+00   -0.31136E-01   696   0.855E-01    0.759E+00
RMM:  21    -0.174926511078E+03    0.16785E+00   -0.20572E-01   699   0.700E-01    0.562E+00
RMM:  22    -0.175044359949E+03   -0.11785E+00   -0.21660E-01   708   0.714E-01    0.817E+00
RMM:  23    -0.175106889288E+03   -0.62529E-01   -0.18059E-01   716   0.676E-01    0.963E+00
RMM:  24    -0.174920714555E+03    0.18617E+00   -0.16335E-01   696   0.640E-01    0.647E+00
RMM:  25    -0.174750073764E+03    0.17064E+00   -0.10729E-01   694   0.526E-01    0.329E+00
RMM:  26    -0.174758877385E+03   -0.88036E-02   -0.90341E-02   694   0.470E-01    0.413E+00
RMM:  27    -0.174767770380E+03   -0.88930E-02   -0.62763E-02   696   0.403E-01    0.481E+00
RMM:  28    -0.174702986164E+03    0.64784E-01   -0.35807E-02   695   0.316E-01    0.261E+00
RMM:  29    -0.174678463735E+03    0.24522E-01   -0.24554E-02   694   0.252E-01    0.195E+00
RMM:  30    -0.174665013920E+03    0.13450E-01   -0.12653E-02   696   0.182E-01    0.145E+00
RMM:  31    -0.174655315741E+03    0.96982E-02   -0.69343E-03   692   0.138E-01    0.102E+00
RMM:  32    -0.174652891126E+03    0.24246E-02   -0.61364E-03   691   0.114E-01    0.970E-01
RMM:  33    -0.174649556800E+03    0.33343E-02   -0.51485E-03   693   0.113E-01    0.801E-01
RMM:  34    -0.174647077874E+03    0.24789E-02   -0.37366E-03   690   0.984E-02    0.610E-01
RMM:  35    -0.174647365700E+03   -0.28783E-03   -0.22946E-03   688   0.780E-02    0.552E-01
RMM:  36    -0.174648296874E+03   -0.93117E-03   -0.18184E-03   690   0.692E-02    0.531E-01
RMM:  37    -0.174648819147E+03   -0.52227E-03   -0.10970E-03   688   0.545E-02    0.441E-01
RMM:  38    -0.174652315864E+03   -0.34967E-02   -0.14583E-03   682   0.572E-02    0.459E-01
RMM:  39    -0.174654312829E+03   -0.19970E-02   -0.95390E-04   681   0.479E-02    0.316E-01
RMM:  40    -0.174656310770E+03   -0.19979E-02   -0.58861E-04   599   0.375E-02    0.352E-01
RMM:  41    -0.174659143510E+03   -0.28327E-02   -0.60415E-04   589   0.345E-02    0.199E-01
RMM:  42    -0.174660273048E+03   -0.11295E-02   -0.25556E-04   423   0.252E-02    0.125E-01
RMM:  43    -0.174662947303E+03   -0.26743E-02   -0.28764E-04   441   0.232E-02    0.145E-01
RMM:  44    -0.174664506086E+03   -0.15588E-02   -0.20851E-04   409   0.211E-02    0.120E-01
RMM:  45    -0.174666790746E+03   -0.22847E-02   -0.28945E-04   443   0.214E-02    0.145E-01
RMM:  46    -0.174669144520E+03   -0.23538E-02   -0.39897E-04   492   0.227E-02    0.812E-02
RMM:  47    -0.174669897614E+03   -0.75309E-03   -0.12678E-04   415   0.142E-02    0.640E-02
RMM:  48    -0.174671289971E+03   -0.13924E-02   -0.12112E-04   410   0.126E-02    0.583E-02
RMM:  49    -0.174671737269E+03   -0.44730E-03   -0.61922E-05   404   0.928E-03    0.312E-02
RMM:  50    -0.174672535974E+03   -0.79870E-03   -0.47226E-05   404   0.810E-03    0.428E-02
RMM:  51    -0.174673153778E+03   -0.61780E-03   -0.30455E-05   391   0.653E-03    0.211E-02
RMM:  52    -0.174673502858E+03   -0.34908E-03   -0.14300E-05   281   0.490E-03    0.240E-02
RMM:  53    -0.174674204093E+03   -0.70123E-03   -0.20748E-05   343   0.535E-03    0.232E-02
RMM:  54    -0.174674443458E+03   -0.23937E-03   -0.55095E-06   175   0.409E-03    0.148E-02
RMM:  55    -0.174674824296E+03   -0.38084E-03   -0.11817E-05   242   0.448E-03    0.149E-02
RMM:  56    -0.174674958429E+03   -0.13413E-03   -0.35994E-06   141   0.374E-03    0.105E-02
RMM:  57    -0.174675188213E+03   -0.22978E-03   -0.78217E-06   186   0.407E-03    0.105E-02
RMM:  58    -0.174675355773E+03   -0.16756E-03   -0.69690E-06   167   0.375E-03    0.688E-03
RMM:  59    -0.174675528254E+03   -0.17248E-03   -0.95740E-06   174   0.383E-03    0.694E-03
RMM:  60    -0.174675639479E+03   -0.11123E-03   -0.44924E-06   134   0.356E-03    0.689E-03
RMM:  61    -0.174675754419E+03   -0.11494E-03   -0.66406E-06   149   0.377E-03    0.647E-03
RMM:  62    -0.174675784575E+03   -0.30156E-04   -0.30848E-06   102   0.346E-03
   1 F= -.17467578E+03 E0= -.17466591E+03  d E =-.394906E-01
