  57  57   0   0
  0.4736842E+03  0.3000000E-08  0.3000000E-08  0.3000000E-08  0.5000000E-15
  1.000000000000000E-004
  CAR 
 6_Pd100_top_free_z(O)                   
      1.28145414    -30.42484710  301     -4.16546567      1.00000000
    -30.425  0.0000E+00  0.0000E+00
    -30.319  0.0000E+00  0.0000E+00
    -30.213  0.0000E+00  0.0000E+00
    -30.108  0.2682E-27  0.2834E-28
    -30.002  0.1207E-23  0.1276E-24
    -29.896  0.3061E-20  0.3236E-21
    -29.791  0.4362E-17  0.4614E-18
    -29.685  0.3481E-14  0.3684E-15
    -29.579  0.1552E-11  0.1643E-12
    -29.474  0.3825E-09  0.4059E-10
    -29.368  0.5176E-07  0.5511E-08
    -29.262  0.3790E-05  0.4061E-06
    -29.157  0.1466E-03  0.1590E-04
    -29.051  0.2862E-02  0.3184E-03
    -28.945  0.2527E-01  0.2989E-02
    -28.840  0.6362E-01  0.9713E-02
    -28.734 -0.2404E+00 -0.1569E-01
    -28.628 -0.8084E+00 -0.1011E+00
    -28.522  0.2245E+01  0.1361E+00
    -28.417  0.8980E+01  0.1085E+01
    -28.311  0.8160E+01  0.1948E+01
    -28.205  0.1371E+01  0.2092E+01
    -28.100 -0.8139E+00  0.2006E+01
    -27.994 -0.1465E+00  0.1991E+01
    -27.888  0.6398E-01  0.1998E+01
    -27.783  0.1925E-01  0.2000E+01
    -27.677  0.1906E-02  0.2000E+01
    -27.571  0.8758E-04  0.2000E+01
    -27.466  0.2050E-05  0.2000E+01
    -27.360  0.2545E-07  0.2000E+01
    -27.254  0.1715E-09  0.2000E+01
    -27.149  0.6324E-12  0.2000E+01
    -27.043  0.2101E-14  0.2000E+01
    -26.937  0.0000E+00  0.2000E+01
    -26.831  0.0000E+00  0.2000E+01
    -26.726  0.0000E+00  0.2000E+01
    -26.620  0.0000E+00  0.2000E+01
    -26.514  0.0000E+00  0.2000E+01
    -26.409  0.0000E+00  0.2000E+01
    -26.303  0.0000E+00  0.2000E+01
    -26.197  0.0000E+00  0.2000E+01
    -26.092  0.0000E+00  0.2000E+01
    -25.986  0.0000E+00  0.2000E+01
    -25.880  0.0000E+00  0.2000E+01
    -25.775  0.0000E+00  0.2000E+01
    -25.669  0.0000E+00  0.2000E+01
    -25.563  0.0000E+00  0.2000E+01
    -25.458  0.0000E+00  0.2000E+01
    -25.352  0.0000E+00  0.2000E+01
    -25.246  0.0000E+00  0.2000E+01
    -25.140  0.0000E+00  0.2000E+01
    -25.035  0.0000E+00  0.2000E+01
    -24.929  0.0000E+00  0.2000E+01
    -24.823  0.0000E+00  0.2000E+01
    -24.718  0.0000E+00  0.2000E+01
    -24.612  0.0000E+00  0.2000E+01
    -24.506  0.0000E+00  0.2000E+01
    -24.401  0.0000E+00  0.2000E+01
    -24.295  0.0000E+00  0.2000E+01
    -24.189  0.0000E+00  0.2000E+01
    -24.084  0.0000E+00  0.2000E+01
    -23.978  0.0000E+00  0.2000E+01
    -23.872  0.0000E+00  0.2000E+01
    -23.767  0.0000E+00  0.2000E+01
    -23.661  0.0000E+00  0.2000E+01
    -23.555  0.0000E+00  0.2000E+01
    -23.449  0.0000E+00  0.2000E+01
    -23.344  0.0000E+00  0.2000E+01
    -23.238  0.0000E+00  0.2000E+01
    -23.132  0.0000E+00  0.2000E+01
    -23.027  0.0000E+00  0.2000E+01
    -22.921  0.0000E+00  0.2000E+01
    -22.815  0.0000E+00  0.2000E+01
    -22.710  0.0000E+00  0.2000E+01
    -22.604  0.0000E+00  0.2000E+01
    -22.498  0.0000E+00  0.2000E+01
    -22.393  0.0000E+00  0.2000E+01
    -22.287  0.0000E+00  0.2000E+01
    -22.181  0.0000E+00  0.2000E+01
    -22.076  0.0000E+00  0.2000E+01
    -21.970  0.0000E+00  0.2000E+01
    -21.864  0.0000E+00  0.2000E+01
    -21.758  0.0000E+00  0.2000E+01
    -21.653  0.0000E+00  0.2000E+01
    -21.547  0.0000E+00  0.2000E+01
    -21.441  0.0000E+00  0.2000E+01
    -21.336  0.0000E+00  0.2000E+01
    -21.230  0.0000E+00  0.2000E+01
    -21.124  0.0000E+00  0.2000E+01
    -21.019  0.0000E+00  0.2000E+01
    -20.913  0.0000E+00  0.2000E+01
    -20.807  0.0000E+00  0.2000E+01
    -20.702  0.0000E+00  0.2000E+01
    -20.596  0.0000E+00  0.2000E+01
    -20.490  0.0000E+00  0.2000E+01
    -20.385  0.0000E+00  0.2000E+01
    -20.279  0.0000E+00  0.2000E+01
    -20.173  0.0000E+00  0.2000E+01
    -20.067  0.0000E+00  0.2000E+01
    -19.962  0.0000E+00  0.2000E+01
    -19.856  0.0000E+00  0.2000E+01
    -19.750  0.0000E+00  0.2000E+01
    -19.645  0.0000E+00  0.2000E+01
    -19.539  0.0000E+00  0.2000E+01
    -19.433  0.0000E+00  0.2000E+01
    -19.328  0.0000E+00  0.2000E+01
    -19.222  0.0000E+00  0.2000E+01
    -19.116  0.0000E+00  0.2000E+01
    -19.011  0.0000E+00  0.2000E+01
    -18.905  0.0000E+00  0.2000E+01
    -18.799  0.0000E+00  0.2000E+01
    -18.694  0.0000E+00  0.2000E+01
    -18.588  0.0000E+00  0.2000E+01
    -18.482  0.0000E+00  0.2000E+01
    -18.376  0.0000E+00  0.2000E+01
    -18.271  0.0000E+00  0.2000E+01
    -18.165  0.0000E+00  0.2000E+01
    -18.059  0.0000E+00  0.2000E+01
    -17.954  0.0000E+00  0.2000E+01
    -17.848  0.0000E+00  0.2000E+01
    -17.742  0.0000E+00  0.2000E+01
    -17.637  0.0000E+00  0.2000E+01
    -17.531  0.0000E+00  0.2000E+01
    -17.425  0.0000E+00  0.2000E+01
    -17.320  0.0000E+00  0.2000E+01
    -17.214  0.0000E+00  0.2000E+01
    -17.108  0.0000E+00  0.2000E+01
    -17.003  0.0000E+00  0.2000E+01
    -16.897  0.0000E+00  0.2000E+01
    -16.791  0.0000E+00  0.2000E+01
    -16.685  0.0000E+00  0.2000E+01
    -16.580  0.0000E+00  0.2000E+01
    -16.474  0.0000E+00  0.2000E+01
    -16.368  0.0000E+00  0.2000E+01
    -16.263  0.0000E+00  0.2000E+01
    -16.157  0.0000E+00  0.2000E+01
    -16.051  0.0000E+00  0.2000E+01
    -15.946  0.0000E+00  0.2000E+01
    -15.840  0.0000E+00  0.2000E+01
    -15.734  0.0000E+00  0.2000E+01
    -15.629  0.0000E+00  0.2000E+01
    -15.523  0.0000E+00  0.2000E+01
    -15.417  0.0000E+00  0.2000E+01
    -15.312  0.0000E+00  0.2000E+01
    -15.206  0.3002E-27  0.2000E+01
    -15.100  0.1341E-23  0.2000E+01
    -14.994  0.3376E-20  0.2000E+01
    -14.889  0.4775E-17  0.2000E+01
    -14.783  0.3782E-14  0.2000E+01
    -14.677  0.1672E-11  0.2000E+01
    -14.572  0.4092E-09  0.2000E+01
    -14.466  0.5494E-07  0.2000E+01
    -14.360  0.3991E-05  0.2000E+01
    -14.255  0.1531E-03  0.2000E+01
    -14.149  0.2960E-02  0.2000E+01
    -14.043  0.2583E-01  0.2003E+01
    -13.938  0.6330E-01  0.2010E+01
    -13.832 -0.2491E+00  0.1983E+01
    -13.726 -0.8043E+00  0.1898E+01
    -13.621  0.2325E+01  0.2144E+01
    -13.515  0.9041E+01  0.3100E+01
    -13.409  0.8082E+01  0.3954E+01
    -13.303  0.1303E+01  0.4092E+01
    -13.198 -0.8111E+00  0.4006E+01
    -13.092 -0.1394E+00  0.3991E+01
    -12.986  0.6376E-01  0.3998E+01
    -12.881  0.1879E-01  0.4000E+01
    -12.775  0.1840E-02  0.4000E+01
    -12.669  0.8377E-04  0.4000E+01
    -12.564  0.1944E-05  0.4000E+01
    -12.458  0.2395E-07  0.4000E+01
    -12.352  0.1639E-09  0.4000E+01
    -12.247  0.8525E-09  0.4000E+01
    -12.141  0.1049E-06  0.4000E+01
    -12.035  0.6972E-05  0.4000E+01
    -11.930  0.2435E-03  0.4000E+01
    -11.824  0.4246E-02  0.4000E+01
    -11.718  0.3251E-01  0.4004E+01
    -11.612  0.5745E-01  0.4010E+01
    -11.507 -0.3342E+00  0.3975E+01
    -11.401 -0.6241E+00  0.3909E+01
    -11.295  0.3242E+01  0.4251E+01
    -11.190  0.8530E+01  0.5153E+01
    -11.084  0.7104E+01  0.5904E+01
    -10.978  0.1070E+02  0.7035E+01
    -10.873  0.1812E+02  0.8950E+01
    -10.767  0.1069E+02  0.1008E+02
    -10.661  0.2793E+00  0.1011E+02
    -10.556 -0.1112E+01  0.9992E+01
    -10.450 -0.4405E-01  0.9988E+01
    -10.344  0.9362E-01  0.9998E+01
    -10.239  0.2044E-01  0.1000E+02
    -10.133  0.1741E-02  0.1000E+02
    -10.027  0.7193E-04  0.1000E+02
     -9.921  0.1547E-05  0.1000E+02
     -9.816  0.1787E-07  0.1000E+02
     -9.710  0.1129E-09  0.1000E+02
     -9.604  0.3950E-12  0.1000E+02
     -9.499  0.0000E+00  0.1000E+02
     -9.393  0.0000E+00  0.1000E+02
     -9.287  0.0000E+00  0.1000E+02
     -9.182  0.0000E+00  0.1000E+02
     -9.076  0.0000E+00  0.1000E+02
     -8.970  0.0000E+00  0.1000E+02
     -8.865  0.0000E+00  0.1000E+02
     -8.759  0.0000E+00  0.1000E+02
     -8.653  0.0000E+00  0.1000E+02
     -8.547  0.0000E+00  0.1000E+02
     -8.442  0.0000E+00  0.1000E+02
     -8.336  0.6614E-26  0.1000E+02
     -8.230  0.2491E-22  0.1000E+02
     -8.125  0.5283E-19  0.1000E+02
     -8.019  0.6304E-16  0.1000E+02
     -7.913  0.4219E-13  0.1000E+02
     -7.808  0.1580E-10  0.1000E+02
     -7.702  0.3277E-08  0.1000E+02
     -7.596  0.3738E-06  0.1000E+02
     -7.491  0.2310E-04  0.1000E+02
     -7.385  0.7542E-03  0.1000E+02
     -7.279  0.1237E-01  0.1000E+02
     -7.174  0.8952E-01  0.1001E+02
     -7.068  0.1445E+00  0.1003E+02
     -6.962 -0.9351E+00  0.9927E+01
     -6.856 -0.1865E+01  0.9730E+01
     -6.751  0.8609E+01  0.1064E+02
     -6.645  0.2677E+02  0.1347E+02
     -6.539  0.2242E+02  0.1584E+02
     -6.434  0.2480E+01  0.1610E+02
     -6.328 -0.1774E+01  0.1591E+02
     -6.222  0.1398E+02  0.1739E+02
     -6.117  0.2650E+02  0.2019E+02
     -6.011  0.2014E+02  0.2232E+02
     -5.905  0.2484E+02  0.2495E+02
     -5.800  0.4870E+02  0.3009E+02
     -5.694  0.8271E+02  0.3883E+02
     -5.588  0.1666E+03  0.5644E+02
     -5.483  0.2734E+03  0.8534E+02
     -5.377  0.2797E+03  0.1149E+03
     -5.271  0.2135E+03  0.1375E+03
     -5.165  0.2244E+03  0.1612E+03
     -5.060  0.3171E+03  0.1947E+03
     -4.954  0.3595E+03  0.2327E+03
     -4.848  0.3034E+03  0.2647E+03
     -4.743  0.2960E+03  0.2960E+03
     -4.637  0.3914E+03  0.3374E+03
     -4.531  0.4322E+03  0.3831E+03
     -4.426  0.4310E+03  0.4286E+03
     -4.320  0.5197E+03  0.4836E+03
     -4.214  0.5397E+03  0.5406E+03
     -4.109  0.3157E+03  0.5740E+03
     -4.003  0.6691E+02  0.5810E+03
     -3.897  0.5767E+01  0.5816E+03
     -3.792  0.3096E+02  0.5849E+03
     -3.686  0.2453E+02  0.5875E+03
     -3.580  0.1233E+02  0.5888E+03
     -3.474  0.2196E+02  0.5911E+03
     -3.369  0.2091E+02  0.5933E+03
     -3.263  0.3038E+01  0.5937E+03
     -3.157  0.8064E+01  0.5945E+03
     -3.052  0.4646E+02  0.5994E+03
     -2.946  0.6145E+02  0.6059E+03
     -2.840  0.3311E+02  0.6094E+03
     -2.735  0.4848E+01  0.6099E+03
     -2.629  0.3711E+01  0.6103E+03
     -2.523  0.2355E+02  0.6128E+03
     -2.418  0.2875E+02  0.6158E+03
     -2.312  0.1377E+02  0.6173E+03
     -2.206  0.1012E+02  0.6184E+03
     -2.101  0.2837E+02  0.6214E+03
     -1.995  0.4375E+02  0.6260E+03
     -1.889  0.3914E+02  0.6301E+03
     -1.783  0.3262E+02  0.6336E+03
     -1.678  0.4171E+02  0.6380E+03
     -1.572  0.4400E+02  0.6426E+03
     -1.466  0.2733E+02  0.6455E+03
     -1.361  0.1621E+02  0.6472E+03
     -1.255  0.1844E+02  0.6492E+03
     -1.149  0.2281E+02  0.6516E+03
     -1.044  0.3669E+02  0.6555E+03
     -0.938  0.6274E+02  0.6621E+03
     -0.832  0.5907E+02  0.6684E+03
     -0.727  0.2771E+02  0.6713E+03
     -0.621  0.7182E+01  0.6720E+03
     -0.515  0.2389E+00  0.6721E+03
     -0.410 -0.7098E+00  0.6720E+03
     -0.304 -0.2991E-01  0.6720E+03
     -0.198  0.1070E+00  0.6720E+03
     -0.092  0.2909E-01  0.6720E+03
      0.013  0.3030E-02  0.6720E+03
      0.119  0.1505E-03  0.6720E+03
      0.225  0.3840E-05  0.6720E+03
      0.330  0.5211E-07  0.6720E+03
      0.436  0.3838E-09  0.6720E+03
      0.542  0.1555E-11  0.6720E+03
      0.647  0.4202E-14  0.6720E+03
      0.753  0.0000E+00  0.6720E+03
      0.859  0.0000E+00  0.6720E+03
      0.964  0.0000E+00  0.6720E+03
      1.070  0.0000E+00  0.6720E+03
      1.176  0.0000E+00  0.6720E+03
      1.281  0.0000E+00  0.6720E+03
