   57   57    1    1
  0.4736842E+03  0.3000000E-08  0.3000000E-08  0.3000000E-08  0.5000000E-15
  1.000000000000000E-004
  CAR 
 6_Pd100_top_free_z(O)                   
    560      1    336
 
  0.0000000E+00  0.0000000E+00  0.0000000E+00  0.1000000E+01
    1      -28.108859   1.000000
    2      -13.713252   1.000000
    3      -11.376296   1.000000
    4      -10.878562   1.000000
    5      -10.847767   1.000000
    6       -7.100682   1.000000
    7       -7.079357   1.000000
    8       -6.678552   1.000000
    9       -6.218370   1.000000
   10       -6.136884   1.000000
   11       -6.135825   1.000000
   12       -6.064520   1.000000
   13       -5.998597   1.000000
   14       -5.835845   1.000000
   15       -5.815673   1.000000
   16       -5.811645   1.000000
   17       -5.782125   1.000000
   18       -5.726947   1.000000
   19       -5.695808   1.000000
   20       -5.688963   1.000000
   21       -5.688403   1.000000
   22       -5.688304   1.000000
   23       -5.625170   1.000000
   24       -5.605229   1.000000
   25       -5.600954   1.000000
   26       -5.599396   1.000000
   27       -5.598821   1.000000
   28       -5.597607   1.000000
   29       -5.551011   1.000000
   30       -5.540607   1.000000
   31       -5.539489   1.000000
   32       -5.534446   1.000000
   33       -5.524402   1.000000
   34       -5.522323   1.000000
   35       -5.521795   1.000000
   36       -5.515783   1.000000
   37       -5.512563   1.000000
   38       -5.512358   1.000000
   39       -5.508926   1.000000
   40       -5.488664   1.000000
   41       -5.481757   1.000000
   42       -5.478563   1.000000
   43       -5.475100   1.000000
   44       -5.471439   1.000000
   45       -5.470992   1.000000
   46       -5.470559   1.000000
   47       -5.463823   1.000000
   48       -5.459544   1.000000
   49       -5.433114   1.000000
   50       -5.432453   1.000000
   51       -5.430271   1.000000
   52       -5.419763   1.000000
   53       -5.414142   1.000000
   54       -5.413557   1.000000
   55       -5.401794   1.000000
   56       -5.401460   1.000000
   57       -5.398414   1.000000
   58       -5.393320   1.000000
   59       -5.354332   1.000000
   60       -5.334620   1.000000
   61       -5.327037   1.000000
   62       -5.321879   1.000000
   63       -5.320737   1.000000
   64       -5.318461   1.000000
   65       -5.318311   1.000000
   66       -5.316100   1.000000
   67       -5.314071   1.000000
   68       -5.303995   1.000000
   69       -5.293945   1.000000
   70       -5.293578   1.000000
   71       -5.261560   1.000000
   72       -5.199516   1.000000
   73       -5.193634   1.000000
   74       -5.190496   1.000000
   75       -5.185430   1.000000
   76       -5.184210   1.000000
   77       -5.182520   1.000000
   78       -5.181605   1.000000
   79       -5.180958   1.000000
   80       -5.161598   1.000000
   81       -5.155154   1.000000
   82       -5.154680   1.000000
   83       -5.151073   1.000000
   84       -5.145942   1.000000
   85       -5.126390   1.000000
   86       -5.125761   1.000000
   87       -5.120194   1.000000
   88       -5.105985   1.000000
   89       -5.103879   1.000000
   90       -5.103429   1.000000
   91       -5.084344   1.000000
   92       -5.062010   1.000000
   93       -5.060510   1.000000
   94       -5.055844   1.000000
   95       -5.055492   1.000000
   96       -5.050821   1.000000
   97       -5.050576   1.000000
   98       -5.034956   1.000000
   99       -5.031586   1.000000
  100       -5.027828   1.000000
  101       -5.024309   1.000000
  102       -5.020088   1.000000
  103       -5.016183   1.000000
  104       -5.014345   1.000000
  105       -5.009752   1.000000
  106       -5.007978   1.000000
  107       -5.007943   1.000000
  108       -4.992905   1.000000
  109       -4.987794   1.000000
  110       -4.983649   1.000000
  111       -4.982935   1.000000
  112       -4.981100   1.000000
  113       -4.978058   1.000000
  114       -4.969928   1.000000
  115       -4.969493   1.000000
  116       -4.962925   1.000000
  117       -4.952407   0.999999
  118       -4.952395   0.999999
  119       -4.934804   0.999999
  120       -4.929469   0.999998
  121       -4.920484   0.999998
  122       -4.919829   0.999998
  123       -4.917684   0.999998
  124       -4.915425   0.999997
  125       -4.911728   0.999997
  126       -4.904370   0.999996
  127       -4.904048   0.999996
  128       -4.885540   0.999993
  129       -4.885038   0.999993
  130       -4.873899   0.999990
  131       -4.846171   0.999977
  132       -4.840537   0.999972
  133       -4.836913   0.999969
  134       -4.835575   0.999968
  135       -4.833352   0.999966
  136       -4.830058   0.999963
  137       -4.825346   0.999957
  138       -4.803941   0.999923
  139       -4.798375   0.999911
  140       -4.793552   0.999899
  141       -4.792364   0.999896
  142       -4.780714   0.999859
  143       -4.771438   0.999823
  144       -4.753123   0.999724
  145       -4.742340   0.999647
  146       -4.740142   0.999629
  147       -4.737875   0.999609
  148       -4.737041   0.999602
  149       -4.727733   0.999511
  150       -4.713504   0.999340
  151       -4.708789   0.999274
  152       -4.705898   0.999230
  153       -4.685420   0.998860
  154       -4.683189   0.998813
  155       -4.682838   0.998805
  156       -4.680237   0.998748
  157       -4.675441   0.998637
  158       -4.675346   0.998635
  159       -4.667124   0.998428
  160       -4.665537   0.998386
  161       -4.661694   0.998280
  162       -4.656533   0.998132
  163       -4.656081   0.998118
  164       -4.654704   0.998077
  165       -4.651439   0.997977
  166       -4.646844   0.997832
  167       -4.646689   0.997827
  168       -4.638985   0.997571
  169       -4.636913   0.997499
  170       -4.632721   0.997352
  171       -4.632446   0.997342
  172       -4.628222   0.997190
  173       -4.626277   0.997119
  174       -4.598947   0.996101
  175       -4.598645   0.996090
  176       -4.594127   0.995930
  177       -4.593978   0.995925
  178       -4.589960   0.995788
  179       -4.589830   0.995784
  180       -4.584484   0.995612
  181       -4.577028   0.995401
  182       -4.569803   0.995235
  183       -4.556884   0.995072
  184       -4.556651   0.995071
  185       -4.553602   0.995065
  186       -4.553493   0.995065
  187       -4.552607   0.995066
  188       -4.552432   0.995066
  189       -4.548762   0.995085
  190       -4.548322   0.995089
  191       -4.518162   0.996339
  192       -4.515051   0.996605
  193       -4.513849   0.996716
  194       -4.509889   0.997115
  195       -4.504709   0.997718
  196       -4.492453   0.999541
  197       -4.484157   1.001119
  198       -4.483735   1.001207
  199       -4.476838   1.002757
  200       -4.476065   1.002944
  201       -4.469334   1.004686
  202       -4.468089   1.005030
  203       -4.465654   1.005725
  204       -4.462264   1.006738
  205       -4.461470   1.006982
  206       -4.456124   1.008705
  207       -4.455252   1.008998
  208       -4.446808   1.012010
  209       -4.446128   1.012266
  210       -4.441235   1.014163
  211       -4.432161   1.017927
  212       -4.423130   1.021944
  213       -4.410759   1.027757
  214       -4.410265   1.027994
  215       -4.408059   1.029053
  216       -4.405514   1.030279
  217       -4.405034   1.030510
  218       -4.401116   1.032395
  219       -4.399913   1.032973
  220       -4.399259   1.033286
  221       -4.396435   1.034634
  222       -4.394923   1.035350
  223       -4.363104   1.048194
  224       -4.356451   1.049897
  225       -4.354461   1.050307
  226       -4.343750   1.051581
  227       -4.339345   1.051586
  228       -4.338162   1.051530
  229       -4.337868   1.051512
  230       -4.334936   1.051246
  231       -4.330904   1.050607
  232       -4.330872   1.050601
  233       -4.327586   1.049830
  234       -4.326175   1.049428
  235       -4.324154   1.048773
  236       -4.322981   1.048350
  237       -4.322407   1.048132
  238       -4.316985   1.045674
  239       -4.316337   1.045331
  240       -4.314553   1.044332
  241       -4.310218   1.041551
  242       -4.301289   1.034154
  243       -4.301117   1.033988
  244       -4.299822   1.032713
  245       -4.292699   1.024750
  246       -4.291405   1.023127
  247       -4.285116   1.014440
  248       -4.284621   1.013699
  249       -4.283755   1.012381
  250       -4.283727   1.012337
  251       -4.270285   0.988422
  252       -4.260660   0.967168
  253       -4.260459   0.966684
  254       -4.256940   0.957999
  255       -4.252552   0.946499
  256       -4.251842   0.944570
  257       -4.251040   0.942363
  258       -4.250866   0.941884
  259       -4.244320   0.922911
  260       -4.244296   0.922837
  261       -4.238915   0.906000
  262       -4.237595   0.901699
  263       -4.237506   0.901407
  264       -4.236409   0.897782
  265       -4.234060   0.889859
  266       -4.222101   0.846373
  267       -4.219749   0.837215
  268       -4.219544   0.836409
  269       -4.219027   0.834368
  270       -4.215705   0.821029
  271       -4.215439   0.819947
  272       -4.199737   0.751992
  273       -4.197013   0.739472
  274       -4.196124   0.735341
  275       -4.189652   0.704679
  276       -4.185220   0.683121
  277       -4.184542   0.679783
  278       -4.180960   0.662015
  279       -4.170197   0.607298
  280       -4.169432   0.603345
  281       -4.169392   0.603141
  282       -4.155902   0.532540
  283       -4.150974   0.506498
  284       -4.133096   0.412411
  285       -4.132752   0.410620
  286       -4.126763   0.379680
  287       -4.120961   0.350175
  288       -4.111029   0.301067
  289       -4.024240   0.001975
  290       -3.953327  -0.051442
  291       -3.907589  -0.036768
  292       -3.828848  -0.004331
  293       -3.822892  -0.002815
  294       -3.817454  -0.001569
  295       -3.497472   0.000081
  296       -3.496173   0.000078
  297       -3.365980   0.000001
  298       -3.069449   0.000000
  299       -3.068368   0.000000
  300       -3.028703   0.000000
  301       -3.023594   0.000000
  302       -3.014591   0.000000
  303       -3.014223   0.000000
  304       -2.934770   0.000000
  305       -2.783177   0.000000
  306       -2.562578   0.000000
  307       -2.552516   0.000000
  308       -2.521384   0.000000
  309       -2.209740   0.000000
  310       -2.152261   0.000000
  311       -2.137357   0.000000
  312       -2.119590   0.000000
  313       -1.953857   0.000000
  314       -1.951563   0.000000
  315       -1.862854   0.000000
  316       -1.850272   0.000000
  317       -1.846115   0.000000
  318       -1.725134   0.000000
  319       -1.707194   0.000000
  320       -1.683623   0.000000
  321       -1.640129   0.000000
  322       -1.555345   0.000000
  323       -1.502448   0.000000
  324       -1.306637   0.000000
  325       -1.292875   0.000000
  326       -1.036661   0.000000
  327       -1.024646   0.000000
  328       -1.018046   0.000000
  329       -0.946998   0.000000
  330       -0.941998   0.000000
  331       -0.938044   0.000000
  332       -0.937509   0.000000
  333       -0.910796   0.000000
  334       -0.829315   0.000000
  335       -0.822851   0.000000
  336       -0.798391   0.000000
