 vasp.5.4.4.18Apr17-6-g9f103f2a35 (build Sep 03 2018 23:53:05) complex          
  
 executed on             LinuxIFC date 2021.12.02  06:20:01
 running on    1 total cores
 distrk:  each k-point on    1 cores,    1 groups
 distr:  one band on NCORES_PER_BAND=   1 cores,    1 groups


--------------------------------------------------------------------------------------------------------


 INCAR:
 POTCAR:    PAW_PBE Pd 04Jan2005                  
 POTCAR:    PAW_PBE C 08Apr2002                   
 POTCAR:    PAW_PBE O 08Apr2002                   
 POTCAR:    PAW_PBE Pd 04Jan2005                  
   VRHFIN =Pd : s1 d9                                                           
   LEXCH  = PE                                                                  
   EATOM  =   809.7530 eV,   59.5152 Ry                                         
                                                                                
   TITEL  = PAW_PBE Pd 04Jan2005                                                
   LULTRA =        F    use ultrasoft PP ?                                      
   IUNSCR =        1    unscreen: 0-lin 1-nonlin 2-no                           
   RPACOR =    2.000    partial core radius                                     
   POMASS =  106.420; ZVAL   =   10.000    mass and valenz                      
   RCORE  =    2.600    outmost cutoff radius                                   
   RWIGS  =    2.710; RWIGS  =    1.434    wigner-seitz radius (au A)           
   ENMAX  =  250.925; ENMIN  =  188.194 eV                                      
   ICORE  =        3    local potential                                         
   LCOR   =        T    correct aug charges                                     
   LPAW   =        T    paw PP                                                  
   EAUG   =  416.230                                                            
   DEXC   =    0.000                                                            
   RMAX   =    2.653    core radius for proj-oper                               
   RAUG   =    1.300    factor for augmentation sphere                          
   RDEP   =    2.734    radius for radial grids                                 
   RDEPT  =    2.103    core radius for aug-charge                              
                                                                                
   Atomic configuration                                                         
   12 entries                                                                   
     n  l   j            E        occ.                                          
     1  0  0.50    -24164.6631   2.0000                                         
     2  0  0.50     -3530.9218   2.0000                                         
     2  1  1.50     -3165.6822   6.0000                                         
     3  0  0.50      -639.4577   2.0000                                         
     3  1  1.50      -519.4532   6.0000                                         
     3  2  2.50      -328.9757  10.0000                                         
     4  0  0.50       -88.7014   2.0000                                         
     4  1  1.50       -54.4540   6.0000                                         
     4  2  2.50        -6.6878   9.0000                                         
     5  0  0.50        -4.3543   1.0000                                         
     5  1  0.50        -1.3606   0.0000                                         
     4  3  2.50        -1.3606   0.0000                                         
   Description                                                                  
     l       E           TYP  RCUT    TYP  RCUT                                 
     2     -6.6878251     23  2.400                                             
     2     -8.0484077     23  2.400                                             
     0     -4.3542939     23  2.400                                             
     0      4.3406793     23  2.400                                             
     1     -4.0817478     23  2.600                                             
     1     15.8380318     23  2.600                                             
     3     -4.0817478     23  2.400                                             
  local pseudopotential read in
  partial core-charges read in
  partial kinetic energy density read in
  atomic valenz-charges read in
  non local Contribution for L=           2  read in
    real space projection operators read in
  non local Contribution for L=           2  read in
    real space projection operators read in
  non local Contribution for L=           0  read in
    real space projection operators read in
  non local Contribution for L=           0  read in
    real space projection operators read in
  non local Contribution for L=           1  read in
    real space projection operators read in
  non local Contribution for L=           1  read in
    real space projection operators read in
    PAW grid and wavefunctions read in
 
   number of l-projection  operators is LMAX  =           6
   number of lm-projection operators is LMMAX =          18
 
 POTCAR:    PAW_PBE C 08Apr2002                   
   VRHFIN =C: s2p2                                                              
   LEXCH  = PE                                                                  
   EATOM  =   147.1560 eV,   10.8157 Ry                                         
                                                                                
   TITEL  = PAW_PBE C 08Apr2002                                                 
   LULTRA =        F    use ultrasoft PP ?                                      
   IUNSCR =        1    unscreen: 0-lin 1-nonlin 2-no                           
   RPACOR =    1.200    partial core radius                                     
   POMASS =   12.011; ZVAL   =    4.000    mass and valenz                      
   RCORE  =    1.500    outmost cutoff radius                                   
   RWIGS  =    1.630; RWIGS  =    0.863    wigner-seitz radius (au A)           
   ENMAX  =  400.000; ENMIN  =  300.000 eV                                      
   ICORE  =        2    local potential                                         
   LCOR   =        T    correct aug charges                                     
   LPAW   =        T    paw PP                                                  
   EAUG   =  644.873                                                            
   DEXC   =    0.000                                                            
   RMAX   =    1.529    core radius for proj-oper                               
   RAUG   =    1.300    factor for augmentation sphere                          
   RDEP   =    1.501    radius for radial grids                                 
   RDEPT  =    1.300    core radius for aug-charge                              
                                                                                
   Atomic configuration                                                         
    4 entries                                                                   
     n  l   j            E        occ.                                          
     1  0  0.50      -273.3789   2.0000                                         
     2  0  0.50       -13.7508   2.0000                                         
     2  1  0.50        -5.2854   2.0000                                         
     3  2  1.50        -5.4423   0.0000                                         
   Description                                                                  
     l       E           TYP  RCUT    TYP  RCUT                                 
     0    -13.7508458     23  1.200                                             
     0     -8.2022199     23  1.200                                             
     1     -5.2854383     23  1.500                                             
     1     34.0145650     23  1.500                                             
     2     -5.4423304      7  1.500                                             
  local pseudopotential read in
  partial core-charges read in
  partial kinetic energy density read in
  atomic valenz-charges read in
  non local Contribution for L=           0  read in
    real space projection operators read in
  non local Contribution for L=           0  read in
    real space projection operators read in
  non local Contribution for L=           1  read in
    real space projection operators read in
  non local Contribution for L=           1  read in
    real space projection operators read in
    PAW grid and wavefunctions read in
 
   number of l-projection  operators is LMAX  =           4
   number of lm-projection operators is LMMAX =           8
 
 POTCAR:    PAW_PBE O 08Apr2002                   
   VRHFIN =O: s2p4                                                              
   LEXCH  = PE                                                                  
   EATOM  =   432.3788 eV,   31.7789 Ry                                         
                                                                                
   TITEL  = PAW_PBE O 08Apr2002                                                 
   LULTRA =        F    use ultrasoft PP ?                                      
   IUNSCR =        1    unscreen: 0-lin 1-nonlin 2-no                           
   RPACOR =    1.200    partial core radius                                     
   POMASS =   16.000; ZVAL   =    6.000    mass and valenz                      
   RCORE  =    1.520    outmost cutoff radius                                   
   RWIGS  =    1.550; RWIGS  =    0.820    wigner-seitz radius (au A)           
   ENMAX  =  400.000; ENMIN  =  300.000 eV                                      
   ICORE  =        2    local potential                                         
   LCOR   =        T    correct aug charges                                     
   LPAW   =        T    paw PP                                                  
   EAUG   =  605.392                                                            
   DEXC   =    0.000                                                            
   RMAX   =    1.553    core radius for proj-oper                               
   RAUG   =    1.300    factor for augmentation sphere                          
   RDEP   =    1.550    radius for radial grids                                 
   RDEPT  =    1.329    core radius for aug-charge                              
                                                                                
   Atomic configuration                                                         
    4 entries                                                                   
     n  l   j            E        occ.                                          
     1  0  0.50      -514.6923   2.0000                                         
     2  0  0.50       -23.9615   2.0000                                         
     2  1  0.50        -9.0305   4.0000                                         
     3  2  1.50        -9.5241   0.0000                                         
   Description                                                                  
     l       E           TYP  RCUT    TYP  RCUT                                 
     0    -23.9615318     23  1.200                                             
     0     -9.5240782     23  1.200                                             
     1     -9.0304911     23  1.520                                             
     1      8.1634956     23  1.520                                             
     2     -9.5240782      7  1.500                                             
  local pseudopotential read in
  partial core-charges read in
  partial kinetic energy density read in
  kinetic energy density of atom read in
  atomic valenz-charges read in
  non local Contribution for L=           0  read in
    real space projection operators read in
  non local Contribution for L=           0  read in
    real space projection operators read in
  non local Contribution for L=           1  read in
    real space projection operators read in
  non local Contribution for L=           1  read in
    real space projection operators read in
    PAW grid and wavefunctions read in
 
   number of l-projection  operators is LMAX  =           4
   number of lm-projection operators is LMMAX =           8
 
 Optimization of the real space projectors (new method)

 maximal supplied QI-value         = 14.36
 optimisation between [QCUT,QGAM] = [ 10.20, 20.39] = [ 29.12,116.47] Ry 
 Optimized for a Real-space Cutoff    1.51 Angstroem

   l    n(q)    QCUT    max X(q) W(low)/X(q) W(high)/X(q)  e(spline) 
   2      8    10.197    59.108    0.26E-03    0.14E-03    0.96E-07
   2      8    10.197    58.101    0.27E-03    0.14E-03    0.98E-07
   0      9    10.197   102.235    0.54E-04    0.60E-05    0.72E-07
   0      9    10.197    58.388    0.52E-04    0.60E-05    0.68E-07
   1      9    10.197    22.191    0.18E-03    0.25E-03    0.79E-07
   1      9    10.197    15.590    0.15E-03    0.21E-03    0.69E-07
 Optimization of the real space projectors (new method)

 maximal supplied QI-value         = 25.13
 optimisation between [QCUT,QGAM] = [ 10.05, 20.36] = [ 28.30,116.06] Ry 
 Optimized for a Real-space Cutoff    1.30 Angstroem

   l    n(q)    QCUT    max X(q) W(low)/X(q) W(high)/X(q)  e(spline) 
   0      8    10.053   115.676    0.49E-03    0.72E-03    0.18E-06
   0      8    10.053    87.132    0.49E-03    0.71E-03    0.18E-06
   1      7    10.053     4.429    0.32E-03    0.31E-03    0.18E-06
   1      7    10.053     2.733    0.23E-03    0.19E-03    0.20E-06
 Optimization of the real space projectors (new method)

 maximal supplied QI-value         = 24.76
 optimisation between [QCUT,QGAM] = [ 10.15, 20.30] = [ 28.85,115.39] Ry 
 Optimized for a Real-space Cutoff    1.38 Angstroem

   l    n(q)    QCUT    max X(q) W(low)/X(q) W(high)/X(q)  e(spline) 
   0      8    10.150    20.381    0.22E-03    0.32E-03    0.29E-06
   0      8    10.150    15.268    0.23E-03    0.35E-03    0.30E-06
   1      8    10.150     5.964    0.46E-03    0.53E-03    0.21E-06
   1      8    10.150     5.382    0.38E-03    0.45E-03    0.19E-06

 ----------------------------------------------------------------------------- 
|                                                                             |
|  ADVICE TO THIS USER RUNNING 'VASP/VAMP'   (HEAR YOUR MASTER'S VOICE ...):  |
|                                                                             |
|      You enforced a specific xc-type in the INCAR file,                     |
|      a different type was found on the POTCAR file                          |
|          I HOPE YOU KNOW, WHAT YOU ARE  DOING                               |
|                                                                             |
 ----------------------------------------------------------------------------- 

  PAW_PBE Pd 04Jan2005                  :
 energy of atom  1       EATOM= -809.7530
 kinetic energy error for atom=    0.0091 (will be added to EATOM!!)
  PAW_PBE C 08Apr2002                   :
 energy of atom  2       EATOM= -147.1560
 kinetic energy error for atom=    0.0288 (will be added to EATOM!!)
  PAW_PBE O 08Apr2002                   :
 energy of atom  3       EATOM= -432.3788
 kinetic energy error for atom=    0.1156 (will be added to EATOM!!)
 
 
 POSCAR: Pd55PES                                 
  positions in cartesian coordinates
  No initial velocities read in
 exchange correlation table for  LEXCH =        9
   RHO(1)=    0.500       N(1)  =     2000
   RHO(2)=  100.500       N(2)  =     4000
 


--------------------------------------------------------------------------------------------------------


 ion  position               nearest neighbor table
   1  0.446  0.328  0.417-   3 3.25   5 3.25   7 3.36  15 3.36  29 3.42  28 3.42
   2  0.672  0.554  0.417-  26 3.25  30 3.25  17 3.36   9 3.36  47 3.42  49 3.42
   3  0.554  0.328  0.417-   1 3.25   5 3.25   7 3.36  11 3.36  29 3.42  21 3.42
   4  0.328  0.554  0.417-  32 3.25  22 3.25  13 3.36   8 3.36  43 3.42  48 3.42
   5  0.500  0.383  0.340-   1 3.25   3 3.25  11 3.36  15 3.36  21 3.42  28 3.42
   6  0.500  0.383  0.660-  24 3.25  19 3.25  16 3.36  12 3.36  42 3.42  44 3.42
   7  0.500  0.276  0.500-  29 3.24   3 3.36   1 3.36  19 3.36  24 3.36
   8  0.276  0.500  0.500-  48 3.24  22 3.36  40 3.36   4 3.36  25 3.36
   9  0.724  0.500  0.500-  49 3.24  26 3.36  45 3.36   2 3.36  20 3.36
  10  0.500  0.724  0.500-  55 3.24  27 3.36  23 3.36  46 3.36  41 3.36
  11  0.612  0.388  0.342-  21 3.24   5 3.36   3 3.36  30 3.36  26 3.36
  12  0.612  0.388  0.658-  42 3.24  24 3.36  45 3.36   6 3.36  31 3.36
  13  0.388  0.612  0.342-  43 3.24  32 3.36  50 3.36   4 3.36  27 3.36
  14  0.388  0.612  0.658-  53 3.24  25 3.36  33 3.36  51 3.36  46 3.36
  15  0.388  0.388  0.342-  28 3.24   5 3.36   1 3.36  32 3.36  22 3.36
  16  0.388  0.388  0.658-  44 3.24  19 3.36  40 3.36   6 3.36  33 3.36
  17  0.612  0.612  0.342-  47 3.24  30 3.36  50 3.36   2 3.36  23 3.36
  18  0.612  0.612  0.658-  54 3.24  31 3.36  20 3.36  51 3.36  41 3.36
  19  0.446  0.328  0.583-   6 3.25  24 3.25  16 3.36   7 3.36  44 3.42  29 3.42
  20  0.672  0.554  0.583-  31 3.25  45 3.25  18 3.36   9 3.36  54 3.42  49 3.42
  21  0.558  0.442  0.418-  11 3.24   5 3.42   3 3.42  30 3.42  26 3.42
  22  0.328  0.446  0.417-   4 3.25  32 3.25   8 3.36  15 3.36  48 3.42  28 3.42
  23  0.554  0.672  0.417-  27 3.25  50 3.25  10 3.36  17 3.36  55 3.42  47 3.42
  24  0.554  0.328  0.583-   6 3.25  19 3.25  12 3.36   7 3.36  42 3.42  29 3.42
  25  0.328  0.554  0.583-  33 3.25  40 3.25  14 3.36   8 3.36  53 3.42  48 3.42
  26  0.672  0.446  0.417-   2 3.25  30 3.25   9 3.36  11 3.36  49 3.42  21 3.42
  27  0.446  0.672  0.417-  23 3.25  50 3.25  10 3.36  13 3.36  55 3.42  43 3.42
  28  0.442  0.442  0.418-  15 3.24   5 3.42   1 3.42  32 3.42  22 3.42
  29  0.500  0.384  0.500-   7 3.24   3 3.42   1 3.42  24 3.42  19 3.42
  30  0.617  0.500  0.340-   2 3.25  26 3.25  17 3.36  11 3.36  47 3.42  21 3.42
  31  0.617  0.500  0.660-  20 3.25  45 3.25  18 3.36  12 3.36  54 3.42  42 3.42
  32  0.383  0.500  0.340-   4 3.25  22 3.25  13 3.36  15 3.36  43 3.42  28 3.42
  33  0.383  0.500  0.660-  25 3.25  40 3.25  14 3.36  16 3.36  53 3.42  44 3.42
  34  0.383  0.383  0.500-
  35  0.617  0.617  0.500-
  36  0.617  0.383  0.500-
  37  0.383  0.617  0.500-
  38  0.500  0.500  0.335-
  39  0.500  0.500  0.665-  56 1.66
  40  0.328  0.446  0.583-  33 3.25  25 3.25  16 3.36   8 3.36  44 3.42  48 3.42
  41  0.554  0.672  0.583-  46 3.25  51 3.25  10 3.36  18 3.36  54 3.42  55 3.42
  42  0.558  0.442  0.582-  12 3.24   6 3.42  24 3.42  31 3.42  45 3.42
  43  0.442  0.558  0.418-  13 3.24   4 3.42  32 3.42  27 3.42  50 3.42
  44  0.442  0.442  0.582-  16 3.24   6 3.42  19 3.42  33 3.42  40 3.42
  45  0.672  0.446  0.583-  20 3.25  31 3.25   9 3.36  12 3.36  49 3.42  42 3.42
  46  0.446  0.672  0.583-  41 3.25  51 3.25  10 3.36  14 3.36  53 3.42  55 3.42
  47  0.558  0.558  0.418-  17 3.24   2 3.42  30 3.42  23 3.42  50 3.42
  48  0.384  0.500  0.500-   8 3.24   4 3.42  22 3.42  25 3.42  40 3.42
  49  0.616  0.500  0.500-   9 3.24   2 3.42  26 3.42  20 3.42  45 3.42
  50  0.500  0.617  0.340-  27 3.25  23 3.25  13 3.36  17 3.36  43 3.42  47 3.42
  51  0.500  0.617  0.660-  41 3.25  46 3.25  14 3.36  18 3.36  53 3.42  54 3.42
  52  0.500  0.500  0.500-
  53  0.442  0.558  0.582-  14 3.24  25 3.42  33 3.42  51 3.42  46 3.42
  54  0.558  0.558  0.582-  18 3.24  31 3.42  20 3.42  51 3.42  41 3.42
  55  0.500  0.616  0.500-  10 3.24  23 3.42  27 3.42  41 3.42  46 3.42
  56  0.489  0.513  0.718-  57 1.13  39 1.66
  57  0.487  0.515  0.755-  56 1.13
 
  LATTYP: Found a simple cubic cell.
 ALAT       =    30.0000000000
  
  Lattice vectors:
  
 A1 = (  30.0000000000,   0.0000000000,   0.0000000000)
 A2 = (   0.0000000000,  30.0000000000,   0.0000000000)
 A3 = (   0.0000000000,   0.0000000000,  30.0000000000)


Analysis of symmetry for initial positions (statically):
=====================================================================
 Subroutine PRICEL returns:
 Original cell was already a primitive cell.
 

 Routine SETGRP: Setting up the symmetry group for a 
 simple cubic supercell.


 Subroutine GETGRP returns: Found  1 space group operations
 (whereof  1 operations were pure point group operations)
 out of a pool of 48 trial point group operations.


The static configuration has the point symmetry C_1 .


Analysis of symmetry for dynamics (positions and initial velocities):
=====================================================================
 Subroutine PRICEL returns:
 Original cell was already a primitive cell.
 

 Routine SETGRP: Setting up the symmetry group for a 
 simple cubic supercell.


 Subroutine GETGRP returns: Found  1 space group operations
 (whereof  1 operations were pure point group operations)
 out of a pool of 48 trial point group operations.


The dynamic configuration has the point symmetry C_1 .


Analysis of constrained symmetry for selective dynamics:
=====================================================================
 Subroutine PRICEL returns:
 Original cell was already a primitive cell.
 

 Routine SETGRP: Setting up the symmetry group for a 
 simple cubic supercell.


 Subroutine GETGRP returns: Found  1 space group operations
 (whereof  1 operations were pure point group operations)
 out of a pool of 48 trial point group operations.


The constrained configuration has the point symmetry C_1 .


 Subroutine INISYM returns: Found  1 space group operations
 (whereof  1 operations are pure point group operations),
 and found     1 'primitive' translations

 
 
 KPOINTS: K-points                                

Automatic generation of k-mesh.
Space group operators:
 irot       det(A)        alpha          n_x          n_y          n_z        tau_x        tau_y        tau_z
    1     1.000000     0.000000     1.000000     0.000000     0.000000     0.000000     0.000000     0.000000
 
 Subroutine IBZKPT returns following result:
 ===========================================
 
 Found      1 irreducible k-points:
 
 Following reciprocal coordinates:
            Coordinates               Weight
  0.000000  0.000000  0.000000      1.000000
 
 Following cartesian coordinates:
            Coordinates               Weight
  0.000000  0.000000  0.000000      1.000000
 


--------------------------------------------------------------------------------------------------------




 Dimension of arrays:
   k-points           NKPTS =      1   k-points in BZ     NKDIM =      1   number of bands    NBANDS=    336
   number of dos      NEDOS =    301   number of ions     NIONS =     57
   non local maximal  LDIM  =      6   non local SUM 2l+1 LMDIM =     18
   total plane-waves  NPLWV = ******
   max r-space proj   IRMAX =   1847   max aug-charges    IRDMAX=   6262
   dimension x,y,z NGX =   150 NGY =  150 NGZ =  150
   dimension x,y,z NGXF=   300 NGYF=  300 NGZF=  300
   support grid    NGXF=   300 NGYF=  300 NGZF=  300
   ions per type =              55   1   1
   NGX,Y,Z   is equivalent  to a cutoff of   8.31,  8.31,  8.31 a.u.
   NGXF,Y,Z  is equivalent  to a cutoff of  16.62, 16.62, 16.62 a.u.

 SYSTEM =  6_Pd100_top_free_z(O)                   
 POSCAR =  Pd55PES                                 

 Startparameter for this run:
   NWRITE =      2    write-flag & timer
   PREC   = normal    normal or accurate (medium, high low for compatibility)
   ISTART =      0    job   : 0-new  1-cont  2-samecut
   ICHARG =      2    charge: 1-file 2-atom 10-const
   ISPIN  =      1    spin polarized calculation?
   LNONCOLLINEAR =      F non collinear calculations
   LSORBIT =      F    spin-orbit coupling
   INIWAV =      1    electr: 0-lowe 1-rand  2-diag
   LASPH  =      F    aspherical Exc in radial PAW
   METAGGA=      F    non-selfconsistent MetaGGA calc.

 Electronic Relaxation 1
   ENCUT  =  400.0 eV  29.40 Ry    5.42 a.u.  48.92 48.92 48.92*2*pi/ulx,y,z
   ENINI  =  400.0     initial cutoff
   ENAUG  =  644.9 eV  augmentation charge cutoff
   NELM   =    100;   NELMIN=  6; NELMDL= -5     # of ELM steps 
   EDIFF  = 0.1E-03   stopping-criterion for ELM
   LREAL  =      T    real-space projection
   NLSPLINE    = F    spline interpolate recip. space projectors
   LCOMPAT=      F    compatible to vasp.4.4
   GGA_COMPAT  = T    GGA compatible to vasp.4.4-vasp.4.6
   LMAXPAW     = -100 max onsite density
   LMAXMIX     =    2 max onsite mixed and CHGCAR
   VOSKOWN=      0    Vosko Wilk Nusair interpolation
   ROPT   =   -0.00050  -0.00050  -0.00050
 Ionic relaxation
   EDIFFG = -.5E-01   stopping-criterion for IOM
   NSW    =      0    number of steps for IOM
   NBLOCK =      1;   KBLOCK =      1    inner block; outer block 
   IBRION =     -1    ionic relax: 0-MD 1-quasi-New 2-CG
   NFREE  =      1    steps in history (QN), initial steepest desc. (CG)
   ISIF   =      2    stress and relaxation
   IWAVPR =     10    prediction:  0-non 1-charg 2-wave 3-comb
   ISYM   =      2    0-nonsym 1-usesym 2-fastsym
   LCORR  =      T    Harris-Foulkes like correction to forces

   POTIM  = 0.5000    time-step for ionic-motion
   TEIN   =    0.0    initial temperature
   TEBEG  =    0.0;   TEEND  =   0.0 temperature during run
   SMASS  =  -3.00    Nose mass-parameter (am)
   estimated Nose-frequenzy (Omega)   =  0.10E-29 period in steps =****** mass=  -0.206E-25a.u.
   SCALEE = 1.0000    scale energy and forces
   NPACO  =    256;   APACO  = 16.0  distance and # of slots for P.C.
   PSTRESS=    0.0 pullay stress

  Mass of Ions in am
   POMASS = 106.42 12.01 16.00
  Ionic Valenz
   ZVAL   =  10.00  4.00  6.00
  Atomic Wigner-Seitz radii
   RWIGS  =  -1.00 -1.00 -1.00
  virtual crystal weights 
   VCA    =   1.00  1.00  1.00
   NELECT =     560.0000    total number of electrons
   NUPDOWN=      -1.0000    fix difference up-down

 DOS related values:
   EMIN   =  10.00;   EMAX   =-10.00  energy-range for DOS
   EFERMI =   0.00
   ISMEAR =     2;   SIGMA  =   0.20  broadening in eV -4-tet -1-fermi 0-gaus

 Electronic relaxation 2 (details)
   IALGO  =     68    algorithm
   LDIAG  =      T    sub-space diagonalisation (order eigenvalues)
   LSUBROT=      F    optimize rotation matrix (better conditioning)
   TURBO    =      0    0=normal 1=particle mesh
   IRESTART =      0    0=no restart 2=restart with 2 vectors
   NREBOOT  =      0    no. of reboots
   NMIN     =      0    reboot dimension
   EREF     =   0.00    reference energy to select bands
   IMIX   =      4    mixing-type and parameters
     AMIX     =   0.40;   BMIX     =  1.00
     AMIX_MAG =   1.60;   BMIX_MAG =  1.00
     AMIN     =   0.10
     WC   =   100.;   INIMIX=   1;  MIXPRE=   1;  MAXMIX= -45

 Intra band minimization:
   WEIMIN = 0.0000     energy-eigenvalue tresh-hold
   EBREAK =  0.74E-07  absolut break condition
   DEPER  =   0.30     relativ break condition  

   TIME   =   0.40     timestep for ELM

  volume/ion in A,a.u.               =     473.68      3196.58
  Fermi-wavevector in a.u.,A,eV,Ry     =   0.449797  0.849992  2.752691  0.202317
  Thomas-Fermi vector in A             =   1.430086
 
 Write flags
   LWAVE        =      F    write WAVECAR
   LDOWNSAMPLE  =      F    k-point downsampling of WAVECAR
   LCHARG       =      F    write CHGCAR
   LVTOT        =      F    write LOCPOT, total local potential
   LVHAR        =      F    write LOCPOT, Hartree potential only
   LELF         =      F    write electronic localiz. function (ELF)
   LORBIT       =      0    0 simple, 1 ext, 2 COOP (PROOUT), +10 PAW based schemes


 Dipole corrections
   LMONO  =      F    monopole corrections only (constant potential shift)
   LDIPOL =      F    correct potential (dipole corrections)
   IDIPOL =      0    1-x, 2-y, 3-z, 4-all directions 
   EPSILON=  1.0000000 bulk dielectric constant

 Exchange correlation treatment:
   GGA     =    RP    GGA type
   LEXCH   =     9    internal setting for exchange type
   VOSKOWN=      0    Vosko Wilk Nusair interpolation
   LHFCALC =     F    Hartree Fock is set to
   LHFONE  =     F    Hartree Fock one center treatment
   AEXX    =    0.0000 exact exchange contribution

 Linear response parameters
   LEPSILON=     F    determine dielectric tensor
   LRPA    =     F    only Hartree local field effects (RPA)
   LNABLA  =     F    use nabla operator in PAW spheres
   LVEL    =     F    velocity operator in full k-point grid
   LINTERFAST=   F  fast interpolation
   KINTER  =     0    interpolate to denser k-point grid
   CSHIFT  =0.1000    complex shift for real part using Kramers Kronig
   OMEGAMAX=  -1.0    maximum frequency
   DEG_THRESHOLD= 0.2000000E-02 threshold for treating states as degnerate
   RTIME   =   -0.100 relaxation time in fs
  (WPLASMAI=    0.000 imaginary part of plasma frequency in eV, 0.658/RTIME)
   DFIELD  = 0.0000000 0.0000000 0.0000000 field for delta impulse in time
 
 Orbital magnetization related:
   ORBITALMAG=     F  switch on orbital magnetization
   LCHIMAG   =     F  perturbation theory with respect to B field
   DQ        =  0.001000  dq finite difference perturbation B field
   LLRAUG    =     F  two centre corrections for induced B field



--------------------------------------------------------------------------------------------------------


 Static calculation
 charge density and potential will be updated during run
 non-spin polarized calculation
 RMM-DIIS sequential band-by-band and
  variant of blocked Davidson during initial phase
 perform sub-space diagonalisation
    before iterative eigenvector-optimisation
 modified Broyden-mixing scheme, WC =      100.0
 initial mixing is a Kerker type mixing with AMIX =  0.4000 and BMIX =      1.0000
 Hartree-type preconditioning will be used
 using additional bands           56
 real space projection scheme for non local part
 use partial core corrections
 calculate Harris-corrections to forces 
   (improved forces if not selfconsistent)
 use gradient corrections 
 use of overlap-Matrix (Vanderbilt PP)
 Methfessel and Paxton  Order N= 2 SIGMA  =   0.20


--------------------------------------------------------------------------------------------------------


  energy-cutoff  :      400.00
  volume of cell :    27000.00
      direct lattice vectors                 reciprocal lattice vectors
    30.000000000  0.000000000  0.000000000     0.033333333  0.000000000  0.000000000
     0.000000000 30.000000000  0.000000000     0.000000000  0.033333333  0.000000000
     0.000000000  0.000000000 30.000000000     0.000000000  0.000000000  0.033333333

  length of vectors
    30.000000000 30.000000000 30.000000000     0.033333333  0.033333333  0.033333333


 
 k-points in units of 2pi/SCALE and weight: K-points                                
   0.00000000  0.00000000  0.00000000       1.000
 
 k-points in reciprocal lattice and weights: K-points                                
   0.00000000  0.00000000  0.00000000       1.000
 
 position of ions in fractional coordinates (direct lattice) 
   0.44576020  0.32826710  0.41691983
   0.67173288  0.55423978  0.41691983
   0.55423980  0.32826710  0.41691983
   0.32826712  0.55423978  0.41691983
   0.50000000  0.38250690  0.34021317
   0.50000000  0.38250690  0.65978680
   0.50000000  0.27609440  0.50000000
   0.27609443  0.49999998  0.50000000
   0.72390557  0.49999998  0.50000000
   0.50000000  0.72390555  0.50000000
   0.61195280  0.38804720  0.34167483
   0.61195280  0.38804720  0.65832513
   0.38804722  0.61195278  0.34167483
   0.38804722  0.61195278  0.65832513
   0.38804720  0.38804720  0.34167483
   0.38804720  0.38804720  0.65832513
   0.61195278  0.61195278  0.34167483
   0.61195278  0.61195278  0.65832513
   0.44576020  0.32826710  0.58308023
   0.67173288  0.55423978  0.58308023
   0.55791699  0.44208301  0.41809300
   0.32826705  0.44576024  0.41691983
   0.55423973  0.67173293  0.41691983
   0.55423980  0.32826710  0.58308023
   0.32826712  0.55423978  0.58308023
   0.67173295  0.44576024  0.41691983
   0.44576027  0.67173293  0.41691983
   0.44208301  0.44208301  0.41809300
   0.50000000  0.38416601  0.50000000
   0.61749315  0.50000005  0.34021317
   0.61749315  0.50000005  0.65978680
   0.38250685  0.50000005  0.34021317
   0.38250685  0.50000005  0.65978680
   0.38317830  0.38317830  0.50000000
   0.61682172  0.61682172  0.50000000
   0.61682170  0.38317830  0.50000000
   0.38317828  0.61682172  0.50000000
   0.50000000  0.50000000  0.33478917
   0.50000000  0.50000000  0.66521087
   0.32826705  0.44576024  0.58308023
   0.55423973  0.67173293  0.58308023
   0.55791699  0.44208301  0.58190703
   0.44208298  0.55791702  0.41809300
   0.44208301  0.44208301  0.58190703
   0.67173295  0.44576024  0.58308023
   0.44576027  0.67173293  0.58308023
   0.55791702  0.55791702  0.41809300
   0.38416599  0.50000002  0.50000000
   0.61583401  0.50000002  0.50000000
   0.50000000  0.61749319  0.34021317
   0.50000000  0.61749319  0.65978680
   0.50000000  0.50000000  0.50000000
   0.44208298  0.55791702  0.58190703
   0.55791702  0.55791702  0.58190703
   0.50000000  0.61583404  0.50000000
   0.48894553  0.51291853  0.71777393
   0.48704273  0.51514223  0.75525983
 
 position of ions in cartesian coordinates  (Angst):
  13.37280588  9.84801292 12.50759500
  20.15198637 16.62719342 12.50759500
  16.62719412  9.84801292 12.50759500
   9.84801363 16.62719342 12.50759500
  15.00000000 11.47520705 10.20639500
  15.00000000 11.47520705 19.79360400
  15.00000000  8.28283206 15.00000000
   8.28283277 14.99999929 15.00000000
  21.71716723 14.99999929 15.00000000
  15.00000000 21.71716652 14.99999999
  18.35858397 11.64141603 10.25024500
  18.35858397 11.64141603 19.74975399
  11.64141674 18.35858326 10.25024500
  11.64141674 18.35858326 19.74975400
  11.64141603 11.64141603 10.25024500
  11.64141603 11.64141603 19.74975400
  18.35858326 18.35858326 10.25024500
  18.35858326 18.35858326 19.74975400
  13.37280588  9.84801291 17.49240700
  20.15198638 16.62719341 17.49240700
  16.73750985 13.26249015 12.54279000
   9.84801151 13.37280729 12.50759500
  16.62719200 20.15198779 12.50759500
  16.62719412  9.84801292 17.49240700
   9.84801363 16.62719342 17.49240700
  20.15198849 13.37280729 12.50759500
  13.37280800 20.15198779 12.50759500
  13.26249015 13.26249015 12.54279000
  15.00000000 11.52498029 15.00000000
  18.52479437 15.00000140 10.20639500
  18.52479437 15.00000141 19.79360400
  11.47520562 15.00000141 10.20639501
  11.47520563 15.00000141 19.79360400
  11.49534898 11.49534898 15.00000000
  18.50465172 18.50465172 15.00000000
  18.50465102 11.49534898 15.00000000
  11.49534828 18.50465172 15.00000000
  15.00000000 15.00000000 10.04367500
  15.00000000 15.00000000 19.95632599
   9.84801151 13.37280729 17.49240700
  16.62719200 20.15198779 17.49240700
  16.73750985 13.26249015 17.45721100
  13.26248944 16.73751056 12.54279001
  13.26249015 13.26249015 17.45721100
  20.15198849 13.37280729 17.49240699
  13.37280800 20.15198779 17.49240700
  16.73751056 16.73751056 12.54279000
  11.52497959 15.00000071 15.00000000
  18.47502041 15.00000071 15.00000000
  14.99999999 18.52479579 10.20639500
  15.00000000 18.52479578 19.79360400
  15.00000000 15.00000000 15.00000000
  13.26248944 16.73751057 17.45721101
  16.73751056 16.73751057 17.45721100
  15.00000000 18.47502112 15.00000000
  14.66836600 15.38755600 21.53321800
  14.61128200 15.45426700 22.65779500
 


--------------------------------------------------------------------------------------------------------


 k-point  1 :   0.0000 0.0000 0.0000  plane waves:  490521

 maximum and minimum number of plane-waves per node :    490521   490521

 maximum number of plane-waves:    490521
 maximum index in each direction: 
   IXMAX=   48   IYMAX=   48   IZMAX=   48
   IXMIN=  -48   IYMIN=  -48   IZMIN=  -48


 serial   3D FFT for wavefunctions
 parallel 3D FFT for charge:
    minimum data exchange during FFTs selected (reduces bandwidth)


 total amount of memory used by VASP MPI-rank0  5486941. kBytes
=======================================================================

   base      :      30000. kBytes
   nonlr-proj:      17126. kBytes
   fftplans  :     924480. kBytes
   grid      :    1872000. kBytes
   one-center:        886. kBytes
   wavefun   :    2642449. kBytes
 
     INWAV:  cpu time    0.0001: real time    0.0005
 Broyden mixing: mesh for mixing (old mesh)
   NGX = 97   NGY = 97   NGZ = 97
  (NGX  =300   NGY  =300   NGZ  =300)
  gives a total of 912673 points

 initial charge density was supplied:
 charge density of overlapping atoms calculated
 number of electron     560.0000000 magnetization 
 keeping initial charge density in first step


--------------------------------------------------------------------------------------------------------


 Maximum index for non-local projection operator         1763
 Maximum index for augmentation-charges         5898 (set IRDMAX)


--------------------------------------------------------------------------------------------------------


 First call to EWALD:  gamma=   0.059
 Maximum number of real-space cells 3x 3x 3
 Maximum number of reciprocal cells 3x 3x 3

    FEWALD:  cpu time    0.0147: real time    0.0147


--------------------------------------- Iteration      1(   1)  ---------------------------------------


    POTLOK:  cpu time   13.5651: real time   13.5693
    SETDIJ:  cpu time    0.1145: real time    0.1145
     EDDAV:  cpu time  343.7953: real time  343.8754
       DOS:  cpu time    0.0013: real time    0.0013
    --------------------------------------------
      LOOP:  cpu time  357.4763: real time  357.5605

 eigenvalue-minimisations  :   688
 total energy-change (2. order) : 0.4400391E+04  (-0.1005011E+05)
 number of electron     560.0000000 magnetization 
 augmentation part      560.0000000 magnetization 

 Free energy of the ion-electron system (eV)
  ---------------------------------------------------
  alpha Z        PSCENC =        75.25431677
  Ewald energy   TEWEN  =    138984.20680078
  -Hartree energ DENC   =   -182335.19445973
  -exchange      EXHF   =         0.00000000
  -V(xc)+E(xc)   XCENC  =     -1702.46143884
  PAW double counting   =     44873.02882129   -41398.84523641
  entropy T*S    EENTRO =        -0.00709313
  eigenvalues    EBANDS =       817.90341883
  atomic energy  EATOM  =     45086.50549395
  Solvation  Ediel_sol  =         0.00000000
  ---------------------------------------------------
  free energy    TOTEN  =      4400.39062352 eV

  energy without entropy =     4400.39771665  energy(sigma->0) =     4400.39239680


--------------------------------------------------------------------------------------------------------




--------------------------------------- Iteration      1(   2)  ---------------------------------------


     EDDAV:  cpu time  552.1133: real time  552.1261
       DOS:  cpu time    0.0011: real time    0.0011
    --------------------------------------------
      LOOP:  cpu time  552.1145: real time  552.1272

 eigenvalue-minimisations  :  1224
 total energy-change (2. order) :-0.2389329E+04  (-0.2148589E+04)
 number of electron     560.0000000 magnetization 
 augmentation part      560.0000000 magnetization 

 Free energy of the ion-electron system (eV)
  ---------------------------------------------------
  alpha Z        PSCENC =        75.25431677
  Ewald energy   TEWEN  =    138984.20680078
  -Hartree energ DENC   =   -182335.19445973
  -exchange      EXHF   =         0.00000000
  -V(xc)+E(xc)   XCENC  =     -1702.46143884
  PAW double counting   =     44873.02882129   -41398.84523641
  entropy T*S    EENTRO =        -0.03634717
  eigenvalues    EBANDS =     -1571.39608671
  atomic energy  EATOM  =     45086.50549395
  Solvation  Ediel_sol  =         0.00000000
  ---------------------------------------------------
  free energy    TOTEN  =      2011.06186393 eV

  energy without entropy =     2011.09821110  energy(sigma->0) =     2011.07095073


--------------------------------------------------------------------------------------------------------




--------------------------------------- Iteration      1(   3)  ---------------------------------------


     EDDAV:  cpu time  454.7712: real time  454.7747
       DOS:  cpu time    0.0011: real time    0.0011
    --------------------------------------------
      LOOP:  cpu time  454.7722: real time  454.7758

 eigenvalue-minimisations  :   976
 total energy-change (2. order) :-0.1779557E+04  (-0.1672304E+04)
 number of electron     560.0000000 magnetization 
 augmentation part      560.0000000 magnetization 

 Free energy of the ion-electron system (eV)
  ---------------------------------------------------
  alpha Z        PSCENC =        75.25431677
  Ewald energy   TEWEN  =    138984.20680078
  -Hartree energ DENC   =   -182335.19445973
  -exchange      EXHF   =         0.00000000
  -V(xc)+E(xc)   XCENC  =     -1702.46143884
  PAW double counting   =     44873.02882129   -41398.84523641
  entropy T*S    EENTRO =        -0.00888408
  eigenvalues    EBANDS =     -3350.98020846
  atomic energy  EATOM  =     45086.50549395
  Solvation  Ediel_sol  =         0.00000000
  ---------------------------------------------------
  free energy    TOTEN  =       231.50520528 eV

  energy without entropy =      231.51408936  energy(sigma->0) =      231.50742630


--------------------------------------------------------------------------------------------------------




--------------------------------------- Iteration      1(   4)  ---------------------------------------


     EDDAV:  cpu time  404.6903: real time  404.7024
       DOS:  cpu time    0.0012: real time    0.0012
    --------------------------------------------
      LOOP:  cpu time  404.6915: real time  404.7036

 eigenvalue-minimisations  :   832
 total energy-change (2. order) :-0.3679376E+03  (-0.3143213E+03)
 number of electron     560.0000000 magnetization 
 augmentation part      560.0000000 magnetization 

 Free energy of the ion-electron system (eV)
  ---------------------------------------------------
  alpha Z        PSCENC =        75.25431677
  Ewald energy   TEWEN  =    138984.20680078
  -Hartree energ DENC   =   -182335.19445973
  -exchange      EXHF   =         0.00000000
  -V(xc)+E(xc)   XCENC  =     -1702.46143884
  PAW double counting   =     44873.02882129   -41398.84523641
  entropy T*S    EENTRO =         0.05490982
  eigenvalues    EBANDS =     -3718.98162738
  atomic energy  EATOM  =     45086.50549395
  Solvation  Ediel_sol  =         0.00000000
  ---------------------------------------------------
  free energy    TOTEN  =      -136.43241974 eV

  energy without entropy =     -136.48732956  energy(sigma->0) =     -136.44614720


--------------------------------------------------------------------------------------------------------




--------------------------------------- Iteration      1(   5)  ---------------------------------------


     EDDAV:  cpu time  492.8983: real time  492.9057
       DOS:  cpu time    0.0014: real time    0.0014
    CHARGE:  cpu time   25.0105: real time   25.0103
    MIXING:  cpu time    0.4376: real time    0.4377
    --------------------------------------------
      LOOP:  cpu time  518.3478: real time  518.3550

 eigenvalue-minimisations  :  1056
 total energy-change (2. order) :-0.4418797E+02  (-0.3596011E+02)
 number of electron     559.9999844 magnetization 
 augmentation part      244.8964028 magnetization 

 Broyden mixing:
  rms(total) = 0.20472E+01    rms(broyden)= 0.20466E+01
  rms(prec ) = 0.21367E+01
  weight for this iteration     100.00

 Free energy of the ion-electron system (eV)
  ---------------------------------------------------
  alpha Z        PSCENC =        75.25431677
  Ewald energy   TEWEN  =    138984.20680078
  -Hartree energ DENC   =   -182335.19445973
  -exchange      EXHF   =         0.00000000
  -V(xc)+E(xc)   XCENC  =     -1702.46143884
  PAW double counting   =     44873.02882129   -41398.84523641
  entropy T*S    EENTRO =         0.52426301
  eigenvalues    EBANDS =     -3763.63895297
  atomic energy  EATOM  =     45086.50549395
  Solvation  Ediel_sol  =         0.00000000
  ---------------------------------------------------
  free energy    TOTEN  =      -180.62039214 eV

  energy without entropy =     -181.14465515  energy(sigma->0) =     -180.75145789


--------------------------------------------------------------------------------------------------------




--------------------------------------- Iteration      1(   6)  ---------------------------------------


    POTLOK:  cpu time   13.0587: real time   13.0595
    SETDIJ:  cpu time    0.1240: real time    0.1240
    EDDIAG:  cpu time   67.6553: real time   67.6554
  RMM-DIIS:  cpu time  177.5921: real time  177.5924
    ORTHCH:  cpu time   13.0124: real time   13.0123
       DOS:  cpu time    0.0014: real time    0.0014
    CHARGE:  cpu time   24.6681: real time   24.6680
    MIXING:  cpu time    0.4600: real time    0.4600
    --------------------------------------------
      LOOP:  cpu time  296.5720: real time  296.5729

 eigenvalue-minimisations  :   717
 total energy-change (2. order) :-0.7312237E+00  (-0.7817872E+01)
 number of electron     559.9999867 magnetization 
 augmentation part      240.3397845 magnetization 

 Broyden mixing:
  rms(total) = 0.26519E+01    rms(broyden)= 0.26516E+01
  rms(prec ) = 0.30351E+01
  weight for this iteration     100.00

 eigenvalues of (default mixing * dielectric matrix)
  average eigenvalue GAMMA=   0.3830
  0.3830

 Free energy of the ion-electron system (eV)
  ---------------------------------------------------
  alpha Z        PSCENC =        75.25431677
  Ewald energy   TEWEN  =    138984.20680078
  -Hartree energ DENC   =   -182721.61730910
  -exchange      EXHF   =         0.00000000
  -V(xc)+E(xc)   XCENC  =     -1695.91873024
  PAW double counting   =     45715.48657652   -42215.70470547
  entropy T*S    EENTRO =        -0.27217304
  eigenvalues    EBANDS =     -3409.29188606
  atomic energy  EATOM  =     45086.50549395
  Solvation  Ediel_sol  =         0.00000000
  ---------------------------------------------------
  free energy    TOTEN  =      -181.35161588 eV

  energy without entropy =     -181.07944285  energy(sigma->0) =     -181.28357262


--------------------------------------------------------------------------------------------------------




--------------------------------------- Iteration      1(   7)  ---------------------------------------


    POTLOK:  cpu time   12.8425: real time   12.8432
    SETDIJ:  cpu time    0.1209: real time    0.1209
    EDDIAG:  cpu time   66.8072: real time   66.8073
  RMM-DIIS:  cpu time  209.3506: real time  209.3569
    ORTHCH:  cpu time   13.0569: real time   13.0568
       DOS:  cpu time    0.0014: real time    0.0014
    CHARGE:  cpu time   24.2989: real time   24.2988
    MIXING:  cpu time    0.4646: real time    0.4646
    --------------------------------------------
      LOOP:  cpu time  326.9432: real time  326.9500

 eigenvalue-minimisations  :   840
 total energy-change (2. order) :-0.4797851E+01  (-0.2510162E+01)
 number of electron     559.9999814 magnetization 
 augmentation part      239.5290662 magnetization 

 Broyden mixing:
  rms(total) = 0.28173E+01    rms(broyden)= 0.28171E+01
  rms(prec ) = 0.34594E+01
  weight for this iteration     100.00

 eigenvalues of (default mixing * dielectric matrix)
  average eigenvalue GAMMA=   0.3657
  0.5633  0.1680

 Free energy of the ion-electron system (eV)
  ---------------------------------------------------
  alpha Z        PSCENC =        75.25431677
  Ewald energy   TEWEN  =    138984.20680078
  -Hartree energ DENC   =   -182824.74934027
  -exchange      EXHF   =         0.00000000
  -V(xc)+E(xc)   XCENC  =     -1696.28368126
  PAW double counting   =     45810.97344258   -42308.76264481
  entropy T*S    EENTRO =        -0.13326229
  eigenvalues    EBANDS =     -3313.16059192
  atomic energy  EATOM  =     45086.50549395
  Solvation  Ediel_sol  =         0.00000000
  ---------------------------------------------------
  free energy    TOTEN  =      -186.14946647 eV

  energy without entropy =     -186.01620418  energy(sigma->0) =     -186.11615090


--------------------------------------------------------------------------------------------------------




--------------------------------------- Iteration      1(   8)  ---------------------------------------


    POTLOK:  cpu time   12.6374: real time   12.6383
    SETDIJ:  cpu time    0.1168: real time    0.1168
    EDDIAG:  cpu time   65.4508: real time   65.4506
  RMM-DIIS:  cpu time  198.0673: real time  198.0768
    ORTHCH:  cpu time   13.4204: real time   13.4207
       DOS:  cpu time    0.0014: real time    0.0014
    CHARGE:  cpu time   24.2733: real time   24.2739
    MIXING:  cpu time    0.4979: real time    0.4979
    --------------------------------------------
      LOOP:  cpu time  314.4653: real time  314.4765

 eigenvalue-minimisations  :   789
 total energy-change (2. order) :-0.1408470E+01  (-0.1137078E+01)
 number of electron     559.9999833 magnetization 
 augmentation part      239.4720657 magnetization 

 Broyden mixing:
  rms(total) = 0.31531E+01    rms(broyden)= 0.31528E+01
  rms(prec ) = 0.36583E+01
  weight for this iteration     100.00

 eigenvalues of (default mixing * dielectric matrix)
  average eigenvalue GAMMA=   0.3602
  0.7729  0.1539  0.1539

 Free energy of the ion-electron system (eV)
  ---------------------------------------------------
  alpha Z        PSCENC =        75.25431677
  Ewald energy   TEWEN  =    138984.20680078
  -Hartree energ DENC   =   -182868.82716217
  -exchange      EXHF   =         0.00000000
  -V(xc)+E(xc)   XCENC  =     -1696.54631781
  PAW double counting   =     45888.09418982   -42384.21059605
  entropy T*S    EENTRO =        -0.13434936
  eigenvalues    EBANDS =     -3271.90031265
  atomic energy  EATOM  =     45086.50549395
  Solvation  Ediel_sol  =         0.00000000
  ---------------------------------------------------
  free energy    TOTEN  =      -187.55793671 eV

  energy without entropy =     -187.42358735  energy(sigma->0) =     -187.52434937


--------------------------------------------------------------------------------------------------------




--------------------------------------- Iteration      1(   9)  ---------------------------------------


    POTLOK:  cpu time   12.5308: real time   12.5320
    SETDIJ:  cpu time    0.1168: real time    0.1168
    EDDIAG:  cpu time   65.5946: real time   65.5969
  RMM-DIIS:  cpu time  180.3453: real time  180.3531
    ORTHCH:  cpu time   13.3858: real time   13.3858
       DOS:  cpu time    0.0015: real time    0.0015
    CHARGE:  cpu time   25.3662: real time   25.3661
    MIXING:  cpu time    0.5563: real time    0.5563
    --------------------------------------------
      LOOP:  cpu time  297.8973: real time  297.9084

 eigenvalue-minimisations  :   723
 total energy-change (2. order) : 0.2416624E+01  (-0.1079555E+01)
 number of electron     559.9999827 magnetization 
 augmentation part      240.8657125 magnetization 

 Broyden mixing:
  rms(total) = 0.28385E+01    rms(broyden)= 0.28382E+01
  rms(prec ) = 0.33382E+01
  weight for this iteration     100.00

 eigenvalues of (default mixing * dielectric matrix)
  average eigenvalue GAMMA=   0.3451
  0.8991  0.1799  0.1799  0.1217

 Free energy of the ion-electron system (eV)
  ---------------------------------------------------
  alpha Z        PSCENC =        75.25431677
  Ewald energy   TEWEN  =    138984.20680078
  -Hartree energ DENC   =   -182866.08394577
  -exchange      EXHF   =         0.00000000
  -V(xc)+E(xc)   XCENC  =     -1696.67444115
  PAW double counting   =     45970.16692445   -42464.53632157
  entropy T*S    EENTRO =         0.02943095
  eigenvalues    EBANDS =     -3274.00957110
  atomic energy  EATOM  =     45086.50549395
  Solvation  Ediel_sol  =         0.00000000
  ---------------------------------------------------
  free energy    TOTEN  =      -185.14131268 eV

  energy without entropy =     -185.17074364  energy(sigma->0) =     -185.14867042


--------------------------------------------------------------------------------------------------------




--------------------------------------- Iteration      1(  10)  ---------------------------------------


    POTLOK:  cpu time   13.3030: real time   13.3082
    SETDIJ:  cpu time    0.1208: real time    0.1208
    EDDIAG:  cpu time   66.6946: real time   66.6960
  RMM-DIIS:  cpu time  181.8658: real time  181.8679
    ORTHCH:  cpu time   13.0151: real time   13.0151
       DOS:  cpu time    0.0014: real time    0.0014
    CHARGE:  cpu time   24.3385: real time   24.3384
    MIXING:  cpu time    0.5715: real time    0.5716
    --------------------------------------------
      LOOP:  cpu time  299.9109: real time  299.9194

 eigenvalue-minimisations  :   739
 total energy-change (2. order) : 0.1641563E+01  (-0.6273310E+00)
 number of electron     559.9999839 magnetization 
 augmentation part      241.0503812 magnetization 

 Broyden mixing:
  rms(total) = 0.26195E+01    rms(broyden)= 0.26192E+01
  rms(prec ) = 0.30891E+01
  weight for this iteration     100.00

 eigenvalues of (default mixing * dielectric matrix)
  average eigenvalue GAMMA=   0.3292
  1.0179  0.1788  0.1788  0.1679  0.1028

 Free energy of the ion-electron system (eV)
  ---------------------------------------------------
  alpha Z        PSCENC =        75.25431677
  Ewald energy   TEWEN  =    138984.20680078
  -Hartree energ DENC   =   -182899.79400170
  -exchange      EXHF   =         0.00000000
  -V(xc)+E(xc)   XCENC  =     -1696.55522853
  PAW double counting   =     46033.65471010   -42526.43324190
  entropy T*S    EENTRO =        -0.09687790
  eigenvalues    EBANDS =     -3240.24172134
  atomic energy  EATOM  =     45086.50549395
  Solvation  Ediel_sol  =         0.00000000
  ---------------------------------------------------
  free energy    TOTEN  =      -183.49974977 eV

  energy without entropy =     -183.40287187  energy(sigma->0) =     -183.47553030


--------------------------------------------------------------------------------------------------------




--------------------------------------- Iteration      1(  11)  ---------------------------------------


    POTLOK:  cpu time   12.6815: real time   12.6828
    SETDIJ:  cpu time    0.1182: real time    0.1182
    EDDIAG:  cpu time   65.6767: real time   65.6777
  RMM-DIIS:  cpu time  186.3751: real time  186.3795
    ORTHCH:  cpu time   13.3169: real time   13.3169
       DOS:  cpu time    0.0014: real time    0.0014
    CHARGE:  cpu time   24.7165: real time   24.7165
    MIXING:  cpu time    0.6021: real time    0.6021
    --------------------------------------------
      LOOP:  cpu time  303.4884: real time  303.4952

 eigenvalue-minimisations  :   739
 total energy-change (2. order) : 0.2371468E+01  (-0.4472575E+00)
 number of electron     559.9999844 magnetization 
 augmentation part      241.5889351 magnetization 

 Broyden mixing:
  rms(total) = 0.26563E+01    rms(broyden)= 0.26559E+01
  rms(prec ) = 0.31158E+01
  weight for this iteration     100.00

 eigenvalues of (default mixing * dielectric matrix)
  average eigenvalue GAMMA=   0.3167
  1.1287  0.1997  0.1997  0.1784  0.0969  0.0969

 Free energy of the ion-electron system (eV)
  ---------------------------------------------------
  alpha Z        PSCENC =        75.25431677
  Ewald energy   TEWEN  =    138984.20680078
  -Hartree energ DENC   =   -182927.27163543
  -exchange      EXHF   =         0.00000000
  -V(xc)+E(xc)   XCENC  =     -1696.40180655
  PAW double counting   =     46089.39852742   -42580.69244611
  entropy T*S    EENTRO =        -0.00651705
  eigenvalues    EBANDS =     -3212.12101585
  atomic energy  EATOM  =     45086.50549395
  Solvation  Ediel_sol  =         0.00000000
  ---------------------------------------------------
  free energy    TOTEN  =      -181.12828207 eV

  energy without entropy =     -181.12176502  energy(sigma->0) =     -181.12665281


--------------------------------------------------------------------------------------------------------




--------------------------------------- Iteration      1(  12)  ---------------------------------------


    POTLOK:  cpu time   12.5898: real time   12.5915
    SETDIJ:  cpu time    0.1219: real time    0.1219
    EDDIAG:  cpu time   65.4963: real time   65.4976
  RMM-DIIS:  cpu time  177.7860: real time  177.7887
    ORTHCH:  cpu time   13.3820: real time   13.3820
       DOS:  cpu time    0.0014: real time    0.0014
    CHARGE:  cpu time   25.1781: real time   25.1782
    MIXING:  cpu time    0.6207: real time    0.6207
    --------------------------------------------
      LOOP:  cpu time  295.1763: real time  295.1820

 eigenvalue-minimisations  :   719
 total energy-change (2. order) : 0.2312161E+01  (-0.3597234E+00)
 number of electron     559.9999849 magnetization 
 augmentation part      241.8182031 magnetization 

 Broyden mixing:
  rms(total) = 0.17993E+01    rms(broyden)= 0.17990E+01
  rms(prec ) = 0.21614E+01
  weight for this iteration     100.00

 eigenvalues of (default mixing * dielectric matrix)
  average eigenvalue GAMMA=   0.3165
  1.2457  0.2424  0.2424  0.1442  0.1442  0.0982  0.0982

 Free energy of the ion-electron system (eV)
  ---------------------------------------------------
  alpha Z        PSCENC =        75.25431677
  Ewald energy   TEWEN  =    138984.20680078
  -Hartree energ DENC   =   -182945.23845981
  -exchange      EXHF   =         0.00000000
  -V(xc)+E(xc)   XCENC  =     -1696.15805587
  PAW double counting   =     46138.62018874   -42628.38825543
  entropy T*S    EENTRO =        -0.07673172
  eigenvalues    EBANDS =     -3193.54141836
  atomic energy  EATOM  =     45086.50549395
  Solvation  Ediel_sol  =         0.00000000
  ---------------------------------------------------
  free energy    TOTEN  =      -178.81612095 eV

  energy without entropy =     -178.73938923  energy(sigma->0) =     -178.79693802


--------------------------------------------------------------------------------------------------------




--------------------------------------- Iteration      1(  13)  ---------------------------------------


    POTLOK:  cpu time   12.8209: real time   12.8219
    SETDIJ:  cpu time    0.1167: real time    0.1167
    EDDIAG:  cpu time   66.3689: real time   66.3719
  RMM-DIIS:  cpu time  180.0225: real time  180.0268
    ORTHCH:  cpu time   12.9961: real time   12.9961
       DOS:  cpu time    0.0015: real time    0.0015
    CHARGE:  cpu time   24.5766: real time   24.5767
    MIXING:  cpu time    0.6681: real time    0.6681
    --------------------------------------------
      LOOP:  cpu time  297.5713: real time  297.5797

 eigenvalue-minimisations  :   727
 total energy-change (2. order) :-0.4908200E+00  (-0.2636939E+00)
 number of electron     559.9999829 magnetization 
 augmentation part      241.6249229 magnetization 

 Broyden mixing:
  rms(total) = 0.24330E+01    rms(broyden)= 0.24327E+01
  rms(prec ) = 0.29206E+01
  weight for this iteration     100.00

 eigenvalues of (default mixing * dielectric matrix)
  average eigenvalue GAMMA=   0.3051
  1.3216  0.2759  0.2759  0.1517  0.1517  0.0944  0.0847  0.0847

 Free energy of the ion-electron system (eV)
  ---------------------------------------------------
  alpha Z        PSCENC =        75.25431677
  Ewald energy   TEWEN  =    138984.20680078
  -Hartree energ DENC   =   -182971.69661819
  -exchange      EXHF   =         0.00000000
  -V(xc)+E(xc)   XCENC  =     -1695.78795886
  PAW double counting   =     46192.24336355   -42680.09934143
  entropy T*S    EENTRO =        -0.09695267
  eigenvalues    EBANDS =     -3169.83604484
  atomic energy  EATOM  =     45086.50549395
  Solvation  Ediel_sol  =         0.00000000
  ---------------------------------------------------
  free energy    TOTEN  =      -179.30694093 eV

  energy without entropy =     -179.20998827  energy(sigma->0) =     -179.28270277


--------------------------------------------------------------------------------------------------------




--------------------------------------- Iteration      1(  14)  ---------------------------------------


    POTLOK:  cpu time   12.4838: real time   12.4848
    SETDIJ:  cpu time    0.1204: real time    0.1204
    EDDIAG:  cpu time   65.9232: real time   65.9242
  RMM-DIIS:  cpu time  179.9199: real time  179.9233
    ORTHCH:  cpu time   13.0045: real time   13.0045
       DOS:  cpu time    0.0014: real time    0.0014
    CHARGE:  cpu time   24.3767: real time   24.3768
    MIXING:  cpu time    0.6900: real time    0.6900
    --------------------------------------------
      LOOP:  cpu time  296.5198: real time  296.5254

 eigenvalue-minimisations  :   724
 total energy-change (2. order) : 0.1932154E+01  (-0.2092329E+00)
 number of electron     559.9999855 magnetization 
 augmentation part      241.7562205 magnetization 

 Broyden mixing:
  rms(total) = 0.15863E+01    rms(broyden)= 0.15859E+01
  rms(prec ) = 0.18060E+01
  weight for this iteration     100.00

 eigenvalues of (default mixing * dielectric matrix)
  average eigenvalue GAMMA=   0.3180
  1.4923  0.3332  0.3332  0.1571  0.1571  0.1149  0.1149  0.0799  0.0799

 Free energy of the ion-electron system (eV)
  ---------------------------------------------------
  alpha Z        PSCENC =        75.25431677
  Ewald energy   TEWEN  =    138984.20680078
  -Hartree energ DENC   =   -182992.30934107
  -exchange      EXHF   =         0.00000000
  -V(xc)+E(xc)   XCENC  =     -1695.46825177
  PAW double counting   =     46232.37649494   -42718.77624601
  entropy T*S    EENTRO =        -0.08418965
  eigenvalues    EBANDS =     -3149.07986446
  atomic energy  EATOM  =     45086.50549395
  Solvation  Ediel_sol  =         0.00000000
  ---------------------------------------------------
  free energy    TOTEN  =      -177.37478651 eV

  energy without entropy =     -177.29059687  energy(sigma->0) =     -177.35373910


--------------------------------------------------------------------------------------------------------




--------------------------------------- Iteration      1(  15)  ---------------------------------------


    POTLOK:  cpu time   12.5120: real time   12.5166
    SETDIJ:  cpu time    0.1163: real time    0.1163
    EDDIAG:  cpu time   66.1966: real time   66.1973
  RMM-DIIS:  cpu time  175.0005: real time  175.0047
    ORTHCH:  cpu time   13.0560: real time   13.0560
       DOS:  cpu time    0.0015: real time    0.0015
    CHARGE:  cpu time   24.4661: real time   24.4660
    MIXING:  cpu time    0.7507: real time    0.7507
    --------------------------------------------
      LOOP:  cpu time  292.0996: real time  292.1090

 eigenvalue-minimisations  :   705
 total energy-change (2. order) : 0.5380749E+00  (-0.2185343E+00)
 number of electron     559.9999840 magnetization 
 augmentation part      241.5829438 magnetization 

 Broyden mixing:
  rms(total) = 0.17215E+01    rms(broyden)= 0.17212E+01
  rms(prec ) = 0.20123E+01
  weight for this iteration     100.00

 eigenvalues of (default mixing * dielectric matrix)
  average eigenvalue GAMMA=   0.3177
  1.5935  0.3544  0.3544  0.1882  0.1882  0.1289  0.1289  0.0825  0.0825  0.0751

 Free energy of the ion-electron system (eV)
  ---------------------------------------------------
  alpha Z        PSCENC =        75.25431677
  Ewald energy   TEWEN  =    138984.20680078
  -Hartree energ DENC   =   -183032.71063570
  -exchange      EXHF   =         0.00000000
  -V(xc)+E(xc)   XCENC  =     -1694.75047191
  PAW double counting   =     46312.15923785   -42795.47399925
  entropy T*S    EENTRO =        -0.01865833
  eigenvalues    EBANDS =     -3112.00879576
  atomic energy  EATOM  =     45086.50549395
  Solvation  Ediel_sol  =         0.00000000
  ---------------------------------------------------
  free energy    TOTEN  =      -176.83671160 eV

  energy without entropy =     -176.81805327  energy(sigma->0) =     -176.83204702


--------------------------------------------------------------------------------------------------------




--------------------------------------- Iteration      1(  16)  ---------------------------------------


    POTLOK:  cpu time   12.5261: real time   12.5296
    SETDIJ:  cpu time    0.1164: real time    0.1164
    EDDIAG:  cpu time   66.1931: real time   66.1944
  RMM-DIIS:  cpu time  176.6896: real time  176.6913
    ORTHCH:  cpu time   13.0246: real time   13.0246
       DOS:  cpu time    0.0015: real time    0.0015
    CHARGE:  cpu time   24.3112: real time   24.3110
    MIXING:  cpu time    0.7985: real time    0.7985
    --------------------------------------------
      LOOP:  cpu time  293.6609: real time  293.6672

 eigenvalue-minimisations  :   711
 total energy-change (2. order) : 0.7201670E+00  (-0.1238473E+00)
 number of electron     559.9999840 magnetization 
 augmentation part      241.3372117 magnetization 

 Broyden mixing:
  rms(total) = 0.14741E+01    rms(broyden)= 0.14739E+01
  rms(prec ) = 0.17443E+01
  weight for this iteration     100.00

 eigenvalues of (default mixing * dielectric matrix)
  average eigenvalue GAMMA=   0.3079
  1.6341  0.4456  0.2369  0.2369  0.2366  0.1300  0.1300  0.0998  0.0867  0.0867
  0.0635

 Free energy of the ion-electron system (eV)
  ---------------------------------------------------
  alpha Z        PSCENC =        75.25431677
  Ewald energy   TEWEN  =    138984.20680078
  -Hartree energ DENC   =   -183067.07714716
  -exchange      EXHF   =         0.00000000
  -V(xc)+E(xc)   XCENC  =     -1694.23734793
  PAW double counting   =     46362.94167200   -42844.06810805
  entropy T*S    EENTRO =        -0.04768775
  eigenvalues    EBANDS =     -3079.59453722
  atomic energy  EATOM  =     45086.50549395
  Solvation  Ediel_sol  =         0.00000000
  ---------------------------------------------------
  free energy    TOTEN  =      -176.11654461 eV

  energy without entropy =     -176.06885686  energy(sigma->0) =     -176.10462268


--------------------------------------------------------------------------------------------------------




--------------------------------------- Iteration      1(  17)  ---------------------------------------


    POTLOK:  cpu time   12.4808: real time   12.4836
    SETDIJ:  cpu time    0.1199: real time    0.1199
    EDDIAG:  cpu time   66.1701: real time   66.1713
  RMM-DIIS:  cpu time  174.5878: real time  174.5959
    ORTHCH:  cpu time   13.0484: real time   13.0483
       DOS:  cpu time    0.0015: real time    0.0015
    CHARGE:  cpu time   24.2736: real time   24.2735
    MIXING:  cpu time    0.8319: real time    0.8319
    --------------------------------------------
      LOOP:  cpu time  291.5140: real time  291.5260

 eigenvalue-minimisations  :   702
 total energy-change (2. order) : 0.5532856E+00  (-0.5848833E-01)
 number of electron     559.9999856 magnetization 
 augmentation part      241.3318395 magnetization 

 Broyden mixing:
  rms(total) = 0.98116E+00    rms(broyden)= 0.98093E+00
  rms(prec ) = 0.11224E+01
  weight for this iteration     100.00

 eigenvalues of (default mixing * dielectric matrix)
  average eigenvalue GAMMA=   0.3125
  1.6655  0.5473  0.3328  0.3328  0.1319  0.1319  0.1421  0.1421  0.0936  0.0829
  0.0829  0.0639

 Free energy of the ion-electron system (eV)
  ---------------------------------------------------
  alpha Z        PSCENC =        75.25431677
  Ewald energy   TEWEN  =    138984.20680078
  -Hartree energ DENC   =   -183078.51017926
  -exchange      EXHF   =         0.00000000
  -V(xc)+E(xc)   XCENC  =     -1694.03109141
  PAW double counting   =     46381.82580061   -42862.00695319
  entropy T*S    EENTRO =        -0.06440904
  eigenvalues    EBANDS =     -3068.74303823
  atomic energy  EATOM  =     45086.50549395
  Solvation  Ediel_sol  =         0.00000000
  ---------------------------------------------------
  free energy    TOTEN  =      -175.56325902 eV

  energy without entropy =     -175.49884997  energy(sigma->0) =     -175.54715676


--------------------------------------------------------------------------------------------------------




--------------------------------------- Iteration      1(  18)  ---------------------------------------


    POTLOK:  cpu time   12.5431: real time   12.5444
    SETDIJ:  cpu time    0.1157: real time    0.1157
    EDDIAG:  cpu time   65.9761: real time   65.9765
  RMM-DIIS:  cpu time  174.9963: real time  174.9992
    ORTHCH:  cpu time   13.0324: real time   13.0323
       DOS:  cpu time    0.0014: real time    0.0014
    CHARGE:  cpu time   24.3685: real time   24.3684
    MIXING:  cpu time    0.9006: real time    0.9006
    --------------------------------------------
      LOOP:  cpu time  291.9340: real time  291.9385

 eigenvalue-minimisations  :   703
 total energy-change (2. order) : 0.1011958E+00  (-0.4142817E-01)
 number of electron     559.9999858 magnetization 
 augmentation part      241.2763739 magnetization 

 Broyden mixing:
  rms(total) = 0.10821E+01    rms(broyden)= 0.10819E+01
  rms(prec ) = 0.12738E+01
  weight for this iteration     100.00

 eigenvalues of (default mixing * dielectric matrix)
  average eigenvalue GAMMA=   0.3167
  1.6960  0.6709  0.3864  0.3864  0.1545  0.1545  0.1311  0.1311  0.1052  0.0819
  0.0819  0.0765  0.0601

 Free energy of the ion-electron system (eV)
  ---------------------------------------------------
  alpha Z        PSCENC =        75.25431677
  Ewald energy   TEWEN  =    138984.20680078
  -Hartree energ DENC   =   -183091.16310447
  -exchange      EXHF   =         0.00000000
  -V(xc)+E(xc)   XCENC  =     -1693.83617671
  PAW double counting   =     46395.96126148   -42875.28586261
  entropy T*S    EENTRO =         0.03966256
  eigenvalues    EBANDS =     -3057.14445493
  atomic energy  EATOM  =     45086.50549395
  Solvation  Ediel_sol  =         0.00000000
  ---------------------------------------------------
  free energy    TOTEN  =      -175.46206318 eV

  energy without entropy =     -175.50172575  energy(sigma->0) =     -175.47197883


--------------------------------------------------------------------------------------------------------




--------------------------------------- Iteration      1(  19)  ---------------------------------------


    POTLOK:  cpu time   12.5711: real time   12.5742
    SETDIJ:  cpu time    0.1236: real time    0.1236
    EDDIAG:  cpu time   66.1950: real time   66.1952
  RMM-DIIS:  cpu time  178.2025: real time  178.2034
    ORTHCH:  cpu time   13.0830: real time   13.0829
       DOS:  cpu time    0.0015: real time    0.0015
    CHARGE:  cpu time   24.4249: real time   24.4249
    MIXING:  cpu time    0.9474: real time    0.9474
    --------------------------------------------
      LOOP:  cpu time  295.5489: real time  295.5530

 eigenvalue-minimisations  :   716
 total energy-change (2. order) : 0.4950257E-01  (-0.3240170E-01)
 number of electron     559.9999854 magnetization 
 augmentation part      241.1769350 magnetization 

 Broyden mixing:
  rms(total) = 0.10362E+01    rms(broyden)= 0.10360E+01
  rms(prec ) = 0.12394E+01
  weight for this iteration     100.00

 eigenvalues of (default mixing * dielectric matrix)
  average eigenvalue GAMMA=   0.3236
  1.7395  0.8300  0.4209  0.4209  0.1786  0.1786  0.1321  0.1321  0.0972  0.0972
  0.0891  0.0891  0.0691  0.0556

 Free energy of the ion-electron system (eV)
  ---------------------------------------------------
  alpha Z        PSCENC =        75.25431677
  Ewald energy   TEWEN  =    138984.20680078
  -Hartree energ DENC   =   -183111.57330643
  -exchange      EXHF   =         0.00000000
  -V(xc)+E(xc)   XCENC  =     -1693.57914524
  PAW double counting   =     46412.35650448   -42890.52655410
  entropy T*S    EENTRO =         0.03056486
  eigenvalues    EBANDS =     -3038.08723568
  atomic energy  EATOM  =     45086.50549395
  Solvation  Ediel_sol  =         0.00000000
  ---------------------------------------------------
  free energy    TOTEN  =      -175.41256061 eV

  energy without entropy =     -175.44312547  energy(sigma->0) =     -175.42020183


--------------------------------------------------------------------------------------------------------




--------------------------------------- Iteration      1(  20)  ---------------------------------------


    POTLOK:  cpu time   12.4931: real time   12.4962
    SETDIJ:  cpu time    0.1213: real time    0.1213
    EDDIAG:  cpu time   66.1528: real time   66.1531
  RMM-DIIS:  cpu time  174.2122: real time  174.2188
    ORTHCH:  cpu time   13.0050: real time   13.0050
       DOS:  cpu time    0.0015: real time    0.0015
    CHARGE:  cpu time   24.3881: real time   24.3880
    MIXING:  cpu time    0.9901: real time    0.9901
    --------------------------------------------
      LOOP:  cpu time  291.3641: real time  291.3739

 eigenvalue-minimisations  :   700
 total energy-change (2. order) : 0.2138545E+00  (-0.3094493E-01)
 number of electron     559.9999848 magnetization 
 augmentation part      241.1815362 magnetization 

 Broyden mixing:
  rms(total) = 0.91867E+00    rms(broyden)= 0.91848E+00
  rms(prec ) = 0.10905E+01
  weight for this iteration     100.00

 eigenvalues of (default mixing * dielectric matrix)
  average eigenvalue GAMMA=   0.3252
  1.7827  0.9438  0.4405  0.4405  0.2010  0.2010  0.1319  0.1319  0.1166  0.1166
  0.0858  0.0858  0.0758  0.0689  0.0548

 Free energy of the ion-electron system (eV)
  ---------------------------------------------------
  alpha Z        PSCENC =        75.25431677
  Ewald energy   TEWEN  =    138984.20680078
  -Hartree energ DENC   =   -183129.60324833
  -exchange      EXHF   =         0.00000000
  -V(xc)+E(xc)   XCENC  =     -1693.33866892
  PAW double counting   =     46426.05447461   -42903.07375977
  entropy T*S    EENTRO =         0.01726294
  eigenvalues    EBANDS =     -3021.22137815
  atomic energy  EATOM  =     45086.50549395
  Solvation  Ediel_sol  =         0.00000000
  ---------------------------------------------------
  free energy    TOTEN  =      -175.19870611 eV

  energy without entropy =     -175.21596905  energy(sigma->0) =     -175.20302185


--------------------------------------------------------------------------------------------------------




--------------------------------------- Iteration      1(  21)  ---------------------------------------


    POTLOK:  cpu time   12.6458: real time   12.6486
    SETDIJ:  cpu time    0.1189: real time    0.1189
    EDDIAG:  cpu time   66.0639: real time   66.0647
  RMM-DIIS:  cpu time  173.8522: real time  173.8561
    ORTHCH:  cpu time   12.9828: real time   12.9828
       DOS:  cpu time    0.0014: real time    0.0014
    CHARGE:  cpu time   24.2886: real time   24.2886
    MIXING:  cpu time    1.0577: real time    1.0577
    --------------------------------------------
      LOOP:  cpu time  291.0114: real time  291.0189

 eigenvalue-minimisations  :   701
 total energy-change (2. order) : 0.1538084E+00  (-0.2166061E-01)
 number of electron     559.9999855 magnetization 
 augmentation part      241.1626312 magnetization 

 Broyden mixing:
  rms(total) = 0.70127E+00    rms(broyden)= 0.70106E+00
  rms(prec ) = 0.83644E+00
  weight for this iteration     100.00

 eigenvalues of (default mixing * dielectric matrix)
  average eigenvalue GAMMA=   0.3254
  1.8270  1.0129  0.4463  0.4463  0.2303  0.2303  0.1324  0.1324  0.1429  0.1231
  0.1231  0.0846  0.0846  0.0678  0.0678  0.0540

 Free energy of the ion-electron system (eV)
  ---------------------------------------------------
  alpha Z        PSCENC =        75.25431677
  Ewald energy   TEWEN  =    138984.20680078
  -Hartree energ DENC   =   -183144.06959678
  -exchange      EXHF   =         0.00000000
  -V(xc)+E(xc)   XCENC  =     -1693.14714132
  PAW double counting   =     46434.36153532   -42910.53078625
  entropy T*S    EENTRO =         0.00710636
  eigenvalues    EBANDS =     -3007.63262651
  atomic energy  EATOM  =     45086.50549395
  Solvation  Ediel_sol  =         0.00000000
  ---------------------------------------------------
  free energy    TOTEN  =      -175.04489768 eV

  energy without entropy =     -175.05200404  energy(sigma->0) =     -175.04667427


--------------------------------------------------------------------------------------------------------




--------------------------------------- Iteration      1(  22)  ---------------------------------------


    POTLOK:  cpu time   12.5394: real time   12.5423
    SETDIJ:  cpu time    0.1167: real time    0.1167
    EDDIAG:  cpu time   65.9793: real time   65.9797
  RMM-DIIS:  cpu time  172.2254: real time  172.2321
    ORTHCH:  cpu time   13.0503: real time   13.0504
       DOS:  cpu time    0.0015: real time    0.0015
    CHARGE:  cpu time   24.4362: real time   24.4363
    MIXING:  cpu time    1.1782: real time    1.1782
    --------------------------------------------
      LOOP:  cpu time  289.5269: real time  289.5370

 eigenvalue-minimisations  :   693
 total energy-change (2. order) : 0.6067458E-01  (-0.1632237E-01)
 number of electron     559.9999853 magnetization 
 augmentation part      241.1272657 magnetization 

 Broyden mixing:
  rms(total) = 0.69341E+00    rms(broyden)= 0.69326E+00
  rms(prec ) = 0.82353E+00
  weight for this iteration     100.00

 eigenvalues of (default mixing * dielectric matrix)
  average eigenvalue GAMMA=   0.3386
  1.9409  1.1086  0.5924  0.3942  0.3942  0.1857  0.1857  0.1326  0.1326  0.1238
  0.1238  0.0877  0.0877  0.0749  0.0749  0.0627  0.0535

 Free energy of the ion-electron system (eV)
  ---------------------------------------------------
  alpha Z        PSCENC =        75.25431677
  Ewald energy   TEWEN  =    138984.20680078
  -Hartree energ DENC   =   -183159.61118279
  -exchange      EXHF   =         0.00000000
  -V(xc)+E(xc)   XCENC  =     -1692.97329406
  PAW double counting   =     46439.21706999   -42914.60006552
  entropy T*S    EENTRO =        -0.02303244
  eigenvalues    EBANDS =     -2992.96032978
  atomic energy  EATOM  =     45086.50549395
  Solvation  Ediel_sol  =         0.00000000
  ---------------------------------------------------
  free energy    TOTEN  =      -174.98422310 eV

  energy without entropy =     -174.96119067  energy(sigma->0) =     -174.97846499


--------------------------------------------------------------------------------------------------------




--------------------------------------- Iteration      1(  23)  ---------------------------------------


    POTLOK:  cpu time   12.5064: real time   12.5100
    SETDIJ:  cpu time    0.1204: real time    0.1204
    EDDIAG:  cpu time   66.2173: real time   66.2182
  RMM-DIIS:  cpu time  173.5892: real time  173.5915
    ORTHCH:  cpu time   13.0294: real time   13.0294
       DOS:  cpu time    0.0015: real time    0.0015
    CHARGE:  cpu time   24.3115: real time   24.3115
    MIXING:  cpu time    1.1882: real time    1.1882
    --------------------------------------------
      LOOP:  cpu time  290.9638: real time  290.9706

 eigenvalue-minimisations  :   698
 total energy-change (2. order) : 0.2601208E-01  (-0.1709475E-01)
 number of electron     559.9999849 magnetization 
 augmentation part      241.0875075 magnetization 

 Broyden mixing:
  rms(total) = 0.62521E+00    rms(broyden)= 0.62504E+00
  rms(prec ) = 0.71383E+00
  weight for this iteration     100.00

 eigenvalues of (default mixing * dielectric matrix)
  average eigenvalue GAMMA=   0.3469
  2.0485  1.0887  0.8126  0.4178  0.4178  0.1986  0.1986  0.1321  0.1321  0.1257
[...]
 -0.007  -0.012   0.004   0.004   0.006  -0.006  -0.012   0.003
 -0.011  -0.021   0.006   0.007   0.009  -0.011  -0.020   0.006
 -0.014  -0.005   0.013   0.000   0.022  -0.014  -0.004   0.012
  0.000  -0.023  -0.006  -0.015  -0.000   0.000  -0.022  -0.005
 -0.022   0.000   0.009  -0.005  -0.016  -0.022   0.000   0.008
 -0.017  -0.006   0.015   0.000   0.027  -0.017  -0.006   0.015
  0.000  -0.027  -0.007  -0.018  -0.000   0.000  -0.027  -0.007
 -0.027   0.000   0.010  -0.006  -0.019  -0.026   0.000   0.010
 total augmentation occupancy for first ion, spin component:           1
  1.532  -0.028   0.006   0.017   0.025   0.078  -0.009  -0.002   0.035  -0.010   0.091  -0.032   0.012   0.001   0.002  -0.019
 -0.028   1.399   0.029   0.071  -0.002  -0.008   0.073   0.011  -0.014  -0.007   0.225  -0.068   0.018   0.003   0.002  -0.006
  0.006   0.029   1.539   0.002   0.001  -0.002   0.013   0.075  -0.013   0.017  -0.051   0.017  -0.003  -0.007  -0.005   0.016
  0.017   0.071   0.002   1.333   0.042   0.033  -0.013  -0.012   0.093  -0.022  -0.077   0.020  -0.002  -0.008  -0.003   0.001
  0.025  -0.002   0.001   0.042   1.436  -0.010  -0.007   0.016  -0.021   0.068  -0.094   0.031  -0.003  -0.009  -0.010   0.027
  0.078  -0.008  -0.002   0.033  -0.010   0.218   0.019  -0.002  -0.045   0.004  -0.048   0.002   0.017  -0.010   0.035  -0.004
 -0.009   0.073   0.013  -0.013  -0.007   0.019   0.264  -0.023  -0.003   0.005  -0.110   0.007  -0.001   0.051  -0.010  -0.000
 -0.002   0.011   0.075  -0.012   0.016  -0.002  -0.023   0.216   0.014  -0.020   0.028  -0.001  -0.012   0.009  -0.018   0.003
  0.035  -0.014  -0.013   0.093  -0.021  -0.045  -0.003   0.014   0.261   0.007   0.042  -0.004  -0.009   0.036   0.004   0.000
 -0.010  -0.007   0.017  -0.022   0.068   0.004   0.005  -0.020   0.007   0.259   0.046  -0.002  -0.038   0.002   0.049   0.007
  0.091   0.225  -0.051  -0.077  -0.094  -0.048  -0.110   0.028   0.042   0.046   0.950  -0.141   0.084   0.013   0.063  -0.013
 -0.032  -0.068   0.017   0.020   0.031   0.002   0.007  -0.001  -0.004  -0.002  -0.141   0.023  -0.014  -0.003  -0.010   0.003
  0.012   0.018  -0.003  -0.002  -0.003   0.017  -0.001  -0.012  -0.009  -0.038   0.084  -0.014   0.029  -0.008  -0.004  -0.003
  0.001   0.003  -0.007  -0.008  -0.009  -0.010   0.051   0.009   0.036   0.002   0.013  -0.003  -0.008   0.035   0.004   0.000
  0.002   0.002  -0.005  -0.003  -0.010   0.035  -0.010  -0.018   0.004   0.049   0.063  -0.010  -0.004   0.004   0.034  -0.000
 -0.019  -0.006   0.016   0.001   0.027  -0.004  -0.000   0.003   0.000   0.007  -0.013   0.003  -0.003   0.000  -0.000   0.001
  0.001  -0.028  -0.007  -0.018   0.001   0.001  -0.008  -0.001  -0.006  -0.000  -0.003   0.001   0.000  -0.003  -0.000   0.000
 -0.028   0.001   0.012  -0.005  -0.019  -0.006   0.001   0.003  -0.001  -0.007  -0.008   0.001  -0.000  -0.000  -0.003   0.000


------------------------ aborting loop because EDIFF is reached ----------------------------------------


    CHARGE:  cpu time   24.6948: real time   24.6946
    FORLOC:  cpu time    6.7205: real time    6.7205
    FORNL :  cpu time   63.8934: real time   63.8967
    STRESS:  cpu time  193.6000: real time  193.6039
    FORCOR:  cpu time   21.6051: real time   21.6050
    FORHAR:  cpu time    9.6746: real time    9.6746
    MIXING:  cpu time    4.1038: real time    4.1079
    OFIELD:  cpu time    0.0000: real time    0.0000

  FORCE on cell =-STRESS in cart. coord.  units (eV):
  Direction    XX          YY          ZZ          XY          YZ          ZX
  --------------------------------------------------------------------------------------
  Alpha Z    75.25432    75.25432    75.25432
  Ewald   44476.21807 44486.73186 50021.15098   -21.21230   275.70690  -236.30465
  Hartree 59417.12103 59423.93560 64490.17508   -12.14628   216.65381  -185.55438
  E(xc)   -2906.84103 -2906.81237 -2904.10049    -0.07001     0.38312    -0.33126
  Local  ************************************    31.36030  -481.89005   412.87727
  n-local  -876.62317  -876.55138  -876.21969    -0.14282     1.41359    -1.23079
  augment  4106.92781  4106.76298  4095.21344     0.48634    -2.56189     2.22418
  Kinetic  7823.90192  7823.45444  7776.43555     1.31906    -7.14536     6.13755
  Fock        0.00000     0.00000     0.00000     0.00000     0.00000     0.00000
  -------------------------------------------------------------------------------------
  Total    -112.61274  -112.49498   -98.20567    -0.40571     2.56011    -2.18209
  in kB      -6.68243    -6.67544    -5.82752    -0.02407     0.15192    -0.12948
  external pressure =       -6.40 kB  Pullay stress =        0.00 kB


 VOLUME and BASIS-vectors are now :
 -----------------------------------------------------------------------------
  energy-cutoff  :      400.00
  volume of cell :    27000.00
      direct lattice vectors                 reciprocal lattice vectors
    30.000000000  0.000000000  0.000000000     0.033333333  0.000000000  0.000000000
     0.000000000 30.000000000  0.000000000     0.000000000  0.033333333  0.000000000
     0.000000000  0.000000000 30.000000000     0.000000000  0.000000000  0.033333333

  length of vectors
    30.000000000 30.000000000 30.000000000     0.033333333  0.033333333  0.033333333


 FORCES acting on ions
    electron-ion (+dipol)            ewald-force                    non-local-force                 convergence-correction
 -----------------------------------------------------------------------------------------------
   0.395E+03 0.975E+03 0.423E+03   -.393E+03 -.972E+03 -.422E+03   -.150E+01 -.184E+01 -.197E+00   -.586E-02 -.171E-02 0.339E-02
   -.975E+03 -.395E+03 0.423E+03   0.972E+03 0.392E+03 -.423E+03   0.184E+01 0.150E+01 -.196E+00   0.213E-02 0.156E-02 0.641E-02
   -.395E+03 0.975E+03 0.423E+03   0.393E+03 -.972E+03 -.422E+03   0.150E+01 -.184E+01 -.203E+00   -.665E-03 -.341E-02 0.122E-02
   0.975E+03 -.395E+03 0.424E+03   -.972E+03 0.393E+03 -.423E+03   -.183E+01 0.150E+01 -.186E+00   0.750E-05 0.211E-02 0.292E-02
   -.250E+00 0.588E+03 0.968E+03   0.250E+00 -.587E+03 -.965E+03   0.135E-02 -.290E+00 -.238E+01   -.281E-02 -.946E-03 -.208E-02
   -.513E+01 0.642E+03 -.931E+03   0.516E+01 -.641E+03 0.927E+03   -.174E-01 -.180E+00 0.247E+01   -.596E-02 -.908E-03 0.648E-03
   -.458E+00 0.114E+04 0.847E+01   0.458E+00 -.114E+04 -.843E+01   0.100E-02 -.310E+01 -.280E-01   -.321E-02 -.188E-02 0.500E-02
   0.114E+04 0.639E+00 0.102E+02   -.114E+04 -.635E+00 -.101E+02   -.310E+01 -.138E-02 -.477E-01   0.192E-02 -.629E-04 0.237E-02
   -.114E+04 0.545E+00 0.858E+01   0.114E+04 -.542E+00 -.855E+01   0.310E+01 -.118E-02 -.296E-01   -.271E-04 0.119E-02 0.426E-02
   -.551E+00 -.114E+04 0.103E+02   0.551E+00 0.114E+04 -.102E+02   0.124E-02 0.310E+01 -.494E-01   -.361E-02 -.544E-03 0.153E-02
   -.580E+03 0.580E+03 0.816E+03   0.577E+03 -.577E+03 -.812E+03   0.155E+01 -.156E+01 -.221E+01   0.216E-02 -.367E-02 -.236E-02
   -.603E+03 0.604E+03 -.795E+03   0.601E+03 -.602E+03 0.792E+03   0.156E+01 -.156E+01 0.224E+01   -.223E-02 -.142E-02 -.838E-04
   0.579E+03 -.579E+03 0.816E+03   -.577E+03 0.577E+03 -.813E+03   -.156E+01 0.156E+01 -.221E+01   0.690E-03 0.389E-02 0.281E-02
   0.614E+03 -.614E+03 -.782E+03   -.612E+03 0.611E+03 0.779E+03   -.151E+01 0.151E+01 0.224E+01   -.197E-02 -.143E-03 -.149E-02
   0.579E+03 0.580E+03 0.816E+03   -.577E+03 -.577E+03 -.813E+03   -.155E+01 -.156E+01 -.221E+01   -.479E-02 -.302E-03 0.102E-02
   0.604E+03 0.611E+03 -.790E+03   -.602E+03 -.609E+03 0.787E+03   -.154E+01 -.154E+01 0.224E+01   -.561E-03 -.464E-03 -.559E-03
   -.580E+03 -.579E+03 0.816E+03   0.577E+03 0.577E+03 -.813E+03   0.156E+01 0.155E+01 -.221E+01   -.227E-02 0.374E-02 0.201E-03
   -.612E+03 -.605E+03 -.790E+03   0.609E+03 0.602E+03 0.786E+03   0.153E+01 0.154E+01 0.224E+01   0.107E-03 0.322E-02 -.753E-03
   0.398E+03 0.989E+03 -.400E+03   -.396E+03 -.986E+03 0.400E+03   -.153E+01 -.183E+01 0.221E+00   -.404E-02 0.224E-02 0.507E-02
   -.989E+03 -.398E+03 -.400E+03   0.986E+03 0.396E+03 0.399E+03   0.183E+01 0.154E+01 0.223E+00   0.309E-02 -.133E-02 -.226E-02
   -.323E+03 0.323E+03 0.463E+03   0.324E+03 -.324E+03 -.464E+03   -.368E+00 0.368E+00 0.514E+00   -.224E-02 0.511E-02 0.593E-02
   0.975E+03 0.396E+03 0.424E+03   -.972E+03 -.393E+03 -.423E+03   -.184E+01 -.149E+01 -.190E+00   -.278E-02 0.376E-03 0.441E-02
   -.396E+03 -.975E+03 0.424E+03   0.393E+03 0.972E+03 -.423E+03   0.149E+01 0.184E+01 -.189E+00   -.675E-02 0.511E-03 0.141E-02
   -.400E+03 0.988E+03 -.401E+03   0.398E+03 -.985E+03 0.401E+03   0.154E+01 -.184E+01 0.203E+00   -.383E-02 -.752E-03 0.487E-02
   0.991E+03 -.399E+03 -.395E+03   -.988E+03 0.397E+03 0.395E+03   -.182E+01 0.155E+01 0.238E+00   -.852E-03 -.702E-03 -.610E-03
   -.975E+03 0.395E+03 0.423E+03   0.972E+03 -.393E+03 -.422E+03   0.184E+01 -.150E+01 -.202E+00   0.444E-02 0.176E-02 0.613E-02
   0.395E+03 -.975E+03 0.424E+03   -.393E+03 0.972E+03 -.423E+03   -.150E+01 0.183E+01 -.185E+00   -.374E-02 0.152E-04 0.126E-02
   0.322E+03 0.323E+03 0.464E+03   -.323E+03 -.324E+03 -.464E+03   0.362E+00 0.362E+00 0.526E+00   -.510E-02 0.283E-02 0.531E-02
   -.901E+00 0.647E+03 0.172E+02   0.906E+00 -.648E+03 -.172E+02   0.118E-02 0.710E+00 -.392E-01   -.536E-02 0.124E-02 0.652E-02
   -.588E+03 0.294E+00 0.968E+03   0.587E+03 -.294E+00 -.965E+03   0.291E+00 -.150E-02 -.238E+01   -.309E-03 0.291E-02 0.114E-02
   -.643E+03 0.619E+01 -.930E+03   0.642E+03 -.622E+01 0.926E+03   0.164E+00 0.205E-01 0.246E+01   0.705E-03 -.274E-03 -.133E-02
   0.588E+03 0.309E+00 0.969E+03   -.587E+03 -.310E+00 -.965E+03   -.302E+00 -.110E-02 -.237E+01   -.338E-02 0.361E-02 0.172E-02
   0.657E+03 0.949E+01 -.912E+03   -.656E+03 -.951E+01 0.908E+03   -.598E-02 0.211E-01 0.236E+01   -.233E-02 -.351E-02 -.116E-02
   0.766E+03 0.767E+03 0.136E+02   -.764E+03 -.765E+03 -.136E+02   -.114E+01 -.114E+01 -.686E-03   -.456E-02 0.467E-03 0.493E-02
   -.767E+03 -.766E+03 0.139E+02   0.765E+03 0.764E+03 -.139E+02   0.114E+01 0.114E+01 -.610E-02   -.443E-03 -.827E-03 0.273E-02
   -.766E+03 0.766E+03 0.122E+02   0.764E+03 -.764E+03 -.123E+02   0.113E+01 -.113E+01 0.310E-01   0.177E-02 0.225E-02 0.547E-02
   0.767E+03 -.766E+03 0.156E+02   -.765E+03 0.764E+03 -.156E+02   -.115E+01 0.115E+01 -.372E-01   -.815E-03 0.188E-02 -.391E-03
   -.296E+00 0.346E+00 0.107E+04   0.285E+00 -.333E+00 -.107E+04   0.104E-01 -.122E-01 -.163E+01   -.409E-02 0.557E-02 0.756E-03
   -.599E+02 0.700E+02 -.748E+03   0.577E+02 -.675E+02 0.756E+03   0.328E+01 -.384E+01 -.144E+02   -.418E-02 -.298E-02 0.163E-02
   0.989E+03 0.402E+03 -.397E+03   -.986E+03 -.400E+03 0.397E+03   -.183E+01 -.155E+01 0.213E+00   0.812E-03 -.103E-02 0.159E-02
   -.402E+03 -.989E+03 -.397E+03   0.400E+03 0.986E+03 0.396E+03   0.155E+01 0.183E+01 0.216E+00   -.261E-02 0.354E-02 -.514E-04
   -.338E+03 0.338E+03 -.414E+03   0.338E+03 -.339E+03 0.415E+03   -.149E+00 0.155E+00 -.700E+00   -.231E-02 0.278E-03 0.144E-02
   0.322E+03 -.322E+03 0.464E+03   -.323E+03 0.323E+03 -.465E+03   0.356E+00 -.356E+00 0.540E+00   -.170E-02 0.626E-02 0.277E-02
   0.333E+03 0.341E+03 -.409E+03   -.334E+03 -.341E+03 0.410E+03   0.226E+00 0.301E+00 -.492E+00   -.491E-02 -.285E-02 0.409E-02
   -.988E+03 0.400E+03 -.401E+03   0.985E+03 -.398E+03 0.400E+03   0.184E+01 -.154E+01 0.202E+00   0.279E-02 0.289E-02 -.143E-02
   0.399E+03 -.991E+03 -.395E+03   -.397E+03 0.988E+03 0.395E+03   -.155E+01 0.182E+01 0.238E+00   -.563E-03 0.132E-02 -.223E-02
   -.323E+03 -.322E+03 0.464E+03   0.324E+03 0.323E+03 -.464E+03   -.362E+00 -.361E+00 0.528E+00   -.479E-02 0.210E-02 0.510E-02
   0.646E+03 0.121E+01 0.198E+02   -.647E+03 -.121E+01 -.197E+02   0.707E+00 -.229E-02 -.686E-01   -.359E-02 0.806E-03 0.264E-02
   -.647E+03 0.107E+01 0.174E+02   0.648E+03 -.107E+01 -.173E+02   -.710E+00 -.148E-02 -.418E-01   0.145E-02 0.240E-02 0.352E-02
   -.262E+00 -.588E+03 0.969E+03   0.266E+00 0.587E+03 -.965E+03   0.101E-02 0.302E+00 -.237E+01   -.577E-02 0.292E-02 0.181E-02
   -.846E+01 -.659E+03 -.910E+03   0.849E+01 0.658E+03 0.906E+03   -.178E-01 -.499E-02 0.235E+01   -.197E-02 0.247E-02 -.587E-03
   -.136E+01 0.159E+01 0.261E+02   0.136E+01 -.159E+01 -.261E+02   -.185E-03 0.235E-03 -.558E-01   -.138E-02 0.294E-02 0.982E-03
   0.336E+03 -.335E+03 -.402E+03   -.336E+03 0.336E+03 0.402E+03   0.359E+00 -.354E+00 -.302E+00   -.420E-02 0.829E-03 -.741E-03
   -.341E+03 -.333E+03 -.408E+03   0.341E+03 0.334E+03 0.409E+03   -.316E+00 -.242E+00 -.462E+00   -.952E-03 0.602E-03 -.167E-02
   -.105E+01 -.646E+03 0.200E+02   0.105E+01 0.647E+03 -.199E+02   0.197E-02 -.707E+00 -.708E-01   -.498E-02 0.275E-02 -.566E-03
   0.325E+02 -.379E+02 -.345E+03   -.325E+02 0.379E+02 0.331E+03   -.572E+00 0.671E+00 0.147E+02   -.101E-02 -.855E-03 -.861E-03
   0.392E+02 -.457E+02 -.832E+03   -.424E+02 0.495E+02 0.898E+03   0.270E+01 -.317E+01 -.606E+02   -.118E-02 -.776E-03 -.132E-02
 -----------------------------------------------------------------------------------------------
   -.560E+01 0.663E+01 0.615E+02   0.711E-12 -.194E-11 -.296E-11   0.571E+01 -.668E+01 -.616E+02   -.109E+00 0.472E-01 0.925E-01
 
 
 POSITION                                       TOTAL-FORCE (eV/Angst)
 -----------------------------------------------------------------------------------
     13.37281      9.84801     12.50759         0.696778      1.109073      0.286226
     20.15199     16.62719     12.50759        -1.109046     -0.696807      0.286214
     16.62719      9.84801     12.50759        -0.695232      1.109766      0.286356
      9.84801     16.62719     12.50759         1.111313     -0.697155      0.284904
     15.00000     11.47521     10.20639        -0.001253      0.400627      1.280825
     15.00000     11.47521     19.79360         0.007982      0.394947     -1.333757
     15.00000      8.28283     15.00000        -0.002593      1.507636      0.011905
      8.28283     15.00000     15.00000         1.504395      0.003145      0.018382
     21.71717     15.00000     15.00000        -1.507515      0.003154      0.012440
     15.00000     21.71717     15.00000        -0.002642     -1.504141      0.018948
     18.35858     11.64142     10.25025        -0.751083      0.751463      1.075409
     18.35858     11.64142     19.74975        -0.743821      0.743871     -1.070414
     11.64142     18.35858     10.25025         0.752981     -0.752573      1.073628
     11.64142     18.35858     19.74975         0.721519     -0.721586     -1.072043
     11.64142     11.64142     10.25025         0.750273      0.753387      1.074581
     11.64142     11.64142     19.74975         0.735646      0.734127     -1.072047
     18.35858     18.35858     10.25025        -0.753382     -0.750277      1.074433
     18.35858     18.35858     19.74975        -0.732030     -0.733621     -1.071885
     13.37281      9.84801     17.49241         0.700306      1.101749     -0.294443
     20.15199     16.62719     17.49241        -1.100925     -0.700457     -0.295573
     16.73751     13.26249     12.54279         0.114663     -0.114513     -0.147735
      9.84801     13.37281     12.50759         1.112073      0.695202      0.283991
     16.62719     20.15199     12.50759        -0.695191     -1.111875      0.283787
     16.62719      9.84801     17.49241        -0.702200      1.103973     -0.288492
      9.84801     16.62719     17.49241         1.094979     -0.702626     -0.302133
     20.15199     13.37281     12.50759        -1.109875      0.695215      0.286259
     13.37281     20.15199     12.50759         0.697315     -1.111601      0.284692
     13.26249     13.26249     12.54279        -0.113696     -0.114382     -0.149891
     15.00000     11.52498     15.00000         0.000034     -0.208378      0.000434
     18.52479     15.00000     10.20639        -0.400926      0.001564      1.280526
     18.52479     15.00000     19.79360        -0.395065     -0.009442     -1.333286
     11.47521     15.00000     10.20640         0.405061      0.001387      1.279757
     11.47521     15.00000     19.79360         0.418693     -0.009430     -1.323271
     11.49535     11.49535     15.00000         0.820755      0.817341     -0.015653
     18.50465     18.50465     15.00000        -0.818356     -0.821800     -0.013279
     18.50465     11.49535     15.00000        -0.811723      0.811567     -0.028656
     11.49535     18.50465     15.00000         0.827347     -0.827482      0.000397
     15.00000     15.00000     10.04368        -0.004986      0.005985      1.186632
     15.00000     15.00000     19.95633         1.106956     -1.294834     -6.728105
      9.84801     13.37281     17.49241         1.099545      0.704717     -0.293731
     16.62719     20.15199     17.49241        -0.704535     -1.098487     -0.294996
     16.73751     13.26249     17.45721         0.081175     -0.084233      0.170710
     13.26249     16.73751     12.54279        -0.113559      0.113579     -0.151514
     13.26249     13.26249     17.45721        -0.118745     -0.149667      0.118267
     20.15199     13.37281     17.49241        -1.103747      0.702853     -0.288476
     13.37281     20.15199     17.49241         0.702934     -1.094403     -0.302221
     16.73751     16.73751     12.54279         0.114511      0.113636     -0.150248
     11.52498     15.00000     15.00000        -0.212767      0.000907     -0.000076
     18.47502     15.00000     15.00000         0.209041      0.000114      0.000330
     15.00000     18.52480     10.20639        -0.001103     -0.405253      1.279898
     15.00000     18.52480     19.79360         0.007478     -0.424559     -1.319873
     15.00000     15.00000     15.00000         0.000929     -0.000960      0.015190
     13.26249     16.73751     17.45721        -0.160319      0.158422      0.092823
     16.73751     16.73751     17.45721         0.154673      0.124928      0.113182
     15.00000     18.47502     15.00000        -0.000756      0.213177     -0.000082
     14.66837     15.38756     21.53322        -0.577309      0.682012      0.469536
     14.61128     15.45427     22.65780        -0.504977      0.581022      5.411220
 -----------------------------------------------------------------------------------
    total drift:                               -0.001410     -0.005825      0.002050


--------------------------------------------------------------------------------------------------------



  FREE ENERGIE OF THE ION-ELECTRON SYSTEM (eV)
  ---------------------------------------------------
  free  energy   TOTEN  =      -174.70251650 eV

  energy  without entropy=     -174.66197793  energy(sigma->0) =     -174.69238186
 


--------------------------------------------------------------------------------------------------------


    POTLOK:  cpu time   13.5917: real time   13.5917


--------------------------------------------------------------------------------------------------------


     LOOP+:  cpu time17178.0173: real time17178.5014
    4ORBIT:  cpu time    0.0000: real time    0.0000

 total amount of memory used by VASP MPI-rank0  5486941. kBytes
=======================================================================

   base      :      30000. kBytes
   nonlr-proj:      17126. kBytes
   fftplans  :     924480. kBytes
   grid      :    1872000. kBytes
   one-center:        886. kBytes
   wavefun   :    2642449. kBytes
 
  
  
 General timing and accounting informations for this job:
 ========================================================
  
                  Total CPU time used (sec):    17249.609
                            User time (sec):    16254.962
                          System time (sec):      994.647
                         Elapsed time (sec):    17250.133
  
                   Maximum memory used (kb):     7178588.
                   Average memory used (kb):           0.
  
                          Minor page faults:    803574794
                          Major page faults:            0
                 Voluntary context switches:          543
