<?xml version="1.0" encoding="ISO-8859-1"?>
<modeling>
 <generator>
  <i name="program" type="string">vasp </i>
  <i name="version" type="string">5.4.4.18Apr17-6-g9f103f2a35  </i>
  <i name="subversion" type="string">(build Sep 03 2018 23:53:05) complex            parallel </i>
  <i name="platform" type="string">LinuxIFC </i>
  <i name="date" type="string">2021 12 02 </i>
  <i name="time" type="string">06:20:01 </i>
 </generator>
 <incar>
  <i type="string" name="SYSTEM"> 6_Pd100_top_free_z(O)</i>
  <i type="int" name="ISTART">     0</i>
  <i type="string" name="PREC">normal   			! encut=max(enmax), ngx,y,z</i>
  <i type="string" name="ALGO"> Fast     			! Mix RMM-DIIS and Dav</i>
  <i type="logical" name="ADDGRID"> F  </i>
  <i type="int" name="ISPIN">     1</i>
  <i type="int" name="ICHARG">     2</i>
  <i type="int" name="NELM">   100</i>
  <i type="int" name="NELMIN">     6</i>
  <i type="int" name="IBRION">     2</i>
  <i name="EDIFF">      0.00010000</i>
  <i name="EDIFFG">     -0.05000000</i>
  <i type="int" name="NSW">     0</i>
  <i type="int" name="ISIF">     2</i>
  <i type="int" name="ISYM">     2</i>
  <i name="ENCUT">    400.00000000</i>
  <i type="string" name="LREAL"> Auto     			! Auto or A projection done</i>
  <i type="int" name="ISMEAR">     2</i>
  <i name="SIGMA">      0.20000000</i>
  <i type="logical" name="LWAVE"> F  </i>
  <i type="logical" name="LCHARG"> F  </i>
  <v type="int" name="KPOINT_BSE">    -1     0     0     0</v>
  <i type="int" name="MAXMEM"> 10000</i>
  <i type="int" name="NELM">   100</i>
  <i type="string" name="GGA"> RP         			! Revised PBE</i>
 </incar>
 <structure name="primitive_cell" >
  <crystal>
   <varray name="basis" >
    <v>      30.00000000       0.00000000       0.00000000 </v>
    <v>       0.00000000      30.00000000       0.00000000 </v>
    <v>       0.00000000       0.00000000      30.00000000 </v>
   </varray>
   <i name="volume">  27000.00000000 </i>
   <varray name="rec_basis" >
    <v>       0.03333333       0.00000000       0.00000000 </v>
    <v>       0.00000000       0.03333333       0.00000000 </v>
    <v>       0.00000000       0.00000000       0.03333333 </v>
   </varray>
  </crystal>
  <varray name="positions" >
   <v>       0.44576020       0.32826710       0.41691983 </v>
   <v>      -0.44576020       0.32826710       0.41691983 </v>
   <v>      -0.50000000       0.38250690       0.34021317 </v>
   <v>      -0.50000000       0.27609440      -0.50000000 </v>
   <v>       0.38804720       0.38804720       0.34167483 </v>
   <v>      -0.50000000       0.38416601      -0.50000000 </v>
   <v>       0.44208300       0.44208300       0.41809300 </v>
   <v>       0.38317830       0.38317830      -0.50000000 </v>
   <v>      -0.44208300       0.44208300       0.41809300 </v>
   <v>       0.44576020       0.32826710      -0.41691977 </v>
   <v>       0.32826705       0.44576024       0.41691983 </v>
   <v>      -0.38804720       0.38804720       0.34167483 </v>
   <v>      -0.38317830       0.38317830      -0.50000000 </v>
   <v>      -0.50000000      -0.50000000       0.33478917 </v>
   <v>      -0.50000000      -0.50000000      -0.50000000 </v>
   <v>      -0.44576020       0.32826710      -0.41691977 </v>
   <v>       0.38250685      -0.49999995       0.34021317 </v>
   <v>       0.44208300       0.44208300      -0.41809297 </v>
   <v>       0.38416599      -0.49999998      -0.50000000 </v>
   <v>      -0.44208300       0.44208300      -0.41809297 </v>
   <v>       0.44208298      -0.44208298       0.41809300 </v>
   <v>       0.32826705       0.44576024      -0.41691977 </v>
   <v>      -0.50000000       0.38250690      -0.34021320 </v>
   <v>       0.32826712      -0.44576022       0.41691983 </v>
   <v>      -0.38250685      -0.49999995       0.34021317 </v>
   <v>      -0.32826705       0.44576024       0.41691983 </v>
   <v>       0.27609443       0.49999998      -0.50000000 </v>
   <v>       0.38804720       0.38804720      -0.34167487 </v>
   <v>      -0.38416599      -0.49999998      -0.50000000 </v>
   <v>      -0.44208298      -0.44208298       0.41809300 </v>
   <v>       0.44208298      -0.44208298      -0.41809297 </v>
   <v>      -0.38804720       0.38804720      -0.34167487 </v>
   <v>       0.38804722      -0.38804722       0.34167483 </v>
   <v>       0.38250685      -0.49999995      -0.34021320 </v>
   <v>       0.32826712      -0.44576022      -0.41691977 </v>
   <v>      -0.32826705       0.44576024      -0.41691977 </v>
   <v>       0.50000000      -0.38250681       0.34021317 </v>
   <v>      -0.50000000      -0.38416596      -0.50000000 </v>
   <v>      -0.44208298      -0.44208298      -0.41809297 </v>
   <v>      -0.50000000      -0.50000000      -0.33478913 </v>
   <v>       0.38317828      -0.38317828      -0.50000000 </v>
   <v>      -0.32826712      -0.44576022       0.41691983 </v>
   <v>      -0.27609443       0.49999998      -0.50000000 </v>
   <v>      -0.38804722      -0.38804722       0.34167483 </v>
   <v>      -0.38250685      -0.49999995      -0.34021320 </v>
   <v>       0.44576027      -0.32826707       0.41691983 </v>
   <v>      -0.38317828      -0.38317828      -0.50000000 </v>
   <v>       0.48894553      -0.48708147      -0.28222607 </v>
   <v>      -0.32826712      -0.44576022      -0.41691977 </v>
   <v>      -0.44576027      -0.32826707       0.41691983 </v>
   <v>       0.38804722      -0.38804722      -0.34167487 </v>
   <v>      -0.50000000      -0.38250681      -0.34021320 </v>
   <v>       0.44576027      -0.32826707      -0.41691977 </v>
   <v>       0.48704273      -0.48485777      -0.24474017 </v>
   <v>      -0.44576027      -0.32826707      -0.41691977 </v>
   <v>      -0.50000000      -0.27609445       0.50000000 </v>
   <v>      -0.38804722      -0.38804722      -0.34167487 </v>
  </varray>
 </structure>
 <varray name="primitive_index" >
  <v type="int" >        1 </v>
  <v type="int" >        3 </v>
  <v type="int" >        5 </v>
  <v type="int" >        7 </v>
  <v type="int" >       15 </v>
  <v type="int" >       29 </v>
  <v type="int" >       28 </v>
  <v type="int" >       34 </v>
  <v type="int" >       21 </v>
  <v type="int" >       19 </v>
  <v type="int" >       22 </v>
  <v type="int" >       11 </v>
  <v type="int" >       36 </v>
  <v type="int" >       38 </v>
  <v type="int" >       52 </v>
  <v type="int" >       24 </v>
  <v type="int" >       32 </v>
  <v type="int" >       44 </v>
  <v type="int" >       48 </v>
  <v type="int" >       42 </v>
  <v type="int" >       43 </v>
  <v type="int" >       40 </v>
  <v type="int" >        6 </v>
  <v type="int" >        4 </v>
  <v type="int" >       30 </v>
  <v type="int" >       26 </v>
  <v type="int" >        8 </v>
  <v type="int" >       16 </v>
  <v type="int" >       49 </v>
  <v type="int" >       47 </v>
  <v type="int" >       53 </v>
  <v type="int" >       12 </v>
  <v type="int" >       13 </v>
  <v type="int" >       33 </v>
  <v type="int" >       25 </v>
  <v type="int" >       45 </v>
  <v type="int" >       50 </v>
  <v type="int" >       55 </v>
  <v type="int" >       54 </v>
  <v type="int" >       39 </v>
  <v type="int" >       37 </v>
  <v type="int" >        2 </v>
  <v type="int" >        9 </v>
  <v type="int" >       17 </v>
  <v type="int" >       31 </v>
  <v type="int" >       27 </v>
  <v type="int" >       35 </v>
  <v type="int" >       56 </v>
  <v type="int" >       20 </v>
  <v type="int" >       23 </v>
  <v type="int" >       14 </v>
  <v type="int" >       51 </v>
  <v type="int" >       46 </v>
  <v type="int" >       57 </v>
  <v type="int" >       41 </v>
  <v type="int" >       10 </v>
  <v type="int" >       18 </v>
 </varray>
 <kpoints>
  <generation param="Monkhorst-Pack">
   <v type="int" name="divisions">       1        1        1 </v>
   <v name="usershift">      0.00000000       0.00000000       0.00000000 </v>
   <v name="genvec1">      1.00000000       0.00000000       0.00000000 </v>
   <v name="genvec2">      0.00000000       1.00000000       0.00000000 </v>
   <v name="genvec3">      0.00000000       0.00000000       1.00000000 </v>
   <v name="shift">      0.00000000       0.00000000       0.00000000 </v>
  </generation>
  <varray name="kpointlist" >
   <v>       0.00000000       0.00000000       0.00000000 </v>
  </varray>
  <varray name="weights" >
   <v>       1.00000000 </v>
  </varray>
 </kpoints>
 <parameters>
  <separator name="general" >
   <i type="string" name="SYSTEM">6_Pd100_top_free_z(O)</i>
   <i type="logical" name="LCOMPAT"> F  </i>
  </separator>
  <separator name="electronic" >
   <i type="string" name="PREC">normal</i>
   <i name="ENMAX">    400.00000000</i>
   <i name="ENAUG">    644.87300000</i>
   <i name="EDIFF">      0.00010000</i>
   <i type="int" name="IALGO">    68</i>
   <i type="int" name="IWAVPR">    10</i>
   <i type="int" name="NBANDS">   336</i>
   <i name="NELECT">    560.00000000</i>
   <i type="int" name="TURBO">     0</i>
   <i type="int" name="IRESTART">     0</i>
   <i type="int" name="NREBOOT">     0</i>
   <i type="int" name="NMIN">     0</i>
   <i name="EREF">      0.00000000</i>
   <separator name="electronic smearing" >
    <i type="int" name="ISMEAR">     2</i>
    <i name="SIGMA">      0.20000000</i>
    <i name="KSPACING">      0.50000000</i>
    <i type="logical" name="KGAMMA"> T  </i>
   </separator>
   <separator name="electronic projectors" >
    <i type="logical" name="LREAL"> T  </i>
    <v name="ROPT">     -0.00050000     -0.00050000     -0.00050000</v>
    <i type="int" name="LMAXPAW">  -100</i>
    <i type="int" name="LMAXMIX">     2</i>
    <i type="logical" name="NLSPLINE"> F  </i>
   </separator>
   <separator name="electronic startup" >
    <i type="int" name="ISTART">     0</i>
    <i type="int" name="ICHARG">     2</i>
    <i type="int" name="INIWAV">     1</i>
   </separator>
   <separator name="electronic spin" >
    <i type="int" name="ISPIN">     1</i>
    <i type="logical" name="LNONCOLLINEAR"> F  </i>
    <v name="MAGMOM">      1.00000000      1.00000000      1.00000000      1.00000000      1.00000000      1.00000000      1.00000000      1.00000000      1.00000000      1.00000000      1.00000000      1.00000000      1.00000000      1.00000000      1.00000000      1.00000000      1.00000000      1.00000000      1.00000000      1.00000000
      1.00000000      1.00000000      1.00000000      1.00000000      1.00000000      1.00000000      1.00000000      1.00000000      1.00000000      1.00000000      1.00000000      1.00000000      1.00000000      1.00000000      1.00000000      1.00000000      1.00000000      1.00000000      1.00000000      1.00000000
      1.00000000      1.00000000      1.00000000      1.00000000      1.00000000      1.00000000      1.00000000      1.00000000      1.00000000      1.00000000      1.00000000      1.00000000      1.00000000      1.00000000      1.00000000      1.00000000      1.00000000</v>
    <i name="NUPDOWN">     -1.00000000</i>
    <i type="logical" name="LSORBIT"> F  </i>
    <v name="SAXIS">      0.00000000      0.00000000      1.00000000</v>
    <i type="logical" name="LSPIRAL"> F  </i>
    <v name="QSPIRAL">      0.00000000      0.00000000      0.00000000</v>
    <i type="logical" name="LZEROZ"> F  </i>
   </separator>
   <separator name="electronic exchange-correlation" >
    <i type="logical" name="LASPH"> F  </i>
    <i type="logical" name="LMETAGGA"> F  </i>
   </separator>
   <separator name="electronic convergence" >
    <i type="int" name="NELM">   100</i>
    <i type="int" name="NELMDL">    -5</i>
    <i type="int" name="NELMIN">     6</i>
    <i name="ENINI">    400.00000000</i>
    <separator name="electronic convergence detail" >
     <i type="logical" name="LDIAG"> T  </i>
     <i type="logical" name="LSUBROT"> F  </i>
     <i name="WEIMIN">      0.00000000</i>
     <i name="EBREAK">      0.00000007</i>
     <i name="DEPER">      0.30000000</i>
     <i type="int" name="NRMM">     4</i>
     <i name="TIME">      0.40000000</i>
    </separator>
   </separator>
   <separator name="electronic mixer" >
    <i name="AMIX">      0.40000000</i>
    <i name="BMIX">      1.00000000</i>
    <i name="AMIN">      0.10000000</i>
    <i name="AMIX_MAG">      1.60000000</i>
    <i name="BMIX_MAG">      1.00000000</i>
    <separator name="electronic mixer details" >
     <i type="int" name="IMIX">     4</i>
     <i type="logical" name="MIXFIRST"> F  </i>
     <i type="int" name="MAXMIX">   -45</i>
     <i name="WC">    100.00000000</i>
     <i type="int" name="INIMIX">     1</i>
     <i type="int" name="MIXPRE">     1</i>
     <i type="int" name="MREMOVE">     5</i>
    </separator>
   </separator>
   <separator name="electronic dipolcorrection" >
    <i type="logical" name="LDIPOL"> F  </i>
    <i type="logical" name="LMONO"> F  </i>
    <i type="int" name="IDIPOL">     0</i>
    <i name="EPSILON">      1.00000000</i>
    <v name="DIPOL">   -100.00000000   -100.00000000   -100.00000000</v>
    <i name="EFIELD">      0.00000000</i>
   </separator>
  </separator>
  <separator name="grids" >
   <i type="int" name="NGX">   150</i>
   <i type="int" name="NGY">   150</i>
   <i type="int" name="NGZ">   150</i>
   <i type="int" name="NGXF">   300</i>
   <i type="int" name="NGYF">   300</i>
   <i type="int" name="NGZF">   300</i>
   <i type="logical" name="ADDGRID"> F  </i>
  </separator>
  <separator name="ionic" >
   <i type="int" name="NSW">     0</i>
   <i type="int" name="IBRION">    -1</i>
   <i type="int" name="MDALGO">     0</i>
   <i type="int" name="ISIF">     2</i>
   <i name="PSTRESS">      0.00000000</i>
   <i name="EDIFFG">     -0.05000000</i>
   <i type="int" name="NFREE">     1</i>
   <i name="POTIM">      0.50000000</i>
   <i name="SMASS">     -3.00000000</i>
   <i name="SCALEE">      1.00000000</i>
  </separator>
  <separator name="ionic md" >
   <i name="TEBEG">      0.00010000</i>
   <i name="TEEND">      0.00010000</i>
   <i type="int" name="NBLOCK">     1</i>
   <i type="int" name="KBLOCK">     1</i>
   <i type="int" name="NPACO">   256</i>
   <i name="APACO">     16.00000000</i>
  </separator>
  <separator name="symmetry" >
   <i type="int" name="ISYM">     2</i>
   <i name="SYMPREC">      0.00001000</i>
  </separator>
  <separator name="dos" >
   <i type="int" name="LORBIT">     0</i>
   <v name="RWIGS">     -1.00000000     -1.00000000     -1.00000000</v>
   <i type="int" name="NEDOS">   301</i>
   <i name="EMIN">     10.00000000</i>
   <i name="EMAX">    -10.00000000</i>
   <i name="EFERMI">      0.00000000</i>
  </separator>
  <separator name="writing" >
   <i type="int" name="NWRITE">     2</i>
   <i type="logical" name="LWAVE"> F  </i>
   <i type="logical" name="LDOWNSAMPLE"> F  </i>
   <i type="logical" name="LCHARG"> F  </i>
   <i type="logical" name="LPARD"> F  </i>
   <i type="logical" name="LVTOT"> F  </i>
   <i type="logical" name="LVHAR"> F  </i>
   <i type="logical" name="LELF"> F  </i>
   <i type="logical" name="LOPTICS"> F  </i>
   <v name="STM">      0.00000000      0.00000000      0.00000000      0.00000000      0.00000000      0.00000000      0.00000000</v>
  </separator>
  <separator name="performance" >
   <i type="int" name="NPAR">     1</i>
   <i type="int" name="NSIM">     4</i>
   <i type="int" name="NBLK">    -1</i>
   <i type="logical" name="LPLANE"> T  </i>
   <i type="logical" name="LSCALAPACK"> T  </i>
   <i type="logical" name="LSCAAWARE"> F  </i>
   <i type="logical" name="LSCALU"> F  </i>
   <i type="logical" name="LASYNC"> F  </i>
   <i type="logical" name="LORBITALREAL"> F  </i>
  </separator>
  <separator name="miscellaneous" >
   <i type="int" name="IDIOT">     3</i>
   <i type="int" name="ISPECIAL">     0</i>
   <i type="logical" name="LMUSIC"> F  </i>
   <v name="POMASS">    106.42000000     12.01100000     16.00000000</v>
   <v name="DARWINR">      0.00000000      0.00000000      0.00000000</v>
   <v name="DARWINV">      1.00000000      1.00000000      1.00000000</v>
   <i type="logical" name="LCORR"> T  </i>
  </separator>
  <i type="logical" name="GGA_COMPAT"> T  </i>
  <i type="logical" name="LBERRY"> F  </i>
  <i type="int" name="ICORELEVEL">     0</i>
  <i type="logical" name="LDAU"> F  </i>
  <i type="int" name="I_CONSTRAINED_M">     0</i>
  <separator name="electronic exchange-correlation" >
   <i type="string" name="GGA">RP</i>
   <i type="int" name="VOSKOWN">     0</i>
   <i type="logical" name="LHFCALC"> F  </i>
   <i type="string" name="PRECFOCK"></i>
   <i type="logical" name="LSYMGRAD"> F  </i>
   <i type="logical" name="LHFONE"> F  </i>
   <i type="logical" name="LRHFCALC"> F  </i>
   <i type="logical" name="LTHOMAS"> F  </i>
   <i type="logical" name="LMODELHF"> F  </i>
   <i name="ENCUT4O">     -1.00000000</i>
   <i type="int" name="EXXOEP">     0</i>
   <i type="int" name="FOURORBIT">     0</i>
   <i name="AEXX">      0.00000000</i>
   <i name="HFALPHA">      0.00000000</i>
   <i name="MCALPHA">      0.00000000</i>
   <i name="ALDAX">      1.00000000</i>
   <i name="AGGAX">      1.00000000</i>
   <i name="ALDAC">      1.00000000</i>
   <i name="AGGAC">      1.00000000</i>
   <i type="int" name="NKREDX">     1</i>
   <i type="int" name="NKREDY">     1</i>
   <i type="int" name="NKREDZ">     1</i>
   <i type="logical" name="SHIFTRED"> F  </i>
   <i type="logical" name="ODDONLY"> F  </i>
   <i type="logical" name="EVENONLY"> F  </i>
   <i type="int" name="LMAXFOCK">     0</i>
   <i type="int" name="NMAXFOCKAE">     0</i>
   <i type="logical" name="LFOCKAEDFT"> F  </i>
   <i name="HFSCREEN">      0.00000000</i>
   <i name="HFSCREENC">      0.00000000</i>
   <i type="int" name="NBANDSGWLOW">     0</i>
  </separator>
  <separator name="vdW DFT" >
   <i type="logical" name="LUSE_VDW"> F  </i>
   <i name="Zab_VDW">     -0.84910000</i>
   <i name="PARAM1">      0.12340000</i>
   <i name="PARAM2">      1.00000000</i>
   <i name="PARAM3">      0.00000000</i>
  </separator>
  <separator name="model GW" >
   <i type="int" name="MODEL_GW">     0</i>
   <i name="MODEL_EPS0">    284.21052632</i>
   <i name="MODEL_ALPHA">      1.00000000</i>
  </separator>
  <separator name="linear response parameters" >
   <i type="logical" name="LEPSILON"> F  </i>
   <i type="logical" name="LRPA"> F  </i>
   <i type="logical" name="LNABLA"> F  </i>
   <i type="logical" name="LVEL"> F  </i>
   <i type="int" name="KINTER">     0</i>
   <i name="CSHIFT">      0.10000000</i>
   <i name="OMEGAMAX">     -1.00000000</i>
   <i name="DEG_THRESHOLD">      0.00200000</i>
   <i name="RTIME">     -0.10000000</i>
   <i name="WPLASMAI">      0.00000000</i>
   <v name="DFIELD">      0.00000000      0.00000000      0.00000000</v>
   <v name="WPLASMA">      0.00000000      0.00000000      0.00000000      0.00000000      0.00000000      0.00000000      0.00000000      0.00000000      0.00000000</v>
  </separator>
  <separator name="orbital magnetization" >
   <i type="logical" name="NUCIND"> F  </i>
   <v name="MAGPOS">      0.00000000      0.00000000      0.00000000</v>
   <i type="logical" name="LNICSALL"> T  </i>
   <i type="logical" name="ORBITALMAG"> F  </i>
   <i type="logical" name="LMAGBLOCH"> F  </i>
   <i type="logical" name="LCHIMAG"> F  </i>
   <i type="logical" name="LGAUGE"> T  </i>
   <i type="int" name="MAGATOM">     0</i>
   <v name="MAGDIPOL">      0.00000000      0.00000000      0.00000000</v>
   <v name="AVECCONST">      0.00000000      0.00000000      0.00000000</v>
  </separator>
  <separator name="response functions" >
   <i type="logical" name="LADDER"> F  </i>
   <i type="logical" name="LRPAFORCE"> F  </i>
   <i type="logical" name="LFXC"> F  </i>
   <i type="logical" name="LHARTREE"> T  </i>
   <i type="int" name="IBSE">     0</i>
   <v type="int" name="KPOINT">    -1     0     0     0</v>
   <i type="logical" name="LTCTE"> F  </i>
   <i type="logical" name="LTETE"> F  </i>
   <i type="logical" name="LTRIPLET"> F  </i>
   <i type="logical" name="LFXCEPS"> F  </i>
   <i type="logical" name="LFXHEG"> F  </i>
   <i type="int" name="NATURALO">     2</i>
   <i type="logical" name="L2ORDER"> F  </i>
   <i type="logical" name="LMP2LT"> F  </i>
   <i type="logical" name="LUSEW"> F  </i>
   <i name="ENCUTGW">     -2.00000000</i>
   <i name="ENCUTGWSOFT">     -2.00000000</i>
   <i name="ENCUTLF">     -1.00000000</i>
   <i type="int" name="LMAXMP2">    -1</i>
   <i name="SCISSOR">      0.00000000</i>
   <i type="int" name="NOMEGA">     0</i>
   <i type="int" name="NOMEGAR">     0</i>
   <i type="int" name="NBANDSGW">    -1</i>
   <i type="int" name="NBANDSO">    -1</i>
   <i type="int" name="NBANDSV">    -1</i>
   <i type="int" name="NELM">   100</i>
   <i type="int" name="NELMHF">     1</i>
   <i type="int" name="DIM">     3</i>
   <i type="int" name="ANTIRES">     0</i>
   <i name="OMEGAMAX">    -30.00000000</i>
   <i name="OMEGAMIN">    -30.00000000</i>
   <i name="OMEGATL">   -200.00000000</i>
   <i type="int" name="OMEGAGRID">   140</i>
   <i name="CSHIFT">     -0.10000000</i>
   <i type="logical" name="SELFENERGY"> F  </i>
   <i type="logical" name="LSPECTRAL"> F  </i>
   <i type="logical" name="LSPECTRALGW"> F  </i>
   <i type="logical" name="LSINGLES"> F  </i>
   <i type="logical" name="LFERMIGW"> F  </i>
   <i type="logical" name="ODDONLYGW"> F  </i>
   <i type="logical" name="EVENONLYGW"> F  </i>
   <i type="int" name="NKREDLFX">     1</i>
   <i type="int" name="NKREDLFY">     1</i>
   <i type="int" name="NKREDLFZ">     1</i>
   <i type="int" name="MAXMEM"> 10000</i>
   <i type="int" name="TELESCOPE">     0</i>
   <i type="int" name="TAUPAR">     1</i>
   <i type="int" name="OMEGAPAR">    -1</i>
   <i name="LAMBDA">      1.00000000</i>
  </separator>
  <separator name="External order field" >
   <i name="OFIELD_KAPPA">      0.00000000</i>
   <v name="OFIELD_K">      0.00000000      0.00000000      0.00000000</v>
   <i name="OFIELD_Q6_NEAR">      0.00000000</i>
   <i name="OFIELD_Q6_FAR">      0.00000000</i>
   <i name="OFIELD_A">      0.00000000</i>
  </separator>
 </parameters>
 <atominfo>
  <atoms>      57 </atoms>
  <types>       3 </types>
  <array name="atoms" >
   <dimension dim="1">ion</dimension>
   <field type="string">element</field>
   <field type="int">atomtype</field>
   <set>
    <rc><c>Pd</c><c>   1</c></rc>
    <rc><c>Pd</c><c>   1</c></rc>
    <rc><c>Pd</c><c>   1</c></rc>
    <rc><c>Pd</c><c>   1</c></rc>
    <rc><c>Pd</c><c>   1</c></rc>
    <rc><c>Pd</c><c>   1</c></rc>
    <rc><c>Pd</c><c>   1</c></rc>
    <rc><c>Pd</c><c>   1</c></rc>
    <rc><c>Pd</c><c>   1</c></rc>
    <rc><c>Pd</c><c>   1</c></rc>
    <rc><c>Pd</c><c>   1</c></rc>
    <rc><c>Pd</c><c>   1</c></rc>
    <rc><c>Pd</c><c>   1</c></rc>
    <rc><c>Pd</c><c>   1</c></rc>
    <rc><c>Pd</c><c>   1</c></rc>
    <rc><c>Pd</c><c>   1</c></rc>
    <rc><c>Pd</c><c>   1</c></rc>
    <rc><c>Pd</c><c>   1</c></rc>
    <rc><c>Pd</c><c>   1</c></rc>
    <rc><c>Pd</c><c>   1</c></rc>
    <rc><c>Pd</c><c>   1</c></rc>
    <rc><c>Pd</c><c>   1</c></rc>
    <rc><c>Pd</c><c>   1</c></rc>
    <rc><c>Pd</c><c>   1</c></rc>
    <rc><c>Pd</c><c>   1</c></rc>
    <rc><c>Pd</c><c>   1</c></rc>
    <rc><c>Pd</c><c>   1</c></rc>
    <rc><c>Pd</c><c>   1</c></rc>
    <rc><c>Pd</c><c>   1</c></rc>
    <rc><c>Pd</c><c>   1</c></rc>
    <rc><c>Pd</c><c>   1</c></rc>
    <rc><c>Pd</c><c>   1</c></rc>
    <rc><c>Pd</c><c>   1</c></rc>
    <rc><c>Pd</c><c>   1</c></rc>
    <rc><c>Pd</c><c>   1</c></rc>
    <rc><c>Pd</c><c>   1</c></rc>
    <rc><c>Pd</c><c>   1</c></rc>
    <rc><c>Pd</c><c>   1</c></rc>
    <rc><c>Pd</c><c>   1</c></rc>
    <rc><c>Pd</c><c>   1</c></rc>
    <rc><c>Pd</c><c>   1</c></rc>
    <rc><c>Pd</c><c>   1</c></rc>
    <rc><c>Pd</c><c>   1</c></rc>
    <rc><c>Pd</c><c>   1</c></rc>
    <rc><c>Pd</c><c>   1</c></rc>
    <rc><c>Pd</c><c>   1</c></rc>
    <rc><c>Pd</c><c>   1</c></rc>
    <rc><c>Pd</c><c>   1</c></rc>
    <rc><c>Pd</c><c>   1</c></rc>
    <rc><c>Pd</c><c>   1</c></rc>
    <rc><c>Pd</c><c>   1</c></rc>
    <rc><c>Pd</c><c>   1</c></rc>
    <rc><c>Pd</c><c>   1</c></rc>
    <rc><c>Pd</c><c>   1</c></rc>
    <rc><c>Pd</c><c>   1</c></rc>
    <rc><c>C </c><c>   2</c></rc>
    <rc><c>O </c><c>   3</c></rc>
   </set>
  </array>
  <array name="atomtypes" >
   <dimension dim="1">type</dimension>
   <field type="int">atomspertype</field>
   <field type="string">element</field>
   <field>mass</field>
   <field>valence</field>
   <field type="string">pseudopotential</field>
   <set>
    <rc><c>  55</c><c>Pd</c><c>    106.42000000</c><c>     10.00000000</c><c>  PAW_PBE Pd 04Jan2005                  </c></rc>
    <rc><c>   1</c><c>C </c><c>     12.01100000</c><c>      4.00000000</c><c>  PAW_PBE C 08Apr2002                   </c></rc>
    <rc><c>   1</c><c>O </c><c>     16.00000000</c><c>      6.00000000</c><c>  PAW_PBE O 08Apr2002                   </c></rc>
   </set>
  </array>
 </atominfo>
 <structure name="initialpos" >
  <crystal>
   <varray name="basis" >
    <v>      30.00000000       0.00000000       0.00000000 </v>
    <v>       0.00000000      30.00000000       0.00000000 </v>
    <v>       0.00000000       0.00000000      30.00000000 </v>
   </varray>
   <i name="volume">  27000.00000000 </i>
   <varray name="rec_basis" >
    <v>       0.03333333       0.00000000       0.00000000 </v>
    <v>       0.00000000       0.03333333       0.00000000 </v>
    <v>       0.00000000       0.00000000       0.03333333 </v>
   </varray>
  </crystal>
  <varray name="positions" >
   <v>       0.44576020       0.32826710       0.41691983 </v>
   <v>       0.67173288       0.55423978       0.41691983 </v>
   <v>       0.55423980       0.32826710       0.41691983 </v>
   <v>       0.32826712       0.55423978       0.41691983 </v>
   <v>       0.50000000       0.38250690       0.34021317 </v>
   <v>       0.50000000       0.38250690       0.65978680 </v>
   <v>       0.50000000       0.27609440       0.50000000 </v>
   <v>       0.27609443       0.49999998       0.50000000 </v>
   <v>       0.72390557       0.49999998       0.50000000 </v>
   <v>       0.50000000       0.72390555       0.50000000 </v>
   <v>       0.61195280       0.38804720       0.34167483 </v>
   <v>       0.61195280       0.38804720       0.65832513 </v>
   <v>       0.38804722       0.61195278       0.34167483 </v>
   <v>       0.38804722       0.61195278       0.65832513 </v>
   <v>       0.38804720       0.38804720       0.34167483 </v>
   <v>       0.38804720       0.38804720       0.65832513 </v>
   <v>       0.61195278       0.61195278       0.34167483 </v>
   <v>       0.61195278       0.61195278       0.65832513 </v>
   <v>       0.44576020       0.32826710       0.58308023 </v>
   <v>       0.67173288       0.55423978       0.58308023 </v>
   <v>       0.55791699       0.44208301       0.41809300 </v>
   <v>       0.32826705       0.44576024       0.41691983 </v>
   <v>       0.55423973       0.67173293       0.41691983 </v>
   <v>       0.55423980       0.32826710       0.58308023 </v>
   <v>       0.32826712       0.55423978       0.58308023 </v>
   <v>       0.67173295       0.44576024       0.41691983 </v>
   <v>       0.44576027       0.67173293       0.41691983 </v>
   <v>       0.44208301       0.44208301       0.41809300 </v>
   <v>       0.50000000       0.38416601       0.50000000 </v>
   <v>       0.61749315       0.50000005       0.34021317 </v>
   <v>       0.61749315       0.50000005       0.65978680 </v>
   <v>       0.38250685       0.50000005       0.34021317 </v>
   <v>       0.38250685       0.50000005       0.65978680 </v>
   <v>       0.38317830       0.38317830       0.50000000 </v>
   <v>       0.61682172       0.61682172       0.50000000 </v>
   <v>       0.61682170       0.38317830       0.50000000 </v>
   <v>       0.38317828       0.61682172       0.50000000 </v>
   <v>       0.50000000       0.50000000       0.33478917 </v>
   <v>       0.50000000       0.50000000       0.66521087 </v>
   <v>       0.32826705       0.44576024       0.58308023 </v>
   <v>       0.55423973       0.67173293       0.58308023 </v>
   <v>       0.55791699       0.44208301       0.58190703 </v>
   <v>       0.44208298       0.55791702       0.41809300 </v>
   <v>       0.44208301       0.44208301       0.58190703 </v>
   <v>       0.67173295       0.44576024       0.58308023 </v>
   <v>       0.44576027       0.67173293       0.58308023 </v>
   <v>       0.55791702       0.55791702       0.41809300 </v>
   <v>       0.38416599       0.50000002       0.50000000 </v>
   <v>       0.61583401       0.50000002       0.50000000 </v>
   <v>       0.50000000       0.61749319       0.34021317 </v>
   <v>       0.50000000       0.61749319       0.65978680 </v>
   <v>       0.50000000       0.50000000       0.50000000 </v>
   <v>       0.44208298       0.55791702       0.58190703 </v>
   <v>       0.55791702       0.55791702       0.58190703 </v>
   <v>       0.50000000       0.61583404       0.50000000 </v>
   <v>       0.48894553       0.51291853       0.71777393 </v>
   <v>       0.48704273       0.51514223       0.75525983 </v>
  </varray>
  <varray name="selective"  type="logical" >
   <v type="logical" >  F  F  F </v>
   <v type="logical" >  F  F  F </v>
   <v type="logical" >  F  F  F </v>
   <v type="logical" >  F  F  F </v>
   <v type="logical" >  F  F  F </v>
   <v type="logical" >  F  F  F </v>
   <v type="logical" >  F  F  F </v>
   <v type="logical" >  F  F  F </v>
   <v type="logical" >  F  F  F </v>
   <v type="logical" >  F  F  F </v>
   <v type="logical" >  F  F  F </v>
   <v type="logical" >  F  F  F </v>
   <v type="logical" >  F  F  F </v>
   <v type="logical" >  F  F  F </v>
   <v type="logical" >  F  F  F </v>
   <v type="logical" >  F  F  F </v>
   <v type="logical" >  F  F  F </v>
   <v type="logical" >  F  F  F </v>
   <v type="logical" >  F  F  F </v>
   <v type="logical" >  F  F  F </v>
   <v type="logical" >  F  F  F </v>
   <v type="logical" >  F  F  F </v>
   <v type="logical" >  F  F  F </v>
   <v type="logical" >  F  F  F </v>
   <v type="logical" >  F  F  F </v>
   <v type="logical" >  F  F  F </v>
   <v type="logical" >  F  F  F </v>
   <v type="logical" >  F  F  F </v>
   <v type="logical" >  F  F  F </v>
   <v type="logical" >  F  F  F </v>
   <v type="logical" >  F  F  F </v>
   <v type="logical" >  F  F  F </v>
   <v type="logical" >  F  F  F </v>
   <v type="logical" >  F  F  F </v>
   <v type="logical" >  F  F  F </v>
   <v type="logical" >  F  F  F </v>
   <v type="logical" >  F  F  F </v>
   <v type="logical" >  F  F  F </v>
   <v type="logical" >  F  F  F </v>
   <v type="logical" >  F  F  F </v>
   <v type="logical" >  F  F  F </v>
   <v type="logical" >  F  F  F </v>
   <v type="logical" >  F  F  F </v>
   <v type="logical" >  F  F  F </v>
   <v type="logical" >  F  F  F </v>
   <v type="logical" >  F  F  F </v>
   <v type="logical" >  F  F  F </v>
   <v type="logical" >  F  F  F </v>
   <v type="logical" >  F  F  F </v>
   <v type="logical" >  F  F  F </v>
   <v type="logical" >  F  F  F </v>
   <v type="logical" >  F  F  F </v>
   <v type="logical" >  F  F  F </v>
   <v type="logical" >  F  F  F </v>
   <v type="logical" >  F  F  F </v>
   <v type="logical" >  F  F  F </v>
   <v type="logical" >  F  F  F </v>
  </varray>
  <nose>
   <v>      -3.00000000       0.00000000       0.00010000       0.00010000 </v>
  </nose>
 </structure>
 <calculation>
  <scstep>
   <time name="dav">  343.80  343.88</time>
   <time name="total">  357.48  357.56</time>
   <energy>
    <i name="alphaZ">     75.25431677 </i>
    <i name="ewald"> 138984.20680078 </i>
    <i name="hartreedc">-182335.19445973 </i>
    <i name="XCdc">  -1702.46143884 </i>
    <i name="pawpsdc">  44873.02882129 </i>
    <i name="pawaedc"> -41398.84523641 </i>
    <i name="eentropy">     -0.00709313 </i>
    <i name="bandstr">    817.90341883 </i>
    <i name="atom">  45086.50549395 </i>
    <i name="e_fr_energy">   4400.39062352 </i>
    <i name="e_wo_entrp">   4400.39771665 </i>
    <i name="e_0_energy">   4400.39239680 </i>
   </energy>
  </scstep>
  <scstep>
   <time name="dav">  552.11  552.13</time>
   <time name="total">  552.11  552.13</time>
   <energy>
    <i name="e_fr_energy">   2011.06186393 </i>
    <i name="e_wo_entrp">   2011.09821110 </i>
    <i name="e_0_energy">   2011.07095073 </i>
   </energy>
  </scstep>
  <scstep>
   <time name="dav">  454.77  454.77</time>
   <time name="total">  454.77  454.78</time>
   <energy>
    <i name="e_fr_energy">    231.50520528 </i>
    <i name="e_wo_entrp">    231.51408936 </i>
    <i name="e_0_energy">    231.50742630 </i>
   </energy>
  </scstep>
  <scstep>
   <time name="dav">  404.69  404.70</time>
   <time name="total">  404.69  404.70</time>
   <energy>
    <i name="e_fr_energy">   -136.43241974 </i>
    <i name="e_wo_entrp">   -136.48732956 </i>
    <i name="e_0_energy">   -136.44614720 </i>
   </energy>
  </scstep>
  <scstep>
   <time name="dav">  492.90  492.91</time>
   <time name="total">  518.35  518.35</time>
   <energy>
    <i name="e_fr_energy">   -180.62039214 </i>
    <i name="e_wo_entrp">   -181.14465515 </i>
    <i name="e_0_energy">   -180.75145789 </i>
   </energy>
  </scstep>
  <scstep>
   <time name="diag">   67.66   67.66</time>
   <time name="diis">  177.59  177.59</time>
   <time name="orth">   13.01   13.01</time>
   <time name="total">  296.57  296.57</time>
   <energy>
    <i name="e_fr_energy">   -181.35161588 </i>
    <i name="e_wo_entrp">   -181.07944285 </i>
    <i name="e_0_energy">   -181.28357262 </i>
   </energy>
  </scstep>
  <scstep>
   <time name="diag">   66.81   66.81</time>
   <time name="diis">  209.35  209.36</time>
   <time name="orth">   13.06   13.06</time>
   <time name="total">  326.94  326.95</time>
   <energy>
    <i name="e_fr_energy">   -186.14946647 </i>
    <i name="e_wo_entrp">   -186.01620418 </i>
    <i name="e_0_energy">   -186.11615090 </i>
   </energy>
  </scstep>
  <scstep>
   <time name="diag">   65.45   65.45</time>
   <time name="diis">  198.07  198.08</time>
   <time name="orth">   13.42   13.42</time>
   <time name="total">  314.47  314.48</time>
   <energy>
    <i name="e_fr_energy">   -187.55793671 </i>
    <i name="e_wo_entrp">   -187.42358735 </i>
    <i name="e_0_energy">   -187.52434937 </i>
   </energy>
  </scstep>
  <scstep>
   <time name="diag">   65.59   65.60</time>
   <time name="diis">  180.35  180.35</time>
   <time name="orth">   13.39   13.39</time>
   <time name="total">  297.90  297.91</time>
   <energy>
    <i name="e_fr_energy">   -185.14131268 </i>
    <i name="e_wo_entrp">   -185.17074364 </i>
    <i name="e_0_energy">   -185.14867042 </i>
   </energy>
  </scstep>
  <scstep>
   <time name="diag">   66.69   66.70</time>
   <time name="diis">  181.87  181.87</time>
   <time name="orth">   13.02   13.02</time>
   <time name="total">  299.91  299.92</time>
   <energy>
    <i name="e_fr_energy">   -183.49974977 </i>
    <i name="e_wo_entrp">   -183.40287187 </i>
    <i name="e_0_energy">   -183.47553030 </i>
   </energy>
  </scstep>
  <scstep>
   <time name="diag">   65.68   65.68</time>
   <time name="diis">  186.38  186.38</time>
   <time name="orth">   13.32   13.32</time>
   <time name="total">  303.49  303.50</time>
   <energy>
    <i name="e_fr_energy">   -181.12828207 </i>
    <i name="e_wo_entrp">   -181.12176502 </i>
    <i name="e_0_energy">   -181.12665281 </i>
   </energy>
  </scstep>
  <scstep>
   <time name="diag">   65.50   65.50</time>
   <time name="diis">  177.79  177.79</time>
   <time name="orth">   13.38   13.38</time>
   <time name="total">  295.18  295.18</time>
   <energy>
    <i name="e_fr_energy">   -178.81612095 </i>
    <i name="e_wo_entrp">   -178.73938923 </i>
    <i name="e_0_energy">   -178.79693802 </i>
   </energy>
  </scstep>
  <scstep>
   <time name="diag">   66.37   66.37</time>
   <time name="diis">  180.02  180.03</time>
   <time name="orth">   13.00   13.00</time>
   <time name="total">  297.57  297.58</time>
   <energy>
    <i name="e_fr_energy">   -179.30694093 </i>
    <i name="e_wo_entrp">   -179.20998827 </i>
    <i name="e_0_energy">   -179.28270277 </i>
   </energy>
  </scstep>
  <scstep>
   <time name="diag">   65.92   65.92</time>
   <time name="diis">  179.92  179.92</time>
   <time name="orth">   13.00   13.00</time>
   <time name="total">  296.52  296.53</time>
   <energy>
    <i name="e_fr_energy">   -177.37478651 </i>
    <i name="e_wo_entrp">   -177.29059687 </i>
    <i name="e_0_energy">   -177.35373910 </i>
   </energy>
  </scstep>
  <scstep>
   <time name="diag">   66.20   66.20</time>
   <time name="diis">  175.00  175.00</time>
   <time name="orth">   13.06   13.06</time>
   <time name="total">  292.10  292.11</time>
   <energy>
    <i name="e_fr_energy">   -176.83671160 </i>
    <i name="e_wo_entrp">   -176.81805327 </i>
    <i name="e_0_energy">   -176.83204702 </i>
   </energy>
  </scstep>
  <scstep>
   <time name="diag">   66.19   66.19</time>
   <time name="diis">  176.69  176.69</time>
   <time name="orth">   13.02   13.02</time>
   <time name="total">  293.66  293.67</time>
   <energy>
    <i name="e_fr_energy">   -176.11654461 </i>
    <i name="e_wo_entrp">   -176.06885686 </i>
    <i name="e_0_energy">   -176.10462268 </i>
   </energy>
  </scstep>
  <scstep>
   <time name="diag">   66.17   66.17</time>
   <time name="diis">  174.59  174.60</time>
   <time name="orth">   13.05   13.05</time>
   <time name="total">  291.51  291.53</time>
   <energy>
    <i name="e_fr_energy">   -175.56325902 </i>
    <i name="e_wo_entrp">   -175.49884997 </i>
    <i name="e_0_energy">   -175.54715676 </i>
   </energy>
  </scstep>
  <scstep>
   <time name="diag">   65.98   65.98</time>
   <time name="diis">  175.00  175.00</time>
   <time name="orth">   13.03   13.03</time>
   <time name="total">  291.93  291.94</time>
   <energy>
    <i name="e_fr_energy">   -175.46206318 </i>
    <i name="e_wo_entrp">   -175.50172575 </i>
    <i name="e_0_energy">   -175.47197883 </i>
   </energy>
  </scstep>
  <scstep>
   <time name="diag">   66.20   66.20</time>
   <time name="diis">  178.20  178.20</time>
   <time name="orth">   13.08   13.08</time>
   <time name="total">  295.55  295.55</time>
   <energy>
    <i name="e_fr_energy">   -175.41256061 </i>
    <i name="e_wo_entrp">   -175.44312547 </i>
    <i name="e_0_energy">   -175.42020183 </i>
   </energy>
  </scstep>
  <scstep>
   <time name="diag">   66.15   66.15</time>
   <time name="diis">  174.21  174.22</time>
   <time name="orth">   13.01   13.00</time>
   <time name="total">  291.36  291.37</time>
   <energy>
    <i name="e_fr_energy">   -175.19870611 </i>
    <i name="e_wo_entrp">   -175.21596905 </i>
    <i name="e_0_energy">   -175.20302185 </i>
   </energy>
  </scstep>
  <scstep>
   <time name="diag">   66.06   66.06</time>
   <time name="diis">  173.85  173.86</time>
   <time name="orth">   12.98   12.98</time>
   <time name="total">  291.01  291.02</time>
   <energy>
    <i name="e_fr_energy">   -175.04489768 </i>
    <i name="e_wo_entrp">   -175.05200404 </i>
    <i name="e_0_energy">   -175.04667427 </i>
   </energy>
  </scstep>
  <scstep>
   <time name="diag">   65.98   65.98</time>
   <time name="diis">  172.23  172.23</time>
   <time name="orth">   13.05   13.05</time>
   <time name="total">  289.53  289.54</time>
   <energy>
    <i name="e_fr_energy">   -174.98422310 </i>
    <i name="e_wo_entrp">   -174.96119067 </i>
    <i name="e_0_energy">   -174.97846499 </i>
   </energy>
  </scstep>
  <scstep>
   <time name="diag">   66.22   66.22</time>
   <time name="diis">  173.59  173.59</time>
   <time name="orth">   13.03   13.03</time>
   <time name="total">  290.96  290.97</time>
   <energy>
    <i name="e_fr_energy">   -174.95821102 </i>
    <i name="e_wo_entrp">   -174.91381611 </i>
    <i name="e_0_energy">   -174.94711230 </i>
   </energy>
  </scstep>
  <scstep>
   <time name="diag">   65.97   65.97</time>
   <time name="diis">  171.75  171.75</time>
   <time name="orth">   13.00   13.00</time>
   <time name="total">  288.94  288.95</time>
   <energy>
    <i name="e_fr_energy">   -174.87424837 </i>
    <i name="e_wo_entrp">   -174.85265662 </i>
    <i name="e_0_energy">   -174.86885043 </i>
   </energy>
  </scstep>
  <scstep>
   <time name="diag">   66.11   66.11</time>
   <time name="diis">  173.23  173.23</time>
   <time name="orth">   13.07   13.07</time>
   <time name="total">  290.90  290.90</time>
   <energy>
    <i name="e_fr_energy">   -174.83132301 </i>
    <i name="e_wo_entrp">   -174.81186686 </i>
    <i name="e_0_energy">   -174.82645897 </i>
   </energy>
  </scstep>
  <scstep>
   <time name="diag">   66.22   66.22</time>
   <time name="diis">  172.39  172.39</time>
   <time name="orth">   13.04   13.04</time>
   <time name="total">  290.08  290.09</time>
   <energy>
    <i name="e_fr_energy">   -174.78007457 </i>
    <i name="e_wo_entrp">   -174.74619890 </i>
    <i name="e_0_energy">   -174.77160565 </i>
   </energy>
  </scstep>
  <scstep>
   <time name="diag">   66.25   66.25</time>
   <time name="diis">  171.66  171.66</time>
   <time name="orth">   12.95   12.95</time>
   <time name="total">  289.21  289.22</time>
   <energy>
    <i name="e_fr_energy">   -174.74345800 </i>
    <i name="e_wo_entrp">   -174.71377073 </i>
    <i name="e_0_energy">   -174.73603618 </i>
   </energy>
  </scstep>
  <scstep>
   <time name="diag">   66.06   66.06</time>
   <time name="diis">  173.15  173.16</time>
   <time name="orth">   13.07   13.07</time>
   <time name="total">  290.82  290.83</time>
   <energy>
    <i name="e_fr_energy">   -174.72659745 </i>
    <i name="e_wo_entrp">   -174.68895690 </i>
    <i name="e_0_energy">   -174.71718731 </i>
   </energy>
  </scstep>
  <scstep>
   <time name="diag">   66.50   66.51</time>
   <time name="diis">  172.15  172.16</time>
   <time name="orth">   13.09   13.09</time>
   <time name="total">  290.46  290.47</time>
   <energy>
    <i name="e_fr_energy">   -174.68715345 </i>
    <i name="e_wo_entrp">   -174.64015112 </i>
    <i name="e_0_energy">   -174.67540287 </i>
   </energy>
  </scstep>
  <scstep>
   <time name="diag">   66.11   66.11</time>
   <time name="diis">  171.99  171.99</time>
   <time name="orth">   13.06   13.06</time>
   <time name="total">  289.96  289.97</time>
   <energy>
    <i name="e_fr_energy">   -174.68601274 </i>
    <i name="e_wo_entrp">   -174.64053237 </i>
    <i name="e_0_energy">   -174.67464265 </i>
   </energy>
  </scstep>
  <scstep>
   <time name="diag">   66.33   66.33</time>
   <time name="diis">  172.37  172.38</time>
   <time name="orth">   13.06   13.06</time>
   <time name="total">  290.48  290.49</time>
   <energy>
    <i name="e_fr_energy">   -174.67965831 </i>
    <i name="e_wo_entrp">   -174.63843248 </i>
    <i name="e_0_energy">   -174.66935185 </i>
   </energy>
  </scstep>
  <scstep>
   <time name="diag">   66.03   66.03</time>
   <time name="diis">  171.37  171.37</time>
   <time name="orth">   13.06   13.06</time>
   <time name="total">  289.42  289.43</time>
   <energy>
    <i name="e_fr_energy">   -174.67591566 </i>
    <i name="e_wo_entrp">   -174.63455594 </i>
    <i name="e_0_energy">   -174.66557573 </i>
   </energy>
  </scstep>
  <scstep>
   <time name="diag">   66.44   66.44</time>
   <time name="diis">  170.98  170.98</time>
   <time name="orth">   13.06   13.06</time>
   <time name="total">  289.53  289.54</time>
   <energy>
    <i name="e_fr_energy">   -174.67620694 </i>
    <i name="e_wo_entrp">   -174.63850564 </i>
    <i name="e_0_energy">   -174.66678162 </i>
   </energy>
  </scstep>
  <scstep>
   <time name="diag">   66.07   66.07</time>
   <time name="diis">  170.54  170.54</time>
   <time name="orth">   13.00   13.00</time>
   <time name="total">  288.64  288.64</time>
   <energy>
    <i name="e_fr_energy">   -174.67422849 </i>
    <i name="e_wo_entrp">   -174.63272944 </i>
    <i name="e_0_energy">   -174.66385373 </i>
   </energy>
  </scstep>
  <scstep>
   <time name="diag">   66.19   66.19</time>
   <time name="diis">  170.71  170.72</time>
   <time name="orth">   13.03   13.03</time>
   <time name="total">  289.26  289.26</time>
   <energy>
    <i name="e_fr_energy">   -174.67470482 </i>
    <i name="e_wo_entrp">   -174.63026394 </i>
    <i name="e_0_energy">   -174.66359460 </i>
   </energy>
  </scstep>
  <scstep>
   <time name="diag">   67.50   67.50</time>
   <time name="diis">  174.44  174.45</time>
   <time name="orth">   13.44   13.44</time>
   <time name="total">  295.76  295.77</time>
   <energy>
    <i name="e_fr_energy">   -174.67581122 </i>
    <i name="e_wo_entrp">   -174.63423941 </i>
    <i name="e_0_energy">   -174.66541827 </i>
   </energy>
  </scstep>
  <scstep>
   <time name="diag">   67.41   67.41</time>
   <time name="diis">  173.60  173.60</time>
   <time name="orth">   13.39   13.39</time>
   <time name="total">  295.88  295.89</time>
   <energy>
    <i name="e_fr_energy">   -174.67665851 </i>
    <i name="e_wo_entrp">   -174.63396383 </i>
    <i name="e_0_energy">   -174.66598484 </i>
   </energy>
  </scstep>
  <scstep>
   <time name="diag">   67.21   67.21</time>
   <time name="diis">  173.97  173.97</time>
   <time name="orth">   13.37   13.37</time>
   <time name="total">  295.36  295.37</time>
   <energy>
    <i name="e_fr_energy">   -174.67896612 </i>
    <i name="e_wo_entrp">   -174.63663960 </i>
    <i name="e_0_energy">   -174.66838449 </i>
   </energy>
  </scstep>
  <scstep>
   <time name="diag">   66.64   66.64</time>
   <time name="diis">  160.33  160.33</time>
   <time name="orth">   13.34   13.34</time>
   <time name="total">  281.09  281.10</time>
   <energy>
    <i name="e_fr_energy">   -174.68062044 </i>
    <i name="e_wo_entrp">   -174.63973939 </i>
    <i name="e_0_energy">   -174.67040018 </i>
   </energy>
  </scstep>
  <scstep>
   <time name="diag">   66.50   66.50</time>
   <time name="diis">  169.00  169.00</time>
   <time name="orth">   13.09   13.09</time>
   <time name="total">  289.60  289.60</time>
   <energy>
    <i name="e_fr_energy">   -174.68394372 </i>
    <i name="e_wo_entrp">   -174.64283780 </i>
    <i name="e_0_energy">   -174.67366724 </i>
   </energy>
  </scstep>
  <scstep>
   <time name="diag">   66.53   66.53</time>
   <time name="diis">  160.55  160.55</time>
   <time name="orth">   13.43   13.43</time>
   <time name="total">  281.33  281.34</time>
   <energy>
    <i name="e_fr_energy">   -174.68634610 </i>
    <i name="e_wo_entrp">   -174.64617874 </i>
    <i name="e_0_energy">   -174.67630426 </i>
   </energy>
  </scstep>
  <scstep>
   <time name="diag">   66.67   66.67</time>
   <time name="diis">  123.92  123.92</time>
   <time name="orth">   13.46   13.46</time>
   <time name="total">  244.95  244.95</time>
   <energy>
    <i name="e_fr_energy">   -174.68834802 </i>
    <i name="e_wo_entrp">   -174.64754955 </i>
    <i name="e_0_energy">   -174.67814840 </i>
   </energy>
  </scstep>
  <scstep>
   <time name="diag">   66.54   66.54</time>
   <time name="diis">  126.33  126.33</time>
   <time name="orth">   13.31   13.31</time>
   <time name="total">  246.97  246.97</time>
   <energy>
    <i name="e_fr_energy">   -174.69090513 </i>
    <i name="e_wo_entrp">   -174.64953094 </i>
    <i name="e_0_energy">   -174.68056159 </i>
   </energy>
  </scstep>
  <scstep>
   <time name="diag">   66.61   66.61</time>
   <time name="diis">  124.00  124.00</time>
   <time name="orth">   13.06   13.06</time>
   <time name="total">  245.12  245.13</time>
   <energy>
    <i name="e_fr_energy">   -174.69299718 </i>
    <i name="e_wo_entrp">   -174.65222010 </i>
    <i name="e_0_energy">   -174.68280291 </i>
   </energy>
  </scstep>
  <scstep>
   <time name="diag">   66.35   66.35</time>
   <time name="diis">  118.21  118.22</time>
   <time name="orth">   13.22   13.22</time>
   <time name="total">  239.02  239.03</time>
   <energy>
    <i name="e_fr_energy">   -174.69455240 </i>
    <i name="e_wo_entrp">   -174.65375415 </i>
    <i name="e_0_energy">   -174.68435284 </i>
   </energy>
  </scstep>
  <scstep>
   <time name="diag">   66.23   66.23</time>
   <time name="diis">  114.36  114.36</time>
   <time name="orth">   12.94   12.94</time>
   <time name="total">  235.35  235.36</time>
   <energy>
    <i name="e_fr_energy">   -174.69551685 </i>
    <i name="e_wo_entrp">   -174.65492318 </i>
    <i name="e_0_energy">   -174.68536843 </i>
   </energy>
  </scstep>
  <scstep>
   <time name="diag">   66.83   66.84</time>
   <time name="diis">  112.94  112.95</time>
   <time name="orth">   12.99   12.99</time>
   <time name="total">  234.83  234.84</time>
   <energy>
    <i name="e_fr_energy">   -174.69751174 </i>
    <i name="e_wo_entrp">   -174.65700304 </i>
    <i name="e_0_energy">   -174.68738456 </i>
   </energy>
  </scstep>
  <scstep>
   <time name="diag">   66.53   66.53</time>
   <time name="diis">  113.28  113.28</time>
   <time name="orth">   12.96   12.96</time>
   <time name="total">  234.96  234.96</time>
   <energy>
    <i name="e_fr_energy">   -174.69797589 </i>
    <i name="e_wo_entrp">   -174.65740240 </i>
    <i name="e_0_energy">   -174.68783252 </i>
   </energy>
  </scstep>
  <scstep>
   <time name="diag">   66.19   66.20</time>
   <time name="diis">  111.12  111.12</time>
   <time name="orth">   13.22   13.22</time>
   <time name="total">  232.92  232.92</time>
   <energy>
    <i name="e_fr_energy">   -174.69901585 </i>
    <i name="e_wo_entrp">   -174.65836510 </i>
    <i name="e_0_energy">   -174.68885316 </i>
   </energy>
  </scstep>
  <scstep>
   <time name="diag">   66.16   66.16</time>
   <time name="diis">  108.50  108.50</time>
   <time name="orth">   13.13   13.13</time>
   <time name="total">  230.04  230.04</time>
   <energy>
    <i name="e_fr_energy">   -174.69961634 </i>
    <i name="e_wo_entrp">   -174.65897213 </i>
    <i name="e_0_energy">   -174.68945529 </i>
   </energy>
  </scstep>
  <scstep>
   <time name="diag">   65.75   65.75</time>
   <time name="diis">   99.23   99.24</time>
   <time name="orth">   13.08   13.08</time>
   <time name="total">  219.82  219.82</time>
   <energy>
    <i name="e_fr_energy">   -174.69998374 </i>
    <i name="e_wo_entrp">   -174.65958416 </i>
    <i name="e_0_energy">   -174.68988384 </i>
   </energy>
  </scstep>
  <scstep>
   <time name="diag">   65.65   65.65</time>
   <time name="diis">  103.45  103.45</time>
   <time name="orth">   13.29   13.29</time>
   <time name="total">  223.91  223.91</time>
   <energy>
    <i name="e_fr_energy">   -174.70082098 </i>
    <i name="e_wo_entrp">   -174.66030964 </i>
    <i name="e_0_energy">   -174.69069314 </i>
   </energy>
  </scstep>
  <scstep>
   <time name="diag">   65.21   65.21</time>
   <time name="diis">   89.94   89.94</time>
   <time name="orth">   13.12   13.12</time>
   <time name="total">  210.45  210.45</time>
   <energy>
    <i name="e_fr_energy">   -174.70119597 </i>
    <i name="e_wo_entrp">   -174.66066927 </i>
    <i name="e_0_energy">   -174.69106429 </i>
   </energy>
  </scstep>
  <scstep>
   <time name="diag">   65.00   65.01</time>
   <time name="diis">   91.52   91.52</time>
   <time name="orth">   12.93   12.93</time>
   <time name="total">  211.27  211.27</time>
   <energy>
    <i name="e_fr_energy">   -174.70161886 </i>
    <i name="e_wo_entrp">   -174.66106754 </i>
    <i name="e_0_energy">   -174.69148103 </i>
   </energy>
  </scstep>
  <scstep>
   <time name="diag">   65.26   65.26</time>
   <time name="diis">   83.64   83.64</time>
   <time name="orth">   13.06   13.06</time>
   <time name="total">  203.24  203.24</time>
   <energy>
    <i name="e_fr_energy">   -174.70188041 </i>
    <i name="e_wo_entrp">   -174.66136320 </i>
    <i name="e_0_energy">   -174.69175110 </i>
   </energy>
  </scstep>
  <scstep>
   <time name="diag">   64.88   64.88</time>
   <time name="diis">   85.63   85.64</time>
   <time name="orth">   12.43   12.43</time>
   <time name="total">  202.67  202.68</time>
   <energy>
    <i name="e_fr_energy">   -174.70214890 </i>
    <i name="e_wo_entrp">   -174.66160335 </i>
    <i name="e_0_energy">   -174.69201251 </i>
   </energy>
  </scstep>
  <scstep>
   <time name="diag">   64.12   64.12</time>
   <time name="diis">   76.36   76.36</time>
   <time name="orth">   12.76   12.77</time>
   <time name="total">  193.48  193.49</time>
   <energy>
    <i name="e_fr_energy">   -174.70226724 </i>
    <i name="e_wo_entrp">   -174.66168017 </i>
    <i name="e_0_energy">   -174.69212047 </i>
   </energy>
  </scstep>
  <scstep>
   <time name="diag">   65.69   65.69</time>
   <time name="diis">   82.75   82.75</time>
   <time name="orth">   12.92   12.92</time>
   <time name="total">  203.71  203.72</time>
   <energy>
    <i name="e_fr_energy">   -174.70244780 </i>
    <i name="e_wo_entrp">   -174.66191188 </i>
    <i name="e_0_energy">   -174.69231382 </i>
   </energy>
  </scstep>
  <scstep>
   <time name="diag">   65.84   65.84</time>
   <time name="diis">   74.87   74.88</time>
   <time name="orth">   12.91   12.91</time>
   <time name="total">  166.96  166.97</time>
   <energy>
    <i name="alphaZ">     75.25431677 </i>
    <i name="ewald"> 138984.20680078 </i>
    <i name="hartreedc">-183330.86959812 </i>
    <i name="XCdc">  -1691.58871704 </i>
    <i name="pawpsdc">  46391.60943913 </i>
    <i name="pawaedc"> -42864.03894531 </i>
    <i name="eentropy">     -0.04053857 </i>
    <i name="bandstr">  -2825.74076808 </i>
    <i name="atom">  45086.50549395 </i>
    <i name="e_fr_energy">   -174.70251650 </i>
    <i name="e_wo_entrp">   -174.66197793 </i>
    <i name="e_0_energy">   -174.69238186 </i>
   </energy>
  </scstep>
  <structure>
   <crystal>
    <varray name="basis" >
     <v>      30.00000000       0.00000000       0.00000000 </v>
     <v>       0.00000000      30.00000000       0.00000000 </v>
     <v>       0.00000000       0.00000000      30.00000000 </v>
    </varray>
    <i name="volume">  27000.00000000 </i>
    <varray name="rec_basis" >
     <v>       0.03333333       0.00000000       0.00000000 </v>
     <v>       0.00000000       0.03333333       0.00000000 </v>
     <v>       0.00000000       0.00000000       0.03333333 </v>
    </varray>
   </crystal>
   <varray name="positions" >
    <v>       0.44576020       0.32826710       0.41691983 </v>
    <v>       0.67173288       0.55423978       0.41691983 </v>
    <v>       0.55423980       0.32826710       0.41691983 </v>
    <v>       0.32826712       0.55423978       0.41691983 </v>
    <v>       0.50000000       0.38250690       0.34021317 </v>
    <v>       0.50000000       0.38250690       0.65978680 </v>
    <v>       0.50000000       0.27609440       0.50000000 </v>
    <v>       0.27609443       0.49999998       0.50000000 </v>
    <v>       0.72390557       0.49999998       0.50000000 </v>
    <v>       0.50000000       0.72390555       0.50000000 </v>
    <v>       0.61195280       0.38804720       0.34167483 </v>
    <v>       0.61195280       0.38804720       0.65832513 </v>
    <v>       0.38804722       0.61195278       0.34167483 </v>
    <v>       0.38804722       0.61195278       0.65832513 </v>
    <v>       0.38804720       0.38804720       0.34167483 </v>
    <v>       0.38804720       0.38804720       0.65832513 </v>
    <v>       0.61195278       0.61195278       0.34167483 </v>
    <v>       0.61195278       0.61195278       0.65832513 </v>
    <v>       0.44576020       0.32826710       0.58308023 </v>
    <v>       0.67173288       0.55423978       0.58308023 </v>
    <v>       0.55791699       0.44208301       0.41809300 </v>
    <v>       0.32826705       0.44576024       0.41691983 </v>
    <v>       0.55423973       0.67173293       0.41691983 </v>
    <v>       0.55423980       0.32826710       0.58308023 </v>
    <v>       0.32826712       0.55423978       0.58308023 </v>
    <v>       0.67173295       0.44576024       0.41691983 </v>
    <v>       0.44576027       0.67173293       0.41691983 </v>
    <v>       0.44208301       0.44208301       0.41809300 </v>
    <v>       0.50000000       0.38416601       0.50000000 </v>
    <v>       0.61749315       0.50000005       0.34021317 </v>
    <v>       0.61749315       0.50000005       0.65978680 </v>
    <v>       0.38250685       0.50000005       0.34021317 </v>
    <v>       0.38250685       0.50000005       0.65978680 </v>
    <v>       0.38317830       0.38317830       0.50000000 </v>
    <v>       0.61682172       0.61682172       0.50000000 </v>
    <v>       0.61682170       0.38317830       0.50000000 </v>
    <v>       0.38317828       0.61682172       0.50000000 </v>
    <v>       0.50000000       0.50000000       0.33478917 </v>
    <v>       0.50000000       0.50000000       0.66521087 </v>
    <v>       0.32826705       0.44576024       0.58308023 </v>
    <v>       0.55423973       0.67173293       0.58308023 </v>
    <v>       0.55791699       0.44208301       0.58190703 </v>
    <v>       0.44208298       0.55791702       0.41809300 </v>
    <v>       0.44208301       0.44208301       0.58190703 </v>
    <v>       0.67173295       0.44576024       0.58308023 </v>
    <v>       0.44576027       0.67173293       0.58308023 </v>
    <v>       0.55791702       0.55791702       0.41809300 </v>
    <v>       0.38416599       0.50000002       0.50000000 </v>
    <v>       0.61583401       0.50000002       0.50000000 </v>
    <v>       0.50000000       0.61749319       0.34021317 </v>
    <v>       0.50000000       0.61749319       0.65978680 </v>
    <v>       0.50000000       0.50000000       0.50000000 </v>
    <v>       0.44208298       0.55791702       0.58190703 </v>
    <v>       0.55791702       0.55791702       0.58190703 </v>
    <v>       0.50000000       0.61583404       0.50000000 </v>
    <v>       0.48894553       0.51291853       0.71777393 </v>
    <v>       0.48704273       0.51514223       0.75525983 </v>
   </varray>
  </structure>
  <varray name="forces" >
   <v>       0.69677841       1.10907286       0.28622613 </v>
   <v>      -1.10904601      -0.69680677       0.28621427 </v>
   <v>      -0.69523248       1.10976572       0.28635617 </v>
   <v>       1.11131324      -0.69715541       0.28490375 </v>
   <v>      -0.00125305       0.40062670       1.28082516 </v>
   <v>       0.00798157       0.39494733      -1.33375654 </v>
   <v>      -0.00259332       1.50763561       0.01190463 </v>
   <v>       1.50439486       0.00314506       0.01838218 </v>
   <v>      -1.50751522       0.00315380       0.01244016 </v>
   <v>      -0.00264243      -1.50414097       0.01894781 </v>
   <v>      -0.75108314       0.75146270       1.07540871 </v>
   <v>      -0.74382107       0.74387071      -1.07041367 </v>
   <v>       0.75298114      -0.75257303       1.07362771 </v>
   <v>       0.72151857      -0.72158579      -1.07204257 </v>
   <v>       0.75027303       0.75338703       1.07458065 </v>
   <v>       0.73564615       0.73412669      -1.07204681 </v>
   <v>      -0.75338197      -0.75027723       1.07443303 </v>
   <v>      -0.73202982      -0.73362142      -1.07188519 </v>
   <v>       0.70030642       1.10174874      -0.29444348 </v>
   <v>      -1.10092463      -0.70045674      -0.29557260 </v>
   <v>       0.11466326      -0.11451293      -0.14773498 </v>
   <v>       1.11207267       0.69520175       0.28399125 </v>
   <v>      -0.69519066      -1.11187535       0.28378689 </v>
   <v>      -0.70220020       1.10397318      -0.28849221 </v>
   <v>       1.09497946      -0.70262566      -0.30213273 </v>
   <v>      -1.10987455       0.69521455       0.28625932 </v>
   <v>       0.69731509      -1.11160067       0.28469191 </v>
   <v>      -0.11369595      -0.11438178      -0.14989074 </v>
   <v>       0.00003361      -0.20837818       0.00043366 </v>
   <v>      -0.40092583       0.00156354       1.28052551 </v>
   <v>      -0.39506504      -0.00944162      -1.33328637 </v>
   <v>       0.40506108       0.00138707       1.27975664 </v>
   <v>       0.41869278      -0.00943006      -1.32327087 </v>
   <v>       0.82075485       0.81734077      -0.01565293 </v>
   <v>      -0.81835606      -0.82179981      -0.01327905 </v>
   <v>      -0.81172284       0.81156714      -0.02865594 </v>
   <v>       0.82734743      -0.82748222       0.00039694 </v>
   <v>      -0.00498565       0.00598466       1.18663175 </v>
   <v>       1.10695591      -1.29483405      -6.72810478 </v>
   <v>       1.09954512       0.70471662      -0.29373069 </v>
   <v>      -0.70453522      -1.09848707      -0.29499607 </v>
   <v>       0.08117495      -0.08423307       0.17070974 </v>
   <v>      -0.11355870       0.11357888      -0.15151431 </v>
   <v>      -0.11874534      -0.14966718       0.11826679 </v>
   <v>      -1.10374708       0.70285301      -0.28847626 </v>
   <v>       0.70293388      -1.09440265      -0.30222121 </v>
   <v>       0.11451145       0.11363550      -0.15024790 </v>
   <v>      -0.21276724       0.00090702      -0.00007576 </v>
   <v>       0.20904097       0.00011361       0.00032986 </v>
   <v>      -0.00110269      -0.40525316       1.27989815 </v>
   <v>       0.00747835      -0.42455898      -1.31987319 </v>
   <v>       0.00092924      -0.00095982       0.01518981 </v>
   <v>      -0.16031905       0.15842228       0.09282303 </v>
   <v>       0.15467308       0.12492755       0.11318153 </v>
   <v>      -0.00075564       0.21317733      -0.00008197 </v>
   <v>      -0.57730880       0.68201211       0.46953603 </v>
   <v>      -0.50497692       0.58102210       5.41121963 </v>
  </varray>
  <varray name="stress" >
   <v>      -6.68242875      -0.02407474      -0.12948473 </v>
   <v>      -0.02407476      -6.67544081       0.15191689 </v>
   <v>      -0.12948471       0.15191689      -5.82751504 </v>
  </varray>
  <energy>
   <i name="e_fr_energy">   -174.70251650 </i>
   <i name="e_wo_entrp">   -174.69238186 </i>
   <i name="e_0_energy">     -0.04053857 </i>
  </energy>
  <time name="totalsc">17178.0217178.50</time>
  <eigenvalues>
   <array>
    <dimension dim="1">band</dimension>
    <dimension dim="2">kpoint</dimension>
    <dimension dim="3">spin</dimension>
    <field>eigene</field>
    <field>occ</field>
    <set>
     <set comment="spin 1">
      <set comment="kpoint 1">
       <r>  -28.1089    1.0000 </r>
       <r>  -13.7133    1.0000 </r>
       <r>  -11.3763    1.0000 </r>
       <r>  -10.8786    1.0000 </r>
       <r>  -10.8478    1.0000 </r>
       <r>   -7.1007    1.0000 </r>
       <r>   -7.0794    1.0000 </r>
       <r>   -6.6786    1.0000 </r>
       <r>   -6.2184    1.0000 </r>
       <r>   -6.1369    1.0000 </r>
       <r>   -6.1358    1.0000 </r>
       <r>   -6.0645    1.0000 </r>
       <r>   -5.9986    1.0000 </r>
       <r>   -5.8358    1.0000 </r>
       <r>   -5.8157    1.0000 </r>
       <r>   -5.8116    1.0000 </r>
       <r>   -5.7821    1.0000 </r>
       <r>   -5.7269    1.0000 </r>
       <r>   -5.6958    1.0000 </r>
       <r>   -5.6890    1.0000 </r>
       <r>   -5.6884    1.0000 </r>
       <r>   -5.6883    1.0000 </r>
       <r>   -5.6252    1.0000 </r>
       <r>   -5.6052    1.0000 </r>
       <r>   -5.6010    1.0000 </r>
       <r>   -5.5994    1.0000 </r>
       <r>   -5.5988    1.0000 </r>
       <r>   -5.5976    1.0000 </r>
       <r>   -5.5510    1.0000 </r>
       <r>   -5.5406    1.0000 </r>
       <r>   -5.5395    1.0000 </r>
       <r>   -5.5344    1.0000 </r>
       <r>   -5.5244    1.0000 </r>
       <r>   -5.5223    1.0000 </r>
       <r>   -5.5218    1.0000 </r>
       <r>   -5.5158    1.0000 </r>
       <r>   -5.5126    1.0000 </r>
       <r>   -5.5124    1.0000 </r>
       <r>   -5.5089    1.0000 </r>
       <r>   -5.4887    1.0000 </r>
       <r>   -5.4818    1.0000 </r>
       <r>   -5.4786    1.0000 </r>
       <r>   -5.4751    1.0000 </r>
       <r>   -5.4714    1.0000 </r>
       <r>   -5.4710    1.0000 </r>
       <r>   -5.4706    1.0000 </r>
       <r>   -5.4638    1.0000 </r>
       <r>   -5.4595    1.0000 </r>
       <r>   -5.4331    1.0000 </r>
       <r>   -5.4325    1.0000 </r>
       <r>   -5.4303    1.0000 </r>
       <r>   -5.4198    1.0000 </r>
       <r>   -5.4141    1.0000 </r>
       <r>   -5.4136    1.0000 </r>
       <r>   -5.4018    1.0000 </r>
       <r>   -5.4015    1.0000 </r>
       <r>   -5.3984    1.0000 </r>
       <r>   -5.3933    1.0000 </r>
       <r>   -5.3543    1.0000 </r>
       <r>   -5.3346    1.0000 </r>
       <r>   -5.3270    1.0000 </r>
       <r>   -5.3219    1.0000 </r>
       <r>   -5.3207    1.0000 </r>
       <r>   -5.3185    1.0000 </r>
       <r>   -5.3183    1.0000 </r>
       <r>   -5.3161    1.0000 </r>
       <r>   -5.3141    1.0000 </r>
       <r>   -5.3040    1.0000 </r>
       <r>   -5.2939    1.0000 </r>
       <r>   -5.2936    1.0000 </r>
       <r>   -5.2616    1.0000 </r>
       <r>   -5.1995    1.0000 </r>
       <r>   -5.1936    1.0000 </r>
       <r>   -5.1905    1.0000 </r>
       <r>   -5.1854    1.0000 </r>
       <r>   -5.1842    1.0000 </r>
       <r>   -5.1825    1.0000 </r>
       <r>   -5.1816    1.0000 </r>
       <r>   -5.1810    1.0000 </r>
       <r>   -5.1616    1.0000 </r>
       <r>   -5.1552    1.0000 </r>
       <r>   -5.1547    1.0000 </r>
       <r>   -5.1511    1.0000 </r>
       <r>   -5.1459    1.0000 </r>
       <r>   -5.1264    1.0000 </r>
       <r>   -5.1258    1.0000 </r>
       <r>   -5.1202    1.0000 </r>
       <r>   -5.1060    1.0000 </r>
       <r>   -5.1039    1.0000 </r>
       <r>   -5.1034    1.0000 </r>
       <r>   -5.0843    1.0000 </r>
       <r>   -5.0620    1.0000 </r>
       <r>   -5.0605    1.0000 </r>
       <r>   -5.0558    1.0000 </r>
       <r>   -5.0555    1.0000 </r>
       <r>   -5.0508    1.0000 </r>
       <r>   -5.0506    1.0000 </r>
       <r>   -5.0350    1.0000 </r>
       <r>   -5.0316    1.0000 </r>
       <r>   -5.0278    1.0000 </r>
       <r>   -5.0243    1.0000 </r>
       <r>   -5.0201    1.0000 </r>
       <r>   -5.0162    1.0000 </r>
       <r>   -5.0143    1.0000 </r>
       <r>   -5.0098    1.0000 </r>
       <r>   -5.0080    1.0000 </r>
       <r>   -5.0079    1.0000 </r>
       <r>   -4.9929    1.0000 </r>
       <r>   -4.9878    1.0000 </r>
       <r>   -4.9836    1.0000 </r>
       <r>   -4.9829    1.0000 </r>
       <r>   -4.9811    1.0000 </r>
       <r>   -4.9781    1.0000 </r>
       <r>   -4.9699    1.0000 </r>
       <r>   -4.9695    1.0000 </r>
       <r>   -4.9629    1.0000 </r>
       <r>   -4.9524    1.0000 </r>
       <r>   -4.9524    1.0000 </r>
       <r>   -4.9348    1.0000 </r>
       <r>   -4.9295    1.0000 </r>
       <r>   -4.9205    1.0000 </r>
       <r>   -4.9198    1.0000 </r>
       <r>   -4.9177    1.0000 </r>
       <r>   -4.9154    1.0000 </r>
       <r>   -4.9117    1.0000 </r>
       <r>   -4.9044    1.0000 </r>
       <r>   -4.9040    1.0000 </r>
       <r>   -4.8855    1.0000 </r>
       <r>   -4.8850    1.0000 </r>
       <r>   -4.8739    1.0000 </r>
       <r>   -4.8462    1.0000 </r>
       <r>   -4.8405    1.0000 </r>
       <r>   -4.8369    1.0000 </r>
       <r>   -4.8356    1.0000 </r>
       <r>   -4.8334    1.0000 </r>
       <r>   -4.8301    1.0000 </r>
       <r>   -4.8253    1.0000 </r>
       <r>   -4.8039    0.9999 </r>
       <r>   -4.7984    0.9999 </r>
       <r>   -4.7936    0.9999 </r>
       <r>   -4.7924    0.9999 </r>
       <r>   -4.7807    0.9999 </r>
       <r>   -4.7714    0.9998 </r>
       <r>   -4.7531    0.9997 </r>
       <r>   -4.7423    0.9996 </r>
       <r>   -4.7401    0.9996 </r>
       <r>   -4.7379    0.9996 </r>
       <r>   -4.7370    0.9996 </r>
       <r>   -4.7277    0.9995 </r>
       <r>   -4.7135    0.9993 </r>
       <r>   -4.7088    0.9993 </r>
       <r>   -4.7059    0.9992 </r>
       <r>   -4.6854    0.9989 </r>
       <r>   -4.6832    0.9988 </r>
       <r>   -4.6828    0.9988 </r>
       <r>   -4.6802    0.9987 </r>
       <r>   -4.6754    0.9986 </r>
       <r>   -4.6753    0.9986 </r>
       <r>   -4.6671    0.9984 </r>
       <r>   -4.6655    0.9984 </r>
       <r>   -4.6617    0.9983 </r>
       <r>   -4.6565    0.9981 </r>
       <r>   -4.6561    0.9981 </r>
       <r>   -4.6547    0.9981 </r>
       <r>   -4.6514    0.9980 </r>
       <r>   -4.6468    0.9978 </r>
       <r>   -4.6467    0.9978 </r>
       <r>   -4.6390    0.9976 </r>
       <r>   -4.6369    0.9975 </r>
       <r>   -4.6327    0.9974 </r>
       <r>   -4.6324    0.9973 </r>
       <r>   -4.6282    0.9972 </r>
       <r>   -4.6263    0.9971 </r>
       <r>   -4.5989    0.9961 </r>
       <r>   -4.5986    0.9961 </r>
       <r>   -4.5941    0.9959 </r>
       <r>   -4.5940    0.9959 </r>
       <r>   -4.5900    0.9958 </r>
       <r>   -4.5898    0.9958 </r>
       <r>   -4.5845    0.9956 </r>
       <r>   -4.5770    0.9954 </r>
       <r>   -4.5698    0.9952 </r>
       <r>   -4.5569    0.9951 </r>
       <r>   -4.5567    0.9951 </r>
       <r>   -4.5536    0.9951 </r>
       <r>   -4.5535    0.9951 </r>
       <r>   -4.5526    0.9951 </r>
       <r>   -4.5524    0.9951 </r>
       <r>   -4.5488    0.9951 </r>
       <r>   -4.5483    0.9951 </r>
       <r>   -4.5182    0.9963 </r>
       <r>   -4.5151    0.9966 </r>
       <r>   -4.5138    0.9967 </r>
       <r>   -4.5099    0.9971 </r>
       <r>   -4.5047    0.9977 </r>
       <r>   -4.4925    0.9995 </r>
       <r>   -4.4842    1.0011 </r>
       <r>   -4.4837    1.0012 </r>
       <r>   -4.4768    1.0028 </r>
       <r>   -4.4761    1.0029 </r>
       <r>   -4.4693    1.0047 </r>
       <r>   -4.4681    1.0050 </r>
       <r>   -4.4657    1.0057 </r>
       <r>   -4.4623    1.0067 </r>
       <r>   -4.4615    1.0070 </r>
       <r>   -4.4561    1.0087 </r>
       <r>   -4.4553    1.0090 </r>
       <r>   -4.4468    1.0120 </r>
       <r>   -4.4461    1.0123 </r>
       <r>   -4.4412    1.0142 </r>
       <r>   -4.4322    1.0179 </r>
       <r>   -4.4231    1.0219 </r>
       <r>   -4.4108    1.0278 </r>
       <r>   -4.4103    1.0280 </r>
       <r>   -4.4081    1.0291 </r>
       <r>   -4.4055    1.0303 </r>
       <r>   -4.4050    1.0305 </r>
       <r>   -4.4011    1.0324 </r>
       <r>   -4.3999    1.0330 </r>
       <r>   -4.3993    1.0333 </r>
       <r>   -4.3964    1.0346 </r>
       <r>   -4.3949    1.0353 </r>
       <r>   -4.3631    1.0482 </r>
       <r>   -4.3565    1.0499 </r>
       <r>   -4.3545    1.0503 </r>
       <r>   -4.3438    1.0516 </r>
       <r>   -4.3393    1.0516 </r>
       <r>   -4.3382    1.0515 </r>
       <r>   -4.3379    1.0515 </r>
       <r>   -4.3349    1.0512 </r>
       <r>   -4.3309    1.0506 </r>
       <r>   -4.3309    1.0506 </r>
       <r>   -4.3276    1.0498 </r>
       <r>   -4.3262    1.0494 </r>
       <r>   -4.3242    1.0488 </r>
       <r>   -4.3230    1.0484 </r>
       <r>   -4.3224    1.0481 </r>
       <r>   -4.3170    1.0457 </r>
       <r>   -4.3163    1.0453 </r>
       <r>   -4.3146    1.0443 </r>
       <r>   -4.3102    1.0416 </r>
       <r>   -4.3013    1.0342 </r>
       <r>   -4.3011    1.0340 </r>
       <r>   -4.2998    1.0327 </r>
       <r>   -4.2927    1.0248 </r>
       <r>   -4.2914    1.0231 </r>
       <r>   -4.2851    1.0144 </r>
       <r>   -4.2846    1.0137 </r>
       <r>   -4.2838    1.0124 </r>
       <r>   -4.2837    1.0123 </r>
       <r>   -4.2703    0.9884 </r>
       <r>   -4.2607    0.9672 </r>
       <r>   -4.2605    0.9667 </r>
       <r>   -4.2569    0.9580 </r>
       <r>   -4.2526    0.9465 </r>
       <r>   -4.2518    0.9446 </r>
       <r>   -4.2510    0.9424 </r>
       <r>   -4.2509    0.9419 </r>
       <r>   -4.2443    0.9229 </r>
       <r>   -4.2443    0.9228 </r>
       <r>   -4.2389    0.9060 </r>
       <r>   -4.2376    0.9017 </r>
       <r>   -4.2375    0.9014 </r>
       <r>   -4.2364    0.8978 </r>
       <r>   -4.2341    0.8899 </r>
       <r>   -4.2221    0.8464 </r>
       <r>   -4.2197    0.8372 </r>
       <r>   -4.2195    0.8364 </r>
       <r>   -4.2190    0.8344 </r>
       <r>   -4.2157    0.8210 </r>
       <r>   -4.2154    0.8199 </r>
       <r>   -4.1997    0.7520 </r>
       <r>   -4.1970    0.7395 </r>
       <r>   -4.1961    0.7353 </r>
       <r>   -4.1897    0.7047 </r>
       <r>   -4.1852    0.6831 </r>
       <r>   -4.1845    0.6798 </r>
       <r>   -4.1810    0.6620 </r>
       <r>   -4.1702    0.6073 </r>
       <r>   -4.1694    0.6033 </r>
       <r>   -4.1694    0.6031 </r>
       <r>   -4.1559    0.5325 </r>
       <r>   -4.1510    0.5065 </r>
       <r>   -4.1331    0.4124 </r>
       <r>   -4.1328    0.4106 </r>
       <r>   -4.1268    0.3797 </r>
       <r>   -4.1210    0.3502 </r>
       <r>   -4.1110    0.3011 </r>
       <r>   -4.0242    0.0020 </r>
       <r>   -3.9533   -0.0514 </r>
       <r>   -3.9076   -0.0368 </r>
       <r>   -3.8288   -0.0043 </r>
       <r>   -3.8229   -0.0028 </r>
       <r>   -3.8175   -0.0016 </r>
       <r>   -3.4975    0.0001 </r>
       <r>   -3.4962    0.0001 </r>
       <r>   -3.3660    0.0000 </r>
       <r>   -3.0694    0.0000 </r>
       <r>   -3.0684    0.0000 </r>
       <r>   -3.0287    0.0000 </r>
       <r>   -3.0236    0.0000 </r>
       <r>   -3.0146    0.0000 </r>
       <r>   -3.0142    0.0000 </r>
       <r>   -2.9348    0.0000 </r>
       <r>   -2.7832    0.0000 </r>
       <r>   -2.5626    0.0000 </r>
       <r>   -2.5525    0.0000 </r>
       <r>   -2.5214    0.0000 </r>
       <r>   -2.2097    0.0000 </r>
       <r>   -2.1523    0.0000 </r>
       <r>   -2.1374    0.0000 </r>
       <r>   -2.1196    0.0000 </r>
       <r>   -1.9539    0.0000 </r>
       <r>   -1.9516    0.0000 </r>
       <r>   -1.8629    0.0000 </r>
       <r>   -1.8503    0.0000 </r>
       <r>   -1.8461    0.0000 </r>
       <r>   -1.7251    0.0000 </r>
       <r>   -1.7072    0.0000 </r>
       <r>   -1.6836    0.0000 </r>
       <r>   -1.6401    0.0000 </r>
       <r>   -1.5553    0.0000 </r>
       <r>   -1.5024    0.0000 </r>
       <r>   -1.3066    0.0000 </r>
       <r>   -1.2929    0.0000 </r>
       <r>   -1.0367    0.0000 </r>
       <r>   -1.0246    0.0000 </r>
       <r>   -1.0180    0.0000 </r>
       <r>   -0.9470    0.0000 </r>
       <r>   -0.9420    0.0000 </r>
       <r>   -0.9380    0.0000 </r>
       <r>   -0.9375    0.0000 </r>
       <r>   -0.9108    0.0000 </r>
       <r>   -0.8293    0.0000 </r>
       <r>   -0.8229    0.0000 </r>
       <r>   -0.7984    0.0000 </r>
      </set>
     </set>
    </set>
   </array>
  </eigenvalues>
  <separator name="orbital magnetization" >
   <v name="MAGDIPOLOUT">      0.00000000      0.00000000      0.00000000</v>
  </separator>
  <dos>
   <i name="efermi">     -4.14974540 </i>
   <total>
    <array>
     <dimension dim="1">gridpoints</dimension>
     <dimension dim="2">spin</dimension>
     <field>energy</field>
     <field>total</field>
     <field>integrated</field>
     <set>
      <set comment="spin 1">
       <r>   -30.1089     0.0000     0.0000 </r>
       <r>   -30.0045     0.0000     0.0000 </r>
       <r>   -29.9001     0.0000     0.0000 </r>
       <r>   -29.7958     0.0000     0.0000 </r>
       <r>   -29.6914     0.0000     0.0000 </r>
       <r>   -29.5870     0.0000     0.0000 </r>
       <r>   -29.4826     0.0000     0.0000 </r>
       <r>   -29.3783     0.0000     0.0000 </r>
       <r>   -29.2739     0.0000     0.0000 </r>
       <r>   -29.1695     0.0000     0.0000 </r>
       <r>   -29.0652     0.0000     0.0000 </r>
       <r>   -28.9608     0.0000     0.0000 </r>
       <r>   -28.8564     0.0001     0.0000 </r>
       <r>   -28.7521     0.0019     0.0002 </r>
       <r>   -28.6477     0.0186     0.0021 </r>
       <r>   -28.5433     0.0636     0.0088 </r>
       <r>   -28.4390    -0.1236    -0.0041 </r>
       <r>   -28.3346    -0.8021    -0.0878 </r>
       <r>   -28.2302     1.0312     0.0198 </r>
       <r>   -28.1259     7.6779     0.8211 </r>
       <r>   -28.0215     9.3810     1.8002 </r>
       <r>   -27.9171     2.9036     2.1032 </r>
       <r>   -27.8128    -0.7522     2.0247 </r>
       <r>   -27.7084    -0.3315     1.9901 </r>
       <r>   -27.6040     0.0575     1.9961 </r>
       <r>   -27.4997     0.0323     1.9995 </r>
       <r>   -27.3953     0.0043     2.0000 </r>
       <r>   -27.2909     0.0003     2.0000 </r>
       <r>   -27.1865     0.0000     2.0000 </r>
       <r>   -27.0822     0.0000     2.0000 </r>
       <r>   -26.9778     0.0000     2.0000 </r>
       <r>   -26.8734     0.0000     2.0000 </r>
       <r>   -26.7691     0.0000     2.0000 </r>
       <r>   -26.6647     0.0000     2.0000 </r>
       <r>   -26.5603     0.0000     2.0000 </r>
       <r>   -26.4560     0.0000     2.0000 </r>
       <r>   -26.3516     0.0000     2.0000 </r>
       <r>   -26.2472     0.0000     2.0000 </r>
       <r>   -26.1429     0.0000     2.0000 </r>
       <r>   -26.0385     0.0000     2.0000 </r>
       <r>   -25.9341     0.0000     2.0000 </r>
       <r>   -25.8298     0.0000     2.0000 </r>
       <r>   -25.7254     0.0000     2.0000 </r>
       <r>   -25.6210     0.0000     2.0000 </r>
       <r>   -25.5167     0.0000     2.0000 </r>
       <r>   -25.4123     0.0000     2.0000 </r>
       <r>   -25.3079     0.0000     2.0000 </r>
       <r>   -25.2036     0.0000     2.0000 </r>
       <r>   -25.0992     0.0000     2.0000 </r>
       <r>   -24.9948     0.0000     2.0000 </r>
       <r>   -24.8904     0.0000     2.0000 </r>
       <r>   -24.7861     0.0000     2.0000 </r>
       <r>   -24.6817     0.0000     2.0000 </r>
       <r>   -24.5773     0.0000     2.0000 </r>
       <r>   -24.4730     0.0000     2.0000 </r>
       <r>   -24.3686     0.0000     2.0000 </r>
       <r>   -24.2642     0.0000     2.0000 </r>
       <r>   -24.1599     0.0000     2.0000 </r>
       <r>   -24.0555     0.0000     2.0000 </r>
       <r>   -23.9511     0.0000     2.0000 </r>
       <r>   -23.8468     0.0000     2.0000 </r>
       <r>   -23.7424     0.0000     2.0000 </r>
       <r>   -23.6380     0.0000     2.0000 </r>
       <r>   -23.5337     0.0000     2.0000 </r>
       <r>   -23.4293     0.0000     2.0000 </r>
       <r>   -23.3249     0.0000     2.0000 </r>
       <r>   -23.2206     0.0000     2.0000 </r>
       <r>   -23.1162     0.0000     2.0000 </r>
       <r>   -23.0118     0.0000     2.0000 </r>
       <r>   -22.9075     0.0000     2.0000 </r>
       <r>   -22.8031     0.0000     2.0000 </r>
       <r>   -22.6987     0.0000     2.0000 </r>
       <r>   -22.5943     0.0000     2.0000 </r>
       <r>   -22.4900     0.0000     2.0000 </r>
       <r>   -22.3856     0.0000     2.0000 </r>
       <r>   -22.2812     0.0000     2.0000 </r>
       <r>   -22.1769     0.0000     2.0000 </r>
       <r>   -22.0725     0.0000     2.0000 </r>
       <r>   -21.9681     0.0000     2.0000 </r>
       <r>   -21.8638     0.0000     2.0000 </r>
       <r>   -21.7594     0.0000     2.0000 </r>
       <r>   -21.6550     0.0000     2.0000 </r>
       <r>   -21.5507     0.0000     2.0000 </r>
       <r>   -21.4463     0.0000     2.0000 </r>
       <r>   -21.3419     0.0000     2.0000 </r>
       <r>   -21.2376     0.0000     2.0000 </r>
       <r>   -21.1332     0.0000     2.0000 </r>
       <r>   -21.0288     0.0000     2.0000 </r>
       <r>   -20.9245     0.0000     2.0000 </r>
       <r>   -20.8201     0.0000     2.0000 </r>
       <r>   -20.7157     0.0000     2.0000 </r>
       <r>   -20.6114     0.0000     2.0000 </r>
       <r>   -20.5070     0.0000     2.0000 </r>
       <r>   -20.4026     0.0000     2.0000 </r>
       <r>   -20.2982     0.0000     2.0000 </r>
       <r>   -20.1939     0.0000     2.0000 </r>
       <r>   -20.0895     0.0000     2.0000 </r>
       <r>   -19.9851     0.0000     2.0000 </r>
       <r>   -19.8808     0.0000     2.0000 </r>
       <r>   -19.7764     0.0000     2.0000 </r>
       <r>   -19.6720     0.0000     2.0000 </r>
       <r>   -19.5677     0.0000     2.0000 </r>
       <r>   -19.4633     0.0000     2.0000 </r>
       <r>   -19.3589     0.0000     2.0000 </r>
       <r>   -19.2546     0.0000     2.0000 </r>
       <r>   -19.1502     0.0000     2.0000 </r>
       <r>   -19.0458     0.0000     2.0000 </r>
       <r>   -18.9415     0.0000     2.0000 </r>
       <r>   -18.8371     0.0000     2.0000 </r>
       <r>   -18.7327     0.0000     2.0000 </r>
       <r>   -18.6284     0.0000     2.0000 </r>
       <r>   -18.5240     0.0000     2.0000 </r>
       <r>   -18.4196     0.0000     2.0000 </r>
       <r>   -18.3152     0.0000     2.0000 </r>
       <r>   -18.2109     0.0000     2.0000 </r>
       <r>   -18.1065     0.0000     2.0000 </r>
       <r>   -18.0021     0.0000     2.0000 </r>
       <r>   -17.8978     0.0000     2.0000 </r>
       <r>   -17.7934     0.0000     2.0000 </r>
       <r>   -17.6890     0.0000     2.0000 </r>
       <r>   -17.5847     0.0000     2.0000 </r>
       <r>   -17.4803     0.0000     2.0000 </r>
       <r>   -17.3759     0.0000     2.0000 </r>
       <r>   -17.2716     0.0000     2.0000 </r>
       <r>   -17.1672     0.0000     2.0000 </r>
       <r>   -17.0628     0.0000     2.0000 </r>
       <r>   -16.9585     0.0000     2.0000 </r>
       <r>   -16.8541     0.0000     2.0000 </r>
       <r>   -16.7497     0.0000     2.0000 </r>
       <r>   -16.6454     0.0000     2.0000 </r>
       <r>   -16.5410     0.0000     2.0000 </r>
       <r>   -16.4366     0.0000     2.0000 </r>
       <r>   -16.3323     0.0000     2.0000 </r>
       <r>   -16.2279     0.0000     2.0000 </r>
       <r>   -16.1235     0.0000     2.0000 </r>
       <r>   -16.0191     0.0000     2.0000 </r>
       <r>   -15.9148     0.0000     2.0000 </r>
       <r>   -15.8104     0.0000     2.0000 </r>
       <r>   -15.7060     0.0000     2.0000 </r>
       <r>   -15.6017     0.0000     2.0000 </r>
       <r>   -15.4973     0.0000     2.0000 </r>
       <r>   -15.3929     0.0000     2.0000 </r>
       <r>   -15.2886     0.0000     2.0000 </r>
       <r>   -15.1842     0.0000     2.0000 </r>
       <r>   -15.0798     0.0000     2.0000 </r>
       <r>   -14.9755     0.0000     2.0000 </r>
       <r>   -14.8711     0.0000     2.0000 </r>
       <r>   -14.7667     0.0000     2.0000 </r>
       <r>   -14.6624     0.0000     2.0000 </r>
       <r>   -14.5580     0.0000     2.0000 </r>
       <r>   -14.4536     0.0001     2.0000 </r>
       <r>   -14.3493     0.0023     2.0002 </r>
       <r>   -14.2449     0.0211     2.0025 </r>
       <r>   -14.1405     0.0646     2.0092 </r>
       <r>   -14.0362    -0.1610     1.9924 </r>
       <r>   -13.9318    -0.8193     1.9069 </r>
       <r>   -13.8274     1.3763     2.0505 </r>
       <r>   -13.7230     8.1064     2.8966 </r>
       <r>   -13.6187     9.0951     3.8458 </r>
       <r>   -13.5143     2.4585     4.1024 </r>
       <r>   -13.4099    -0.7943     4.0195 </r>
       <r>   -13.3056    -0.2812     3.9901 </r>
       <r>   -13.2012     0.0615     3.9966 </r>
       <r>   -13.0968     0.0290     3.9996 </r>
       <r>   -12.9925     0.0037     4.0000 </r>
       <r>   -12.8881     0.0002     4.0000 </r>
       <r>   -12.7837     0.0000     4.0000 </r>
       <r>   -12.6794     0.0000     4.0000 </r>
       <r>   -12.5750     0.0000     4.0000 </r>
       <r>   -12.4706     0.0000     4.0000 </r>
       <r>   -12.3663     0.0000     4.0000 </r>
       <r>   -12.2619     0.0000     4.0000 </r>
       <r>   -12.1575     0.0000     4.0000 </r>
       <r>   -12.0532     0.0008     4.0001 </r>
       <r>   -11.9488     0.0097     4.0011 </r>
       <r>   -11.8444     0.0507     4.0064 </r>
       <r>   -11.7401     0.0011     4.0065 </r>
       <r>   -11.6357    -0.6091     3.9429 </r>
       <r>   -11.5313    -0.1660     3.9256 </r>
       <r>   -11.4269     5.4342     4.4928 </r>
       <r>   -11.3226    10.1456     5.5516 </r>
       <r>   -11.2182     5.1301     6.0871 </r>
       <r>   -11.1138    -1.5658     5.9236 </r>
       <r>   -11.0095    -0.2912     5.8933 </r>
       <r>   -10.9051    12.0167     7.1474 </r>
       <r>   -10.8007    19.7581     9.2095 </r>
       <r>   -10.6964     9.1985    10.1696 </r>
       <r>   -10.5920    -0.7345    10.0929 </r>
       <r>   -10.4876    -1.0371     9.9847 </r>
       <r>   -10.3833     0.0406     9.9889 </r>
       <r>   -10.2789     0.0893     9.9982 </r>
       <r>   -10.1745     0.0159     9.9999 </r>
       <r>   -10.0702     0.0012    10.0000 </r>
       <r>    -9.9658     0.0000    10.0000 </r>
       <r>    -9.8614     0.0000    10.0000 </r>
       <r>    -9.7571     0.0000    10.0000 </r>
       <r>    -9.6527     0.0000    10.0000 </r>
       <r>    -9.5483     0.0000    10.0000 </r>
       <r>    -9.4440     0.0000    10.0000 </r>
       <r>    -9.3396     0.0000    10.0000 </r>
       <r>    -9.2352     0.0000    10.0000 </r>
       <r>    -9.1308     0.0000    10.0000 </r>
       <r>    -9.0265     0.0000    10.0000 </r>
       <r>    -8.9221     0.0000    10.0000 </r>
       <r>    -8.8177     0.0000    10.0000 </r>
       <r>    -8.7134     0.0000    10.0000 </r>
       <r>    -8.6090     0.0000    10.0000 </r>
       <r>    -8.5046     0.0000    10.0000 </r>
       <r>    -8.4003     0.0000    10.0000 </r>
       <r>    -8.2959     0.0000    10.0000 </r>
       <r>    -8.1915     0.0000    10.0000 </r>
       <r>    -8.0872     0.0000    10.0000 </r>
       <r>    -7.9828     0.0000    10.0000 </r>
       <r>    -7.8784     0.0000    10.0000 </r>
       <r>    -7.7741     0.0013    10.0001 </r>
       <r>    -7.6697     0.0171    10.0019 </r>
       <r>    -7.5653     0.0940    10.0117 </r>
       <r>    -7.4610     0.0289    10.0148 </r>
       <r>    -7.3566    -1.1068     9.8992 </r>
       <r>    -7.2522    -0.6025     9.8364 </r>
       <r>    -7.1478     9.8637    10.8658 </r>
       <r>    -7.0435    19.9231    12.9452 </r>
       <r>    -6.9391    10.7897    14.0713 </r>
       <r>    -6.8347    -0.2423    14.0460 </r>
       <r>    -6.7304     4.0991    14.4738 </r>
       <r>    -6.6260    10.1670    15.5349 </r>
       <r>    -6.5216     5.2659    16.0845 </r>
       <r>    -6.4173    -1.8221    15.8943 </r>
       <r>    -6.3129    -0.0533    15.8888 </r>
       <r>    -6.2085    16.6191    17.6233 </r>
       <r>    -6.1042    34.9747    21.2735 </r>
       <r>    -5.9998    30.3492    24.4410 </r>
       <r>    -5.8954    21.1344    26.6468 </r>
       <r>    -5.7911    38.8840    30.7050 </r>
       <r>    -5.6867    78.2304    38.8698 </r>
       <r>    -5.5823   161.1451    55.6882 </r>
       <r>    -5.4780   271.7951    84.0550 </r>
       <r>    -5.3736   288.8405   114.2007 </r>
       <r>    -5.2692   218.5045   137.0057 </r>
       <r>    -5.1649   211.7471   159.1053 </r>
       <r>    -5.0605   303.1629   190.7459 </r>
       <r>    -4.9561   366.0286   228.9477 </r>
       <r>    -4.8517   320.0448   262.3502 </r>
       <r>    -4.7474   290.0697   292.6242 </r>
       <r>    -4.6430   364.4079   330.6568 </r>
       <r>    -4.5386   416.8008   374.1576 </r>
       <r>    -4.4343   423.5257   418.3602 </r>
       <r>    -4.3299   499.8769   470.5315 </r>
       <r>    -4.2255   552.9368   528.2405 </r>
       <r>    -4.1212   379.6062   567.8593 </r>
       <r>    -4.0168   115.8927   579.9549 </r>
       <r>    -3.9124    17.4055   581.7714 </r>
       <r>    -3.8081    32.4029   585.1533 </r>
       <r>    -3.7037    24.4990   587.7102 </r>
       <r>    -3.5993     6.4519   588.3836 </r>
       <r>    -3.4950    16.1380   590.0679 </r>
       <r>    -3.3906    23.8260   592.5545 </r>
       <r>    -3.2862     9.5641   593.5527 </r>
       <r>    -3.1819     2.8022   593.8452 </r>
       <r>    -3.0775    34.9619   597.4941 </r>
       <r>    -2.9731    63.5626   604.1280 </r>
       <r>    -2.8688    39.9342   608.2959 </r>
       <r>    -2.7644     9.6330   609.3013 </r>
       <r>    -2.6600     8.4706   610.1853 </r>
       <r>    -2.5556    24.6839   612.7615 </r>
       <r>    -2.4513    25.1463   615.3860 </r>
       <r>    -2.3469     5.8307   615.9946 </r>
       <r>    -2.2425     9.5031   616.9864 </r>
       <r>    -2.1382    32.0185   620.3281 </r>
       <r>    -2.0338    34.4907   623.9278 </r>
       <r>    -1.9294    33.0674   627.3790 </r>
       <r>    -1.8251    43.0829   631.8755 </r>
       <r>    -1.7207    47.0978   636.7910 </r>
       <r>    -1.6163    43.2774   641.3078 </r>
       <r>    -1.5120    30.1252   644.4519 </r>
       <r>    -1.4076    17.3293   646.2605 </r>
       <r>    -1.3032    16.5434   647.9871 </r>
       <r>    -1.1989    11.9217   649.2314 </r>
       <r>    -1.0945    14.0712   650.7000 </r>
       <r>    -0.9901    52.1759   656.1455 </r>
       <r>    -0.8858    80.9692   664.5961 </r>
       <r>    -0.7814    57.8202   670.6307 </r>
       <r>    -0.6770    16.8422   672.3885 </r>
       <r>    -0.5727    -2.1638   672.1626 </r>
       <r>    -0.4683    -1.9721   671.9568 </r>
       <r>    -0.3639     0.1393   671.9713 </r>
       <r>    -0.2595     0.2256   671.9949 </r>
       <r>    -0.1552     0.0450   671.9996 </r>
       <r>    -0.0508     0.0038   672.0000 </r>
       <r>     0.0536     0.0002   672.0000 </r>
       <r>     0.1579     0.0000   672.0000 </r>
       <r>     0.2623     0.0000   672.0000 </r>
       <r>     0.3667     0.0000   672.0000 </r>
       <r>     0.4710     0.0000   672.0000 </r>
       <r>     0.5754     0.0000   672.0000 </r>
       <r>     0.6798     0.0000   672.0000 </r>
       <r>     0.7841     0.0000   672.0000 </r>
       <r>     0.8885     0.0000   672.0000 </r>
       <r>     0.9929     0.0000   672.0000 </r>
       <r>     1.0972     0.0000   672.0000 </r>
       <r>     1.2016     0.0000   672.0000 </r>
      </set>
     </set>
    </array>
   </total>
  </dos>
 </calculation>
 <structure name="finalpos" >
  <crystal>
   <varray name="basis" >
    <v>      30.00000000       0.00000000       0.00000000 </v>
    <v>       0.00000000      30.00000000       0.00000000 </v>
    <v>       0.00000000       0.00000000      30.00000000 </v>
   </varray>
   <i name="volume">  27000.00000000 </i>
   <varray name="rec_basis" >
    <v>       0.03333333       0.00000000       0.00000000 </v>
    <v>       0.00000000       0.03333333       0.00000000 </v>
    <v>       0.00000000       0.00000000       0.03333333 </v>
   </varray>
  </crystal>
  <varray name="positions" >
   <v>       0.44576020       0.32826710       0.41691983 </v>
   <v>       0.67173288       0.55423978       0.41691983 </v>
   <v>       0.55423980       0.32826710       0.41691983 </v>
   <v>       0.32826712       0.55423978       0.41691983 </v>
   <v>       0.50000000       0.38250690       0.34021317 </v>
   <v>       0.50000000       0.38250690       0.65978680 </v>
   <v>       0.50000000       0.27609440       0.50000000 </v>
   <v>       0.27609443       0.49999998       0.50000000 </v>
   <v>       0.72390557       0.49999998       0.50000000 </v>
   <v>       0.50000000       0.72390555       0.50000000 </v>
   <v>       0.61195280       0.38804720       0.34167483 </v>
   <v>       0.61195280       0.38804720       0.65832513 </v>
   <v>       0.38804722       0.61195278       0.34167483 </v>
   <v>       0.38804722       0.61195278       0.65832513 </v>
   <v>       0.38804720       0.38804720       0.34167483 </v>
   <v>       0.38804720       0.38804720       0.65832513 </v>
   <v>       0.61195278       0.61195278       0.34167483 </v>
   <v>       0.61195278       0.61195278       0.65832513 </v>
   <v>       0.44576020       0.32826710       0.58308023 </v>
   <v>       0.67173288       0.55423978       0.58308023 </v>
   <v>       0.55791699       0.44208301       0.41809300 </v>
   <v>       0.32826705       0.44576024       0.41691983 </v>
   <v>       0.55423973       0.67173293       0.41691983 </v>
   <v>       0.55423980       0.32826710       0.58308023 </v>
   <v>       0.32826712       0.55423978       0.58308023 </v>
   <v>       0.67173295       0.44576024       0.41691983 </v>
   <v>       0.44576027       0.67173293       0.41691983 </v>
   <v>       0.44208301       0.44208301       0.41809300 </v>
   <v>       0.50000000       0.38416601       0.50000000 </v>
   <v>       0.61749315       0.50000005       0.34021317 </v>
   <v>       0.61749315       0.50000005       0.65978680 </v>
   <v>       0.38250685       0.50000005       0.34021317 </v>
   <v>       0.38250685       0.50000005       0.65978680 </v>
   <v>       0.38317830       0.38317830       0.50000000 </v>
   <v>       0.61682172       0.61682172       0.50000000 </v>
   <v>       0.61682170       0.38317830       0.50000000 </v>
   <v>       0.38317828       0.61682172       0.50000000 </v>
   <v>       0.50000000       0.50000000       0.33478917 </v>
   <v>       0.50000000       0.50000000       0.66521087 </v>
   <v>       0.32826705       0.44576024       0.58308023 </v>
   <v>       0.55423973       0.67173293       0.58308023 </v>
   <v>       0.55791699       0.44208301       0.58190703 </v>
   <v>       0.44208298       0.55791702       0.41809300 </v>
   <v>       0.44208301       0.44208301       0.58190703 </v>
   <v>       0.67173295       0.44576024       0.58308023 </v>
   <v>       0.44576027       0.67173293       0.58308023 </v>
   <v>       0.55791702       0.55791702       0.41809300 </v>
   <v>       0.38416599       0.50000002       0.50000000 </v>
   <v>       0.61583401       0.50000002       0.50000000 </v>
   <v>       0.50000000       0.61749319       0.34021317 </v>
   <v>       0.50000000       0.61749319       0.65978680 </v>
   <v>       0.50000000       0.50000000       0.50000000 </v>
   <v>       0.44208298       0.55791702       0.58190703 </v>
   <v>       0.55791702       0.55791702       0.58190703 </v>
   <v>       0.50000000       0.61583404       0.50000000 </v>
   <v>       0.48894553       0.51291853       0.71777393 </v>
   <v>       0.48704273       0.51514223       0.75525983 </v>
  </varray>
  <varray name="selective"  type="logical" >
   <v type="logical" >  F  F  F </v>
   <v type="logical" >  F  F  F </v>
   <v type="logical" >  F  F  F </v>
   <v type="logical" >  F  F  F </v>
   <v type="logical" >  F  F  F </v>
   <v type="logical" >  F  F  F </v>
   <v type="logical" >  F  F  F </v>
   <v type="logical" >  F  F  F </v>
   <v type="logical" >  F  F  F </v>
   <v type="logical" >  F  F  F </v>
   <v type="logical" >  F  F  F </v>
   <v type="logical" >  F  F  F </v>
   <v type="logical" >  F  F  F </v>
   <v type="logical" >  F  F  F </v>
   <v type="logical" >  F  F  F </v>
   <v type="logical" >  F  F  F </v>
   <v type="logical" >  F  F  F </v>
   <v type="logical" >  F  F  F </v>
   <v type="logical" >  F  F  F </v>
   <v type="logical" >  F  F  F </v>
   <v type="logical" >  F  F  F </v>
   <v type="logical" >  F  F  F </v>
   <v type="logical" >  F  F  F </v>
   <v type="logical" >  F  F  F </v>
   <v type="logical" >  F  F  F </v>
   <v type="logical" >  F  F  F </v>
   <v type="logical" >  F  F  F </v>
   <v type="logical" >  F  F  F </v>
   <v type="logical" >  F  F  F </v>
   <v type="logical" >  F  F  F </v>
   <v type="logical" >  F  F  F </v>
   <v type="logical" >  F  F  F </v>
   <v type="logical" >  F  F  F </v>
   <v type="logical" >  F  F  F </v>
   <v type="logical" >  F  F  F </v>
   <v type="logical" >  F  F  F </v>
   <v type="logical" >  F  F  F </v>
   <v type="logical" >  F  F  F </v>
   <v type="logical" >  F  F  F </v>
   <v type="logical" >  F  F  F </v>
   <v type="logical" >  F  F  F </v>
   <v type="logical" >  F  F  F </v>
   <v type="logical" >  F  F  F </v>
   <v type="logical" >  F  F  F </v>
   <v type="logical" >  F  F  F </v>
   <v type="logical" >  F  F  F </v>
   <v type="logical" >  F  F  F </v>
   <v type="logical" >  F  F  F </v>
   <v type="logical" >  F  F  F </v>
   <v type="logical" >  F  F  F </v>
   <v type="logical" >  F  F  F </v>
   <v type="logical" >  F  F  F </v>
   <v type="logical" >  F  F  F </v>
   <v type="logical" >  F  F  F </v>
   <v type="logical" >  F  F  F </v>
   <v type="logical" >  F  F  F </v>
   <v type="logical" >  F  F  F </v>
  </varray>
  <nose>
   <v>      -3.00000000       0.00000000       0.00010000       0.00010000 </v>
  </nose>
 </structure>
</modeling>
