<?xml version="1.0" encoding="ISO-8859-1"?>
<modeling>
 <generator>
  <i name="program" type="string">vasp </i>
  <i name="version" type="string">5.4.4.18Apr17-6-g9f103f2a35  </i>
  <i name="subversion" type="string">(build Sep 03 2018 23:53:05) complex            parallel </i>
  <i name="platform" type="string">LinuxIFC </i>
  <i name="date" type="string">2021 12 01 </i>
  <i name="time" type="string">10:32:56 </i>
 </generator>
 <incar>
  <i type="string" name="SYSTEM"> 6_Pd100_top_free_z(O)</i>
  <i type="int" name="ISTART">     0</i>
  <i type="string" name="PREC">normal   			! encut=max(enmax), ngx,y,z</i>
  <i type="string" name="ALGO"> Fast     			! Mix RMM-DIIS and Dav</i>
  <i type="logical" name="ADDGRID"> F  </i>
  <i type="int" name="ISPIN">     1</i>
  <i type="int" name="ICHARG">     2</i>
  <i type="int" name="NELM">   100</i>
  <i type="int" name="NELMIN">     6</i>
  <i type="int" name="IBRION">     2</i>
  <i name="EDIFF">      0.00010000</i>
  <i name="EDIFFG">     -0.05000000</i>
  <i type="int" name="NSW">     0</i>
  <i type="int" name="ISIF">     2</i>
  <i type="int" name="ISYM">     2</i>
  <i name="ENCUT">    400.00000000</i>
  <i type="string" name="LREAL"> Auto     			! Auto or A projection done</i>
  <i type="int" name="ISMEAR">     2</i>
  <i name="SIGMA">      0.20000000</i>
  <i type="logical" name="LWAVE"> F  </i>
  <i type="logical" name="LCHARG"> F  </i>
  <v type="int" name="KPOINT_BSE">    -1     0     0     0</v>
  <i type="int" name="MAXMEM"> 10000</i>
  <i type="int" name="NELM">   100</i>
  <i type="string" name="GGA"> RP         			! Revised PBE</i>
 </incar>
 <structure name="primitive_cell" >
  <crystal>
   <varray name="basis" >
    <v>      30.00000000       0.00000000       0.00000000 </v>
    <v>       0.00000000      30.00000000       0.00000000 </v>
    <v>       0.00000000       0.00000000      30.00000000 </v>
   </varray>
   <i name="volume">  27000.00000000 </i>
   <varray name="rec_basis" >
    <v>       0.03333333       0.00000000       0.00000000 </v>
    <v>       0.00000000       0.03333333       0.00000000 </v>
    <v>       0.00000000       0.00000000       0.03333333 </v>
   </varray>
  </crystal>
  <varray name="positions" >
   <v>       0.44576020       0.32826710       0.41691983 </v>
   <v>      -0.44576020       0.32826710       0.41691983 </v>
   <v>      -0.50000000       0.38250690       0.34021317 </v>
   <v>      -0.50000000       0.27609440      -0.50000000 </v>
   <v>       0.38804720       0.38804720       0.34167483 </v>
   <v>      -0.50000000       0.38416601      -0.50000000 </v>
   <v>       0.44208300       0.44208300       0.41809300 </v>
   <v>       0.38317830       0.38317830      -0.50000000 </v>
   <v>      -0.44208300       0.44208300       0.41809300 </v>
   <v>       0.44576020       0.32826710      -0.41691977 </v>
   <v>       0.32826705       0.44576024       0.41691983 </v>
   <v>      -0.38804720       0.38804720       0.34167483 </v>
   <v>      -0.38317830       0.38317830      -0.50000000 </v>
   <v>      -0.50000000      -0.50000000       0.33478917 </v>
   <v>      -0.50000000      -0.50000000      -0.50000000 </v>
   <v>      -0.44576020       0.32826710      -0.41691977 </v>
   <v>       0.38250685      -0.49999995       0.34021317 </v>
   <v>       0.44208300       0.44208300      -0.41809297 </v>
   <v>       0.38416599      -0.49999998      -0.50000000 </v>
   <v>      -0.44208300       0.44208300      -0.41809297 </v>
   <v>       0.44208298      -0.44208298       0.41809300 </v>
   <v>       0.32826705       0.44576024      -0.41691977 </v>
   <v>      -0.50000000       0.38250690      -0.34021320 </v>
   <v>       0.32826712      -0.44576022       0.41691983 </v>
   <v>      -0.38250685      -0.49999995       0.34021317 </v>
   <v>      -0.32826705       0.44576024       0.41691983 </v>
   <v>       0.27609443       0.49999998      -0.50000000 </v>
   <v>       0.38804720       0.38804720      -0.34167487 </v>
   <v>      -0.38416599      -0.49999998      -0.50000000 </v>
   <v>      -0.44208298      -0.44208298       0.41809300 </v>
   <v>       0.44208298      -0.44208298      -0.41809297 </v>
   <v>      -0.38804720       0.38804720      -0.34167487 </v>
   <v>       0.38804722      -0.38804722       0.34167483 </v>
   <v>       0.38250685      -0.49999995      -0.34021320 </v>
   <v>       0.32826712      -0.44576022      -0.41691977 </v>
   <v>      -0.32826705       0.44576024      -0.41691977 </v>
   <v>       0.50000000      -0.38250681       0.34021317 </v>
   <v>      -0.50000000      -0.38416596      -0.50000000 </v>
   <v>      -0.44208298      -0.44208298      -0.41809297 </v>
   <v>      -0.50000000      -0.50000000      -0.33478913 </v>
   <v>       0.38317828      -0.38317828      -0.50000000 </v>
   <v>      -0.32826712      -0.44576022       0.41691983 </v>
   <v>      -0.27609443       0.49999998      -0.50000000 </v>
   <v>      -0.38804722      -0.38804722       0.34167483 </v>
   <v>      -0.38250685      -0.49999995      -0.34021320 </v>
   <v>       0.44576027      -0.32826707       0.41691983 </v>
   <v>      -0.38317828      -0.38317828      -0.50000000 </v>
   <v>      -0.32826712      -0.44576022      -0.41691977 </v>
   <v>      -0.44576027      -0.32826707       0.41691983 </v>
   <v>       0.48863327      -0.49690903      -0.25999103 </v>
   <v>       0.38804722      -0.38804722      -0.34167487 </v>
   <v>      -0.50000000      -0.38250681      -0.34021320 </v>
   <v>       0.44576027      -0.32826707      -0.41691977 </v>
   <v>      -0.44576027      -0.32826707      -0.41691977 </v>
   <v>       0.48685467      -0.49642537      -0.22243627 </v>
   <v>      -0.50000000      -0.27609445       0.50000000 </v>
   <v>      -0.38804722      -0.38804722      -0.34167487 </v>
  </varray>
 </structure>
 <varray name="primitive_index" >
  <v type="int" >        1 </v>
  <v type="int" >        3 </v>
  <v type="int" >        5 </v>
  <v type="int" >        7 </v>
  <v type="int" >       15 </v>
  <v type="int" >       29 </v>
  <v type="int" >       28 </v>
  <v type="int" >       34 </v>
  <v type="int" >       21 </v>
  <v type="int" >       19 </v>
  <v type="int" >       22 </v>
  <v type="int" >       11 </v>
  <v type="int" >       36 </v>
  <v type="int" >       38 </v>
  <v type="int" >       52 </v>
  <v type="int" >       24 </v>
  <v type="int" >       32 </v>
  <v type="int" >       44 </v>
  <v type="int" >       48 </v>
  <v type="int" >       42 </v>
  <v type="int" >       43 </v>
  <v type="int" >       40 </v>
  <v type="int" >        6 </v>
  <v type="int" >        4 </v>
  <v type="int" >       30 </v>
  <v type="int" >       26 </v>
  <v type="int" >        8 </v>
  <v type="int" >       16 </v>
  <v type="int" >       49 </v>
  <v type="int" >       47 </v>
  <v type="int" >       53 </v>
  <v type="int" >       12 </v>
  <v type="int" >       13 </v>
  <v type="int" >       33 </v>
  <v type="int" >       25 </v>
  <v type="int" >       45 </v>
  <v type="int" >       50 </v>
  <v type="int" >       55 </v>
  <v type="int" >       54 </v>
  <v type="int" >       39 </v>
  <v type="int" >       37 </v>
  <v type="int" >        2 </v>
  <v type="int" >        9 </v>
  <v type="int" >       17 </v>
  <v type="int" >       31 </v>
  <v type="int" >       27 </v>
  <v type="int" >       35 </v>
  <v type="int" >       20 </v>
  <v type="int" >       23 </v>
  <v type="int" >       56 </v>
  <v type="int" >       14 </v>
  <v type="int" >       51 </v>
  <v type="int" >       46 </v>
  <v type="int" >       41 </v>
  <v type="int" >       57 </v>
  <v type="int" >       10 </v>
  <v type="int" >       18 </v>
 </varray>
 <kpoints>
  <generation param="Monkhorst-Pack">
   <v type="int" name="divisions">       1        1        1 </v>
   <v name="usershift">      0.00000000       0.00000000       0.00000000 </v>
   <v name="genvec1">      1.00000000       0.00000000       0.00000000 </v>
   <v name="genvec2">      0.00000000       1.00000000       0.00000000 </v>
   <v name="genvec3">      0.00000000       0.00000000       1.00000000 </v>
   <v name="shift">      0.00000000       0.00000000       0.00000000 </v>
  </generation>
  <varray name="kpointlist" >
   <v>       0.00000000       0.00000000       0.00000000 </v>
  </varray>
  <varray name="weights" >
   <v>       1.00000000 </v>
  </varray>
 </kpoints>
 <parameters>
  <separator name="general" >
   <i type="string" name="SYSTEM">6_Pd100_top_free_z(O)</i>
   <i type="logical" name="LCOMPAT"> F  </i>
  </separator>
  <separator name="electronic" >
   <i type="string" name="PREC">normal</i>
   <i name="ENMAX">    400.00000000</i>
   <i name="ENAUG">    644.87300000</i>
   <i name="EDIFF">      0.00010000</i>
   <i type="int" name="IALGO">    68</i>
   <i type="int" name="IWAVPR">    10</i>
   <i type="int" name="NBANDS">   336</i>
   <i name="NELECT">    560.00000000</i>
   <i type="int" name="TURBO">     0</i>
   <i type="int" name="IRESTART">     0</i>
   <i type="int" name="NREBOOT">     0</i>
   <i type="int" name="NMIN">     0</i>
   <i name="EREF">      0.00000000</i>
   <separator name="electronic smearing" >
    <i type="int" name="ISMEAR">     2</i>
    <i name="SIGMA">      0.20000000</i>
    <i name="KSPACING">      0.50000000</i>
    <i type="logical" name="KGAMMA"> T  </i>
   </separator>
   <separator name="electronic projectors" >
    <i type="logical" name="LREAL"> T  </i>
    <v name="ROPT">     -0.00050000     -0.00050000     -0.00050000</v>
    <i type="int" name="LMAXPAW">  -100</i>
    <i type="int" name="LMAXMIX">     2</i>
    <i type="logical" name="NLSPLINE"> F  </i>
   </separator>
   <separator name="electronic startup" >
    <i type="int" name="ISTART">     0</i>
    <i type="int" name="ICHARG">     2</i>
    <i type="int" name="INIWAV">     1</i>
   </separator>
   <separator name="electronic spin" >
    <i type="int" name="ISPIN">     1</i>
    <i type="logical" name="LNONCOLLINEAR"> F  </i>
    <v name="MAGMOM">      1.00000000      1.00000000      1.00000000      1.00000000      1.00000000      1.00000000      1.00000000      1.00000000      1.00000000      1.00000000      1.00000000      1.00000000      1.00000000      1.00000000      1.00000000      1.00000000      1.00000000      1.00000000      1.00000000      1.00000000
      1.00000000      1.00000000      1.00000000      1.00000000      1.00000000      1.00000000      1.00000000      1.00000000      1.00000000      1.00000000      1.00000000      1.00000000      1.00000000      1.00000000      1.00000000      1.00000000      1.00000000      1.00000000      1.00000000      1.00000000
      1.00000000      1.00000000      1.00000000      1.00000000      1.00000000      1.00000000      1.00000000      1.00000000      1.00000000      1.00000000      1.00000000      1.00000000      1.00000000      1.00000000      1.00000000      1.00000000      1.00000000</v>
    <i name="NUPDOWN">     -1.00000000</i>
    <i type="logical" name="LSORBIT"> F  </i>
    <v name="SAXIS">      0.00000000      0.00000000      1.00000000</v>
    <i type="logical" name="LSPIRAL"> F  </i>
    <v name="QSPIRAL">      0.00000000      0.00000000      0.00000000</v>
    <i type="logical" name="LZEROZ"> F  </i>
   </separator>
   <separator name="electronic exchange-correlation" >
    <i type="logical" name="LASPH"> F  </i>
    <i type="logical" name="LMETAGGA"> F  </i>
   </separator>
   <separator name="electronic convergence" >
    <i type="int" name="NELM">   100</i>
    <i type="int" name="NELMDL">    -5</i>
    <i type="int" name="NELMIN">     6</i>
    <i name="ENINI">    400.00000000</i>
    <separator name="electronic convergence detail" >
     <i type="logical" name="LDIAG"> T  </i>
     <i type="logical" name="LSUBROT"> F  </i>
     <i name="WEIMIN">      0.00000000</i>
     <i name="EBREAK">      0.00000007</i>
     <i name="DEPER">      0.30000000</i>
     <i type="int" name="NRMM">     4</i>
     <i name="TIME">      0.40000000</i>
    </separator>
   </separator>
   <separator name="electronic mixer" >
    <i name="AMIX">      0.40000000</i>
    <i name="BMIX">      1.00000000</i>
    <i name="AMIN">      0.10000000</i>
    <i name="AMIX_MAG">      1.60000000</i>
    <i name="BMIX_MAG">      1.00000000</i>
    <separator name="electronic mixer details" >
     <i type="int" name="IMIX">     4</i>
     <i type="logical" name="MIXFIRST"> F  </i>
     <i type="int" name="MAXMIX">   -45</i>
     <i name="WC">    100.00000000</i>
     <i type="int" name="INIMIX">     1</i>
     <i type="int" name="MIXPRE">     1</i>
     <i type="int" name="MREMOVE">     5</i>
    </separator>
   </separator>
   <separator name="electronic dipolcorrection" >
    <i type="logical" name="LDIPOL"> F  </i>
    <i type="logical" name="LMONO"> F  </i>
    <i type="int" name="IDIPOL">     0</i>
    <i name="EPSILON">      1.00000000</i>
    <v name="DIPOL">   -100.00000000   -100.00000000   -100.00000000</v>
    <i name="EFIELD">      0.00000000</i>
   </separator>
  </separator>
  <separator name="grids" >
   <i type="int" name="NGX">   150</i>
   <i type="int" name="NGY">   150</i>
   <i type="int" name="NGZ">   150</i>
   <i type="int" name="NGXF">   300</i>
   <i type="int" name="NGYF">   300</i>
   <i type="int" name="NGZF">   300</i>
   <i type="logical" name="ADDGRID"> F  </i>
  </separator>
  <separator name="ionic" >
   <i type="int" name="NSW">     0</i>
   <i type="int" name="IBRION">    -1</i>
   <i type="int" name="MDALGO">     0</i>
   <i type="int" name="ISIF">     2</i>
   <i name="PSTRESS">      0.00000000</i>
   <i name="EDIFFG">     -0.05000000</i>
   <i type="int" name="NFREE">     1</i>
   <i name="POTIM">      0.50000000</i>
   <i name="SMASS">     -3.00000000</i>
   <i name="SCALEE">      1.00000000</i>
  </separator>
  <separator name="ionic md" >
   <i name="TEBEG">      0.00010000</i>
   <i name="TEEND">      0.00010000</i>
   <i type="int" name="NBLOCK">     1</i>
   <i type="int" name="KBLOCK">     1</i>
   <i type="int" name="NPACO">   256</i>
   <i name="APACO">     16.00000000</i>
  </separator>
  <separator name="symmetry" >
   <i type="int" name="ISYM">     2</i>
   <i name="SYMPREC">      0.00001000</i>
  </separator>
  <separator name="dos" >
   <i type="int" name="LORBIT">     0</i>
   <v name="RWIGS">     -1.00000000     -1.00000000     -1.00000000</v>
   <i type="int" name="NEDOS">   301</i>
   <i name="EMIN">     10.00000000</i>
   <i name="EMAX">    -10.00000000</i>
   <i name="EFERMI">      0.00000000</i>
  </separator>
  <separator name="writing" >
   <i type="int" name="NWRITE">     2</i>
   <i type="logical" name="LWAVE"> F  </i>
   <i type="logical" name="LDOWNSAMPLE"> F  </i>
   <i type="logical" name="LCHARG"> F  </i>
   <i type="logical" name="LPARD"> F  </i>
   <i type="logical" name="LVTOT"> F  </i>
   <i type="logical" name="LVHAR"> F  </i>
   <i type="logical" name="LELF"> F  </i>
   <i type="logical" name="LOPTICS"> F  </i>
   <v name="STM">      0.00000000      0.00000000      0.00000000      0.00000000      0.00000000      0.00000000      0.00000000</v>
  </separator>
  <separator name="performance" >
   <i type="int" name="NPAR">     1</i>
   <i type="int" name="NSIM">     4</i>
   <i type="int" name="NBLK">    -1</i>
   <i type="logical" name="LPLANE"> T  </i>
   <i type="logical" name="LSCALAPACK"> T  </i>
   <i type="logical" name="LSCAAWARE"> F  </i>
   <i type="logical" name="LSCALU"> F  </i>
   <i type="logical" name="LASYNC"> F  </i>
   <i type="logical" name="LORBITALREAL"> F  </i>
  </separator>
  <separator name="miscellaneous" >
   <i type="int" name="IDIOT">     3</i>
   <i type="int" name="ISPECIAL">     0</i>
   <i type="logical" name="LMUSIC"> F  </i>
   <v name="POMASS">    106.42000000     12.01100000     16.00000000</v>
   <v name="DARWINR">      0.00000000      0.00000000      0.00000000</v>
   <v name="DARWINV">      1.00000000      1.00000000      1.00000000</v>
   <i type="logical" name="LCORR"> T  </i>
  </separator>
  <i type="logical" name="GGA_COMPAT"> T  </i>
  <i type="logical" name="LBERRY"> F  </i>
  <i type="int" name="ICORELEVEL">     0</i>
  <i type="logical" name="LDAU"> F  </i>
  <i type="int" name="I_CONSTRAINED_M">     0</i>
  <separator name="electronic exchange-correlation" >
   <i type="string" name="GGA">RP</i>
   <i type="int" name="VOSKOWN">     0</i>
   <i type="logical" name="LHFCALC"> F  </i>
   <i type="string" name="PRECFOCK"></i>
   <i type="logical" name="LSYMGRAD"> F  </i>
   <i type="logical" name="LHFONE"> F  </i>
   <i type="logical" name="LRHFCALC"> F  </i>
   <i type="logical" name="LTHOMAS"> F  </i>
   <i type="logical" name="LMODELHF"> F  </i>
   <i name="ENCUT4O">     -1.00000000</i>
   <i type="int" name="EXXOEP">     0</i>
   <i type="int" name="FOURORBIT">     0</i>
   <i name="AEXX">      0.00000000</i>
   <i name="HFALPHA">      0.00000000</i>
   <i name="MCALPHA">      0.00000000</i>
   <i name="ALDAX">      1.00000000</i>
   <i name="AGGAX">      1.00000000</i>
   <i name="ALDAC">      1.00000000</i>
   <i name="AGGAC">      1.00000000</i>
   <i type="int" name="NKREDX">     1</i>
   <i type="int" name="NKREDY">     1</i>
   <i type="int" name="NKREDZ">     1</i>
   <i type="logical" name="SHIFTRED"> F  </i>
   <i type="logical" name="ODDONLY"> F  </i>
   <i type="logical" name="EVENONLY"> F  </i>
   <i type="int" name="LMAXFOCK">     0</i>
   <i type="int" name="NMAXFOCKAE">     0</i>
   <i type="logical" name="LFOCKAEDFT"> F  </i>
   <i name="HFSCREEN">      0.00000000</i>
   <i name="HFSCREENC">      0.00000000</i>
   <i type="int" name="NBANDSGWLOW">     0</i>
  </separator>
  <separator name="vdW DFT" >
   <i type="logical" name="LUSE_VDW"> F  </i>
   <i name="Zab_VDW">     -0.84910000</i>
   <i name="PARAM1">      0.12340000</i>
   <i name="PARAM2">      1.00000000</i>
   <i name="PARAM3">      0.00000000</i>
  </separator>
  <separator name="model GW" >
   <i type="int" name="MODEL_GW">     0</i>
   <i name="MODEL_EPS0">    284.21052632</i>
   <i name="MODEL_ALPHA">      1.00000000</i>
  </separator>
  <separator name="linear response parameters" >
   <i type="logical" name="LEPSILON"> F  </i>
   <i type="logical" name="LRPA"> F  </i>
   <i type="logical" name="LNABLA"> F  </i>
   <i type="logical" name="LVEL"> F  </i>
   <i type="int" name="KINTER">     0</i>
   <i name="CSHIFT">      0.10000000</i>
   <i name="OMEGAMAX">     -1.00000000</i>
   <i name="DEG_THRESHOLD">      0.00200000</i>
   <i name="RTIME">     -0.10000000</i>
   <i name="WPLASMAI">      0.00000000</i>
   <v name="DFIELD">      0.00000000      0.00000000      0.00000000</v>
   <v name="WPLASMA">      0.00000000      0.00000000      0.00000000      0.00000000      0.00000000      0.00000000      0.00000000      0.00000000      0.00000000</v>
  </separator>
  <separator name="orbital magnetization" >
   <i type="logical" name="NUCIND"> F  </i>
   <v name="MAGPOS">      0.00000000      0.00000000      0.00000000</v>
   <i type="logical" name="LNICSALL"> T  </i>
   <i type="logical" name="ORBITALMAG"> F  </i>
   <i type="logical" name="LMAGBLOCH"> F  </i>
   <i type="logical" name="LCHIMAG"> F  </i>
   <i type="logical" name="LGAUGE"> T  </i>
   <i type="int" name="MAGATOM">     0</i>
   <v name="MAGDIPOL">      0.00000000      0.00000000      0.00000000</v>
   <v name="AVECCONST">      0.00000000      0.00000000      0.00000000</v>
  </separator>
  <separator name="response functions" >
   <i type="logical" name="LADDER"> F  </i>
   <i type="logical" name="LRPAFORCE"> F  </i>
   <i type="logical" name="LFXC"> F  </i>
   <i type="logical" name="LHARTREE"> T  </i>
   <i type="int" name="IBSE">     0</i>
   <v type="int" name="KPOINT">    -1     0     0     0</v>
   <i type="logical" name="LTCTE"> F  </i>
   <i type="logical" name="LTETE"> F  </i>
   <i type="logical" name="LTRIPLET"> F  </i>
   <i type="logical" name="LFXCEPS"> F  </i>
   <i type="logical" name="LFXHEG"> F  </i>
   <i type="int" name="NATURALO">     2</i>
   <i type="logical" name="L2ORDER"> F  </i>
   <i type="logical" name="LMP2LT"> F  </i>
   <i type="logical" name="LUSEW"> F  </i>
   <i name="ENCUTGW">     -2.00000000</i>
   <i name="ENCUTGWSOFT">     -2.00000000</i>
   <i name="ENCUTLF">     -1.00000000</i>
   <i type="int" name="LMAXMP2">    -1</i>
   <i name="SCISSOR">      0.00000000</i>
   <i type="int" name="NOMEGA">     0</i>
   <i type="int" name="NOMEGAR">     0</i>
   <i type="int" name="NBANDSGW">    -1</i>
   <i type="int" name="NBANDSO">    -1</i>
   <i type="int" name="NBANDSV">    -1</i>
   <i type="int" name="NELM">   100</i>
   <i type="int" name="NELMHF">     1</i>
   <i type="int" name="DIM">     3</i>
   <i type="int" name="ANTIRES">     0</i>
   <i name="OMEGAMAX">    -30.00000000</i>
   <i name="OMEGAMIN">    -30.00000000</i>
   <i name="OMEGATL">   -200.00000000</i>
   <i type="int" name="OMEGAGRID">   140</i>
   <i name="CSHIFT">     -0.10000000</i>
   <i type="logical" name="SELFENERGY"> F  </i>
   <i type="logical" name="LSPECTRAL"> F  </i>
   <i type="logical" name="LSPECTRALGW"> F  </i>
   <i type="logical" name="LSINGLES"> F  </i>
   <i type="logical" name="LFERMIGW"> F  </i>
   <i type="logical" name="ODDONLYGW"> F  </i>
   <i type="logical" name="EVENONLYGW"> F  </i>
   <i type="int" name="NKREDLFX">     1</i>
   <i type="int" name="NKREDLFY">     1</i>
   <i type="int" name="NKREDLFZ">     1</i>
   <i type="int" name="MAXMEM"> 10000</i>
   <i type="int" name="TELESCOPE">     0</i>
   <i type="int" name="TAUPAR">     1</i>
   <i type="int" name="OMEGAPAR">    -1</i>
   <i name="LAMBDA">      1.00000000</i>
  </separator>
  <separator name="External order field" >
   <i name="OFIELD_KAPPA">      0.00000000</i>
   <v name="OFIELD_K">      0.00000000      0.00000000      0.00000000</v>
   <i name="OFIELD_Q6_NEAR">      0.00000000</i>
   <i name="OFIELD_Q6_FAR">      0.00000000</i>
   <i name="OFIELD_A">      0.00000000</i>
  </separator>
 </parameters>
 <atominfo>
  <atoms>      57 </atoms>
  <types>       3 </types>
  <array name="atoms" >
   <dimension dim="1">ion</dimension>
   <field type="string">element</field>
   <field type="int">atomtype</field>
   <set>
    <rc><c>Pd</c><c>   1</c></rc>
    <rc><c>Pd</c><c>   1</c></rc>
    <rc><c>Pd</c><c>   1</c></rc>
    <rc><c>Pd</c><c>   1</c></rc>
    <rc><c>Pd</c><c>   1</c></rc>
    <rc><c>Pd</c><c>   1</c></rc>
    <rc><c>Pd</c><c>   1</c></rc>
    <rc><c>Pd</c><c>   1</c></rc>
    <rc><c>Pd</c><c>   1</c></rc>
    <rc><c>Pd</c><c>   1</c></rc>
    <rc><c>Pd</c><c>   1</c></rc>
    <rc><c>Pd</c><c>   1</c></rc>
    <rc><c>Pd</c><c>   1</c></rc>
    <rc><c>Pd</c><c>   1</c></rc>
    <rc><c>Pd</c><c>   1</c></rc>
    <rc><c>Pd</c><c>   1</c></rc>
    <rc><c>Pd</c><c>   1</c></rc>
    <rc><c>Pd</c><c>   1</c></rc>
    <rc><c>Pd</c><c>   1</c></rc>
    <rc><c>Pd</c><c>   1</c></rc>
    <rc><c>Pd</c><c>   1</c></rc>
    <rc><c>Pd</c><c>   1</c></rc>
    <rc><c>Pd</c><c>   1</c></rc>
    <rc><c>Pd</c><c>   1</c></rc>
    <rc><c>Pd</c><c>   1</c></rc>
    <rc><c>Pd</c><c>   1</c></rc>
    <rc><c>Pd</c><c>   1</c></rc>
    <rc><c>Pd</c><c>   1</c></rc>
    <rc><c>Pd</c><c>   1</c></rc>
    <rc><c>Pd</c><c>   1</c></rc>
    <rc><c>Pd</c><c>   1</c></rc>
    <rc><c>Pd</c><c>   1</c></rc>
    <rc><c>Pd</c><c>   1</c></rc>
    <rc><c>Pd</c><c>   1</c></rc>
    <rc><c>Pd</c><c>   1</c></rc>
    <rc><c>Pd</c><c>   1</c></rc>
    <rc><c>Pd</c><c>   1</c></rc>
    <rc><c>Pd</c><c>   1</c></rc>
    <rc><c>Pd</c><c>   1</c></rc>
    <rc><c>Pd</c><c>   1</c></rc>
    <rc><c>Pd</c><c>   1</c></rc>
    <rc><c>Pd</c><c>   1</c></rc>
    <rc><c>Pd</c><c>   1</c></rc>
    <rc><c>Pd</c><c>   1</c></rc>
    <rc><c>Pd</c><c>   1</c></rc>
    <rc><c>Pd</c><c>   1</c></rc>
    <rc><c>Pd</c><c>   1</c></rc>
    <rc><c>Pd</c><c>   1</c></rc>
    <rc><c>Pd</c><c>   1</c></rc>
    <rc><c>Pd</c><c>   1</c></rc>
    <rc><c>Pd</c><c>   1</c></rc>
    <rc><c>Pd</c><c>   1</c></rc>
    <rc><c>Pd</c><c>   1</c></rc>
    <rc><c>Pd</c><c>   1</c></rc>
    <rc><c>Pd</c><c>   1</c></rc>
    <rc><c>C </c><c>   2</c></rc>
    <rc><c>O </c><c>   3</c></rc>
   </set>
  </array>
  <array name="atomtypes" >
   <dimension dim="1">type</dimension>
   <field type="int">atomspertype</field>
   <field type="string">element</field>
   <field>mass</field>
   <field>valence</field>
   <field type="string">pseudopotential</field>
   <set>
    <rc><c>  55</c><c>Pd</c><c>    106.42000000</c><c>     10.00000000</c><c>  PAW_PBE Pd 04Jan2005                  </c></rc>
    <rc><c>   1</c><c>C </c><c>     12.01100000</c><c>      4.00000000</c><c>  PAW_PBE C 08Apr2002                   </c></rc>
    <rc><c>   1</c><c>O </c><c>     16.00000000</c><c>      6.00000000</c><c>  PAW_PBE O 08Apr2002                   </c></rc>
   </set>
  </array>
 </atominfo>
 <structure name="initialpos" >
  <crystal>
   <varray name="basis" >
    <v>      30.00000000       0.00000000       0.00000000 </v>
    <v>       0.00000000      30.00000000       0.00000000 </v>
    <v>       0.00000000       0.00000000      30.00000000 </v>
   </varray>
   <i name="volume">  27000.00000000 </i>
   <varray name="rec_basis" >
    <v>       0.03333333       0.00000000       0.00000000 </v>
    <v>       0.00000000       0.03333333       0.00000000 </v>
    <v>       0.00000000       0.00000000       0.03333333 </v>
   </varray>
  </crystal>
  <varray name="positions" >
   <v>       0.44576020       0.32826710       0.41691983 </v>
   <v>       0.67173288       0.55423978       0.41691983 </v>
   <v>       0.55423980       0.32826710       0.41691983 </v>
   <v>       0.32826712       0.55423978       0.41691983 </v>
   <v>       0.50000000       0.38250690       0.34021317 </v>
   <v>       0.50000000       0.38250690       0.65978680 </v>
   <v>       0.50000000       0.27609440       0.50000000 </v>
   <v>       0.27609443       0.49999998       0.50000000 </v>
   <v>       0.72390557       0.49999998       0.50000000 </v>
   <v>       0.50000000       0.72390555       0.50000000 </v>
   <v>       0.61195280       0.38804720       0.34167483 </v>
   <v>       0.61195280       0.38804720       0.65832513 </v>
   <v>       0.38804722       0.61195278       0.34167483 </v>
   <v>       0.38804722       0.61195278       0.65832513 </v>
   <v>       0.38804720       0.38804720       0.34167483 </v>
   <v>       0.38804720       0.38804720       0.65832513 </v>
   <v>       0.61195278       0.61195278       0.34167483 </v>
   <v>       0.61195278       0.61195278       0.65832513 </v>
   <v>       0.44576020       0.32826710       0.58308023 </v>
   <v>       0.67173288       0.55423978       0.58308023 </v>
   <v>       0.55791699       0.44208301       0.41809300 </v>
   <v>       0.32826705       0.44576024       0.41691983 </v>
   <v>       0.55423973       0.67173293       0.41691983 </v>
   <v>       0.55423980       0.32826710       0.58308023 </v>
   <v>       0.32826712       0.55423978       0.58308023 </v>
   <v>       0.67173295       0.44576024       0.41691983 </v>
   <v>       0.44576027       0.67173293       0.41691983 </v>
   <v>       0.44208301       0.44208301       0.41809300 </v>
   <v>       0.50000000       0.38416601       0.50000000 </v>
   <v>       0.61749315       0.50000005       0.34021317 </v>
   <v>       0.61749315       0.50000005       0.65978680 </v>
   <v>       0.38250685       0.50000005       0.34021317 </v>
   <v>       0.38250685       0.50000005       0.65978680 </v>
   <v>       0.38317830       0.38317830       0.50000000 </v>
   <v>       0.61682172       0.61682172       0.50000000 </v>
   <v>       0.61682170       0.38317830       0.50000000 </v>
   <v>       0.38317828       0.61682172       0.50000000 </v>
   <v>       0.50000000       0.50000000       0.33478917 </v>
   <v>       0.50000000       0.50000000       0.66521087 </v>
   <v>       0.32826705       0.44576024       0.58308023 </v>
   <v>       0.55423973       0.67173293       0.58308023 </v>
   <v>       0.55791699       0.44208301       0.58190703 </v>
   <v>       0.44208298       0.55791702       0.41809300 </v>
   <v>       0.44208301       0.44208301       0.58190703 </v>
   <v>       0.67173295       0.44576024       0.58308023 </v>
   <v>       0.44576027       0.67173293       0.58308023 </v>
   <v>       0.55791702       0.55791702       0.41809300 </v>
   <v>       0.38416599       0.50000002       0.50000000 </v>
   <v>       0.61583401       0.50000002       0.50000000 </v>
   <v>       0.50000000       0.61749319       0.34021317 </v>
   <v>       0.50000000       0.61749319       0.65978680 </v>
   <v>       0.50000000       0.50000000       0.50000000 </v>
   <v>       0.44208298       0.55791702       0.58190703 </v>
   <v>       0.55791702       0.55791702       0.58190703 </v>
   <v>       0.50000000       0.61583404       0.50000000 </v>
   <v>       0.48863327       0.50309097       0.74000897 </v>
   <v>       0.48685467       0.50357463       0.77756373 </v>
  </varray>
  <varray name="selective"  type="logical" >
   <v type="logical" >  F  F  F </v>
   <v type="logical" >  F  F  F </v>
   <v type="logical" >  F  F  F </v>
   <v type="logical" >  F  F  F </v>
   <v type="logical" >  F  F  F </v>
   <v type="logical" >  F  F  F </v>
   <v type="logical" >  F  F  F </v>
   <v type="logical" >  F  F  F </v>
   <v type="logical" >  F  F  F </v>
   <v type="logical" >  F  F  F </v>
   <v type="logical" >  F  F  F </v>
   <v type="logical" >  F  F  F </v>
   <v type="logical" >  F  F  F </v>
   <v type="logical" >  F  F  F </v>
   <v type="logical" >  F  F  F </v>
   <v type="logical" >  F  F  F </v>
   <v type="logical" >  F  F  F </v>
   <v type="logical" >  F  F  F </v>
   <v type="logical" >  F  F  F </v>
   <v type="logical" >  F  F  F </v>
   <v type="logical" >  F  F  F </v>
   <v type="logical" >  F  F  F </v>
   <v type="logical" >  F  F  F </v>
   <v type="logical" >  F  F  F </v>
   <v type="logical" >  F  F  F </v>
   <v type="logical" >  F  F  F </v>
   <v type="logical" >  F  F  F </v>
   <v type="logical" >  F  F  F </v>
   <v type="logical" >  F  F  F </v>
   <v type="logical" >  F  F  F </v>
   <v type="logical" >  F  F  F </v>
   <v type="logical" >  F  F  F </v>
   <v type="logical" >  F  F  F </v>
   <v type="logical" >  F  F  F </v>
   <v type="logical" >  F  F  F </v>
   <v type="logical" >  F  F  F </v>
   <v type="logical" >  F  F  F </v>
   <v type="logical" >  F  F  F </v>
   <v type="logical" >  F  F  F </v>
   <v type="logical" >  F  F  F </v>
   <v type="logical" >  F  F  F </v>
   <v type="logical" >  F  F  F </v>
   <v type="logical" >  F  F  F </v>
   <v type="logical" >  F  F  F </v>
   <v type="logical" >  F  F  F </v>
   <v type="logical" >  F  F  F </v>
   <v type="logical" >  F  F  F </v>
   <v type="logical" >  F  F  F </v>
   <v type="logical" >  F  F  F </v>
   <v type="logical" >  F  F  F </v>
   <v type="logical" >  F  F  F </v>
   <v type="logical" >  F  F  F </v>
   <v type="logical" >  F  F  F </v>
   <v type="logical" >  F  F  F </v>
   <v type="logical" >  F  F  F </v>
   <v type="logical" >  F  F  F </v>
   <v type="logical" >  F  F  F </v>
  </varray>
  <nose>
   <v>      -3.00000000       0.00000000       0.00010000       0.00010000 </v>
  </nose>
 </structure>
 <calculation>
  <scstep>
   <time name="dav">  351.09  351.18</time>
   <time name="total">  365.16  365.25</time>
   <energy>
    <i name="alphaZ">     75.25431677 </i>
    <i name="ewald"> 138252.99567596 </i>
    <i name="hartreedc">-181618.80330878 </i>
    <i name="XCdc">  -1703.66123062 </i>
    <i name="pawpsdc">  44873.02882129 </i>
    <i name="pawaedc"> -41398.84523641 </i>
    <i name="eentropy">      0.00763381 </i>
    <i name="bandstr">    818.81095726 </i>
    <i name="atom">  45086.50549395 </i>
    <i name="e_fr_energy">   4385.29312322 </i>
    <i name="e_wo_entrp">   4385.28548941 </i>
    <i name="e_0_energy">   4385.29121477 </i>
   </energy>
  </scstep>
  <scstep>
   <time name="dav">  560.40  560.40</time>
   <time name="total">  560.40  560.40</time>
   <energy>
    <i name="e_fr_energy">   2012.27144080 </i>
    <i name="e_wo_entrp">   2012.30332594 </i>
    <i name="e_0_energy">   2012.27941209 </i>
   </energy>
  </scstep>
  <scstep>
   <time name="dav">  469.63  469.66</time>
   <time name="total">  469.63  469.66</time>
   <energy>
    <i name="e_fr_energy">    233.93927379 </i>
    <i name="e_wo_entrp">    233.96585691 </i>
    <i name="e_0_energy">    233.94591957 </i>
   </energy>
  </scstep>
  <scstep>
   <time name="dav">  406.21  406.23</time>
   <time name="total">  406.21  406.23</time>
   <energy>
    <i name="e_fr_energy">   -134.70291622 </i>
    <i name="e_wo_entrp">   -134.71642992 </i>
    <i name="e_0_energy">   -134.70629465 </i>
   </energy>
  </scstep>
  <scstep>
   <time name="dav">  494.94  494.96</time>
   <time name="total">  519.62  519.65</time>
   <energy>
    <i name="e_fr_energy">   -179.11783846 </i>
    <i name="e_wo_entrp">   -179.68012188 </i>
    <i name="e_0_energy">   -179.25840931 </i>
   </energy>
  </scstep>
  <scstep>
   <time name="diag">   66.17   66.17</time>
   <time name="diis">  186.70  186.71</time>
   <time name="orth">   13.34   13.34</time>
   <time name="total">  304.09  304.10</time>
   <energy>
    <i name="e_fr_energy">   -179.52500204 </i>
    <i name="e_wo_entrp">   -179.46225949 </i>
    <i name="e_0_energy">   -179.50931640 </i>
   </energy>
  </scstep>
  <scstep>
   <time name="diag">   65.76   65.77</time>
   <time name="diis">  222.84  222.86</time>
   <time name="orth">   13.47   13.47</time>
   <time name="total">  339.16  339.19</time>
   <energy>
    <i name="e_fr_energy">   -182.16717479 </i>
    <i name="e_wo_entrp">   -182.10760676 </i>
    <i name="e_0_energy">   -182.15228278 </i>
   </energy>
  </scstep>
  <scstep>
   <time name="diag">   65.89   65.90</time>
   <time name="diis">  203.71  203.72</time>
   <time name="orth">   13.10   13.10</time>
   <time name="total">  320.46  320.48</time>
   <energy>
    <i name="e_fr_energy">   -183.03063778 </i>
    <i name="e_wo_entrp">   -182.81998050 </i>
    <i name="e_0_energy">   -182.97797346 </i>
   </energy>
  </scstep>
  <scstep>
   <time name="diag">   66.28   66.29</time>
   <time name="diis">  186.56  186.57</time>
   <time name="orth">   12.92   12.92</time>
   <time name="total">  303.37  303.39</time>
   <energy>
    <i name="e_fr_energy">   -181.99829195 </i>
    <i name="e_wo_entrp">   -181.93587634 </i>
    <i name="e_0_energy">   -181.98268805 </i>
   </energy>
  </scstep>
  <scstep>
   <time name="diag">   66.25   66.25</time>
   <time name="diis">  189.42  189.43</time>
   <time name="orth">   13.05   13.05</time>
   <time name="total">  306.69  306.70</time>
   <energy>
    <i name="e_fr_energy">   -180.30283696 </i>
    <i name="e_wo_entrp">   -180.31998105 </i>
    <i name="e_0_energy">   -180.30712299 </i>
   </energy>
  </scstep>
  <scstep>
   <time name="diag">   65.39   65.39</time>
   <time name="diis">  187.91  187.92</time>
   <time name="orth">   13.31   13.31</time>
   <time name="total">  304.59  304.61</time>
   <energy>
    <i name="e_fr_energy">   -178.37519243 </i>
    <i name="e_wo_entrp">   -178.20830294 </i>
    <i name="e_0_energy">   -178.33347006 </i>
   </energy>
  </scstep>
  <scstep>
   <time name="diag">   66.04   66.04</time>
   <time name="diis">  183.55  183.56</time>
   <time name="orth">   12.96   12.96</time>
   <time name="total">  300.40  300.42</time>
   <energy>
    <i name="e_fr_energy">   -176.71966213 </i>
    <i name="e_wo_entrp">   -176.67554835 </i>
    <i name="e_0_energy">   -176.70863369 </i>
   </energy>
  </scstep>
  <scstep>
   <time name="diag">   65.44   65.44</time>
   <time name="diis">  184.79  184.79</time>
   <time name="orth">   13.02   13.02</time>
   <time name="total">  301.00  301.00</time>
   <energy>
    <i name="e_fr_energy">   -176.05366118 </i>
    <i name="e_wo_entrp">   -175.97618799 </i>
    <i name="e_0_energy">   -176.03429288 </i>
   </energy>
  </scstep>
  <scstep>
   <time name="diag">   66.47   66.47</time>
   <time name="diis">  181.56  181.56</time>
   <time name="orth">   12.98   12.98</time>
   <time name="total">  298.87  298.87</time>
   <energy>
    <i name="e_fr_energy">   -176.58247588 </i>
    <i name="e_wo_entrp">   -176.55219926 </i>
    <i name="e_0_energy">   -176.57490672 </i>
   </energy>
  </scstep>
  <scstep>
   <time name="diag">   65.62   65.62</time>
   <time name="diis">  183.30  183.30</time>
   <time name="orth">   13.53   13.53</time>
   <time name="total">  300.62  300.62</time>
   <energy>
    <i name="e_fr_energy">   -176.52804456 </i>
    <i name="e_wo_entrp">   -176.48213090 </i>
    <i name="e_0_energy">   -176.51656614 </i>
   </energy>
  </scstep>
  <scstep>
   <time name="diag">   66.26   66.26</time>
   <time name="diis">  182.50  182.50</time>
   <time name="orth">   13.11   13.11</time>
   <time name="total">  299.21  299.21</time>
   <energy>
    <i name="e_fr_energy">   -176.28936613 </i>
    <i name="e_wo_entrp">   -176.38216139 </i>
    <i name="e_0_energy">   -176.31256494 </i>
   </energy>
  </scstep>
  <scstep>
   <time name="diag">   66.61   66.61</time>
   <time name="diis">  178.74  178.74</time>
   <time name="orth">   13.06   13.06</time>
   <time name="total">  296.63  296.63</time>
   <energy>
    <i name="e_fr_energy">   -175.55533477 </i>
    <i name="e_wo_entrp">   -175.48448839 </i>
    <i name="e_0_energy">   -175.53762318 </i>
   </energy>
  </scstep>
  <scstep>
   <time name="diag">   65.00   65.00</time>
   <time name="diis">  180.25  180.25</time>
   <time name="orth">   13.21   13.21</time>
   <time name="total">  297.38  297.38</time>
   <energy>
    <i name="e_fr_energy">   -175.37839065 </i>
    <i name="e_wo_entrp">   -175.32198934 </i>
    <i name="e_0_energy">   -175.36429032 </i>
   </energy>
  </scstep>
  <scstep>
   <time name="diag">   64.91   64.91</time>
   <time name="diis">  182.95  182.95</time>
   <time name="orth">   13.41   13.41</time>
   <time name="total">  300.24  300.25</time>
   <energy>
    <i name="e_fr_energy">   -175.47336493 </i>
    <i name="e_wo_entrp">   -175.50380293 </i>
    <i name="e_0_energy">   -175.48097443 </i>
   </energy>
  </scstep>
  <scstep>
   <time name="diag">   65.02   65.02</time>
   <time name="diis">  180.40  180.40</time>
   <time name="orth">   12.99   12.99</time>
   <time name="total">  296.71  296.71</time>
   <energy>
    <i name="e_fr_energy">   -175.27979796 </i>
    <i name="e_wo_entrp">   -175.31237624 </i>
    <i name="e_0_energy">   -175.28794253 </i>
   </energy>
  </scstep>
  <scstep>
   <time name="diag">   66.18   66.18</time>
   <time name="diis">  176.94  176.94</time>
   <time name="orth">   12.97   12.97</time>
   <time name="total">  294.13  294.13</time>
   <energy>
    <i name="e_fr_energy">   -174.97310821 </i>
    <i name="e_wo_entrp">   -174.96098275 </i>
    <i name="e_0_energy">   -174.97007684 </i>
   </energy>
  </scstep>
  <scstep>
   <time name="diag">   66.85   66.85</time>
   <time name="diis">  176.97  176.97</time>
   <time name="orth">   13.52   13.52</time>
   <time name="total">  295.67  295.68</time>
   <energy>
    <i name="e_fr_energy">   -174.86667196 </i>
    <i name="e_wo_entrp">   -174.78381962 </i>
    <i name="e_0_energy">   -174.84595888 </i>
   </energy>
  </scstep>
  <scstep>
   <time name="diag">   65.00   65.01</time>
   <time name="diis">  180.87  180.88</time>
   <time name="orth">   13.53   13.53</time>
   <time name="total">  298.04  298.05</time>
   <energy>
    <i name="e_fr_energy">   -174.86558973 </i>
    <i name="e_wo_entrp">   -174.79983816 </i>
    <i name="e_0_energy">   -174.84915183 </i>
   </energy>
  </scstep>
  <scstep>
   <time name="diag">   66.47   66.48</time>
   <time name="diis">  179.03  179.05</time>
   <time name="orth">   13.03   13.03</time>
   <time name="total">  296.71  296.73</time>
   <energy>
    <i name="e_fr_energy">   -174.74492691 </i>
    <i name="e_wo_entrp">   -174.66880838 </i>
    <i name="e_0_energy">   -174.72589728 </i>
   </energy>
  </scstep>
  <scstep>
   <time name="diag">   67.29   67.29</time>
   <time name="diis">  177.88  177.89</time>
   <time name="orth">   12.83   12.83</time>
   <time name="total">  295.60  295.61</time>
   <energy>
    <i name="e_fr_energy">   -174.65810605 </i>
    <i name="e_wo_entrp">   -174.59071999 </i>
    <i name="e_0_energy">   -174.64125953 </i>
   </energy>
  </scstep>
  <scstep>
   <time name="diag">   64.95   64.96</time>
   <time name="diis">  179.58  179.58</time>
   <time name="orth">   12.94   12.94</time>
   <time name="total">  295.21  295.23</time>
   <energy>
    <i name="e_fr_energy">   -174.60904080 </i>
    <i name="e_wo_entrp">   -174.56580456 </i>
    <i name="e_0_energy">   -174.59823174 </i>
   </energy>
  </scstep>
  <scstep>
   <time name="diag">   66.92   66.93</time>
   <time name="diis">  176.12  176.13</time>
   <time name="orth">   13.38   13.38</time>
   <time name="total">  295.45  295.48</time>
   <energy>
    <i name="e_fr_energy">   -174.57884923 </i>
    <i name="e_wo_entrp">   -174.52324019 </i>
    <i name="e_0_energy">   -174.56494697 </i>
   </energy>
  </scstep>
  <scstep>
   <time name="diag">   65.22   65.23</time>
   <time name="diis">  178.53  178.55</time>
   <time name="orth">   12.81   12.81</time>
   <time name="total">  294.75  294.79</time>
   <energy>
    <i name="e_fr_energy">   -174.55977954 </i>
    <i name="e_wo_entrp">   -174.50642864 </i>
    <i name="e_0_energy">   -174.54644182 </i>
   </energy>
  </scstep>
  <scstep>
   <time name="diag">   64.95   64.96</time>
   <time name="diis">  180.49  180.50</time>
   <time name="orth">   12.98   12.98</time>
   <time name="total">  296.29  296.31</time>
   <energy>
    <i name="e_fr_energy">   -174.54244394 </i>
    <i name="e_wo_entrp">   -174.48099404 </i>
    <i name="e_0_energy">   -174.52708146 </i>
   </energy>
  </scstep>
  <scstep>
   <time name="diag">   65.78   65.78</time>
   <time name="diis">  176.97  176.97</time>
   <time name="orth">   12.95   12.95</time>
   <time name="total">  293.77  293.78</time>
   <energy>
    <i name="e_fr_energy">   -174.50556889 </i>
    <i name="e_wo_entrp">   -174.43389185 </i>
    <i name="e_0_energy">   -174.48764963 </i>
   </energy>
  </scstep>
  <scstep>
   <time name="diag">   66.50   66.50</time>
   <time name="diis">  180.03  180.04</time>
   <time name="orth">   13.03   13.03</time>
   <time name="total">  297.77  297.78</time>
   <energy>
    <i name="e_fr_energy">   -174.49553104 </i>
    <i name="e_wo_entrp">   -174.42504462 </i>
    <i name="e_0_energy">   -174.47790944 </i>
   </energy>
  </scstep>
  <scstep>
   <time name="diag">   67.30   67.30</time>
   <time name="diis">  176.07  176.07</time>
   <time name="orth">   12.99   12.99</time>
   <time name="total">  294.72  294.73</time>
   <energy>
    <i name="e_fr_energy">   -174.48819165 </i>
    <i name="e_wo_entrp">   -174.42029885 </i>
    <i name="e_0_energy">   -174.47121845 </i>
   </energy>
  </scstep>
  <scstep>
   <time name="diag">   66.65   66.65</time>
   <time name="diis">  179.13  179.14</time>
   <time name="orth">   12.97   12.97</time>
   <time name="total">  297.22  297.24</time>
   <energy>
    <i name="e_fr_energy">   -174.48052903 </i>
    <i name="e_wo_entrp">   -174.41224522 </i>
    <i name="e_0_energy">   -174.46345808 </i>
   </energy>
  </scstep>
  <scstep>
   <time name="diag">   67.39   67.39</time>
   <time name="diis">  175.53  175.53</time>
   <time name="orth">   12.90   12.90</time>
   <time name="total">  294.52  294.52</time>
   <energy>
    <i name="e_fr_energy">   -174.48030490 </i>
    <i name="e_wo_entrp">   -174.41306807 </i>
    <i name="e_0_energy">   -174.46349569 </i>
   </energy>
  </scstep>
  <scstep>
   <time name="diag">   65.45   65.45</time>
   <time name="diis">  179.52  179.52</time>
   <time name="orth">   12.95   12.95</time>
   <time name="total">  296.45  296.45</time>
   <energy>
    <i name="e_fr_energy">   -174.47612648 </i>
    <i name="e_wo_entrp">   -174.40957040 </i>
    <i name="e_0_energy">   -174.45948746 </i>
   </energy>
  </scstep>
  <scstep>
   <time name="diag">   65.77   65.77</time>
   <time name="diis">  178.47  178.47</time>
   <time name="orth">   12.76   12.76</time>
   <time name="total">  295.43  295.43</time>
   <energy>
    <i name="e_fr_energy">   -174.47488715 </i>
    <i name="e_wo_entrp">   -174.41148756 </i>
    <i name="e_0_energy">   -174.45903725 </i>
   </energy>
  </scstep>
  <scstep>
   <time name="diag">   64.81   64.81</time>
   <time name="diis">  176.74  176.74</time>
   <time name="orth">   13.35   13.35</time>
   <time name="total">  294.58  294.58</time>
   <energy>
    <i name="e_fr_energy">   -174.47666973 </i>
    <i name="e_wo_entrp">   -174.41098582 </i>
    <i name="e_0_energy">   -174.46024875 </i>
   </energy>
  </scstep>
  <scstep>
   <time name="diag">   65.15   65.15</time>
   <time name="diis">  175.47  175.48</time>
   <time name="orth">   13.28   13.28</time>
   <time name="total">  293.56  293.56</time>
   <energy>
    <i name="e_fr_energy">   -174.47788193 </i>
    <i name="e_wo_entrp">   -174.41138629 </i>
    <i name="e_0_energy">   -174.46125802 </i>
   </energy>
  </scstep>
  <scstep>
   <time name="diag">   65.48   65.48</time>
   <time name="diis">  171.01  171.01</time>
   <time name="orth">   12.81   12.81</time>
   <time name="total">  288.65  288.66</time>
   <energy>
    <i name="e_fr_energy">   -174.47913744 </i>
    <i name="e_wo_entrp">   -174.41336211 </i>
    <i name="e_0_energy">   -174.46269361 </i>
   </energy>
  </scstep>
  <scstep>
   <time name="diag">   65.28   65.28</time>
   <time name="diis">  180.28  180.28</time>
   <time name="orth">   13.05   13.05</time>
   <time name="total">  297.78  297.78</time>
   <energy>
    <i name="e_fr_energy">   -174.48240445 </i>
    <i name="e_wo_entrp">   -174.41672167 </i>
    <i name="e_0_energy">   -174.46598375 </i>
   </energy>
  </scstep>
  <scstep>
   <time name="diag">   65.14   65.14</time>
   <time name="diis">  165.53  165.54</time>
   <time name="orth">   13.57   13.57</time>
   <time name="total">  285.12  285.12</time>
   <energy>
    <i name="e_fr_energy">   -174.48510920 </i>
    <i name="e_wo_entrp">   -174.41914809 </i>
    <i name="e_0_energy">   -174.46861892 </i>
   </energy>
  </scstep>
  <scstep>
   <time name="diag">   65.28   65.28</time>
   <time name="diis">  147.91  147.91</time>
   <time name="orth">   12.88   12.88</time>
   <time name="total">  266.45  266.51</time>
   <energy>
    <i name="e_fr_energy">   -174.48712182 </i>
    <i name="e_wo_entrp">   -174.42176752 </i>
    <i name="e_0_energy">   -174.47078324 </i>
   </energy>
  </scstep>
  <scstep>
   <time name="diag">   64.59   64.59</time>
   <time name="diis">  122.27  122.27</time>
   <time name="orth">   12.99   12.99</time>
   <time name="total">  239.19  239.20</time>
   <energy>
    <i name="e_fr_energy">   -174.48880096 </i>
    <i name="e_wo_entrp">   -174.42367422 </i>
    <i name="e_0_energy">   -174.47251928 </i>
   </energy>
  </scstep>
  <scstep>
   <time name="diag">   64.50   64.50</time>
   <time name="diis">  113.89  113.89</time>
   <time name="orth">   12.90   12.90</time>
   <time name="total">  230.80  230.80</time>
   <energy>
    <i name="e_fr_energy">   -174.49024655 </i>
    <i name="e_wo_entrp">   -174.42438350 </i>
    <i name="e_0_energy">   -174.47378079 </i>
   </energy>
  </scstep>
  <scstep>
   <time name="diag">   64.64   64.65</time>
   <time name="diis">  110.41  110.41</time>
   <time name="orth">   12.83   12.83</time>
   <time name="total">  227.64  227.64</time>
   <energy>
    <i name="e_fr_energy">   -174.49173332 </i>
    <i name="e_wo_entrp">   -174.42594268 </i>
    <i name="e_0_energy">   -174.47528566 </i>
   </energy>
  </scstep>
  <scstep>
   <time name="diag">   64.59   64.59</time>
   <time name="diis">  110.78  110.78</time>
   <time name="orth">   12.87   12.87</time>
   <time name="total">  228.25  228.25</time>
   <energy>
    <i name="e_fr_energy">   -174.49258332 </i>
    <i name="e_wo_entrp">   -174.42666951 </i>
    <i name="e_0_energy">   -174.47610487 </i>
   </energy>
  </scstep>
  <scstep>
   <time name="diag">   64.59   64.59</time>
   <time name="diis">  114.21  114.21</time>
   <time name="orth">   12.85   12.85</time>
   <time name="total">  231.71  231.71</time>
   <energy>
    <i name="e_fr_energy">   -174.49535232 </i>
    <i name="e_wo_entrp">   -174.42998974 </i>
    <i name="e_0_energy">   -174.47901167 </i>
   </energy>
  </scstep>
  <scstep>
   <time name="diag">   64.56   64.56</time>
   <time name="diis">  111.81  111.81</time>
   <time name="orth">   12.84   12.84</time>
   <time name="total">  229.47  229.47</time>
   <energy>
    <i name="e_fr_energy">   -174.49655728 </i>
    <i name="e_wo_entrp">   -174.43103427 </i>
    <i name="e_0_energy">   -174.48017653 </i>
   </energy>
  </scstep>
  <scstep>
   <time name="diag">   64.74   64.74</time>
   <time name="diis">  113.24  113.24</time>
   <time name="orth">   12.87   12.87</time>
   <time name="total">  231.10  231.10</time>
   <energy>
    <i name="e_fr_energy">   -174.49815435 </i>
    <i name="e_wo_entrp">   -174.43240600 </i>
    <i name="e_0_energy">   -174.48171727 </i>
   </energy>
  </scstep>
  <scstep>
   <time name="diag">   64.60   64.60</time>
   <time name="diis">  110.05  110.06</time>
   <time name="orth">   12.97   12.97</time>
   <time name="total">  227.66  227.66</time>
   <energy>
    <i name="e_fr_energy">   -174.49922950 </i>
    <i name="e_wo_entrp">   -174.43422124 </i>
    <i name="e_0_energy">   -174.48297743 </i>
   </energy>
  </scstep>
  <scstep>
   <time name="diag">   64.19   64.19</time>
   <time name="diis">  110.77  110.77</time>
   <time name="orth">   12.77   12.77</time>
   <time name="total">  228.00  228.00</time>
   <energy>
    <i name="e_fr_energy">   -174.49965490 </i>
    <i name="e_wo_entrp">   -174.43439783 </i>
    <i name="e_0_energy">   -174.48334063 </i>
   </energy>
  </scstep>
  <scstep>
   <time name="diag">   64.16   64.16</time>
   <time name="diis">  110.02  110.02</time>
   <time name="orth">   12.82   12.82</time>
   <time name="total">  227.06  227.06</time>
   <energy>
    <i name="e_fr_energy">   -174.50054171 </i>
    <i name="e_wo_entrp">   -174.43536458 </i>
    <i name="e_0_energy">   -174.48424743 </i>
   </energy>
  </scstep>
  <scstep>
   <time name="diag">   64.35   64.35</time>
   <time name="diis">  105.68  105.68</time>
   <time name="orth">   12.74   12.74</time>
   <time name="total">  222.93  222.93</time>
   <energy>
    <i name="e_fr_energy">   -174.50084773 </i>
    <i name="e_wo_entrp">   -174.43548251 </i>
    <i name="e_0_energy">   -174.48450643 </i>
   </energy>
  </scstep>
  <scstep>
   <time name="diag">   64.60   64.60</time>
   <time name="diis">  103.51  103.51</time>
   <time name="orth">   12.81   12.81</time>
   <time name="total">  221.46  221.46</time>
   <energy>
    <i name="e_fr_energy">   -174.50151108 </i>
    <i name="e_wo_entrp">   -174.43620340 </i>
    <i name="e_0_energy">   -174.48518416 </i>
   </energy>
  </scstep>
  <scstep>
   <time name="diag">   64.71   64.71</time>
   <time name="diis">   91.88   91.88</time>
   <time name="orth">   12.81   12.81</time>
   <time name="total">  209.56  209.56</time>
   <energy>
    <i name="e_fr_energy">   -174.50183542 </i>
    <i name="e_wo_entrp">   -174.43641842 </i>
    <i name="e_0_energy">   -174.48548117 </i>
   </energy>
  </scstep>
  <scstep>
   <time name="diag">   64.77   64.77</time>
   <time name="diis">   84.95   84.95</time>
   <time name="orth">   13.12   13.12</time>
   <time name="total">  204.10  204.12</time>
   <energy>
    <i name="e_fr_energy">   -174.50204805 </i>
    <i name="e_wo_entrp">   -174.43659104 </i>
    <i name="e_0_energy">   -174.48568380 </i>
   </energy>
  </scstep>
  <scstep>
   <time name="diag">   66.44   66.44</time>
   <time name="diis">   89.83   89.84</time>
   <time name="orth">   13.00   13.00</time>
   <time name="total">  210.69  210.71</time>
   <energy>
    <i name="e_fr_energy">   -174.50236154 </i>
    <i name="e_wo_entrp">   -174.43687907 </i>
    <i name="e_0_energy">   -174.48599092 </i>
   </energy>
  </scstep>
  <scstep>
   <time name="diag">   66.30   66.31</time>
   <time name="diis">   84.29   84.30</time>
   <time name="orth">   12.99   12.99</time>
   <time name="total">  205.30  205.32</time>
   <energy>
    <i name="e_fr_energy">   -174.50257618 </i>
    <i name="e_wo_entrp">   -174.43723016 </i>
    <i name="e_0_energy">   -174.48623967 </i>
   </energy>
  </scstep>
  <scstep>
   <time name="diag">   66.09   66.10</time>
   <time name="diis">   75.52   75.53</time>
   <time name="orth">   13.09   13.09</time>
   <time name="total">  196.64  196.66</time>
   <energy>
    <i name="e_fr_energy">   -174.50274034 </i>
    <i name="e_wo_entrp">   -174.43733338 </i>
    <i name="e_0_energy">   -174.48638860 </i>
   </energy>
  </scstep>
  <scstep>
   <time name="diag">   66.32   66.32</time>
   <time name="diis">   73.28   73.29</time>
   <time name="orth">   12.96   12.96</time>
   <time name="total">  166.25  166.25</time>
   <energy>
    <i name="alphaZ">     75.25431677 </i>
    <i name="ewald"> 138252.99567596 </i>
    <i name="hartreedc">-182623.32333879 </i>
    <i name="XCdc">  -1692.98949153 </i>
    <i name="pawpsdc">  46075.81682827 </i>
    <i name="pawaedc"> -42545.65283646 </i>
    <i name="eentropy">     -0.06541203 </i>
    <i name="bandstr">  -2803.04405420 </i>
    <i name="atom">  45086.50549395 </i>
    <i name="e_fr_energy">   -174.50281806 </i>
    <i name="e_wo_entrp">   -174.43740603 </i>
    <i name="e_0_energy">   -174.48646505 </i>
   </energy>
  </scstep>
  <structure>
   <crystal>
    <varray name="basis" >
     <v>      30.00000000       0.00000000       0.00000000 </v>
     <v>       0.00000000      30.00000000       0.00000000 </v>
     <v>       0.00000000       0.00000000      30.00000000 </v>
    </varray>
    <i name="volume">  27000.00000000 </i>
    <varray name="rec_basis" >
     <v>       0.03333333       0.00000000       0.00000000 </v>
     <v>       0.00000000       0.03333333       0.00000000 </v>
     <v>       0.00000000       0.00000000       0.03333333 </v>
    </varray>
   </crystal>
   <varray name="positions" >
    <v>       0.44576020       0.32826710       0.41691983 </v>
    <v>       0.67173288       0.55423978       0.41691983 </v>
    <v>       0.55423980       0.32826710       0.41691983 </v>
    <v>       0.32826712       0.55423978       0.41691983 </v>
    <v>       0.50000000       0.38250690       0.34021317 </v>
    <v>       0.50000000       0.38250690       0.65978680 </v>
    <v>       0.50000000       0.27609440       0.50000000 </v>
    <v>       0.27609443       0.49999998       0.50000000 </v>
    <v>       0.72390557       0.49999998       0.50000000 </v>
    <v>       0.50000000       0.72390555       0.50000000 </v>
    <v>       0.61195280       0.38804720       0.34167483 </v>
    <v>       0.61195280       0.38804720       0.65832513 </v>
    <v>       0.38804722       0.61195278       0.34167483 </v>
    <v>       0.38804722       0.61195278       0.65832513 </v>
    <v>       0.38804720       0.38804720       0.34167483 </v>
    <v>       0.38804720       0.38804720       0.65832513 </v>
    <v>       0.61195278       0.61195278       0.34167483 </v>
    <v>       0.61195278       0.61195278       0.65832513 </v>
    <v>       0.44576020       0.32826710       0.58308023 </v>
    <v>       0.67173288       0.55423978       0.58308023 </v>
    <v>       0.55791699       0.44208301       0.41809300 </v>
    <v>       0.32826705       0.44576024       0.41691983 </v>
    <v>       0.55423973       0.67173293       0.41691983 </v>
    <v>       0.55423980       0.32826710       0.58308023 </v>
    <v>       0.32826712       0.55423978       0.58308023 </v>
    <v>       0.67173295       0.44576024       0.41691983 </v>
    <v>       0.44576027       0.67173293       0.41691983 </v>
    <v>       0.44208301       0.44208301       0.41809300 </v>
    <v>       0.50000000       0.38416601       0.50000000 </v>
    <v>       0.61749315       0.50000005       0.34021317 </v>
    <v>       0.61749315       0.50000005       0.65978680 </v>
    <v>       0.38250685       0.50000005       0.34021317 </v>
    <v>       0.38250685       0.50000005       0.65978680 </v>
    <v>       0.38317830       0.38317830       0.50000000 </v>
    <v>       0.61682172       0.61682172       0.50000000 </v>
    <v>       0.61682170       0.38317830       0.50000000 </v>
    <v>       0.38317828       0.61682172       0.50000000 </v>
    <v>       0.50000000       0.50000000       0.33478917 </v>
    <v>       0.50000000       0.50000000       0.66521087 </v>
    <v>       0.32826705       0.44576024       0.58308023 </v>
    <v>       0.55423973       0.67173293       0.58308023 </v>
    <v>       0.55791699       0.44208301       0.58190703 </v>
    <v>       0.44208298       0.55791702       0.41809300 </v>
    <v>       0.44208301       0.44208301       0.58190703 </v>
    <v>       0.67173295       0.44576024       0.58308023 </v>
    <v>       0.44576027       0.67173293       0.58308023 </v>
    <v>       0.55791702       0.55791702       0.41809300 </v>
    <v>       0.38416599       0.50000002       0.50000000 </v>
    <v>       0.61583401       0.50000002       0.50000000 </v>
    <v>       0.50000000       0.61749319       0.34021317 </v>
    <v>       0.50000000       0.61749319       0.65978680 </v>
    <v>       0.50000000       0.50000000       0.50000000 </v>
    <v>       0.44208298       0.55791702       0.58190703 </v>
    <v>       0.55791702       0.55791702       0.58190703 </v>
    <v>       0.50000000       0.61583404       0.50000000 </v>
    <v>       0.48863327       0.50309097       0.74000897 </v>
    <v>       0.48685467       0.50357463       0.77756373 </v>
   </varray>
  </structure>
  <varray name="forces" >
   <v>       0.70063221       1.10769551       0.29058833 </v>
   <v>      -1.10758989      -0.70056540       0.29141172 </v>
   <v>      -0.69999040       1.10831009       0.29148895 </v>
   <v>       1.10889443      -0.70028857       0.28974202 </v>
   <v>      -0.00040831       0.40558911       1.28160289 </v>
   <v>       0.00271259       0.37812169      -1.32829908 </v>
   <v>      -0.00053286       1.51159710       0.00497186 </v>
   <v>       1.51016528       0.00012049       0.00673117 </v>
   <v>      -1.51187855       0.00007936       0.00398579 </v>
   <v>      -0.00057915      -1.51047204       0.00567815 </v>
   <v>      -0.75413471       0.75350310       1.07430374 </v>
   <v>      -0.75149820       0.75197583      -1.07310307 </v>
   <v>       0.75363880      -0.75431510       1.07370505 </v>
   <v>       0.74860539      -0.74746142      -1.07527667 </v>
   <v>       0.75338981       0.75430283       1.07385143 </v>
   <v>       0.74975437       0.74789652      -1.07452719 </v>
   <v>      -0.75436592      -0.75344077       1.07424149 </v>
   <v>      -0.75049595      -0.75177547      -1.07354034 </v>
   <v>       0.70044393       1.10438361      -0.29176952 </v>
   <v>      -1.10559653      -0.70037255      -0.28987079 </v>
   <v>       0.11336783      -0.11336517      -0.15337703 </v>
   <v>       1.10890779       0.69989986       0.28988688 </v>
   <v>      -0.69978540      -1.10890810       0.29077410 </v>
   <v>      -0.70198513       1.10655628      -0.28872366 </v>
   <v>       1.10429780      -0.70199985      -0.29157360 </v>
   <v>      -1.10771699       0.70029828       0.29168511 </v>
   <v>       0.70045724      -1.10817393       0.28996914 </v>
   <v>      -0.11301471      -0.11353586      -0.15372424 </v>
   <v>       0.00061495      -0.21604200      -0.00053560 </v>
   <v>      -0.40501955       0.00004483       1.28189479 </v>
   <v>      -0.38259775      -0.00062535      -1.32627763 </v>
   <v>       0.40646013       0.00012512       1.28136291 </v>
   <v>       0.37318597      -0.00080200      -1.32798755 </v>
   <v>       0.82055097       0.81910537      -0.01336156 </v>
   <v>      -0.81690845      -0.81854512      -0.01749590 </v>
   <v>      -0.81643522       0.81723324      -0.01857869 </v>
   <v>       0.82128443      -0.82064261      -0.01147235 </v>
   <v>      -0.00233248       0.00060243       1.18564324 </v>
   <v>      -0.27723480       0.07552660       1.07911294 </v>
   <v>       1.10527095       0.70245406      -0.29064642 </v>
   <v>      -0.70219577      -1.10653981      -0.28880018 </v>
   <v>       0.09855602      -0.09259068       0.16173405 </v>
   <v>      -0.11306813       0.11333702      -0.15383935 </v>
   <v>      -0.11883449      -0.12788884       0.14033669 </v>
   <v>      -1.10592583       0.70067493      -0.28912822 </v>
   <v>       0.70078914      -1.10429395      -0.29211473 </v>
   <v>       0.11344229       0.11321767      -0.15354297 </v>
   <v>      -0.21578286      -0.00019394      -0.00158379 </v>
   <v>       0.21575340      -0.00020222       0.00023080 </v>
   <v>      -0.00046417      -0.40617386       1.28174903 </v>
   <v>       0.00290850      -0.37505742      -1.32938720 </v>
   <v>       0.00042074      -0.00020872       0.01194216 </v>
   <v>      -0.12604704       0.13097432       0.13664598 </v>
   <v>       0.10961568       0.09941994       0.15439775 </v>
   <v>       0.00057025       0.21564641      -0.00104900 </v>
   <v>       0.50813751      -0.13967536      -5.27705364 </v>
   <v>      -0.19040914       0.05546452       3.24697181 </v>
  </varray>
  <varray name="stress" >
   <v>      -6.72888010       0.00199874       0.03537060 </v>
   <v>       0.00199873      -6.72360904      -0.00980804 </v>
   <v>       0.03537064      -0.00980809      -6.80673403 </v>
  </varray>
  <energy>
   <i name="e_fr_energy">   -174.50281806 </i>
   <i name="e_wo_entrp">   -174.48646505 </i>
   <i name="e_0_energy">     -0.06541203 </i>
  </energy>
  <time name="totalsc">17623.3617624.11</time>
  <eigenvalues>
   <array>
    <dimension dim="1">band</dimension>
    <dimension dim="2">kpoint</dimension>
    <dimension dim="3">spin</dimension>
    <field>eigene</field>
    <field>occ</field>
    <set>
     <set comment="spin 1">
      <set comment="kpoint 1">
       <r>  -29.0166    1.0000 </r>
       <r>  -13.5926    1.0000 </r>
       <r>  -11.3354    1.0000 </r>
       <r>  -11.3329    1.0000 </r>
       <r>   -9.9256    1.0000 </r>
       <r>   -6.6298    1.0000 </r>
       <r>   -6.1129    1.0000 </r>
       <r>   -6.1128    1.0000 </r>
       <r>   -6.1080    1.0000 </r>
       <r>   -5.8017    1.0000 </r>
       <r>   -5.8014    1.0000 </r>
       <r>   -5.7951    1.0000 </r>
       <r>   -5.7289    1.0000 </r>
       <r>   -5.6767    1.0000 </r>
       <r>   -5.6680    1.0000 </r>
       <r>   -5.6680    1.0000 </r>
       <r>   -5.6677    1.0000 </r>
       <r>   -5.6115    1.0000 </r>
       <r>   -5.6084    1.0000 </r>
       <r>   -5.5918    1.0000 </r>
       <r>   -5.5910    1.0000 </r>
       <r>   -5.5866    1.0000 </r>
       <r>   -5.5795    1.0000 </r>
       <r>   -5.5680    1.0000 </r>
       <r>   -5.5666    1.0000 </r>
       <r>   -5.5422    1.0000 </r>
       <r>   -5.5366    1.0000 </r>
       <r>   -5.5130    1.0000 </r>
       <r>   -5.5082    1.0000 </r>
       <r>   -5.5076    1.0000 </r>
       <r>   -5.5010    1.0000 </r>
       <r>   -5.4997    1.0000 </r>
       <r>   -5.4994    1.0000 </r>
       <r>   -5.4985    1.0000 </r>
       <r>   -5.4946    1.0000 </r>
       <r>   -5.4682    1.0000 </r>
       <r>   -5.4665    1.0000 </r>
       <r>   -5.4622    1.0000 </r>
       <r>   -5.4608    1.0000 </r>
       <r>   -5.4520    1.0000 </r>
       <r>   -5.4501    1.0000 </r>
       <r>   -5.4500    1.0000 </r>
       <r>   -5.4499    1.0000 </r>
       <r>   -5.4336    1.0000 </r>
       <r>   -5.4306    1.0000 </r>
       <r>   -5.4255    1.0000 </r>
       <r>   -5.4206    1.0000 </r>
       <r>   -5.4115    1.0000 </r>
       <r>   -5.4114    1.0000 </r>
       <r>   -5.4108    1.0000 </r>
       <r>   -5.4097    1.0000 </r>
       <r>   -5.3932    1.0000 </r>
       <r>   -5.3903    1.0000 </r>
       <r>   -5.3902    1.0000 </r>
       <r>   -5.3755    1.0000 </r>
       <r>   -5.3338    1.0000 </r>
       <r>   -5.3316    1.0000 </r>
       <r>   -5.3170    1.0000 </r>
       <r>   -5.3150    1.0000 </r>
       <r>   -5.2991    1.0000 </r>
       <r>   -5.2986    1.0000 </r>
       <r>   -5.2985    1.0000 </r>
       <r>   -5.2925    1.0000 </r>
       <r>   -5.2910    1.0000 </r>
       <r>   -5.2880    1.0000 </r>
       <r>   -5.2801    1.0000 </r>
       <r>   -5.2749    1.0000 </r>
       <r>   -5.2294    1.0000 </r>
       <r>   -5.2275    1.0000 </r>
       <r>   -5.2053    1.0000 </r>
       <r>   -5.2053    1.0000 </r>
       <r>   -5.1636    1.0000 </r>
       <r>   -5.1633    1.0000 </r>
       <r>   -5.1631    1.0000 </r>
       <r>   -5.1590    1.0000 </r>
       <r>   -5.1577    1.0000 </r>
       <r>   -5.1546    1.0000 </r>
       <r>   -5.1540    1.0000 </r>
       <r>   -5.1502    1.0000 </r>
       <r>   -5.1297    1.0000 </r>
       <r>   -5.1166    1.0000 </r>
       <r>   -5.1114    1.0000 </r>
       <r>   -5.1062    1.0000 </r>
       <r>   -5.1038    1.0000 </r>
       <r>   -5.1006    1.0000 </r>
       <r>   -5.0966    1.0000 </r>
       <r>   -5.0850    1.0000 </r>
       <r>   -5.0747    1.0000 </r>
       <r>   -5.0731    1.0000 </r>
       <r>   -5.0476    1.0000 </r>
       <r>   -5.0467    1.0000 </r>
       <r>   -5.0407    1.0000 </r>
       <r>   -5.0386    1.0000 </r>
       <r>   -5.0343    1.0000 </r>
       <r>   -5.0342    1.0000 </r>
       <r>   -5.0301    1.0000 </r>
       <r>   -5.0301    1.0000 </r>
       <r>   -5.0090    1.0000 </r>
       <r>   -5.0015    1.0000 </r>
       <r>   -5.0005    1.0000 </r>
       <r>   -4.9906    1.0000 </r>
       <r>   -4.9883    1.0000 </r>
       <r>   -4.9879    1.0000 </r>
       <r>   -4.9849    1.0000 </r>
       <r>   -4.9844    1.0000 </r>
       <r>   -4.9727    1.0000 </r>
       <r>   -4.9675    1.0000 </r>
       <r>   -4.9620    1.0000 </r>
       <r>   -4.9619    1.0000 </r>
       <r>   -4.9604    1.0000 </r>
       <r>   -4.9581    1.0000 </r>
       <r>   -4.9557    1.0000 </r>
       <r>   -4.9505    1.0000 </r>
       <r>   -4.9413    1.0000 </r>
       <r>   -4.9402    1.0000 </r>
       <r>   -4.9388    1.0000 </r>
       <r>   -4.9261    1.0000 </r>
       <r>   -4.9221    1.0000 </r>
       <r>   -4.9145    1.0000 </r>
       <r>   -4.8996    1.0000 </r>
       <r>   -4.8995    1.0000 </r>
       <r>   -4.8990    1.0000 </r>
       <r>   -4.8935    1.0000 </r>
       <r>   -4.8925    1.0000 </r>
       <r>   -4.8840    1.0000 </r>
       <r>   -4.8840    1.0000 </r>
       <r>   -4.8542    1.0000 </r>
       <r>   -4.8530    1.0000 </r>
       <r>   -4.8413    1.0000 </r>
       <r>   -4.8384    1.0000 </r>
       <r>   -4.8249    1.0000 </r>
       <r>   -4.8225    1.0000 </r>
       <r>   -4.8141    1.0000 </r>
       <r>   -4.8140    1.0000 </r>
       <r>   -4.8124    1.0000 </r>
       <r>   -4.7989    0.9999 </r>
       <r>   -4.7957    0.9999 </r>
       <r>   -4.7782    0.9999 </r>
       <r>   -4.7742    0.9999 </r>
       <r>   -4.7711    0.9999 </r>
       <r>   -4.7689    0.9999 </r>
       <r>   -4.7418    0.9998 </r>
       <r>   -4.7216    0.9996 </r>
       <r>   -4.7201    0.9996 </r>
       <r>   -4.7196    0.9996 </r>
       <r>   -4.7184    0.9996 </r>
       <r>   -4.7180    0.9996 </r>
       <r>   -4.7060    0.9995 </r>
       <r>   -4.7026    0.9995 </r>
       <r>   -4.6895    0.9993 </r>
       <r>   -4.6794    0.9991 </r>
       <r>   -4.6694    0.9989 </r>
       <r>   -4.6643    0.9988 </r>
       <r>   -4.6588    0.9987 </r>
       <r>   -4.6585    0.9987 </r>
       <r>   -4.6560    0.9987 </r>
       <r>   -4.6544    0.9986 </r>
       <r>   -4.6543    0.9986 </r>
       <r>   -4.6458    0.9984 </r>
       <r>   -4.6386    0.9982 </r>
       <r>   -4.6362    0.9981 </r>
       <r>   -4.6347    0.9981 </r>
       <r>   -4.6330    0.9980 </r>
       <r>   -4.6321    0.9980 </r>
       <r>   -4.6271    0.9978 </r>
       <r>   -4.6271    0.9978 </r>
       <r>   -4.6263    0.9978 </r>
       <r>   -4.6224    0.9977 </r>
       <r>   -4.6115    0.9973 </r>
       <r>   -4.6102    0.9973 </r>
       <r>   -4.6068    0.9971 </r>
       <r>   -4.6052    0.9971 </r>
       <r>   -4.5969    0.9968 </r>
       <r>   -4.5789    0.9961 </r>
       <r>   -4.5789    0.9961 </r>
       <r>   -4.5757    0.9960 </r>
       <r>   -4.5750    0.9960 </r>
       <r>   -4.5680    0.9957 </r>
       <r>   -4.5678    0.9957 </r>
       <r>   -4.5675    0.9957 </r>
       <r>   -4.5547    0.9953 </r>
       <r>   -4.5424    0.9951 </r>
       <r>   -4.5353    0.9951 </r>
       <r>   -4.5353    0.9951 </r>
       <r>   -4.5337    0.9951 </r>
       <r>   -4.5326    0.9951 </r>
       <r>   -4.5325    0.9951 </r>
       <r>   -4.5325    0.9951 </r>
       <r>   -4.5298    0.9951 </r>
       <r>   -4.5297    0.9951 </r>
       <r>   -4.4941    0.9967 </r>
       <r>   -4.4900    0.9971 </r>
       <r>   -4.4899    0.9971 </r>
       <r>   -4.4856    0.9976 </r>
       <r>   -4.4850    0.9977 </r>
       <r>   -4.4724    0.9995 </r>
       <r>   -4.4629    1.0014 </r>
       <r>   -4.4628    1.0014 </r>
       <r>   -4.4581    1.0024 </r>
       <r>   -4.4503    1.0044 </r>
       <r>   -4.4494    1.0046 </r>
       <r>   -4.4442    1.0061 </r>
       <r>   -4.4391    1.0077 </r>
       <r>   -4.4389    1.0078 </r>
       <r>   -4.4322    1.0100 </r>
       <r>   -4.4308    1.0105 </r>
       <r>   -4.4306    1.0106 </r>
       <r>   -4.4277    1.0116 </r>
       <r>   -4.4277    1.0117 </r>
       <r>   -4.4206    1.0144 </r>
       <r>   -4.4078    1.0198 </r>
       <r>   -4.3960    1.0252 </r>
       <r>   -4.3900    1.0281 </r>
       <r>   -4.3899    1.0281 </r>
       <r>   -4.3890    1.0286 </r>
       <r>   -4.3835    1.0312 </r>
       <r>   -4.3825    1.0317 </r>
       <r>   -4.3823    1.0318 </r>
       <r>   -4.3797    1.0330 </r>
       <r>   -4.3653    1.0397 </r>
       <r>   -4.3648    1.0400 </r>
       <r>   -4.3419    1.0485 </r>
       <r>   -4.3320    1.0507 </r>
       <r>   -4.3310    1.0509 </r>
       <r>   -4.3277    1.0513 </r>
       <r>   -4.3204    1.0516 </r>
       <r>   -4.3189    1.0516 </r>
       <r>   -4.3179    1.0515 </r>
       <r>   -4.3178    1.0515 </r>
       <r>   -4.3138    1.0511 </r>
       <r>   -4.3105    1.0505 </r>
       <r>   -4.3105    1.0505 </r>
       <r>   -4.3047    1.0490 </r>
       <r>   -4.3042    1.0488 </r>
       <r>   -4.3031    1.0484 </r>
       <r>   -4.3028    1.0483 </r>
       <r>   -4.3020    1.0480 </r>
       <r>   -4.3016    1.0478 </r>
       <r>   -4.2979    1.0462 </r>
       <r>   -4.2979    1.0462 </r>
       <r>   -4.2867    1.0390 </r>
       <r>   -4.2813    1.0342 </r>
       <r>   -4.2761    1.0288 </r>
       <r>   -4.2759    1.0286 </r>
       <r>   -4.2686    1.0196 </r>
       <r>   -4.2648    1.0141 </r>
       <r>   -4.2647    1.0140 </r>
       <r>   -4.2642    1.0132 </r>
       <r>   -4.2599    1.0064 </r>
       <r>   -4.2570    1.0013 </r>
       <r>   -4.2451    0.9776 </r>
       <r>   -4.2384    0.9620 </r>
       <r>   -4.2381    0.9612 </r>
       <r>   -4.2372    0.9590 </r>
       <r>   -4.2309    0.9423 </r>
       <r>   -4.2306    0.9414 </r>
       <r>   -4.2306    0.9413 </r>
       <r>   -4.2283    0.9348 </r>
       <r>   -4.2243    0.9232 </r>
       <r>   -4.2243    0.9232 </r>
       <r>   -4.2186    0.9052 </r>
       <r>   -4.2172    0.9006 </r>
       <r>   -4.2171    0.9005 </r>
       <r>   -4.2169    0.8997 </r>
       <r>   -4.2141    0.8904 </r>
       <r>   -4.2022    0.8471 </r>
       <r>   -4.1994    0.8363 </r>
       <r>   -4.1992    0.8353 </r>
       <r>   -4.1990    0.8345 </r>
       <r>   -4.1959    0.8223 </r>
       <r>   -4.1948    0.8175 </r>
       <r>   -4.1870    0.7848 </r>
       <r>   -4.1750    0.7304 </r>
       <r>   -4.1739    0.7252 </r>
       <r>   -4.1732    0.7219 </r>
       <r>   -4.1638    0.6766 </r>
       <r>   -4.1637    0.6761 </r>
       <r>   -4.1576    0.6454 </r>
       <r>   -4.1497    0.6051 </r>
       <r>   -4.1495    0.6043 </r>
       <r>   -4.1491    0.6019 </r>
       <r>   -4.1354    0.5301 </r>
       <r>   -4.1147    0.4212 </r>
       <r>   -4.1111    0.4024 </r>
       <r>   -4.1110    0.4018 </r>
       <r>   -4.1060    0.3761 </r>
       <r>   -4.0973    0.3323 </r>
       <r>   -4.0912    0.3024 </r>
       <r>   -4.0578    0.1554 </r>
       <r>   -3.9456   -0.0511 </r>
       <r>   -3.8813   -0.0338 </r>
       <r>   -3.8018   -0.0026 </r>
       <r>   -3.8008   -0.0023 </r>
       <r>   -3.8000   -0.0022 </r>
       <r>   -3.4743    0.0001 </r>
       <r>   -3.4740    0.0001 </r>
       <r>   -3.4022    0.0000 </r>
       <r>   -3.0408    0.0000 </r>
       <r>   -3.0406    0.0000 </r>
       <r>   -3.0001    0.0000 </r>
       <r>   -2.9964    0.0000 </r>
       <r>   -2.9948    0.0000 </r>
       <r>   -2.9944    0.0000 </r>
       <r>   -2.9115    0.0000 </r>
       <r>   -2.8327    0.0000 </r>
       <r>   -2.5434    0.0000 </r>
       <r>   -2.5411    0.0000 </r>
       <r>   -2.5007    0.0000 </r>
       <r>   -2.2373    0.0000 </r>
       <r>   -2.1135    0.0000 </r>
       <r>   -2.1120    0.0000 </r>
       <r>   -2.0990    0.0000 </r>
       <r>   -1.9355    0.0000 </r>
       <r>   -1.9344    0.0000 </r>
       <r>   -1.8581    0.0000 </r>
       <r>   -1.8399    0.0000 </r>
       <r>   -1.8309    0.0000 </r>
       <r>   -1.7447    0.0000 </r>
       <r>   -1.7415    0.0000 </r>
       <r>   -1.7010    0.0000 </r>
       <r>   -1.6241    0.0000 </r>
       <r>   -1.5332    0.0000 </r>
       <r>   -1.4922    0.0000 </r>
       <r>   -1.4256    0.0000 </r>
       <r>   -1.4166    0.0000 </r>
       <r>   -1.1099    0.0000 </r>
       <r>   -1.1071    0.0000 </r>
       <r>   -1.0297    0.0000 </r>
       <r>   -0.9652    0.0000 </r>
       <r>   -0.9575    0.0000 </r>
       <r>   -0.9460    0.0000 </r>
       <r>   -0.9249    0.0000 </r>
       <r>   -0.9130    0.0000 </r>
       <r>   -0.8972    0.0000 </r>
       <r>   -0.7734    0.0000 </r>
       <r>   -0.6581    0.0000 </r>
      </set>
     </set>
    </set>
   </array>
  </eigenvalues>
  <separator name="orbital magnetization" >
   <v name="MAGDIPOLOUT">      0.00000000      0.00000000      0.00000000</v>
  </separator>
  <dos>
   <i name="efermi">     -4.12965996 </i>
   <total>
    <array>
     <dimension dim="1">gridpoints</dimension>
     <dimension dim="2">spin</dimension>
     <field>energy</field>
     <field>total</field>
     <field>integrated</field>
     <set>
      <set comment="spin 1">
       <r>   -31.0166     0.0000     0.0000 </r>
       <r>   -30.9087     0.0000     0.0000 </r>
       <r>   -30.8009     0.0000     0.0000 </r>
       <r>   -30.6930     0.0000     0.0000 </r>
       <r>   -30.5851     0.0000     0.0000 </r>
       <r>   -30.4773     0.0000     0.0000 </r>
       <r>   -30.3694     0.0000     0.0000 </r>
       <r>   -30.2616     0.0000     0.0000 </r>
       <r>   -30.1537     0.0000     0.0000 </r>
       <r>   -30.0458     0.0000     0.0000 </r>
       <r>   -29.9380     0.0000     0.0000 </r>
       <r>   -29.8301     0.0000     0.0000 </r>
       <r>   -29.7222     0.0003     0.0000 </r>
       <r>   -29.6144     0.0055     0.0006 </r>
       <r>   -29.5065     0.0388     0.0048 </r>
       <r>   -29.3987     0.0388     0.0090 </r>
       <r>   -29.2908    -0.4833    -0.0431 </r>
       <r>   -29.1829    -0.4382    -0.0904 </r>
       <r>   -29.0751     4.7375     0.4206 </r>
       <r>   -28.9672     9.9919     1.4983 </r>
       <r>   -28.8594     5.3767     2.0783 </r>
       <r>   -28.7515    -0.2471     2.0516 </r>
       <r>   -28.6436    -0.5527     1.9920 </r>
       <r>   -28.5358     0.0236     1.9945 </r>
       <r>   -28.4279     0.0434     1.9992 </r>
       <r>   -28.3200     0.0067     2.0000 </r>
       <r>   -28.2122     0.0004     2.0000 </r>
       <r>   -28.1043     0.0000     2.0000 </r>
       <r>   -27.9965     0.0000     2.0000 </r>
       <r>   -27.8886     0.0000     2.0000 </r>
       <r>   -27.7807     0.0000     2.0000 </r>
       <r>   -27.6729     0.0000     2.0000 </r>
       <r>   -27.5650     0.0000     2.0000 </r>
       <r>   -27.4572     0.0000     2.0000 </r>
       <r>   -27.3493     0.0000     2.0000 </r>
       <r>   -27.2414     0.0000     2.0000 </r>
       <r>   -27.1336     0.0000     2.0000 </r>
       <r>   -27.0257     0.0000     2.0000 </r>
       <r>   -26.9178     0.0000     2.0000 </r>
       <r>   -26.8100     0.0000     2.0000 </r>
       <r>   -26.7021     0.0000     2.0000 </r>
       <r>   -26.5943     0.0000     2.0000 </r>
       <r>   -26.4864     0.0000     2.0000 </r>
       <r>   -26.3785     0.0000     2.0000 </r>
       <r>   -26.2707     0.0000     2.0000 </r>
       <r>   -26.1628     0.0000     2.0000 </r>
       <r>   -26.0549     0.0000     2.0000 </r>
       <r>   -25.9471     0.0000     2.0000 </r>
       <r>   -25.8392     0.0000     2.0000 </r>
       <r>   -25.7314     0.0000     2.0000 </r>
       <r>   -25.6235     0.0000     2.0000 </r>
       <r>   -25.5156     0.0000     2.0000 </r>
       <r>   -25.4078     0.0000     2.0000 </r>
       <r>   -25.2999     0.0000     2.0000 </r>
       <r>   -25.1921     0.0000     2.0000 </r>
       <r>   -25.0842     0.0000     2.0000 </r>
       <r>   -24.9763     0.0000     2.0000 </r>
       <r>   -24.8685     0.0000     2.0000 </r>
       <r>   -24.7606     0.0000     2.0000 </r>
       <r>   -24.6527     0.0000     2.0000 </r>
       <r>   -24.5449     0.0000     2.0000 </r>
       <r>   -24.4370     0.0000     2.0000 </r>
       <r>   -24.3292     0.0000     2.0000 </r>
       <r>   -24.2213     0.0000     2.0000 </r>
       <r>   -24.1134     0.0000     2.0000 </r>
       <r>   -24.0056     0.0000     2.0000 </r>
       <r>   -23.8977     0.0000     2.0000 </r>
       <r>   -23.7899     0.0000     2.0000 </r>
       <r>   -23.6820     0.0000     2.0000 </r>
       <r>   -23.5741     0.0000     2.0000 </r>
       <r>   -23.4663     0.0000     2.0000 </r>
       <r>   -23.3584     0.0000     2.0000 </r>
       <r>   -23.2505     0.0000     2.0000 </r>
       <r>   -23.1427     0.0000     2.0000 </r>
       <r>   -23.0348     0.0000     2.0000 </r>
       <r>   -22.9270     0.0000     2.0000 </r>
       <r>   -22.8191     0.0000     2.0000 </r>
       <r>   -22.7112     0.0000     2.0000 </r>
       <r>   -22.6034     0.0000     2.0000 </r>
       <r>   -22.4955     0.0000     2.0000 </r>
       <r>   -22.3876     0.0000     2.0000 </r>
       <r>   -22.2798     0.0000     2.0000 </r>
       <r>   -22.1719     0.0000     2.0000 </r>
       <r>   -22.0641     0.0000     2.0000 </r>
       <r>   -21.9562     0.0000     2.0000 </r>
       <r>   -21.8483     0.0000     2.0000 </r>
       <r>   -21.7405     0.0000     2.0000 </r>
       <r>   -21.6326     0.0000     2.0000 </r>
       <r>   -21.5248     0.0000     2.0000 </r>
       <r>   -21.4169     0.0000     2.0000 </r>
       <r>   -21.3090     0.0000     2.0000 </r>
       <r>   -21.2012     0.0000     2.0000 </r>
       <r>   -21.0933     0.0000     2.0000 </r>
       <r>   -20.9854     0.0000     2.0000 </r>
       <r>   -20.8776     0.0000     2.0000 </r>
       <r>   -20.7697     0.0000     2.0000 </r>
       <r>   -20.6619     0.0000     2.0000 </r>
       <r>   -20.5540     0.0000     2.0000 </r>
       <r>   -20.4461     0.0000     2.0000 </r>
       <r>   -20.3383     0.0000     2.0000 </r>
       <r>   -20.2304     0.0000     2.0000 </r>
       <r>   -20.1226     0.0000     2.0000 </r>
       <r>   -20.0147     0.0000     2.0000 </r>
       <r>   -19.9068     0.0000     2.0000 </r>
       <r>   -19.7990     0.0000     2.0000 </r>
       <r>   -19.6911     0.0000     2.0000 </r>
       <r>   -19.5832     0.0000     2.0000 </r>
       <r>   -19.4754     0.0000     2.0000 </r>
       <r>   -19.3675     0.0000     2.0000 </r>
       <r>   -19.2597     0.0000     2.0000 </r>
       <r>   -19.1518     0.0000     2.0000 </r>
       <r>   -19.0439     0.0000     2.0000 </r>
       <r>   -18.9361     0.0000     2.0000 </r>
       <r>   -18.8282     0.0000     2.0000 </r>
       <r>   -18.7203     0.0000     2.0000 </r>
       <r>   -18.6125     0.0000     2.0000 </r>
       <r>   -18.5046     0.0000     2.0000 </r>
       <r>   -18.3968     0.0000     2.0000 </r>
       <r>   -18.2889     0.0000     2.0000 </r>
       <r>   -18.1810     0.0000     2.0000 </r>
       <r>   -18.0732     0.0000     2.0000 </r>
       <r>   -17.9653     0.0000     2.0000 </r>
       <r>   -17.8575     0.0000     2.0000 </r>
       <r>   -17.7496     0.0000     2.0000 </r>
       <r>   -17.6417     0.0000     2.0000 </r>
       <r>   -17.5339     0.0000     2.0000 </r>
       <r>   -17.4260     0.0000     2.0000 </r>
       <r>   -17.3181     0.0000     2.0000 </r>
       <r>   -17.2103     0.0000     2.0000 </r>
       <r>   -17.1024     0.0000     2.0000 </r>
       <r>   -16.9946     0.0000     2.0000 </r>
       <r>   -16.8867     0.0000     2.0000 </r>
       <r>   -16.7788     0.0000     2.0000 </r>
       <r>   -16.6710     0.0000     2.0000 </r>
       <r>   -16.5631     0.0000     2.0000 </r>
       <r>   -16.4553     0.0000     2.0000 </r>
       <r>   -16.3474     0.0000     2.0000 </r>
       <r>   -16.2395     0.0000     2.0000 </r>
       <r>   -16.1317     0.0000     2.0000 </r>
       <r>   -16.0238     0.0000     2.0000 </r>
       <r>   -15.9159     0.0000     2.0000 </r>
       <r>   -15.8081     0.0000     2.0000 </r>
       <r>   -15.7002     0.0000     2.0000 </r>
       <r>   -15.5924     0.0000     2.0000 </r>
       <r>   -15.4845     0.0000     2.0000 </r>
       <r>   -15.3766     0.0000     2.0000 </r>
       <r>   -15.2688     0.0000     2.0000 </r>
       <r>   -15.1609     0.0000     2.0000 </r>
       <r>   -15.0531     0.0000     2.0000 </r>
       <r>   -14.9452     0.0000     2.0000 </r>
       <r>   -14.8373     0.0000     2.0000 </r>
       <r>   -14.7295     0.0000     2.0000 </r>
       <r>   -14.6216     0.0000     2.0000 </r>
       <r>   -14.5137     0.0000     2.0000 </r>
       <r>   -14.4059     0.0000     2.0000 </r>
       <r>   -14.2980     0.0003     2.0000 </r>
       <r>   -14.1902     0.0055     2.0006 </r>
       <r>   -14.0823     0.0389     2.0048 </r>
       <r>   -13.9744     0.0385     2.0090 </r>
       <r>   -13.8666    -0.4849     1.9567 </r>
       <r>   -13.7587    -0.4343     1.9098 </r>
       <r>   -13.6508     4.7523     2.4224 </r>
       <r>   -13.5430     9.9929     3.5003 </r>
       <r>   -13.4351     5.3617     4.0786 </r>
       <r>   -13.3273    -0.2521     4.0514 </r>
       <r>   -13.2194    -0.5511     3.9920 </r>
       <r>   -13.1115     0.0240     3.9946 </r>
       <r>   -13.0037     0.0433     3.9992 </r>
       <r>   -12.8958     0.0067     4.0000 </r>
       <r>   -12.7880     0.0004     4.0000 </r>
       <r>   -12.6801     0.0000     4.0000 </r>
       <r>   -12.5722     0.0000     4.0000 </r>
       <r>   -12.4644     0.0000     4.0000 </r>
       <r>   -12.3565     0.0000     4.0000 </r>
       <r>   -12.2486     0.0000     4.0000 </r>
       <r>   -12.1408     0.0000     4.0000 </r>
       <r>   -12.0329     0.0008     4.0001 </r>
       <r>   -11.9251     0.0128     4.0015 </r>
       <r>   -11.8172     0.0845     4.0106 </r>
       <r>   -11.7093     0.0553     4.0165 </r>
       <r>   -11.6015    -1.0716     3.9010 </r>
       <r>   -11.4936    -0.5951     3.8368 </r>
       <r>   -11.3858    10.4406     4.9629 </r>
       <r>   -11.2779    19.9987     7.1200 </r>
       <r>   -11.1700     9.7867     8.1756 </r>
       <r>   -11.0622    -0.7905     8.0904 </r>
       <r>   -10.9543    -1.0006     7.9824 </r>
       <r>   -10.8464     0.0708     7.9901 </r>
       <r>   -10.7386     0.0798     7.9987 </r>
       <r>   -10.6307     0.0119     8.0000 </r>
       <r>   -10.5229     0.0062     8.0006 </r>
       <r>   -10.4150     0.0391     8.0048 </r>
       <r>   -10.3071     0.0381     8.0090 </r>
       <r>   -10.1993    -0.4871     7.9564 </r>
       <r>   -10.0914    -0.4289     7.9101 </r>
       <r>    -9.9835     4.7725     8.4249 </r>
       <r>    -9.8757     9.9943     9.5029 </r>
       <r>    -9.7678     5.3415    10.0791 </r>
       <r>    -9.6600    -0.2588    10.0511 </r>
       <r>    -9.5521    -0.5489     9.9919 </r>
       <r>    -9.4442     0.0245     9.9946 </r>
       <r>    -9.3364     0.0431     9.9992 </r>
       <r>    -9.2285     0.0067    10.0000 </r>
       <r>    -9.1207     0.0004    10.0000 </r>
       <r>    -9.0128     0.0000    10.0000 </r>
       <r>    -8.9049     0.0000    10.0000 </r>
       <r>    -8.7971     0.0000    10.0000 </r>
       <r>    -8.6892     0.0000    10.0000 </r>
       <r>    -8.5813     0.0000    10.0000 </r>
       <r>    -8.4735     0.0000    10.0000 </r>
       <r>    -8.3656     0.0000    10.0000 </r>
       <r>    -8.2578     0.0000    10.0000 </r>
       <r>    -8.1499     0.0000    10.0000 </r>
       <r>    -8.0420     0.0000    10.0000 </r>
       <r>    -7.9342     0.0000    10.0000 </r>
       <r>    -7.8263     0.0000    10.0000 </r>
       <r>    -7.7185     0.0000    10.0000 </r>
       <r>    -7.6106     0.0000    10.0000 </r>
       <r>    -7.5027     0.0000    10.0000 </r>
       <r>    -7.3949     0.0000    10.0000 </r>
       <r>    -7.2870     0.0013    10.0001 </r>
       <r>    -7.1791     0.0150    10.0018 </r>
       <r>    -7.0713     0.0610    10.0083 </r>
       <r>    -6.9634    -0.1012     9.9974 </r>
       <r>    -6.8556    -0.7900     9.9122 </r>
       <r>    -6.7477     1.1376    10.0349 </r>
       <r>    -6.6398     8.0385    10.9020 </r>
       <r>    -6.5320     9.1945    11.8937 </r>
       <r>    -6.4241     1.5555    12.0615 </r>
       <r>    -6.3162    -3.1398    11.7228 </r>
       <r>    -6.2084     6.7857    12.4547 </r>
       <r>    -6.1005    26.8849    15.3546 </r>
       <r>    -5.9927    21.4801    17.6715 </r>
       <r>    -5.8848     7.4232    18.4721 </r>
       <r>    -5.7769    26.7728    21.3599 </r>
       <r>    -5.6691    76.5210    29.6136 </r>
       <r>    -5.5612   177.1937    48.7260 </r>
       <r>    -5.4534   290.9021    80.1032 </r>
       <r>    -5.3455   291.3879   111.5328 </r>
       <r>    -5.2376   216.0889   134.8405 </r>
       <r>    -5.1298   225.5529   159.1691 </r>
       <r>    -5.0219   324.3016   194.1488 </r>
       <r>    -4.9140   369.6064   234.0152 </r>
       <r>    -4.8062   309.6527   267.4149 </r>
       <r>    -4.6983   306.2256   300.4449 </r>
       <r>    -4.5905   394.6057   343.0078 </r>
       <r>    -4.4826   418.2493   388.1208 </r>
       <r>    -4.3747   436.5666   435.2097 </r>
       <r>    -4.2669   540.7574   493.5367 </r>
       <r>    -4.1590   516.2730   549.2228 </r>
       <r>    -4.0512   255.6654   576.7993 </r>
       <r>    -3.9433    42.4564   581.3788 </r>
       <r>    -3.8354    18.6660   583.3921 </r>
       <r>    -3.7276    32.0956   586.8540 </r>
       <r>    -3.6197    11.4055   588.0842 </r>
       <r>    -3.5118    12.0812   589.3873 </r>
       <r>    -3.4040    27.4935   592.3528 </r>
       <r>    -3.2961    14.3721   593.9030 </r>
       <r>    -3.1883    -2.8849   593.5918 </r>
       <r>    -3.0804    21.4852   595.9093 </r>
       <r>    -2.9725    62.8048   602.6835 </r>
       <r>    -2.8647    52.9850   608.3985 </r>
       <r>    -2.7568    14.0896   609.9183 </r>
       <r>    -2.6490     3.1167   610.2544 </r>
       <r>    -2.5411    21.7596   612.6015 </r>
       <r>    -2.4332    25.6705   615.3703 </r>
       <r>    -2.3254     8.0002   616.2333 </r>
       <r>    -2.2175    11.2658   617.4484 </r>
       <r>    -2.1096    29.3453   620.6136 </r>
       <r>    -2.0018    32.8428   624.1561 </r>
       <r>    -1.8939    38.7926   628.3404 </r>
       <r>    -1.7861    52.5157   634.0048 </r>
       <r>    -1.6782    46.6675   639.0384 </r>
       <r>    -1.5703    33.3233   642.6327 </r>
       <r>    -1.4625    34.7071   646.3763 </r>
       <r>    -1.3546    27.5269   649.3454 </r>
       <r>    -1.2467     6.1881   650.0129 </r>
       <r>    -1.1389     8.6496   650.9458 </r>
       <r>    -1.0310    40.7225   655.3382 </r>
       <r>    -0.9232    67.8358   662.6551 </r>
       <r>    -0.8153    52.5580   668.3241 </r>
       <r>    -0.7074    21.3843   670.6307 </r>
       <r>    -0.5996     9.8108   671.6889 </r>
       <r>    -0.4917     3.5863   672.0757 </r>
       <r>    -0.3839    -0.4975   672.0221 </r>
       <r>    -0.2760    -0.3373   671.9857 </r>
       <r>    -0.1681     0.0829   671.9946 </r>
       <r>    -0.0603     0.0438   671.9993 </r>
       <r>     0.0476     0.0058   672.0000 </r>
       <r>     0.1555     0.0003   672.0000 </r>
       <r>     0.2633     0.0000   672.0000 </r>
       <r>     0.3712     0.0000   672.0000 </r>
       <r>     0.4790     0.0000   672.0000 </r>
       <r>     0.5869     0.0000   672.0000 </r>
       <r>     0.6948     0.0000   672.0000 </r>
       <r>     0.8026     0.0000   672.0000 </r>
       <r>     0.9105     0.0000   672.0000 </r>
       <r>     1.0183     0.0000   672.0000 </r>
       <r>     1.1262     0.0000   672.0000 </r>
       <r>     1.2341     0.0000   672.0000 </r>
       <r>     1.3419     0.0000   672.0000 </r>
      </set>
     </set>
    </array>
   </total>
  </dos>
 </calculation>
 <structure name="finalpos" >
  <crystal>
   <varray name="basis" >
    <v>      30.00000000       0.00000000       0.00000000 </v>
    <v>       0.00000000      30.00000000       0.00000000 </v>
    <v>       0.00000000       0.00000000      30.00000000 </v>
   </varray>
   <i name="volume">  27000.00000000 </i>
   <varray name="rec_basis" >
    <v>       0.03333333       0.00000000       0.00000000 </v>
    <v>       0.00000000       0.03333333       0.00000000 </v>
    <v>       0.00000000       0.00000000       0.03333333 </v>
   </varray>
  </crystal>
  <varray name="positions" >
   <v>       0.44576020       0.32826710       0.41691983 </v>
   <v>       0.67173288       0.55423978       0.41691983 </v>
   <v>       0.55423980       0.32826710       0.41691983 </v>
   <v>       0.32826712       0.55423978       0.41691983 </v>
   <v>       0.50000000       0.38250690       0.34021317 </v>
   <v>       0.50000000       0.38250690       0.65978680 </v>
   <v>       0.50000000       0.27609440       0.50000000 </v>
   <v>       0.27609443       0.49999998       0.50000000 </v>
   <v>       0.72390557       0.49999998       0.50000000 </v>
   <v>       0.50000000       0.72390555       0.50000000 </v>
   <v>       0.61195280       0.38804720       0.34167483 </v>
   <v>       0.61195280       0.38804720       0.65832513 </v>
   <v>       0.38804722       0.61195278       0.34167483 </v>
   <v>       0.38804722       0.61195278       0.65832513 </v>
   <v>       0.38804720       0.38804720       0.34167483 </v>
   <v>       0.38804720       0.38804720       0.65832513 </v>
   <v>       0.61195278       0.61195278       0.34167483 </v>
   <v>       0.61195278       0.61195278       0.65832513 </v>
   <v>       0.44576020       0.32826710       0.58308023 </v>
   <v>       0.67173288       0.55423978       0.58308023 </v>
   <v>       0.55791699       0.44208301       0.41809300 </v>
   <v>       0.32826705       0.44576024       0.41691983 </v>
   <v>       0.55423973       0.67173293       0.41691983 </v>
   <v>       0.55423980       0.32826710       0.58308023 </v>
   <v>       0.32826712       0.55423978       0.58308023 </v>
   <v>       0.67173295       0.44576024       0.41691983 </v>
   <v>       0.44576027       0.67173293       0.41691983 </v>
   <v>       0.44208301       0.44208301       0.41809300 </v>
   <v>       0.50000000       0.38416601       0.50000000 </v>
   <v>       0.61749315       0.50000005       0.34021317 </v>
   <v>       0.61749315       0.50000005       0.65978680 </v>
   <v>       0.38250685       0.50000005       0.34021317 </v>
   <v>       0.38250685       0.50000005       0.65978680 </v>
   <v>       0.38317830       0.38317830       0.50000000 </v>
   <v>       0.61682172       0.61682172       0.50000000 </v>
   <v>       0.61682170       0.38317830       0.50000000 </v>
   <v>       0.38317828       0.61682172       0.50000000 </v>
   <v>       0.50000000       0.50000000       0.33478917 </v>
   <v>       0.50000000       0.50000000       0.66521087 </v>
   <v>       0.32826705       0.44576024       0.58308023 </v>
   <v>       0.55423973       0.67173293       0.58308023 </v>
   <v>       0.55791699       0.44208301       0.58190703 </v>
   <v>       0.44208298       0.55791702       0.41809300 </v>
   <v>       0.44208301       0.44208301       0.58190703 </v>
   <v>       0.67173295       0.44576024       0.58308023 </v>
   <v>       0.44576027       0.67173293       0.58308023 </v>
   <v>       0.55791702       0.55791702       0.41809300 </v>
   <v>       0.38416599       0.50000002       0.50000000 </v>
   <v>       0.61583401       0.50000002       0.50000000 </v>
   <v>       0.50000000       0.61749319       0.34021317 </v>
   <v>       0.50000000       0.61749319       0.65978680 </v>
   <v>       0.50000000       0.50000000       0.50000000 </v>
   <v>       0.44208298       0.55791702       0.58190703 </v>
   <v>       0.55791702       0.55791702       0.58190703 </v>
   <v>       0.50000000       0.61583404       0.50000000 </v>
   <v>       0.48863327       0.50309097       0.74000897 </v>
   <v>       0.48685467       0.50357463       0.77756373 </v>
  </varray>
  <varray name="selective"  type="logical" >
   <v type="logical" >  F  F  F </v>
   <v type="logical" >  F  F  F </v>
   <v type="logical" >  F  F  F </v>
   <v type="logical" >  F  F  F </v>
   <v type="logical" >  F  F  F </v>
   <v type="logical" >  F  F  F </v>
   <v type="logical" >  F  F  F </v>
   <v type="logical" >  F  F  F </v>
   <v type="logical" >  F  F  F </v>
   <v type="logical" >  F  F  F </v>
   <v type="logical" >  F  F  F </v>
   <v type="logical" >  F  F  F </v>
   <v type="logical" >  F  F  F </v>
   <v type="logical" >  F  F  F </v>
   <v type="logical" >  F  F  F </v>
   <v type="logical" >  F  F  F </v>
   <v type="logical" >  F  F  F </v>
   <v type="logical" >  F  F  F </v>
   <v type="logical" >  F  F  F </v>
   <v type="logical" >  F  F  F </v>
   <v type="logical" >  F  F  F </v>
   <v type="logical" >  F  F  F </v>
   <v type="logical" >  F  F  F </v>
   <v type="logical" >  F  F  F </v>
   <v type="logical" >  F  F  F </v>
   <v type="logical" >  F  F  F </v>
   <v type="logical" >  F  F  F </v>
   <v type="logical" >  F  F  F </v>
   <v type="logical" >  F  F  F </v>
   <v type="logical" >  F  F  F </v>
   <v type="logical" >  F  F  F </v>
   <v type="logical" >  F  F  F </v>
   <v type="logical" >  F  F  F </v>
   <v type="logical" >  F  F  F </v>
   <v type="logical" >  F  F  F </v>
   <v type="logical" >  F  F  F </v>
   <v type="logical" >  F  F  F </v>
   <v type="logical" >  F  F  F </v>
   <v type="logical" >  F  F  F </v>
   <v type="logical" >  F  F  F </v>
   <v type="logical" >  F  F  F </v>
   <v type="logical" >  F  F  F </v>
   <v type="logical" >  F  F  F </v>
   <v type="logical" >  F  F  F </v>
   <v type="logical" >  F  F  F </v>
   <v type="logical" >  F  F  F </v>
   <v type="logical" >  F  F  F </v>
   <v type="logical" >  F  F  F </v>
   <v type="logical" >  F  F  F </v>
   <v type="logical" >  F  F  F </v>
   <v type="logical" >  F  F  F </v>
   <v type="logical" >  F  F  F </v>
   <v type="logical" >  F  F  F </v>
   <v type="logical" >  F  F  F </v>
   <v type="logical" >  F  F  F </v>
   <v type="logical" >  F  F  F </v>
   <v type="logical" >  F  F  F </v>
  </varray>
  <nose>
   <v>      -3.00000000       0.00000000       0.00010000       0.00010000 </v>
  </nose>
 </structure>
</modeling>
