  57  57   0   0
  0.4736842E+03  0.3000000E-08  0.3000000E-08  0.3000000E-08  0.5000000E-15
  1.000000000000000E-004
  CAR 
 6_Pd100_top_free_z(O)                   
      1.40827290    -31.36589644  301     -4.11869570      1.00000000
    -31.366  0.0000E+00  0.0000E+00
    -31.257  0.0000E+00  0.0000E+00
    -31.147  0.0000E+00  0.0000E+00
    -31.038  0.6229E-27  0.6806E-28
    -30.929  0.3471E-23  0.3793E-24
    -30.820  0.1048E-19  0.1145E-20
    -30.710  0.1707E-16  0.1866E-17
    -30.601  0.1495E-13  0.1636E-14
    -30.492  0.7021E-11  0.7687E-12
    -30.383  0.1748E-08  0.1917E-09
    -30.273  0.2283E-06  0.2513E-07
    -30.164  0.1537E-04  0.1704E-05
    -30.055  0.5159E-03  0.5806E-04
    -29.946  0.8070E-02  0.9397E-03
    -29.836  0.4821E-01  0.6206E-02
    -29.727 -0.1780E-02  0.6012E-02
    -29.618 -0.6422E+00 -0.6414E-01
    -29.509  0.1376E+00 -0.4911E-01
    -29.399  0.6424E+01  0.6527E+00
    -29.290  0.9752E+01  0.1718E+01
    -29.181  0.3518E+01  0.2102E+01
    -29.072 -0.6977E+00  0.2026E+01
    -28.962 -0.3302E+00  0.1990E+01
    -28.853  0.5924E-01  0.1997E+01
    -28.744  0.2788E-01  0.2000E+01
    -28.635  0.3080E-02  0.2000E+01
    -28.525  0.1449E-03  0.2000E+01
    -28.416  0.3282E-05  0.2000E+01
    -28.307  0.3764E-07  0.2000E+01
    -28.198  0.2243E-09  0.2000E+01
    -28.088  0.7032E-12  0.2000E+01
    -27.979  0.2032E-14  0.2000E+01
    -27.870  0.0000E+00  0.2000E+01
    -27.761  0.0000E+00  0.2000E+01
    -27.651  0.0000E+00  0.2000E+01
    -27.542  0.0000E+00  0.2000E+01
    -27.433  0.0000E+00  0.2000E+01
    -27.324  0.0000E+00  0.2000E+01
    -27.215  0.0000E+00  0.2000E+01
    -27.105  0.0000E+00  0.2000E+01
    -26.996  0.0000E+00  0.2000E+01
    -26.887  0.0000E+00  0.2000E+01
    -26.778  0.0000E+00  0.2000E+01
    -26.668  0.0000E+00  0.2000E+01
    -26.559  0.0000E+00  0.2000E+01
    -26.450  0.0000E+00  0.2000E+01
    -26.341  0.0000E+00  0.2000E+01
    -26.231  0.0000E+00  0.2000E+01
    -26.122  0.0000E+00  0.2000E+01
    -26.013  0.0000E+00  0.2000E+01
    -25.904  0.0000E+00  0.2000E+01
    -25.794  0.0000E+00  0.2000E+01
    -25.685  0.0000E+00  0.2000E+01
    -25.576  0.0000E+00  0.2000E+01
    -25.467  0.0000E+00  0.2000E+01
    -25.357  0.0000E+00  0.2000E+01
    -25.248  0.0000E+00  0.2000E+01
    -25.139  0.0000E+00  0.2000E+01
    -25.030  0.0000E+00  0.2000E+01
    -24.920  0.0000E+00  0.2000E+01
    -24.811  0.0000E+00  0.2000E+01
    -24.702  0.0000E+00  0.2000E+01
    -24.593  0.0000E+00  0.2000E+01
    -24.483  0.0000E+00  0.2000E+01
    -24.374  0.0000E+00  0.2000E+01
    -24.265  0.0000E+00  0.2000E+01
    -24.156  0.0000E+00  0.2000E+01
    -24.046  0.0000E+00  0.2000E+01
    -23.937  0.0000E+00  0.2000E+01
    -23.828  0.0000E+00  0.2000E+01
    -23.719  0.0000E+00  0.2000E+01
    -23.609  0.0000E+00  0.2000E+01
    -23.500  0.0000E+00  0.2000E+01
    -23.391  0.0000E+00  0.2000E+01
    -23.282  0.0000E+00  0.2000E+01
    -23.172  0.0000E+00  0.2000E+01
    -23.063  0.0000E+00  0.2000E+01
    -22.954  0.0000E+00  0.2000E+01
    -22.845  0.0000E+00  0.2000E+01
    -22.735  0.0000E+00  0.2000E+01
    -22.626  0.0000E+00  0.2000E+01
    -22.517  0.0000E+00  0.2000E+01
    -22.408  0.0000E+00  0.2000E+01
    -22.298  0.0000E+00  0.2000E+01
    -22.189  0.0000E+00  0.2000E+01
    -22.080  0.0000E+00  0.2000E+01
    -21.971  0.0000E+00  0.2000E+01
    -21.861  0.0000E+00  0.2000E+01
    -21.752  0.0000E+00  0.2000E+01
    -21.643  0.0000E+00  0.2000E+01
    -21.534  0.0000E+00  0.2000E+01
    -21.424  0.0000E+00  0.2000E+01
    -21.315  0.0000E+00  0.2000E+01
    -21.206  0.0000E+00  0.2000E+01
    -21.097  0.0000E+00  0.2000E+01
    -20.987  0.0000E+00  0.2000E+01
    -20.878  0.0000E+00  0.2000E+01
    -20.769  0.0000E+00  0.2000E+01
    -20.660  0.0000E+00  0.2000E+01
    -20.550  0.0000E+00  0.2000E+01
    -20.441  0.0000E+00  0.2000E+01
    -20.332  0.0000E+00  0.2000E+01
    -20.223  0.0000E+00  0.2000E+01
    -20.113  0.0000E+00  0.2000E+01
    -20.004  0.0000E+00  0.2000E+01
    -19.895  0.0000E+00  0.2000E+01
    -19.786  0.0000E+00  0.2000E+01
    -19.676  0.0000E+00  0.2000E+01
    -19.567  0.0000E+00  0.2000E+01
    -19.458  0.0000E+00  0.2000E+01
    -19.349  0.0000E+00  0.2000E+01
    -19.239  0.0000E+00  0.2000E+01
    -19.130  0.0000E+00  0.2000E+01
    -19.021  0.0000E+00  0.2000E+01
    -18.912  0.0000E+00  0.2000E+01
    -18.802  0.0000E+00  0.2000E+01
    -18.693  0.0000E+00  0.2000E+01
    -18.584  0.0000E+00  0.2000E+01
    -18.475  0.0000E+00  0.2000E+01
    -18.365  0.0000E+00  0.2000E+01
    -18.256  0.0000E+00  0.2000E+01
    -18.147  0.0000E+00  0.2000E+01
    -18.038  0.0000E+00  0.2000E+01
    -17.928  0.0000E+00  0.2000E+01
    -17.819  0.0000E+00  0.2000E+01
    -17.710  0.0000E+00  0.2000E+01
    -17.601  0.0000E+00  0.2000E+01
    -17.491  0.0000E+00  0.2000E+01
    -17.382  0.0000E+00  0.2000E+01
    -17.273  0.0000E+00  0.2000E+01
    -17.164  0.0000E+00  0.2000E+01
    -17.055  0.0000E+00  0.2000E+01
    -16.945  0.0000E+00  0.2000E+01
    -16.836  0.0000E+00  0.2000E+01
    -16.727  0.0000E+00  0.2000E+01
    -16.618  0.0000E+00  0.2000E+01
    -16.508  0.0000E+00  0.2000E+01
    -16.399  0.0000E+00  0.2000E+01
    -16.290  0.0000E+00  0.2000E+01
    -16.181  0.0000E+00  0.2000E+01
    -16.071  0.8566E-27  0.2000E+01
    -15.962  0.4670E-23  0.2000E+01
    -15.853  0.1379E-19  0.2000E+01
    -15.744  0.2197E-16  0.2000E+01
    -15.634  0.1883E-13  0.2000E+01
    -15.525  0.8644E-11  0.2000E+01
    -15.416  0.2103E-08  0.2000E+01
    -15.307  0.2684E-06  0.2000E+01
    -15.197  0.1763E-04  0.2000E+01
    -15.088  0.5770E-03  0.2000E+01
    -14.979  0.8764E-02  0.2001E+01
    -14.870  0.5013E-01  0.2006E+01
    -14.760 -0.1232E-01  0.2005E+01
    -14.651 -0.6685E+00  0.1932E+01
    -14.542  0.2648E+00  0.1961E+01
    -14.433  0.6688E+01  0.2692E+01
    -14.323  0.9657E+01  0.3747E+01
    -14.214  0.3263E+01  0.4103E+01
    -14.105 -0.7310E+00  0.4023E+01
    -13.996 -0.3030E+00  0.3990E+01
    -13.886  0.6104E-01  0.3997E+01
    -13.777  0.2639E-01  0.4000E+01
    -13.668  0.6081E-02  0.4000E+01
    -13.559  0.2913E-01  0.4004E+01
    -13.449  0.5775E-01  0.4010E+01
    -13.340 -0.3488E+00  0.3972E+01
    -13.231 -0.6720E+00  0.3898E+01
    -13.122  0.3691E+01  0.4302E+01
    -13.012  0.9806E+01  0.5373E+01
    -12.903  0.6247E+01  0.6055E+01
    -12.794  0.5997E-01  0.6062E+01
    -12.685 -0.6010E+00  0.5996E+01
    -12.575  0.6804E-01  0.6004E+01
    -12.466 -0.2016E+00  0.5982E+01
    -12.357 -0.7733E+00  0.5897E+01
    -12.248  0.2744E+01  0.6197E+01
    -12.138  0.9409E+01  0.7225E+01
    -12.029  0.7225E+01  0.8014E+01
    -11.920  0.5622E+00  0.8076E+01
    -11.811 -0.7193E+00  0.7997E+01
    -11.701 -0.3766E-01  0.7993E+01
    -11.592  0.5657E-01  0.7999E+01
    -11.483  0.3519E-01  0.8003E+01
    -11.374  0.6297E-01  0.8010E+01
    -11.264 -0.2793E+00  0.7979E+01
    -11.155 -0.7554E+00  0.7897E+01
    -11.046  0.3038E+01  0.8229E+01
    -10.937  0.9559E+01  0.9273E+01
    -10.827  0.6920E+01  0.1003E+02
    -10.718  0.3866E+00  0.1007E+02
    -10.609 -0.6910E+00  0.9996E+01
    -10.500 -0.2262E-01  0.9993E+01
    -10.390  0.5181E-01  0.9999E+01
    -10.281  0.9426E-02  0.1000E+02
    -10.172  0.6374E-03  0.1000E+02
    -10.063  0.1994E-04  0.1000E+02
     -9.953  0.3101E-06  0.1000E+02
     -9.844  0.2481E-08  0.1000E+02
     -9.735  0.1041E-10  0.1000E+02
     -9.626  0.2236E-13  0.1000E+02
     -9.516  0.0000E+00  0.1000E+02
     -9.407  0.0000E+00  0.1000E+02
     -9.298  0.4418E-25  0.1000E+02
     -9.189  0.1829E-21  0.1000E+02
     -9.079  0.4094E-18  0.1000E+02
     -8.970  0.4940E-15  0.1000E+02
     -8.861  0.3207E-12  0.1000E+02
     -8.752  0.1106E-09  0.1000E+02
     -8.642  0.2016E-07  0.1000E+02
     -8.533  0.1915E-05  0.1000E+02
     -8.424  0.9246E-04  0.1000E+02
     -8.315  0.2170E-02  0.1000E+02
     -8.205  0.2222E-01  0.1000E+02
     -8.096  0.6360E-01  0.1001E+02
     -7.987 -0.2359E+00  0.9984E+01
     -7.878 -0.7893E+00  0.9898E+01
     -7.768  0.2621E+01  0.1018E+02
     -7.659  0.9340E+01  0.1120E+02
     -7.550  0.7355E+01  0.1201E+02
     -7.441  0.6681E+00  0.1208E+02
     -7.332 -0.6710E+00  0.1201E+02
     -7.222 -0.3716E+00  0.1197E+02
     -7.113 -0.6125E+00  0.1190E+02
     -7.004  0.3587E+01  0.1229E+02
     -6.895  0.9387E+01  0.1332E+02
     -6.785  0.5785E+01  0.1395E+02
     -6.676  0.4069E+01  0.1439E+02
     -6.567  0.9457E+01  0.1543E+02
     -6.458  0.5422E+01  0.1602E+02
     -6.348 -0.2808E+01  0.1571E+02
     -6.239  0.7023E+01  0.1648E+02
     -6.130  0.3396E+02  0.2019E+02
     -6.021  0.3889E+02  0.2444E+02
     -5.911  0.2747E+02  0.2744E+02
     -5.802  0.3750E+02  0.3154E+02
     -5.693  0.7050E+02  0.3924E+02
     -5.584  0.1373E+03  0.5424E+02
     -5.474  0.2410E+03  0.8057E+02
     -5.365  0.2853E+03  0.1117E+03
     -5.256  0.2356E+03  0.1375E+03
     -5.147  0.2160E+03  0.1611E+03
     -5.037  0.2891E+03  0.1926E+03
     -4.928  0.3536E+03  0.2313E+03
     -4.819  0.3161E+03  0.2658E+03
     -4.710  0.2891E+03  0.2974E+03
     -4.600  0.3692E+03  0.3377E+03
     -4.491  0.4226E+03  0.3839E+03
     -4.382  0.4313E+03  0.4310E+03
     -4.273  0.5122E+03  0.4870E+03
     -4.163  0.5169E+03  0.5434E+03
     -4.054  0.2815E+03  0.5742E+03
     -3.945  0.5504E+02  0.5802E+03
     -3.836  0.1828E+02  0.5822E+03
     -3.726  0.3273E+02  0.5858E+03
     -3.617  0.1872E+02  0.5878E+03
     -3.508  0.1384E+02  0.5893E+03
     -3.399  0.1780E+02  0.5913E+03
     -3.289  0.8310E+01  0.5922E+03
     -3.180  0.5932E+01  0.5928E+03
     -3.071  0.3208E+02  0.5963E+03
     -2.962  0.6195E+02  0.6031E+03
     -2.852  0.4552E+02  0.6081E+03
     -2.743  0.1330E+02  0.6095E+03
     -2.634  0.4201E+01  0.6100E+03
     -2.525  0.1386E+02  0.6115E+03
     -2.415  0.2358E+02  0.6141E+03
     -2.306  0.2093E+02  0.6164E+03
     -2.197  0.1813E+02  0.6184E+03
     -2.088  0.2205E+02  0.6208E+03
     -1.978  0.3140E+02  0.6242E+03
     -1.869  0.4337E+02  0.6289E+03
     -1.760  0.4574E+02  0.6339E+03
     -1.651  0.3739E+02  0.6380E+03
     -1.541  0.3153E+02  0.6415E+03
     -1.432  0.2525E+02  0.6442E+03
     -1.323  0.2224E+02  0.6466E+03
     -1.214  0.2770E+02  0.6497E+03
     -1.104  0.2818E+02  0.6527E+03
     -0.995  0.3541E+02  0.6566E+03
     -0.886  0.5339E+02  0.6624E+03
     -0.777  0.4773E+02  0.6677E+03
     -0.667  0.2429E+02  0.6703E+03
     -0.558  0.1109E+02  0.6715E+03
     -0.449  0.4685E+01  0.6720E+03
     -0.340  0.3938E-02  0.6720E+03
     -0.230 -0.4662E+00  0.6720E+03
     -0.121  0.4274E-01  0.6720E+03
     -0.012  0.5235E-01  0.6720E+03
      0.097  0.8249E-02  0.6720E+03
      0.207  0.5198E-03  0.6720E+03
      0.316  0.1541E-04  0.6720E+03
      0.425  0.2285E-06  0.6720E+03
      0.534  0.1748E-08  0.6720E+03
      0.644  0.7024E-11  0.6720E+03
      0.753  0.1423E-13  0.6720E+03
      0.862  0.0000E+00  0.6720E+03
      0.971  0.0000E+00  0.6720E+03
      1.081  0.0000E+00  0.6720E+03
      1.190  0.0000E+00  0.6720E+03
      1.299  0.0000E+00  0.6720E+03
      1.408  0.0000E+00  0.6720E+03
