 vasp.5.4.4.18Apr17-6-g9f103f2a35 (build Sep 03 2018 23:53:05) complex          
  
 executed on             LinuxIFC date 2021.11.26  12:03:07
 running on    1 total cores
 distrk:  each k-point on    1 cores,    1 groups
 distr:  one band on NCORES_PER_BAND=   1 cores,    1 groups


--------------------------------------------------------------------------------------------------------


 INCAR:
 POTCAR:    PAW_PBE Pd 04Jan2005                  
 POTCAR:    PAW_PBE C 08Apr2002                   
 POTCAR:    PAW_PBE O 08Apr2002                   
 POTCAR:    PAW_PBE Pd 04Jan2005                  
   VRHFIN =Pd : s1 d9                                                           
   LEXCH  = PE                                                                  
   EATOM  =   809.7530 eV,   59.5152 Ry                                         
                                                                                
   TITEL  = PAW_PBE Pd 04Jan2005                                                
   LULTRA =        F    use ultrasoft PP ?                                      
   IUNSCR =        1    unscreen: 0-lin 1-nonlin 2-no                           
   RPACOR =    2.000    partial core radius                                     
   POMASS =  106.420; ZVAL   =   10.000    mass and valenz                      
   RCORE  =    2.600    outmost cutoff radius                                   
   RWIGS  =    2.710; RWIGS  =    1.434    wigner-seitz radius (au A)           
   ENMAX  =  250.925; ENMIN  =  188.194 eV                                      
   ICORE  =        3    local potential                                         
   LCOR   =        T    correct aug charges                                     
   LPAW   =        T    paw PP                                                  
   EAUG   =  416.230                                                            
   DEXC   =    0.000                                                            
   RMAX   =    2.653    core radius for proj-oper                               
   RAUG   =    1.300    factor for augmentation sphere                          
   RDEP   =    2.734    radius for radial grids                                 
   RDEPT  =    2.103    core radius for aug-charge                              
                                                                                
   Atomic configuration                                                         
   12 entries                                                                   
     n  l   j            E        occ.                                          
     1  0  0.50    -24164.6631   2.0000                                         
     2  0  0.50     -3530.9218   2.0000                                         
     2  1  1.50     -3165.6822   6.0000                                         
     3  0  0.50      -639.4577   2.0000                                         
     3  1  1.50      -519.4532   6.0000                                         
     3  2  2.50      -328.9757  10.0000                                         
     4  0  0.50       -88.7014   2.0000                                         
     4  1  1.50       -54.4540   6.0000                                         
     4  2  2.50        -6.6878   9.0000                                         
     5  0  0.50        -4.3543   1.0000                                         
     5  1  0.50        -1.3606   0.0000                                         
     4  3  2.50        -1.3606   0.0000                                         
   Description                                                                  
     l       E           TYP  RCUT    TYP  RCUT                                 
     2     -6.6878251     23  2.400                                             
     2     -8.0484077     23  2.400                                             
     0     -4.3542939     23  2.400                                             
     0      4.3406793     23  2.400                                             
     1     -4.0817478     23  2.600                                             
     1     15.8380318     23  2.600                                             
     3     -4.0817478     23  2.400                                             
  local pseudopotential read in
  partial core-charges read in
  partial kinetic energy density read in
  atomic valenz-charges read in
  non local Contribution for L=           2  read in
    real space projection operators read in
  non local Contribution for L=           2  read in
    real space projection operators read in
  non local Contribution for L=           0  read in
    real space projection operators read in
  non local Contribution for L=           0  read in
    real space projection operators read in
  non local Contribution for L=           1  read in
    real space projection operators read in
  non local Contribution for L=           1  read in
    real space projection operators read in
    PAW grid and wavefunctions read in
 
   number of l-projection  operators is LMAX  =           6
   number of lm-projection operators is LMMAX =          18
 
 POTCAR:    PAW_PBE C 08Apr2002                   
   VRHFIN =C: s2p2                                                              
   LEXCH  = PE                                                                  
   EATOM  =   147.1560 eV,   10.8157 Ry                                         
                                                                                
   TITEL  = PAW_PBE C 08Apr2002                                                 
   LULTRA =        F    use ultrasoft PP ?                                      
   IUNSCR =        1    unscreen: 0-lin 1-nonlin 2-no                           
   RPACOR =    1.200    partial core radius                                     
   POMASS =   12.011; ZVAL   =    4.000    mass and valenz                      
   RCORE  =    1.500    outmost cutoff radius                                   
   RWIGS  =    1.630; RWIGS  =    0.863    wigner-seitz radius (au A)           
   ENMAX  =  400.000; ENMIN  =  300.000 eV                                      
   ICORE  =        2    local potential                                         
   LCOR   =        T    correct aug charges                                     
   LPAW   =        T    paw PP                                                  
   EAUG   =  644.873                                                            
   DEXC   =    0.000                                                            
   RMAX   =    1.529    core radius for proj-oper                               
   RAUG   =    1.300    factor for augmentation sphere                          
   RDEP   =    1.501    radius for radial grids                                 
   RDEPT  =    1.300    core radius for aug-charge                              
                                                                                
   Atomic configuration                                                         
    4 entries                                                                   
     n  l   j            E        occ.                                          
     1  0  0.50      -273.3789   2.0000                                         
     2  0  0.50       -13.7508   2.0000                                         
     2  1  0.50        -5.2854   2.0000                                         
     3  2  1.50        -5.4423   0.0000                                         
   Description                                                                  
     l       E           TYP  RCUT    TYP  RCUT                                 
     0    -13.7508458     23  1.200                                             
     0     -8.2022199     23  1.200                                             
     1     -5.2854383     23  1.500                                             
     1     34.0145650     23  1.500                                             
     2     -5.4423304      7  1.500                                             
  local pseudopotential read in
  partial core-charges read in
  partial kinetic energy density read in
  atomic valenz-charges read in
  non local Contribution for L=           0  read in
    real space projection operators read in
  non local Contribution for L=           0  read in
    real space projection operators read in
  non local Contribution for L=           1  read in
    real space projection operators read in
  non local Contribution for L=           1  read in
    real space projection operators read in
    PAW grid and wavefunctions read in
 
   number of l-projection  operators is LMAX  =           4
   number of lm-projection operators is LMMAX =           8
 
 POTCAR:    PAW_PBE O 08Apr2002                   
   VRHFIN =O: s2p4                                                              
   LEXCH  = PE                                                                  
   EATOM  =   432.3788 eV,   31.7789 Ry                                         
                                                                                
   TITEL  = PAW_PBE O 08Apr2002                                                 
   LULTRA =        F    use ultrasoft PP ?                                      
   IUNSCR =        1    unscreen: 0-lin 1-nonlin 2-no                           
   RPACOR =    1.200    partial core radius                                     
   POMASS =   16.000; ZVAL   =    6.000    mass and valenz                      
   RCORE  =    1.520    outmost cutoff radius                                   
   RWIGS  =    1.550; RWIGS  =    0.820    wigner-seitz radius (au A)           
   ENMAX  =  400.000; ENMIN  =  300.000 eV                                      
   ICORE  =        2    local potential                                         
   LCOR   =        T    correct aug charges                                     
   LPAW   =        T    paw PP                                                  
   EAUG   =  605.392                                                            
   DEXC   =    0.000                                                            
   RMAX   =    1.553    core radius for proj-oper                               
   RAUG   =    1.300    factor for augmentation sphere                          
   RDEP   =    1.550    radius for radial grids                                 
   RDEPT  =    1.329    core radius for aug-charge                              
                                                                                
   Atomic configuration                                                         
    4 entries                                                                   
     n  l   j            E        occ.                                          
     1  0  0.50      -514.6923   2.0000                                         
     2  0  0.50       -23.9615   2.0000                                         
     2  1  0.50        -9.0305   4.0000                                         
     3  2  1.50        -9.5241   0.0000                                         
   Description                                                                  
     l       E           TYP  RCUT    TYP  RCUT                                 
     0    -23.9615318     23  1.200                                             
     0     -9.5240782     23  1.200                                             
     1     -9.0304911     23  1.520                                             
     1      8.1634956     23  1.520                                             
     2     -9.5240782      7  1.500                                             
  local pseudopotential read in
  partial core-charges read in
  partial kinetic energy density read in
  kinetic energy density of atom read in
  atomic valenz-charges read in
  non local Contribution for L=           0  read in
    real space projection operators read in
  non local Contribution for L=           0  read in
    real space projection operators read in
  non local Contribution for L=           1  read in
    real space projection operators read in
  non local Contribution for L=           1  read in
    real space projection operators read in
    PAW grid and wavefunctions read in
 
   number of l-projection  operators is LMAX  =           4
   number of lm-projection operators is LMMAX =           8
 
 Optimization of the real space projectors (new method)

 maximal supplied QI-value         = 14.36
 optimisation between [QCUT,QGAM] = [ 10.20, 20.39] = [ 29.12,116.47] Ry 
 Optimized for a Real-space Cutoff    1.51 Angstroem

   l    n(q)    QCUT    max X(q) W(low)/X(q) W(high)/X(q)  e(spline) 
   2      8    10.197    59.108    0.26E-03    0.14E-03    0.96E-07
   2      8    10.197    58.101    0.27E-03    0.14E-03    0.98E-07
   0      9    10.197   102.235    0.54E-04    0.60E-05    0.72E-07
   0      9    10.197    58.388    0.52E-04    0.60E-05    0.68E-07
   1      9    10.197    22.191    0.18E-03    0.25E-03    0.79E-07
   1      9    10.197    15.590    0.15E-03    0.21E-03    0.69E-07
 Optimization of the real space projectors (new method)

 maximal supplied QI-value         = 25.13
 optimisation between [QCUT,QGAM] = [ 10.05, 20.36] = [ 28.30,116.06] Ry 
 Optimized for a Real-space Cutoff    1.30 Angstroem

   l    n(q)    QCUT    max X(q) W(low)/X(q) W(high)/X(q)  e(spline) 
   0      8    10.053   115.676    0.49E-03    0.72E-03    0.18E-06
   0      8    10.053    87.132    0.49E-03    0.71E-03    0.18E-06
   1      7    10.053     4.429    0.32E-03    0.31E-03    0.18E-06
   1      7    10.053     2.733    0.23E-03    0.19E-03    0.20E-06
 Optimization of the real space projectors (new method)

 maximal supplied QI-value         = 24.76
 optimisation between [QCUT,QGAM] = [ 10.15, 20.30] = [ 28.85,115.39] Ry 
 Optimized for a Real-space Cutoff    1.38 Angstroem

   l    n(q)    QCUT    max X(q) W(low)/X(q) W(high)/X(q)  e(spline) 
   0      8    10.150    20.381    0.22E-03    0.32E-03    0.29E-06
   0      8    10.150    15.268    0.23E-03    0.35E-03    0.30E-06
   1      8    10.150     5.964    0.46E-03    0.53E-03    0.21E-06
   1      8    10.150     5.382    0.38E-03    0.45E-03    0.19E-06

 ----------------------------------------------------------------------------- 
|                                                                             |
|  ADVICE TO THIS USER RUNNING 'VASP/VAMP'   (HEAR YOUR MASTER'S VOICE ...):  |
|                                                                             |
|      You enforced a specific xc-type in the INCAR file,                     |
|      a different type was found on the POTCAR file                          |
|          I HOPE YOU KNOW, WHAT YOU ARE  DOING                               |
|                                                                             |
 ----------------------------------------------------------------------------- 

  PAW_PBE Pd 04Jan2005                  :
 energy of atom  1       EATOM= -809.7530
 kinetic energy error for atom=    0.0091 (will be added to EATOM!!)
  PAW_PBE C 08Apr2002                   :
 energy of atom  2       EATOM= -147.1560
 kinetic energy error for atom=    0.0288 (will be added to EATOM!!)
  PAW_PBE O 08Apr2002                   :
 energy of atom  3       EATOM= -432.3788
 kinetic energy error for atom=    0.1156 (will be added to EATOM!!)
 
 
 POSCAR: Pd55PES                                 
  positions in cartesian coordinates
  No initial velocities read in
 exchange correlation table for  LEXCH =        9
   RHO(1)=    0.500       N(1)  =     2000
   RHO(2)=  100.500       N(2)  =     4000
 


--------------------------------------------------------------------------------------------------------


 ion  position               nearest neighbor table
   1  0.446  0.328  0.417-   3 3.25   5 3.25   7 3.36  15 3.36  29 3.42  28 3.42
   2  0.672  0.554  0.417-  26 3.25  30 3.25  17 3.36   9 3.36  47 3.42  49 3.42
   3  0.554  0.328  0.417-   1 3.25   5 3.25   7 3.36  11 3.36  29 3.42  21 3.42
   4  0.328  0.554  0.417-  32 3.25  22 3.25  13 3.36   8 3.36  43 3.42  48 3.42
   5  0.500  0.383  0.340-   1 3.25   3 3.25  11 3.36  15 3.36  21 3.42  28 3.42
   6  0.500  0.383  0.660-  24 3.25  19 3.25  16 3.36  12 3.36  42 3.42  44 3.42
   7  0.500  0.276  0.500-  29 3.24   3 3.36   1 3.36  19 3.36  24 3.36
   8  0.276  0.500  0.500-  48 3.24  22 3.36  40 3.36   4 3.36  25 3.36
   9  0.724  0.500  0.500-  49 3.24  26 3.36  45 3.36   2 3.36  20 3.36
  10  0.500  0.724  0.500-  55 3.24  27 3.36  23 3.36  46 3.36  41 3.36
  11  0.612  0.388  0.342-  21 3.24   5 3.36   3 3.36  30 3.36  26 3.36
  12  0.612  0.388  0.658-  42 3.24  24 3.36  45 3.36   6 3.36  31 3.36
  13  0.388  0.612  0.342-  43 3.24  32 3.36  50 3.36   4 3.36  27 3.36
  14  0.388  0.612  0.658-  53 3.24  25 3.36  33 3.36  51 3.36  46 3.36
  15  0.388  0.388  0.342-  28 3.24   5 3.36   1 3.36  32 3.36  22 3.36
  16  0.388  0.388  0.658-  44 3.24  19 3.36  40 3.36   6 3.36  33 3.36
  17  0.612  0.612  0.342-  47 3.24  30 3.36  50 3.36   2 3.36  23 3.36
  18  0.612  0.612  0.658-  54 3.24  31 3.36  20 3.36  51 3.36  41 3.36
  19  0.446  0.328  0.583-   6 3.25  24 3.25  16 3.36   7 3.36  44 3.42  29 3.42
  20  0.672  0.554  0.583-  31 3.25  45 3.25  18 3.36   9 3.36  54 3.42  49 3.42
  21  0.558  0.442  0.418-  11 3.24   5 3.42   3 3.42  30 3.42  26 3.42
  22  0.328  0.446  0.417-   4 3.25  32 3.25   8 3.36  15 3.36  48 3.42  28 3.42
  23  0.554  0.672  0.417-  27 3.25  50 3.25  10 3.36  17 3.36  55 3.42  47 3.42
  24  0.554  0.328  0.583-   6 3.25  19 3.25  12 3.36   7 3.36  42 3.42  29 3.42
  25  0.328  0.554  0.583-  33 3.25  40 3.25  14 3.36   8 3.36  53 3.42  48 3.42
  26  0.672  0.446  0.417-   2 3.25  30 3.25   9 3.36  11 3.36  49 3.42  21 3.42
  27  0.446  0.672  0.417-  23 3.25  50 3.25  10 3.36  13 3.36  55 3.42  43 3.42
  28  0.442  0.442  0.418-  15 3.24   5 3.42   1 3.42  32 3.42  22 3.42
  29  0.500  0.384  0.500-   7 3.24   3 3.42   1 3.42  24 3.42  19 3.42
  30  0.617  0.500  0.340-   2 3.25  26 3.25  17 3.36  11 3.36  47 3.42  21 3.42
  31  0.617  0.500  0.660-  20 3.25  45 3.25  18 3.36  12 3.36  54 3.42  42 3.42
  32  0.383  0.500  0.340-   4 3.25  22 3.25  13 3.36  15 3.36  43 3.42  28 3.42
  33  0.383  0.500  0.660-  25 3.25  40 3.25  14 3.36  16 3.36  53 3.42  44 3.42
  34  0.383  0.383  0.500-
  35  0.617  0.617  0.500-
  36  0.617  0.383  0.500-  56 1.65  57 2.17
  37  0.383  0.617  0.500-
  38  0.500  0.500  0.335-
  39  0.500  0.500  0.665-
  40  0.328  0.446  0.583-  33 3.25  25 3.25  16 3.36   8 3.36  44 3.42  48 3.42
  41  0.554  0.672  0.583-  46 3.25  51 3.25  10 3.36  18 3.36  54 3.42  55 3.42
  42  0.558  0.442  0.582-  12 3.24   6 3.42  24 3.42  31 3.42  45 3.42
  43  0.442  0.558  0.418-  13 3.24   4 3.42  32 3.42  27 3.42  50 3.42
  44  0.442  0.442  0.582-  16 3.24   6 3.42  19 3.42  33 3.42  40 3.42
  45  0.672  0.446  0.583-  57 2.00  56 2.04  20 3.25  31 3.25   9 3.36  12 3.36  49 3.42  42 3.42

  46  0.446  0.672  0.583-  41 3.25  51 3.25  10 3.36  14 3.36  53 3.42  55 3.42
  47  0.558  0.558  0.418-  17 3.24   2 3.42  30 3.42  23 3.42  50 3.42
  48  0.384  0.500  0.500-   8 3.24   4 3.42  22 3.42  25 3.42  40 3.42
  49  0.616  0.500  0.500-  56 2.58   9 3.24   2 3.42  26 3.42  20 3.42  45 3.42
  50  0.500  0.617  0.340-  27 3.25  23 3.25  13 3.36  17 3.36  43 3.42  47 3.42
  51  0.500  0.617  0.660-  41 3.25  46 3.25  14 3.36  18 3.36  53 3.42  54 3.42
  52  0.500  0.500  0.500-
  53  0.442  0.558  0.582-  14 3.24  25 3.42  33 3.42  51 3.42  46 3.42
  54  0.558  0.558  0.582-  18 3.24  31 3.42  20 3.42  51 3.42  41 3.42
  55  0.500  0.616  0.500-  10 3.24  23 3.42  27 3.42  41 3.42  46 3.42
  56  0.646  0.423  0.524-  57 1.13  36 1.65  45 2.04  49 2.58
  57  0.679  0.406  0.530-  56 1.13  45 2.00  36 2.17
 
  LATTYP: Found a simple cubic cell.
 ALAT       =    30.0000000000
  
  Lattice vectors:
  
 A1 = (  30.0000000000,   0.0000000000,   0.0000000000)
 A2 = (   0.0000000000,  30.0000000000,   0.0000000000)
 A3 = (   0.0000000000,   0.0000000000,  30.0000000000)


Analysis of symmetry for initial positions (statically):
=====================================================================
 Subroutine PRICEL returns:
 Original cell was already a primitive cell.
 

 Routine SETGRP: Setting up the symmetry group for a 
 simple cubic supercell.


 Subroutine GETGRP returns: Found  1 space group operations
 (whereof  1 operations were pure point group operations)
 out of a pool of 48 trial point group operations.


The static configuration has the point symmetry C_1 .


Analysis of symmetry for dynamics (positions and initial velocities):
=====================================================================
 Subroutine PRICEL returns:
 Original cell was already a primitive cell.
 

 Routine SETGRP: Setting up the symmetry group for a 
 simple cubic supercell.


 Subroutine GETGRP returns: Found  1 space group operations
 (whereof  1 operations were pure point group operations)
 out of a pool of 48 trial point group operations.


The dynamic configuration has the point symmetry C_1 .


Analysis of constrained symmetry for selective dynamics:
=====================================================================
 Subroutine PRICEL returns:
 Original cell was already a primitive cell.
 

 Routine SETGRP: Setting up the symmetry group for a 
 simple cubic supercell.


 Subroutine GETGRP returns: Found  1 space group operations
 (whereof  1 operations were pure point group operations)
 out of a pool of 48 trial point group operations.


The constrained configuration has the point symmetry C_1 .


 Subroutine INISYM returns: Found  1 space group operations
 (whereof  1 operations are pure point group operations),
 and found     1 'primitive' translations

 
 
 KPOINTS: K-points                                

Automatic generation of k-mesh.
Space group operators:
 irot       det(A)        alpha          n_x          n_y          n_z        tau_x        tau_y        tau_z
    1     1.000000     0.000000     1.000000     0.000000     0.000000     0.000000     0.000000     0.000000
 
 Subroutine IBZKPT returns following result:
 ===========================================
 
 Found      1 irreducible k-points:
 
 Following reciprocal coordinates:
            Coordinates               Weight
  0.000000  0.000000  0.000000      1.000000
 
 Following cartesian coordinates:
            Coordinates               Weight
  0.000000  0.000000  0.000000      1.000000
 


--------------------------------------------------------------------------------------------------------




 Dimension of arrays:
   k-points           NKPTS =      1   k-points in BZ     NKDIM =      1   number of bands    NBANDS=    336
   number of dos      NEDOS =    301   number of ions     NIONS =     57
   non local maximal  LDIM  =      6   non local SUM 2l+1 LMDIM =     18
   total plane-waves  NPLWV = ******
   max r-space proj   IRMAX =   1847   max aug-charges    IRDMAX=   6262
   dimension x,y,z NGX =   150 NGY =  150 NGZ =  150
   dimension x,y,z NGXF=   300 NGYF=  300 NGZF=  300
   support grid    NGXF=   300 NGYF=  300 NGZF=  300
   ions per type =              55   1   1
   NGX,Y,Z   is equivalent  to a cutoff of   8.31,  8.31,  8.31 a.u.
   NGXF,Y,Z  is equivalent  to a cutoff of  16.62, 16.62, 16.62 a.u.

 SYSTEM =  6_Pd100_top_free_z(O)                   
 POSCAR =  Pd55PES                                 

 Startparameter for this run:
   NWRITE =      2    write-flag & timer
   PREC   = normal    normal or accurate (medium, high low for compatibility)
   ISTART =      0    job   : 0-new  1-cont  2-samecut
   ICHARG =      2    charge: 1-file 2-atom 10-const
   ISPIN  =      1    spin polarized calculation?
   LNONCOLLINEAR =      F non collinear calculations
   LSORBIT =      F    spin-orbit coupling
   INIWAV =      1    electr: 0-lowe 1-rand  2-diag
   LASPH  =      F    aspherical Exc in radial PAW
   METAGGA=      F    non-selfconsistent MetaGGA calc.

 Electronic Relaxation 1
   ENCUT  =  400.0 eV  29.40 Ry    5.42 a.u.  48.92 48.92 48.92*2*pi/ulx,y,z
   ENINI  =  400.0     initial cutoff
   ENAUG  =  644.9 eV  augmentation charge cutoff
   NELM   =    100;   NELMIN=  6; NELMDL= -5     # of ELM steps 
   EDIFF  = 0.1E-03   stopping-criterion for ELM
   LREAL  =      T    real-space projection
   NLSPLINE    = F    spline interpolate recip. space projectors
   LCOMPAT=      F    compatible to vasp.4.4
   GGA_COMPAT  = T    GGA compatible to vasp.4.4-vasp.4.6
   LMAXPAW     = -100 max onsite density
   LMAXMIX     =    2 max onsite mixed and CHGCAR
   VOSKOWN=      0    Vosko Wilk Nusair interpolation
   ROPT   =   -0.00050  -0.00050  -0.00050
 Ionic relaxation
   EDIFFG = -.5E-01   stopping-criterion for IOM
   NSW    =      0    number of steps for IOM
   NBLOCK =      1;   KBLOCK =      1    inner block; outer block 
   IBRION =     -1    ionic relax: 0-MD 1-quasi-New 2-CG
   NFREE  =      1    steps in history (QN), initial steepest desc. (CG)
   ISIF   =      2    stress and relaxation
   IWAVPR =     10    prediction:  0-non 1-charg 2-wave 3-comb
   ISYM   =      2    0-nonsym 1-usesym 2-fastsym
   LCORR  =      T    Harris-Foulkes like correction to forces

   POTIM  = 0.5000    time-step for ionic-motion
   TEIN   =    0.0    initial temperature
   TEBEG  =    0.0;   TEEND  =   0.0 temperature during run
   SMASS  =  -3.00    Nose mass-parameter (am)
   estimated Nose-frequenzy (Omega)   =  0.10E-29 period in steps =****** mass=  -0.206E-25a.u.
   SCALEE = 1.0000    scale energy and forces
   NPACO  =    256;   APACO  = 16.0  distance and # of slots for P.C.
   PSTRESS=    0.0 pullay stress

  Mass of Ions in am
   POMASS = 106.42 12.01 16.00
  Ionic Valenz
   ZVAL   =  10.00  4.00  6.00
  Atomic Wigner-Seitz radii
   RWIGS  =  -1.00 -1.00 -1.00
  virtual crystal weights 
   VCA    =   1.00  1.00  1.00
   NELECT =     560.0000    total number of electrons
   NUPDOWN=      -1.0000    fix difference up-down

 DOS related values:
   EMIN   =  10.00;   EMAX   =-10.00  energy-range for DOS
   EFERMI =   0.00
   ISMEAR =     2;   SIGMA  =   0.20  broadening in eV -4-tet -1-fermi 0-gaus

 Electronic relaxation 2 (details)
   IALGO  =     68    algorithm
   LDIAG  =      T    sub-space diagonalisation (order eigenvalues)
   LSUBROT=      F    optimize rotation matrix (better conditioning)
   TURBO    =      0    0=normal 1=particle mesh
   IRESTART =      0    0=no restart 2=restart with 2 vectors
   NREBOOT  =      0    no. of reboots
   NMIN     =      0    reboot dimension
   EREF     =   0.00    reference energy to select bands
   IMIX   =      4    mixing-type and parameters
     AMIX     =   0.40;   BMIX     =  1.00
     AMIX_MAG =   1.60;   BMIX_MAG =  1.00
     AMIN     =   0.10
     WC   =   100.;   INIMIX=   1;  MIXPRE=   1;  MAXMIX= -45

 Intra band minimization:
   WEIMIN = 0.0000     energy-eigenvalue tresh-hold
   EBREAK =  0.74E-07  absolut break condition
   DEPER  =   0.30     relativ break condition  

   TIME   =   0.40     timestep for ELM

  volume/ion in A,a.u.               =     473.68      3196.58
  Fermi-wavevector in a.u.,A,eV,Ry     =   0.449797  0.849992  2.752691  0.202317
  Thomas-Fermi vector in A             =   1.430086
 
 Write flags
   LWAVE        =      F    write WAVECAR
   LDOWNSAMPLE  =      F    k-point downsampling of WAVECAR
   LCHARG       =      F    write CHGCAR
   LVTOT        =      F    write LOCPOT, total local potential
   LVHAR        =      F    write LOCPOT, Hartree potential only
   LELF         =      F    write electronic localiz. function (ELF)
   LORBIT       =      0    0 simple, 1 ext, 2 COOP (PROOUT), +10 PAW based schemes


 Dipole corrections
   LMONO  =      F    monopole corrections only (constant potential shift)
   LDIPOL =      F    correct potential (dipole corrections)
   IDIPOL =      0    1-x, 2-y, 3-z, 4-all directions 
   EPSILON=  1.0000000 bulk dielectric constant

 Exchange correlation treatment:
   GGA     =    RP    GGA type
   LEXCH   =     9    internal setting for exchange type
   VOSKOWN=      0    Vosko Wilk Nusair interpolation
   LHFCALC =     F    Hartree Fock is set to
   LHFONE  =     F    Hartree Fock one center treatment
   AEXX    =    0.0000 exact exchange contribution

 Linear response parameters
   LEPSILON=     F    determine dielectric tensor
   LRPA    =     F    only Hartree local field effects (RPA)
   LNABLA  =     F    use nabla operator in PAW spheres
   LVEL    =     F    velocity operator in full k-point grid
   LINTERFAST=   F  fast interpolation
   KINTER  =     0    interpolate to denser k-point grid
   CSHIFT  =0.1000    complex shift for real part using Kramers Kronig
   OMEGAMAX=  -1.0    maximum frequency
   DEG_THRESHOLD= 0.2000000E-02 threshold for treating states as degnerate
   RTIME   =   -0.100 relaxation time in fs
  (WPLASMAI=    0.000 imaginary part of plasma frequency in eV, 0.658/RTIME)
   DFIELD  = 0.0000000 0.0000000 0.0000000 field for delta impulse in time
 
 Orbital magnetization related:
   ORBITALMAG=     F  switch on orbital magnetization
   LCHIMAG   =     F  perturbation theory with respect to B field
   DQ        =  0.001000  dq finite difference perturbation B field
   LLRAUG    =     F  two centre corrections for induced B field



--------------------------------------------------------------------------------------------------------


 Static calculation
 charge density and potential will be updated during run
 non-spin polarized calculation
 RMM-DIIS sequential band-by-band and
  variant of blocked Davidson during initial phase
 perform sub-space diagonalisation
    before iterative eigenvector-optimisation
 modified Broyden-mixing scheme, WC =      100.0
 initial mixing is a Kerker type mixing with AMIX =  0.4000 and BMIX =      1.0000
 Hartree-type preconditioning will be used
 using additional bands           56
 real space projection scheme for non local part
 use partial core corrections
 calculate Harris-corrections to forces 
   (improved forces if not selfconsistent)
 use gradient corrections 
 use of overlap-Matrix (Vanderbilt PP)
 Methfessel and Paxton  Order N= 2 SIGMA  =   0.20


--------------------------------------------------------------------------------------------------------


  energy-cutoff  :      400.00
  volume of cell :    27000.00
      direct lattice vectors                 reciprocal lattice vectors
    30.000000000  0.000000000  0.000000000     0.033333333  0.000000000  0.000000000
     0.000000000 30.000000000  0.000000000     0.000000000  0.033333333  0.000000000
     0.000000000  0.000000000 30.000000000     0.000000000  0.000000000  0.033333333

  length of vectors
    30.000000000 30.000000000 30.000000000     0.033333333  0.033333333  0.033333333


 
 k-points in units of 2pi/SCALE and weight: K-points                                
   0.00000000  0.00000000  0.00000000       1.000
 
 k-points in reciprocal lattice and weights: K-points                                
   0.00000000  0.00000000  0.00000000       1.000
 
 position of ions in fractional coordinates (direct lattice) 
   0.44576020  0.32826710  0.41691983
   0.67173288  0.55423978  0.41691983
   0.55423980  0.32826710  0.41691983
   0.32826712  0.55423978  0.41691983
   0.50000000  0.38250690  0.34021317
   0.50000000  0.38250690  0.65978680
   0.50000000  0.27609440  0.50000000
   0.27609443  0.49999998  0.50000000
   0.72390557  0.49999998  0.50000000
   0.50000000  0.72390555  0.50000000
   0.61195280  0.38804720  0.34167483
   0.61195280  0.38804720  0.65832513
   0.38804722  0.61195278  0.34167483
   0.38804722  0.61195278  0.65832513
   0.38804720  0.38804720  0.34167483
   0.38804720  0.38804720  0.65832513
   0.61195278  0.61195278  0.34167483
   0.61195278  0.61195278  0.65832513
   0.44576020  0.32826710  0.58308023
   0.67173288  0.55423978  0.58308023
   0.55791699  0.44208301  0.41809300
   0.32826705  0.44576024  0.41691983
   0.55423973  0.67173293  0.41691983
   0.55423980  0.32826710  0.58308023
   0.32826712  0.55423978  0.58308023
   0.67173295  0.44576024  0.41691983
   0.44576027  0.67173293  0.41691983
   0.44208301  0.44208301  0.41809300
   0.50000000  0.38416601  0.50000000
   0.61749315  0.50000005  0.34021317
   0.61749315  0.50000005  0.65978680
   0.38250685  0.50000005  0.34021317
   0.38250685  0.50000005  0.65978680
   0.38317830  0.38317830  0.50000000
   0.61682172  0.61682172  0.50000000
   0.61682170  0.38317830  0.50000000
   0.38317828  0.61682172  0.50000000
   0.50000000  0.50000000  0.33478917
   0.50000000  0.50000000  0.66521087
   0.32826705  0.44576024  0.58308023
   0.55423973  0.67173293  0.58308023
   0.55791699  0.44208301  0.58190703
   0.44208298  0.55791702  0.41809300
   0.44208301  0.44208301  0.58190703
   0.67173295  0.44576024  0.58308023
   0.44576027  0.67173293  0.58308023
   0.55791702  0.55791702  0.41809300
   0.38416599  0.50000002  0.50000000
   0.61583401  0.50000002  0.50000000
   0.50000000  0.61749319  0.34021317
   0.50000000  0.61749319  0.65978680
   0.50000000  0.50000000  0.50000000
   0.44208298  0.55791702  0.58190703
   0.55791702  0.55791702  0.58190703
   0.50000000  0.61583404  0.50000000
   0.64571400  0.42314897  0.52445287
   0.67861147  0.40579850  0.52997353
 
 position of ions in cartesian coordinates  (Angst):
  13.37280588  9.84801292 12.50759500
  20.15198637 16.62719342 12.50759500
  16.62719412  9.84801292 12.50759500
   9.84801363 16.62719342 12.50759500
  15.00000000 11.47520705 10.20639500
  15.00000000 11.47520705 19.79360400
  15.00000000  8.28283206 15.00000000
   8.28283277 14.99999929 15.00000000
  21.71716723 14.99999929 15.00000000
  15.00000000 21.71716652 14.99999999
  18.35858397 11.64141603 10.25024500
  18.35858397 11.64141603 19.74975399
  11.64141674 18.35858326 10.25024500
  11.64141674 18.35858326 19.74975400
  11.64141603 11.64141603 10.25024500
  11.64141603 11.64141603 19.74975400
  18.35858326 18.35858326 10.25024500
  18.35858326 18.35858326 19.74975400
  13.37280588  9.84801291 17.49240700
  20.15198638 16.62719341 17.49240700
  16.73750985 13.26249015 12.54279000
   9.84801151 13.37280729 12.50759500
  16.62719200 20.15198779 12.50759500
  16.62719412  9.84801292 17.49240700
   9.84801363 16.62719342 17.49240700
  20.15198849 13.37280729 12.50759500
  13.37280800 20.15198779 12.50759500
  13.26249015 13.26249015 12.54279000
  15.00000000 11.52498029 15.00000000
  18.52479437 15.00000140 10.20639500
  18.52479437 15.00000141 19.79360400
  11.47520562 15.00000141 10.20639501
  11.47520563 15.00000141 19.79360400
  11.49534898 11.49534898 15.00000000
  18.50465172 18.50465172 15.00000000
  18.50465102 11.49534898 15.00000000
  11.49534828 18.50465172 15.00000000
  15.00000000 15.00000000 10.04367500
  15.00000000 15.00000000 19.95632599
   9.84801151 13.37280729 17.49240700
  16.62719200 20.15198779 17.49240700
  16.73750985 13.26249015 17.45721100
  13.26248944 16.73751056 12.54279001
  13.26249015 13.26249015 17.45721100
  20.15198849 13.37280729 17.49240699
  13.37280800 20.15198779 17.49240700
  16.73751056 16.73751056 12.54279000
  11.52497959 15.00000071 15.00000000
  18.47502041 15.00000071 15.00000000
  14.99999999 18.52479579 10.20639500
  15.00000000 18.52479578 19.79360400
  15.00000000 15.00000000 15.00000000
  13.26248944 16.73751057 17.45721101
  16.73751056 16.73751057 17.45721100
  15.00000000 18.47502112 15.00000000
  19.37142000 12.69446900 15.73358600
  20.35834400 12.17395500 15.89920600
 


--------------------------------------------------------------------------------------------------------


 k-point  1 :   0.0000 0.0000 0.0000  plane waves:  490521

 maximum and minimum number of plane-waves per node :    490521   490521

 maximum number of plane-waves:    490521
 maximum index in each direction: 
   IXMAX=   48   IYMAX=   48   IZMAX=   48
   IXMIN=  -48   IYMIN=  -48   IZMIN=  -48


 serial   3D FFT for wavefunctions
 parallel 3D FFT for charge:
    minimum data exchange during FFTs selected (reduces bandwidth)


 total amount of memory used by VASP MPI-rank0  5486940. kBytes
=======================================================================

   base      :      30000. kBytes
   nonlr-proj:      17125. kBytes
   fftplans  :     924480. kBytes
   grid      :    1872000. kBytes
   one-center:        886. kBytes
   wavefun   :    2642449. kBytes
 
     INWAV:  cpu time    0.0002: real time    0.0004
 Broyden mixing: mesh for mixing (old mesh)
   NGX = 97   NGY = 97   NGZ = 97
  (NGX  =300   NGY  =300   NGZ  =300)
  gives a total of 912673 points

 initial charge density was supplied:
 charge density of overlapping atoms calculated
 number of electron     560.0000000 magnetization 
 keeping initial charge density in first step


--------------------------------------------------------------------------------------------------------


 Maximum index for non-local projection operator         1763
 Maximum index for augmentation-charges         5898 (set IRDMAX)


--------------------------------------------------------------------------------------------------------


 First call to EWALD:  gamma=   0.059
 Maximum number of real-space cells 3x 3x 3
 Maximum number of reciprocal cells 3x 3x 3

    FEWALD:  cpu time    0.0207: real time    0.0207


--------------------------------------- Iteration      1(   1)  ---------------------------------------


    POTLOK:  cpu time   20.2298: real time   20.2357
    SETDIJ:  cpu time    0.1601: real time    0.1601
     EDDAV:  cpu time  571.4360: real time  571.5954
       DOS:  cpu time    0.0018: real time    0.0018
    --------------------------------------------
      LOOP:  cpu time  591.8278: real time  591.9931

 eigenvalue-minimisations  :   688
 total energy-change (2. order) : 0.4410280E+04  (-0.1006266E+05)
 number of electron     560.0000000 magnetization 
 augmentation part      560.0000000 magnetization 

 Free energy of the ion-electron system (eV)
  ---------------------------------------------------
  alpha Z        PSCENC =        75.25431677
  Ewald energy   TEWEN  =    140951.01720192
  -Hartree energ DENC   =   -184284.77696136
  -exchange      EXHF   =         0.00000000
  -V(xc)+E(xc)   XCENC  =     -1700.28760022
  PAW double counting   =     44873.02882129   -41398.84523641
  entropy T*S    EENTRO =         0.01009901
  eigenvalues    EBANDS =       808.37345548
  atomic energy  EATOM  =     45086.50549395
  Solvation  Ediel_sol  =         0.00000000
  ---------------------------------------------------
  free energy    TOTEN  =      4410.27959043 eV

  energy without entropy =     4410.26949142  energy(sigma->0) =     4410.27706568


--------------------------------------------------------------------------------------------------------




--------------------------------------- Iteration      1(   2)  ---------------------------------------


     EDDAV:  cpu time  915.6169: real time  915.6361
       DOS:  cpu time    0.0018: real time    0.0018
    --------------------------------------------
      LOOP:  cpu time  915.6187: real time  915.6379

 eigenvalue-minimisations  :  1224
 total energy-change (2. order) :-0.2398406E+04  (-0.2156757E+04)
 number of electron     560.0000000 magnetization 
 augmentation part      560.0000000 magnetization 

 Free energy of the ion-electron system (eV)
  ---------------------------------------------------
  alpha Z        PSCENC =        75.25431677
  Ewald energy   TEWEN  =    140951.01720192
  -Hartree energ DENC   =   -184284.77696136
  -exchange      EXHF   =         0.00000000
  -V(xc)+E(xc)   XCENC  =     -1700.28760022
  PAW double counting   =     44873.02882129   -41398.84523641
  entropy T*S    EENTRO =        -0.01901389
  eigenvalues    EBANDS =     -1590.00384871
  atomic energy  EATOM  =     45086.50549395
  Solvation  Ediel_sol  =         0.00000000
  ---------------------------------------------------
  free energy    TOTEN  =      2011.87317334 eV

  energy without entropy =     2011.89218723  energy(sigma->0) =     2011.87792681


--------------------------------------------------------------------------------------------------------




--------------------------------------- Iteration      1(   3)  ---------------------------------------


     EDDAV:  cpu time  760.8087: real time  760.8247
       DOS:  cpu time    0.0015: real time    0.0015
    --------------------------------------------
      LOOP:  cpu time  760.8101: real time  760.8261

 eigenvalue-minimisations  :   992
 total energy-change (2. order) :-0.1777136E+04  (-0.1671695E+04)
 number of electron     560.0000000 magnetization 
 augmentation part      560.0000000 magnetization 

 Free energy of the ion-electron system (eV)
  ---------------------------------------------------
  alpha Z        PSCENC =        75.25431677
  Ewald energy   TEWEN  =    140951.01720192
  -Hartree energ DENC   =   -184284.77696136
  -exchange      EXHF   =         0.00000000
  -V(xc)+E(xc)   XCENC  =     -1700.28760022
  PAW double counting   =     44873.02882129   -41398.84523641
  entropy T*S    EENTRO =         0.02708286
  eigenvalues    EBANDS =     -3367.18551035
  atomic energy  EATOM  =     45086.50549395
  Solvation  Ediel_sol  =         0.00000000
  ---------------------------------------------------
  free energy    TOTEN  =       234.73760846 eV

  energy without entropy =      234.71052559  energy(sigma->0) =      234.73083774


--------------------------------------------------------------------------------------------------------




--------------------------------------- Iteration      1(   4)  ---------------------------------------


     EDDAV:  cpu time  657.1228: real time  657.1358
       DOS:  cpu time    0.0015: real time    0.0015
    --------------------------------------------
      LOOP:  cpu time  657.1244: real time  657.1374

 eigenvalue-minimisations  :   824
 total energy-change (2. order) :-0.3677235E+03  (-0.3104678E+03)
 number of electron     560.0000000 magnetization 
 augmentation part      560.0000000 magnetization 

 Free energy of the ion-electron system (eV)
  ---------------------------------------------------
  alpha Z        PSCENC =        75.25431677
  Ewald energy   TEWEN  =    140951.01720192
  -Hartree energ DENC   =   -184284.77696136
  -exchange      EXHF   =         0.00000000
  -V(xc)+E(xc)   XCENC  =     -1700.28760022
  PAW double counting   =     44873.02882129   -41398.84523641
  entropy T*S    EENTRO =        -0.02350479
  eigenvalues    EBANDS =     -3734.85844473
  atomic energy  EATOM  =     45086.50549395
  Solvation  Ediel_sol  =         0.00000000
  ---------------------------------------------------
  free energy    TOTEN  =      -132.98591358 eV

  energy without entropy =     -132.96240879  energy(sigma->0) =     -132.98003738


--------------------------------------------------------------------------------------------------------




--------------------------------------- Iteration      1(   5)  ---------------------------------------


     EDDAV:  cpu time  798.0468: real time  798.0792
       DOS:  cpu time    0.0019: real time    0.0018
    CHARGE:  cpu time   38.9065: real time   38.9066
    MIXING:  cpu time    0.6645: real time    0.6648
    --------------------------------------------
      LOOP:  cpu time  837.6196: real time  837.6524

 eigenvalue-minimisations  :  1048
 total energy-change (2. order) :-0.4594485E+02  (-0.3781823E+02)
 number of electron     559.9999850 magnetization 
 augmentation part      244.9878076 magnetization 

 Broyden mixing:
  rms(total) = 0.22501E+01    rms(broyden)= 0.22495E+01
  rms(prec ) = 0.23381E+01
  weight for this iteration     100.00

 Free energy of the ion-electron system (eV)
  ---------------------------------------------------
  alpha Z        PSCENC =        75.25431677
  Ewald energy   TEWEN  =    140951.01720192
  -Hartree energ DENC   =   -184284.77696136
  -exchange      EXHF   =         0.00000000
  -V(xc)+E(xc)   XCENC  =     -1700.28760022
  PAW double counting   =     44873.02882129   -41398.84523641
  entropy T*S    EENTRO =         0.47514707
  eigenvalues    EBANDS =     -3781.30194479
  atomic energy  EATOM  =     45086.50549395
  Solvation  Ediel_sol  =         0.00000000
  ---------------------------------------------------
  free energy    TOTEN  =      -178.93076178 eV

  energy without entropy =     -179.40590885  energy(sigma->0) =     -179.04954854


--------------------------------------------------------------------------------------------------------




--------------------------------------- Iteration      1(   6)  ---------------------------------------


    POTLOK:  cpu time   18.6400: real time   18.6409
    SETDIJ:  cpu time    0.1581: real time    0.1582
    EDDIAG:  cpu time  108.7095: real time  108.7211
  RMM-DIIS:  cpu time  305.9807: real time  305.9887
    ORTHCH:  cpu time   20.8878: real time   20.8879
       DOS:  cpu time    0.0018: real time    0.0018
    CHARGE:  cpu time   38.9166: real time   38.9169
    MIXING:  cpu time    0.7045: real time    0.7045
    --------------------------------------------
      LOOP:  cpu time  493.9992: real time  494.0201

 eigenvalue-minimisations  :   730
 total energy-change (2. order) : 0.1719941E+00  (-0.7379305E+01)
 number of electron     559.9999869 magnetization 
 augmentation part      240.5318997 magnetization 

 Broyden mixing:
  rms(total) = 0.26153E+01    rms(broyden)= 0.26151E+01
  rms(prec ) = 0.29534E+01
  weight for this iteration     100.00

 eigenvalues of (default mixing * dielectric matrix)
  average eigenvalue GAMMA=   0.4321
  0.4321

 Free energy of the ion-electron system (eV)
  ---------------------------------------------------
  alpha Z        PSCENC =        75.25431677
  Ewald energy   TEWEN  =    140951.01720192
  -Hartree energ DENC   =   -184692.53630175
  -exchange      EXHF   =         0.00000000
  -V(xc)+E(xc)   XCENC  =     -1693.80382471
  PAW double counting   =     45774.27820164   -42274.62529370
  entropy T*S    EENTRO =        -0.16489956
  eigenvalues    EBANDS =     -3404.68366227
  atomic energy  EATOM  =     45086.50549395
  Solvation  Ediel_sol  =         0.00000000
  ---------------------------------------------------
  free energy    TOTEN  =      -178.75876771 eV

  energy without entropy =     -178.59386815  energy(sigma->0) =     -178.71754282


--------------------------------------------------------------------------------------------------------




--------------------------------------- Iteration      1(   7)  ---------------------------------------


    POTLOK:  cpu time   18.8186: real time   18.8215
    SETDIJ:  cpu time    0.1553: real time    0.1553
    EDDIAG:  cpu time  107.6074: real time  107.6099
  RMM-DIIS:  cpu time  346.7434: real time  346.7508
    ORTHCH:  cpu time   21.2279: real time   21.2280
       DOS:  cpu time    0.0019: real time    0.0019
    CHARGE:  cpu time   39.4073: real time   39.4074
    MIXING:  cpu time    0.7465: real time    0.7465
    --------------------------------------------
      LOOP:  cpu time  534.7083: real time  534.7212

 eigenvalue-minimisations  :   847
 total energy-change (2. order) :-0.4827465E+01  (-0.2738237E+01)
 number of electron     559.9999843 magnetization 
 augmentation part      239.8642967 magnetization 

 Broyden mixing:
  rms(total) = 0.27667E+01    rms(broyden)= 0.27664E+01
  rms(prec ) = 0.33130E+01
  weight for this iteration     100.00

 eigenvalues of (default mixing * dielectric matrix)
  average eigenvalue GAMMA=   0.4172
  0.6398  0.1946

 Free energy of the ion-electron system (eV)
  ---------------------------------------------------
  alpha Z        PSCENC =        75.25431677
  Ewald energy   TEWEN  =    140951.01720192
  -Hartree energ DENC   =   -184805.71912580
  -exchange      EXHF   =         0.00000000
  -V(xc)+E(xc)   XCENC  =     -1694.15047334
  PAW double counting   =     45902.97287514   -42400.39849230
  entropy T*S    EENTRO =        -0.02608684
  eigenvalues    EBANDS =     -3299.04194224
  atomic energy  EATOM  =     45086.50549395
  Solvation  Ediel_sol  =         0.00000000
  ---------------------------------------------------
  free energy    TOTEN  =      -183.58623273 eV

  energy without entropy =     -183.56014590  energy(sigma->0) =     -183.57971102


--------------------------------------------------------------------------------------------------------




--------------------------------------- Iteration      1(   8)  ---------------------------------------


    POTLOK:  cpu time   19.1948: real time   19.1958
    SETDIJ:  cpu time    0.1595: real time    0.1595
    EDDIAG:  cpu time  108.5178: real time  108.5195
  RMM-DIIS:  cpu time  322.9889: real time  322.9981
    ORTHCH:  cpu time   20.9341: real time   20.9341
       DOS:  cpu time    0.0019: real time    0.0019
    CHARGE:  cpu time   39.6735: real time   39.6736
    MIXING:  cpu time    0.8437: real time    0.8437
    --------------------------------------------
      LOOP:  cpu time  512.3140: real time  512.3261

 eigenvalue-minimisations  :   782
 total energy-change (2. order) :-0.3692556E+01  (-0.1451619E+01)
 number of electron     559.9999837 magnetization 
 augmentation part      239.3624265 magnetization 

 Broyden mixing:
  rms(total) = 0.32844E+01    rms(broyden)= 0.32841E+01
  rms(prec ) = 0.38502E+01
  weight for this iteration     100.00

 eigenvalues of (default mixing * dielectric matrix)
  average eigenvalue GAMMA=   0.3893
  0.8203  0.1978  0.1500

 Free energy of the ion-electron system (eV)
  ---------------------------------------------------
  alpha Z        PSCENC =        75.25431677
  Ewald energy   TEWEN  =    140951.01720192
  -Hartree energ DENC   =   -184842.63556205
  -exchange      EXHF   =         0.00000000
  -V(xc)+E(xc)   XCENC  =     -1694.32454416
  PAW double counting   =     46010.48209980   -42505.73346689
  entropy T*S    EENTRO =        -0.08942586
  eigenvalues    EBANDS =     -3267.75490243
  atomic energy  EATOM  =     45086.50549395
  Solvation  Ediel_sol  =         0.00000000
  ---------------------------------------------------
  free energy    TOTEN  =      -187.27878895 eV

  energy without entropy =     -187.18936309  energy(sigma->0) =     -187.25643249


--------------------------------------------------------------------------------------------------------




--------------------------------------- Iteration      1(   9)  ---------------------------------------


    POTLOK:  cpu time   18.9771: real time   18.9785
    SETDIJ:  cpu time    0.1618: real time    0.1618
    EDDIAG:  cpu time  109.6862: real time  109.6881
  RMM-DIIS:  cpu time  298.7247: real time  298.7345
    ORTHCH:  cpu time   20.9101: real time   20.9101
       DOS:  cpu time    0.0017: real time    0.0017
    CHARGE:  cpu time   39.7666: real time   39.7667
    MIXING:  cpu time    0.8606: real time    0.8606
    --------------------------------------------
      LOOP:  cpu time  489.0889: real time  489.1021

 eigenvalue-minimisations  :   726
 total energy-change (2. order) : 0.2653746E+01  (-0.1131047E+01)
 number of electron     559.9999817 magnetization 
 augmentation part      240.6427282 magnetization 

 Broyden mixing:
  rms(total) = 0.31200E+01    rms(broyden)= 0.31197E+01
  rms(prec ) = 0.36605E+01
  weight for this iteration     100.00

 eigenvalues of (default mixing * dielectric matrix)
  average eigenvalue GAMMA=   0.3695
  0.9656  0.1928  0.1928  0.1270

 Free energy of the ion-electron system (eV)
  ---------------------------------------------------
  alpha Z        PSCENC =        75.25431677
  Ewald energy   TEWEN  =    140951.01720192
  -Hartree energ DENC   =   -184840.38655232
  -exchange      EXHF   =         0.00000000
  -V(xc)+E(xc)   XCENC  =     -1694.46998799
  PAW double counting   =     46094.85805321   -42588.69080264
  entropy T*S    EENTRO =        -0.05407436
  eigenvalues    EBANDS =     -3268.65869133
  atomic energy  EATOM  =     45086.50549395
  Solvation  Ediel_sol  =         0.00000000
  ---------------------------------------------------
  free energy    TOTEN  =      -184.62504278 eV

  energy without entropy =     -184.57096842  energy(sigma->0) =     -184.61152419


--------------------------------------------------------------------------------------------------------




--------------------------------------- Iteration      1(  10)  ---------------------------------------


    POTLOK:  cpu time   19.1830: real time   19.1847
    SETDIJ:  cpu time    0.1590: real time    0.1590
    EDDIAG:  cpu time  109.6785: real time  109.6820
  RMM-DIIS:  cpu time  304.5919: real time  304.5999
    ORTHCH:  cpu time   21.5960: real time   21.5960
       DOS:  cpu time    0.0019: real time    0.0019
    CHARGE:  cpu time   40.8692: real time   40.8693
    MIXING:  cpu time    0.9019: real time    0.9019
    --------------------------------------------
      LOOP:  cpu time  496.9813: real time  496.9948

 eigenvalue-minimisations  :   739
 total energy-change (2. order) : 0.1802283E+01  (-0.7076775E+00)
 number of electron     559.9999850 magnetization 
 augmentation part      240.9499665 magnetization 

 Broyden mixing:
  rms(total) = 0.25592E+01    rms(broyden)= 0.25588E+01
  rms(prec ) = 0.30232E+01
  weight for this iteration     100.00

 eigenvalues of (default mixing * dielectric matrix)
  average eigenvalue GAMMA=   0.3596
  1.1149  0.1918  0.1918  0.1897  0.1097

 Free energy of the ion-electron system (eV)
  ---------------------------------------------------
  alpha Z        PSCENC =        75.25431677
  Ewald energy   TEWEN  =    140951.01720192
  -Hartree energ DENC   =   -184872.73828902
  -exchange      EXHF   =         0.00000000
  -V(xc)+E(xc)   XCENC  =     -1694.41627577
  PAW double counting   =     46166.52996597   -42658.98042662
  entropy T*S    EENTRO =        -0.12952629
  eigenvalues    EBANDS =     -3235.86522042
  atomic energy  EATOM  =     45086.50549395
  Solvation  Ediel_sol  =         0.00000000
  ---------------------------------------------------
  free energy    TOTEN  =      -182.82275949 eV

  energy without entropy =     -182.69323321  energy(sigma->0) =     -182.79037792


--------------------------------------------------------------------------------------------------------




--------------------------------------- Iteration      1(  11)  ---------------------------------------


    POTLOK:  cpu time   19.8419: real time   19.8450
    SETDIJ:  cpu time    0.1642: real time    0.1642
    EDDIAG:  cpu time  109.3983: real time  109.4001
  RMM-DIIS:  cpu time  300.3707: real time  300.3787
    ORTHCH:  cpu time   20.8880: real time   20.8880
       DOS:  cpu time    0.0019: real time    0.0019
    CHARGE:  cpu time   40.1034: real time   40.1035
    MIXING:  cpu time    0.9679: real time    0.9679
    --------------------------------------------
      LOOP:  cpu time  491.7362: real time  491.7493

 eigenvalue-minimisations  :   727
 total energy-change (2. order) : 0.3287199E+01  (-0.5723627E+00)
 number of electron     559.9999875 magnetization 
 augmentation part      241.5231418 magnetization 

 Broyden mixing:
  rms(total) = 0.26647E+01    rms(broyden)= 0.26643E+01
  rms(prec ) = 0.31238E+01
  weight for this iteration     100.00

 eigenvalues of (default mixing * dielectric matrix)
  average eigenvalue GAMMA=   0.3452
  1.2347  0.2135  0.2135  0.1949  0.1071  0.1071

 Free energy of the ion-electron system (eV)
  ---------------------------------------------------
  alpha Z        PSCENC =        75.25431677
  Ewald energy   TEWEN  =    140951.01720192
  -Hartree energ DENC   =   -184902.43405860
  -exchange      EXHF   =         0.00000000
  -V(xc)+E(xc)   XCENC  =     -1694.28503683
  PAW double counting   =     46239.94685009   -42730.74354795
  entropy T*S    EENTRO =        -0.01357373
  eigenvalues    EBANDS =     -3204.78320605
  atomic energy  EATOM  =     45086.50549395
  Solvation  Ediel_sol  =         0.00000000
  ---------------------------------------------------
  free energy    TOTEN  =      -179.53556043 eV

  energy without entropy =     -179.52198670  energy(sigma->0) =     -179.53216700


--------------------------------------------------------------------------------------------------------




--------------------------------------- Iteration      1(  12)  ---------------------------------------


    POTLOK:  cpu time   19.6624: real time   19.6649
    SETDIJ:  cpu time    0.1580: real time    0.1580
    EDDIAG:  cpu time  108.2820: real time  108.2845
  RMM-DIIS:  cpu time  298.3856: real time  298.3948
    ORTHCH:  cpu time   20.9550: real time   20.9551
       DOS:  cpu time    0.0021: real time    0.0021
    CHARGE:  cpu time   39.4304: real time   39.4305
    MIXING:  cpu time    0.9763: real time    0.9775
    --------------------------------------------
      LOOP:  cpu time  487.8518: real time  487.8672

 eigenvalue-minimisations  :   726
 total energy-change (2. order) : 0.2627446E+01  (-0.4025921E+00)
 number of electron     559.9999859 magnetization 
 augmentation part      241.9463196 magnetization 

 Broyden mixing:
  rms(total) = 0.19780E+01    rms(broyden)= 0.19778E+01
  rms(prec ) = 0.23725E+01
  weight for this iteration     100.00

 eigenvalues of (default mixing * dielectric matrix)
  average eigenvalue GAMMA=   0.3425
  1.3651  0.2567  0.2567  0.1570  0.1570  0.1127  0.0926

 Free energy of the ion-electron system (eV)
  ---------------------------------------------------
  alpha Z        PSCENC =        75.25431677
  Ewald energy   TEWEN  =    140951.01720192
  -Hartree energ DENC   =   -184922.96712654
  -exchange      EXHF   =         0.00000000
  -V(xc)+E(xc)   XCENC  =     -1694.05468082
  PAW double counting   =     46295.99877004   -42785.27847567
  entropy T*S    EENTRO =        -0.00302409
  eigenvalues    EBANDS =     -3183.38059001
  atomic energy  EATOM  =     45086.50549395
  Solvation  Ediel_sol  =         0.00000000
  ---------------------------------------------------
  free energy    TOTEN  =      -176.90811445 eV

  energy without entropy =     -176.90509036  energy(sigma->0) =     -176.90735843


--------------------------------------------------------------------------------------------------------




--------------------------------------- Iteration      1(  13)  ---------------------------------------


    POTLOK:  cpu time   18.5910: real time   18.5932
    SETDIJ:  cpu time    0.1504: real time    0.1504
    EDDIAG:  cpu time  107.6916: real time  107.6936
  RMM-DIIS:  cpu time  291.9037: real time  291.9107
    ORTHCH:  cpu time   20.9952: real time   20.9953
       DOS:  cpu time    0.0018: real time    0.0018
    CHARGE:  cpu time   39.3727: real time   39.3728
    MIXING:  cpu time    1.0701: real time    1.0701
    --------------------------------------------
      LOOP:  cpu time  479.7765: real time  479.7880

 eigenvalue-minimisations  :   725
 total energy-change (2. order) :-0.2173309E+00  (-0.2947116E+00)
 number of electron     559.9999853 magnetization 
 augmentation part      241.7663069 magnetization 

 Broyden mixing:
  rms(total) = 0.21354E+01    rms(broyden)= 0.21350E+01
  rms(prec ) = 0.25567E+01
  weight for this iteration     100.00

 eigenvalues of (default mixing * dielectric matrix)
  average eigenvalue GAMMA=   0.3363
  1.4651  0.3019  0.3019  0.1687  0.1687  0.0948  0.0948  0.0948

 Free energy of the ion-electron system (eV)
  ---------------------------------------------------
  alpha Z        PSCENC =        75.25431677
  Ewald energy   TEWEN  =    140951.01720192
  -Hartree energ DENC   =   -184945.10607749
  -exchange      EXHF   =         0.00000000
  -V(xc)+E(xc)   XCENC  =     -1693.67139422
  PAW double counting   =     46354.75638758   -42842.19311291
  entropy T*S    EENTRO =        -0.11657988
  eigenvalues    EBANDS =     -3163.57168111
  atomic energy  EATOM  =     45086.50549395
  Solvation  Ediel_sol  =         0.00000000
  ---------------------------------------------------
  free energy    TOTEN  =      -177.12544539 eV

  energy without entropy =     -177.00886551  energy(sigma->0) =     -177.09630042


--------------------------------------------------------------------------------------------------------




--------------------------------------- Iteration      1(  14)  ---------------------------------------


    POTLOK:  cpu time   18.8419: real time   18.8440
    SETDIJ:  cpu time    0.1563: real time    0.1563
    EDDIAG:  cpu time  109.1643: real time  109.1660
  RMM-DIIS:  cpu time  294.2993: real time  294.3077
    ORTHCH:  cpu time   21.6058: real time   21.6059
       DOS:  cpu time    0.0020: real time    0.0020
    CHARGE:  cpu time   40.1995: real time   40.1996
    MIXING:  cpu time    1.1830: real time    1.1830
    --------------------------------------------
      LOOP:  cpu time  485.4521: real time  485.4646

 eigenvalue-minimisations  :   717
 total energy-change (2. order) : 0.1313083E+01  (-0.2515693E+00)
 number of electron     559.9999807 magnetization 
 augmentation part      241.8518082 magnetization 

 Broyden mixing:
  rms(total) = 0.18513E+01    rms(broyden)= 0.18509E+01
  rms(prec ) = 0.20936E+01
  weight for this iteration     100.00

 eigenvalues of (default mixing * dielectric matrix)
  average eigenvalue GAMMA=   0.3493
  1.6645  0.3603  0.3603  0.1566  0.1566  0.1663  0.1008  0.1008  0.0776

 Free energy of the ion-electron system (eV)
  ---------------------------------------------------
  alpha Z        PSCENC =        75.25431677
  Ewald energy   TEWEN  =    140951.01720192
  -Hartree energ DENC   =   -184969.99070356
  -exchange      EXHF   =         0.00000000
  -V(xc)+E(xc)   XCENC  =     -1693.26870078
  PAW double counting   =     46409.06292793   -42894.71236479
  entropy T*S    EENTRO =        -0.08093958
  eigenvalues    EBANDS =     -3139.59959412
  atomic energy  EATOM  =     45086.50549395
  Solvation  Ediel_sol  =         0.00000000
  ---------------------------------------------------
  free energy    TOTEN  =      -175.81236226 eV

  energy without entropy =     -175.73142268  energy(sigma->0) =     -175.79212736


--------------------------------------------------------------------------------------------------------




--------------------------------------- Iteration      1(  15)  ---------------------------------------


    POTLOK:  cpu time   18.9182: real time   18.9193
    SETDIJ:  cpu time    0.1640: real time    0.1640
    EDDIAG:  cpu time  109.3595: real time  109.3632
  RMM-DIIS:  cpu time  287.3422: real time  287.3497
    ORTHCH:  cpu time   21.6011: real time   21.6011
       DOS:  cpu time    0.0020: real time    0.0020
    CHARGE:  cpu time   39.5533: real time   39.5534
    MIXING:  cpu time    1.1815: real time    1.1815
    --------------------------------------------
      LOOP:  cpu time  478.1217: real time  478.1342

 eigenvalue-minimisations  :   700
 total energy-change (2. order) : 0.1166422E+01  (-0.2457877E+00)
 number of electron     559.9999850 magnetization 
 augmentation part      241.5619426 magnetization 

 Broyden mixing:
  rms(total) = 0.16168E+01    rms(broyden)= 0.16164E+01
  rms(prec ) = 0.18445E+01
  weight for this iteration     100.00

 eigenvalues of (default mixing * dielectric matrix)
  average eigenvalue GAMMA=   0.3385
  1.7455  0.3619  0.3619  0.1750  0.1750  0.1502  0.1502  0.0960  0.0960  0.0734

 Free energy of the ion-electron system (eV)
  ---------------------------------------------------
  alpha Z        PSCENC =        75.25431677
  Ewald energy   TEWEN  =    140951.01720192
  -Hartree energ DENC   =   -185019.70391834
  -exchange      EXHF   =         0.00000000
  -V(xc)+E(xc)   XCENC  =     -1692.44061298
  PAW double counting   =     46511.14607029   -42993.30320833
  entropy T*S    EENTRO =        -0.01484305
  eigenvalues    EBANDS =     -3093.10644006
  atomic energy  EATOM  =     45086.50549395
  Solvation  Ediel_sol  =         0.00000000
  ---------------------------------------------------
  free energy    TOTEN  =      -174.64593982 eV

  energy without entropy =     -174.63109677  energy(sigma->0) =     -174.64222906


--------------------------------------------------------------------------------------------------------




--------------------------------------- Iteration      1(  16)  ---------------------------------------


    POTLOK:  cpu time   18.9044: real time   18.9056
    SETDIJ:  cpu time    0.1602: real time    0.1602
    EDDIAG:  cpu time  108.5849: real time  108.5866
  RMM-DIIS:  cpu time  289.1370: real time  289.1428
    ORTHCH:  cpu time   21.3336: real time   21.3336
       DOS:  cpu time    0.0020: real time    0.0020
    CHARGE:  cpu time   39.3052: real time   39.3053
    MIXING:  cpu time    1.3112: real time    1.3112
    --------------------------------------------
      LOOP:  cpu time  478.7385: real time  478.7474

 eigenvalue-minimisations  :   703
 total energy-change (2. order) : 0.7725242E+00  (-0.1213144E+00)
 number of electron     559.9999849 magnetization 
 augmentation part      241.4356591 magnetization 

 Broyden mixing:
  rms(total) = 0.13918E+01    rms(broyden)= 0.13915E+01
  rms(prec ) = 0.16349E+01
  weight for this iteration     100.00

 eigenvalues of (default mixing * dielectric matrix)
  average eigenvalue GAMMA=   0.3331
  1.7943  0.4899  0.2556  0.2556  0.2244  0.1461  0.1461  0.0979  0.0979  0.0877
  0.0690

 Free energy of the ion-electron system (eV)
  ---------------------------------------------------
  alpha Z        PSCENC =        75.25431677
  Ewald energy   TEWEN  =    140951.01720192
  -Hartree energ DENC   =   -185043.41819739
  -exchange      EXHF   =         0.00000000
  -V(xc)+E(xc)   XCENC  =     -1692.09487900
  PAW double counting   =     46549.07023609   -43029.79537656
  entropy T*S    EENTRO =         0.06091016
  eigenvalues    EBANDS =     -3070.47312157
  atomic energy  EATOM  =     45086.50549395
  Solvation  Ediel_sol  =         0.00000000
  ---------------------------------------------------
  free energy    TOTEN  =      -173.87341564 eV

  energy without entropy =     -173.93432579  energy(sigma->0) =     -173.88864318


--------------------------------------------------------------------------------------------------------




--------------------------------------- Iteration      1(  17)  ---------------------------------------


    POTLOK:  cpu time   19.0015: real time   19.0046
    SETDIJ:  cpu time    0.1838: real time    0.1838
    EDDIAG:  cpu time  108.0989: real time  108.1006
  RMM-DIIS:  cpu time  289.5357: real time  289.5429
    ORTHCH:  cpu time   21.3308: real time   21.3308
       DOS:  cpu time    0.0019: real time    0.0019
    CHARGE:  cpu time   39.3860: real time   39.3861
    MIXING:  cpu time    1.3845: real time    1.3845
    --------------------------------------------
      LOOP:  cpu time  478.9230: real time  478.9351

 eigenvalue-minimisations  :   703
 total energy-change (2. order) : 0.3612962E+00  (-0.6962908E-01)
 number of electron     559.9999852 magnetization 
 augmentation part      241.4047260 magnetization 

 Broyden mixing:
  rms(total) = 0.10551E+01    rms(broyden)= 0.10550E+01
  rms(prec ) = 0.12261E+01
  weight for this iteration     100.00

 eigenvalues of (default mixing * dielectric matrix)
  average eigenvalue GAMMA=   0.3373
  1.8486  0.5801  0.3432  0.3432  0.1527  0.1527  0.1544  0.1050  0.1050  0.1102
  0.0865  0.0661

 Free energy of the ion-electron system (eV)
  ---------------------------------------------------
  alpha Z        PSCENC =        75.25431677
  Ewald energy   TEWEN  =    140951.01720192
  -Hartree energ DENC   =   -185054.63749256
  -exchange      EXHF   =         0.00000000
  -V(xc)+E(xc)   XCENC  =     -1691.91644275
  PAW double counting   =     46567.50782807   -43047.44672746
  entropy T*S    EENTRO =        -0.00017504
  eigenvalues    EBANDS =     -3059.79612239
  atomic energy  EATOM  =     45086.50549395
  Solvation  Ediel_sol  =         0.00000000
  ---------------------------------------------------
  free energy    TOTEN  =      -173.51211948 eV

  energy without entropy =     -173.51194444  energy(sigma->0) =     -173.51207572


--------------------------------------------------------------------------------------------------------




--------------------------------------- Iteration      1(  18)  ---------------------------------------


    POTLOK:  cpu time   18.9048: real time   18.9074
    SETDIJ:  cpu time    0.1601: real time    0.1601
    EDDIAG:  cpu time  108.7305: real time  108.7348
  RMM-DIIS:  cpu time  291.4441: real time  291.4546
    ORTHCH:  cpu time   21.4653: real time   21.4655
       DOS:  cpu time    0.0020: real time    0.0020
    CHARGE:  cpu time   39.5882: real time   39.5883
    MIXING:  cpu time    1.4574: real time    1.4575
    --------------------------------------------
      LOOP:  cpu time  481.7525: real time  481.7701

 eigenvalue-minimisations  :   711
 total energy-change (2. order) :-0.1924851E-01  (-0.5452222E-01)
 number of electron     559.9999856 magnetization 
 augmentation part      241.3448599 magnetization 

 Broyden mixing:
  rms(total) = 0.11323E+01    rms(broyden)= 0.11320E+01
  rms(prec ) = 0.12792E+01
  weight for this iteration     100.00

 eigenvalues of (default mixing * dielectric matrix)
  average eigenvalue GAMMA=   0.3436
  1.9084  0.7229  0.3933  0.3933  0.1684  0.1684  0.1345  0.1345  0.1053  0.1053
  0.0844  0.0844  0.0638

 Free energy of the ion-electron system (eV)
  ---------------------------------------------------
  alpha Z        PSCENC =        75.25431677
  Ewald energy   TEWEN  =    140951.01720192
  -Hartree energ DENC   =   -185067.81859337
  -exchange      EXHF   =         0.00000000
  -V(xc)+E(xc)   XCENC  =     -1691.68933428
  PAW double counting   =     46584.62445842   -43063.59915983
  entropy T*S    EENTRO =         0.01490428
  eigenvalues    EBANDS =     -3047.84065585
  atomic energy  EATOM  =     45086.50549395
  Solvation  Ediel_sol  =         0.00000000
  ---------------------------------------------------
  free energy    TOTEN  =      -173.53136799 eV

  energy without entropy =     -173.54627226  energy(sigma->0) =     -173.53509406


--------------------------------------------------------------------------------------------------------




--------------------------------------- Iteration      1(  19)  ---------------------------------------


    POTLOK:  cpu time   19.0086: real time   19.0101
    SETDIJ:  cpu time    0.1710: real time    0.1710
    EDDIAG:  cpu time  107.7362: real time  107.7387
  RMM-DIIS:  cpu time  285.0693: real time  285.0775
    ORTHCH:  cpu time   21.1104: real time   21.1105
       DOS:  cpu time    0.0020: real time    0.0020
    CHARGE:  cpu time   39.9570: real time   39.9571
    MIXING:  cpu time    1.4908: real time    1.4908
    --------------------------------------------
      LOOP:  cpu time  474.5453: real time  474.5577

 eigenvalue-minimisations  :   697
 total energy-change (2. order) : 0.1209006E+00  (-0.4536729E-01)
 number of electron     559.9999867 magnetization 
 augmentation part      241.2607332 magnetization 

 Broyden mixing:
  rms(total) = 0.96530E+00    rms(broyden)= 0.96509E+00
  rms(prec ) = 0.11084E+01
  weight for this iteration     100.00

 eigenvalues of (default mixing * dielectric matrix)
  average eigenvalue GAMMA=   0.3481
  1.9544  0.8507  0.4284  0.4284  0.1949  0.1949  0.1396  0.1396  0.1034  0.1034
  0.0996  0.0996  0.0742  0.0616

 Free energy of the ion-electron system (eV)
  ---------------------------------------------------
  alpha Z        PSCENC =        75.25431677
  Ewald energy   TEWEN  =    140951.01720192
  -Hartree energ DENC   =   -185089.58175066
  -exchange      EXHF   =         0.00000000
  -V(xc)+E(xc)   XCENC  =     -1691.36862861
  PAW double counting   =     46605.15249657   -43082.79329200
  entropy T*S    EENTRO =        -0.01772317
  eigenvalues    EBANDS =     -3027.57858217
  atomic energy  EATOM  =     45086.50549395
  Solvation  Ediel_sol  =         0.00000000
  ---------------------------------------------------
  free energy    TOTEN  =      -173.41046740 eV

  energy without entropy =     -173.39274423  energy(sigma->0) =     -173.40603661


--------------------------------------------------------------------------------------------------------




--------------------------------------- Iteration      1(  20)  ---------------------------------------


    POTLOK:  cpu time   19.1644: real time   19.1663
    SETDIJ:  cpu time    0.1667: real time    0.1667
    EDDIAG:  cpu time  108.3977: real time  108.4012
  RMM-DIIS:  cpu time  284.0807: real time  284.0881
    ORTHCH:  cpu time   19.9938: real time   19.9939
       DOS:  cpu time    0.0020: real time    0.0020
    CHARGE:  cpu time   37.3116: real time   37.3117
    MIXING:  cpu time    1.4917: real time    1.4917
    --------------------------------------------
      LOOP:  cpu time  470.6087: real time  470.6216

 eigenvalue-minimisations  :   699
 total energy-change (2. order) : 0.7008215E-01  (-0.3117905E-01)
 number of electron     559.9999855 magnetization 
 augmentation part      241.2030460 magnetization 

 Broyden mixing:
  rms(total) = 0.90487E+00    rms(broyden)= 0.90471E+00
  rms(prec ) = 0.10476E+01
  weight for this iteration     100.00

 eigenvalues of (default mixing * dielectric matrix)
  average eigenvalue GAMMA=   0.3407
  1.9849  0.8820  0.4412  0.4412  0.2173  0.2173  0.1425  0.1425  0.1053  0.1053
  0.1135  0.0969  0.0872  0.0741  0.0598

 Free energy of the ion-electron system (eV)
  ---------------------------------------------------
  alpha Z        PSCENC =        75.25431677
  Ewald energy   TEWEN  =    140951.01720192
  -Hartree energ DENC   =   -185107.93818008
  -exchange      EXHF   =         0.00000000
  -V(xc)+E(xc)   XCENC  =     -1691.13767148
  PAW double counting   =     46615.88065221   -43092.52434001
  entropy T*S    EENTRO =        -0.04016472
  eigenvalues    EBANDS =     -3010.35769381
  atomic energy  EATOM  =     45086.50549395
  Solvation  Ediel_sol  =         0.00000000
  ---------------------------------------------------
  free energy    TOTEN  =      -173.34038525 eV

  energy without entropy =     -173.30022053  energy(sigma->0) =     -173.33034407


--------------------------------------------------------------------------------------------------------




--------------------------------------- Iteration      1(  21)  ---------------------------------------


    POTLOK:  cpu time   17.6039: real time   17.6056
    SETDIJ:  cpu time    0.1575: real time    0.1575
    EDDIAG:  cpu time  106.6688: real time  106.6704
  RMM-DIIS:  cpu time  287.3422: real time  287.3524
    ORTHCH:  cpu time   20.7256: real time   20.7257
       DOS:  cpu time    0.0020: real time    0.0020
    CHARGE:  cpu time   39.1075: real time   39.1077
    MIXING:  cpu time    1.7066: real time    1.7066
    --------------------------------------------
      LOOP:  cpu time  473.3141: real time  473.3279

 eigenvalue-minimisations  :   699
 total energy-change (2. order) : 0.2933257E+00  (-0.1985262E-01)
 number of electron     559.9999850 magnetization 
 augmentation part      241.1726964 magnetization 

 Broyden mixing:
  rms(total) = 0.75264E+00    rms(broyden)= 0.75248E+00
  rms(prec ) = 0.90083E+00
  weight for this iteration     100.00

 eigenvalues of (default mixing * dielectric matrix)
  average eigenvalue GAMMA=   0.3344
  2.0079  0.8494  0.4687  0.4687  0.2482  0.2482  0.1464  0.1464  0.1263  0.1263
  0.1029  0.1029  0.1000  0.0760  0.0733  0.0589

 Free energy of the ion-electron system (eV)
  ---------------------------------------------------
  alpha Z        PSCENC =        75.25431677
  Ewald energy   TEWEN  =    140951.01720192
  -Hartree energ DENC   =   -185119.73299726
  -exchange      EXHF   =         0.00000000
  -V(xc)+E(xc)   XCENC  =     -1690.98738867
  PAW double counting   =     46621.77226668   -43097.78813294
  entropy T*S    EENTRO =        -0.00773267
  eigenvalues    EBANDS =     -2999.08008731
  atomic energy  EATOM  =     45086.50549395
  Solvation  Ediel_sol  =         0.00000000
  ---------------------------------------------------
  free energy    TOTEN  =      -173.04705952 eV

  energy without entropy =     -173.03932685  energy(sigma->0) =     -173.04512636


--------------------------------------------------------------------------------------------------------




--------------------------------------- Iteration      1(  22)  ---------------------------------------


    POTLOK:  cpu time   18.8276: real time   18.8303
    SETDIJ:  cpu time    0.1600: real time    0.1600
    EDDIAG:  cpu time  108.1840: real time  108.1858
  RMM-DIIS:  cpu time  284.8974: real time  284.9042
    ORTHCH:  cpu time   20.9021: real time   20.9021
       DOS:  cpu time    0.0020: real time    0.0020
    CHARGE:  cpu time   41.0831: real time   41.0847
    MIXING:  cpu time    1.8018: real time    1.8019
    --------------------------------------------
      LOOP:  cpu time  475.8580: real time  475.8711

 eigenvalue-minimisations  :   695
 total energy-change (2. order) : 0.1207573E+00  (-0.1571988E-01)
 number of electron     559.9999855 magnetization 
 augmentation part      241.2162685 magnetization 

 Broyden mixing:
  rms(total) = 0.67172E+00    rms(broyden)= 0.67156E+00
  rms(prec ) = 0.78501E+00
  weight for this iteration     100.00

 eigenvalues of (default mixing * dielectric matrix)
  average eigenvalue GAMMA=   0.3369
  2.0293  0.7975  0.7975  0.3414  0.3414  0.1982  0.1753  0.1753  0.1433  0.1433
  0.1025  0.1025  0.0937  0.0937  0.0754  0.0630  0.0550

 Free energy of the ion-electron system (eV)
  ---------------------------------------------------
  alpha Z        PSCENC =        75.25431677
  Ewald energy   TEWEN  =    140951.01720192
  -Hartree energ DENC   =   -185128.04373679
  -exchange      EXHF   =         0.00000000
  -V(xc)+E(xc)   XCENC  =     -1690.87423236
  PAW double counting   =     46622.04775442   -43097.59450035
  entropy T*S    EENTRO =        -0.03246855
  eigenvalues    EBANDS =     -2991.20613122
  atomic energy  EATOM  =     45086.50549395
  Solvation  Ediel_sol  =         0.00000000
  ---------------------------------------------------
  free energy    TOTEN  =      -172.92630222 eV

  energy without entropy =     -172.89383367  energy(sigma->0) =     -172.91818508


--------------------------------------------------------------------------------------------------------




--------------------------------------- Iteration      1(  23)  ---------------------------------------


    POTLOK:  cpu time   19.0890: real time   19.0913
    SETDIJ:  cpu time    0.1858: real time    0.1859
    EDDIAG:  cpu time  107.3214: real time  107.3232
  RMM-DIIS:  cpu time  283.9524: real time  283.9601
    ORTHCH:  cpu time   20.7396: real time   20.7397
       DOS:  cpu time    0.0021: real time    0.0021
    CHARGE:  cpu time   39.2533: real time   39.2535
    MIXING:  cpu time    1.9207: real time    1.9207
    --------------------------------------------
      LOOP:  cpu time  472.4644: real time  472.4764

 eigenvalue-minimisations  :   695
 total energy-change (2. order) : 0.1851238E-01  (-0.1470253E-01)
 number of electron     559.9999857 magnetization 
 augmentation part      241.1816123 magnetization 

 Broyden mixing:
  rms(total) = 0.65973E+00    rms(broyden)= 0.65958E+00
  rms(prec ) = 0.75717E+00
  weight for this iteration     100.00

 eigenvalues of (default mixing * dielectric matrix)
  average eigenvalue GAMMA=   0.3467
[...]
 -0.007  -0.012   0.004   0.005   0.006  -0.006  -0.012   0.003
 -0.011  -0.021   0.006   0.008   0.009  -0.011  -0.020   0.006
 -0.015  -0.005   0.012   0.000   0.022  -0.014  -0.005   0.012
  0.000  -0.022  -0.006  -0.015  -0.000   0.000  -0.022  -0.006
 -0.022   0.000   0.009  -0.005  -0.016  -0.021   0.000   0.009
 -0.018  -0.006   0.015   0.000   0.027  -0.017  -0.006   0.015
  0.000  -0.027  -0.007  -0.018  -0.000   0.000  -0.026  -0.007
 -0.027   0.000   0.011  -0.006  -0.019  -0.026   0.000   0.010
 total augmentation occupancy for first ion, spin component:           1
  1.533  -0.030   0.006   0.019   0.022   0.078  -0.008  -0.002   0.036  -0.009   0.094  -0.032   0.012   0.002   0.003  -0.019
 -0.030   1.399   0.031   0.069   0.003  -0.007   0.071   0.011  -0.013  -0.008   0.220  -0.067   0.019   0.002   0.003  -0.006
  0.006   0.031   1.541   0.003   0.002  -0.002   0.012   0.074  -0.013   0.017  -0.049   0.017  -0.003  -0.008  -0.005   0.016
  0.019   0.069   0.003   1.337   0.038   0.034  -0.012  -0.013   0.092  -0.020  -0.082   0.022  -0.001  -0.009  -0.002   0.001
  0.022   0.003   0.002   0.038   1.442  -0.010  -0.009   0.016  -0.020   0.066  -0.103   0.032  -0.003  -0.008  -0.010   0.026
  0.078  -0.007  -0.002   0.034  -0.010   0.217   0.018  -0.002  -0.045   0.003  -0.048   0.002   0.017  -0.010   0.034  -0.004
 -0.008   0.071   0.012  -0.012  -0.009   0.018   0.263  -0.023  -0.004   0.006  -0.108   0.007  -0.001   0.051  -0.010  -0.000
 -0.002   0.011   0.074  -0.013   0.016  -0.002  -0.023   0.215   0.014  -0.020   0.027  -0.001  -0.012   0.009  -0.018   0.003
  0.036  -0.013  -0.013   0.092  -0.020  -0.045  -0.004   0.014   0.261   0.007   0.043  -0.003  -0.009   0.036   0.004   0.000
 -0.009  -0.008   0.017  -0.020   0.066   0.003   0.006  -0.020   0.007   0.259   0.047  -0.002  -0.038   0.002   0.049   0.007
  0.094   0.220  -0.049  -0.082  -0.103  -0.048  -0.108   0.027   0.043   0.047   0.949  -0.141   0.083   0.014   0.064  -0.013
 -0.032  -0.067   0.017   0.022   0.032   0.002   0.007  -0.001  -0.003  -0.002  -0.141   0.023  -0.014  -0.003  -0.010   0.003
  0.012   0.019  -0.003  -0.001  -0.003   0.017  -0.001  -0.012  -0.009  -0.038   0.083  -0.014   0.029  -0.008  -0.004  -0.003
  0.002   0.002  -0.008  -0.009  -0.008  -0.010   0.051   0.009   0.036   0.002   0.014  -0.003  -0.008   0.036   0.004   0.000
  0.003   0.003  -0.005  -0.002  -0.010   0.034  -0.010  -0.018   0.004   0.049   0.064  -0.010  -0.004   0.004   0.034  -0.000
 -0.019  -0.006   0.016   0.001   0.026  -0.004  -0.000   0.003   0.000   0.007  -0.013   0.003  -0.003   0.000  -0.000   0.001
  0.001  -0.028  -0.007  -0.018   0.001   0.001  -0.008  -0.001  -0.006  -0.000  -0.003   0.001   0.000  -0.003  -0.000   0.000
 -0.028   0.001   0.012  -0.005  -0.020  -0.006   0.001   0.003  -0.001  -0.007  -0.008   0.001  -0.000  -0.000  -0.003   0.000


------------------------ aborting loop because EDIFF is reached ----------------------------------------


    CHARGE:  cpu time   39.4793: real time   39.4794
    FORLOC:  cpu time    9.7617: real time    9.7617
    FORNL :  cpu time  103.5499: real time  103.5502
    STRESS:  cpu time  309.8414: real time  309.8424
    FORCOR:  cpu time   31.2117: real time   31.2119
    FORHAR:  cpu time   14.0982: real time   14.0983
    MIXING:  cpu time    6.2121: real time    6.2122
    OFIELD:  cpu time    0.0001: real time    0.0001

  FORCE on cell =-STRESS in cart. coord.  units (eV):
  Direction    XX          YY          ZZ          XY          YZ          ZX
  --------------------------------------------------------------------------------------
  Alpha Z    75.25432    75.25432    75.25432
  Ewald   48438.82792 46484.15828 46027.92495  -795.13747    32.96233   483.37401
  Hartree 63154.43083 61290.67636 60852.33324  -795.90443   -86.38716   358.30777
  E(xc)   -2907.57782 -2907.31623 -2907.84273    -0.48846     0.85222     0.66759
  Local  ************************************  1585.62934    71.35092  -822.85537
  n-local  -881.31410  -872.77626  -873.34423     8.42685     6.48029     3.50945
  augment  4105.70993  4099.43402  4103.66491    -1.90571    -6.33737    -4.50359
  Kinetic  7816.37586  7811.59461  7820.79748     2.03030   -11.55534   -12.02015
  Fock        0.00000     0.00000     0.00000     0.00000     0.00000     0.00000
  -------------------------------------------------------------------------------------
  Total     -94.31918  -101.90443  -103.22386     2.65041     7.36588     6.47971
  in kB      -5.59689    -6.04700    -6.12529     0.15727     0.43709     0.38451
  external pressure =       -5.92 kB  Pullay stress =        0.00 kB


 VOLUME and BASIS-vectors are now :
 -----------------------------------------------------------------------------
  energy-cutoff  :      400.00
  volume of cell :    27000.00
      direct lattice vectors                 reciprocal lattice vectors
    30.000000000  0.000000000  0.000000000     0.033333333  0.000000000  0.000000000
     0.000000000 30.000000000  0.000000000     0.000000000  0.033333333  0.000000000
     0.000000000  0.000000000 30.000000000     0.000000000  0.000000000  0.033333333

  length of vectors
    30.000000000 30.000000000 30.000000000     0.033333333  0.033333333  0.033333333


 FORCES acting on ions
    electron-ion (+dipol)            ewald-force                    non-local-force                 convergence-correction
 -----------------------------------------------------------------------------------------------
   0.412E+03 0.977E+03 0.425E+03   -.410E+03 -.975E+03 -.425E+03   -.150E+01 -.181E+01 -.213E+00   -.209E-02 0.385E-02 -.348E-02
   -.972E+03 -.431E+03 0.445E+03   0.969E+03 0.429E+03 -.445E+03   0.185E+01 0.149E+01 -.212E+00   -.520E-02 0.405E-02 -.491E-02
   -.364E+03 0.994E+03 0.446E+03   0.361E+03 -.991E+03 -.445E+03   0.148E+01 -.193E+01 -.395E+00   -.208E-02 0.341E-02 -.221E-02
   0.977E+03 -.397E+03 0.418E+03   -.974E+03 0.395E+03 -.418E+03   -.182E+01 0.151E+01 -.207E+00   0.508E-02 -.552E-04 -.457E-02
   0.154E+02 0.589E+03 0.981E+03   -.154E+02 -.588E+03 -.977E+03   -.307E-02 -.336E+00 -.234E+01   -.278E-02 0.719E-02 -.191E-02
   0.257E+02 0.591E+03 -.984E+03   -.257E+02 -.590E+03 0.981E+03   -.711E-02 -.333E+00 0.237E+01   0.899E-03 0.248E-02 -.173E-02
   0.248E+02 0.115E+04 0.418E+01   -.247E+02 -.115E+04 -.418E+01   -.683E-01 -.316E+01 0.581E-02   -.494E-04 0.447E-03 -.277E-02
   0.114E+04 -.207E+01 0.670E+00   -.113E+04 0.205E+01 -.658E+00   -.311E+01 0.137E-01 -.534E-02   0.256E-02 0.309E-02 -.365E-02
   -.120E+04 -.104E+03 0.330E+02   0.120E+04 0.104E+03 -.332E+02   0.282E+01 -.364E+00 0.151E+00   0.201E-02 0.302E-02 0.354E-03
   0.529E+01 -.114E+04 0.917E+00   -.528E+01 0.114E+04 -.914E+00   -.194E-02 0.311E+01 0.270E-03   -.226E-02 -.250E-02 -.254E-02
   -.567E+03 0.583E+03 0.850E+03   0.564E+03 -.580E+03 -.847E+03   0.156E+01 -.156E+01 -.222E+01   -.499E-02 0.430E-02 -.239E-02
   -.550E+03 0.591E+03 -.880E+03   0.547E+03 -.588E+03 0.877E+03   0.160E+01 -.158E+01 0.211E+01   0.227E-02 0.134E-02 -.104E-02
   0.583E+03 -.582E+03 0.816E+03   -.581E+03 0.580E+03 -.813E+03   -.157E+01 0.156E+01 -.220E+01   0.290E-02 -.417E-02 0.117E-02
   0.585E+03 -.583E+03 -.815E+03   -.582E+03 0.581E+03 0.812E+03   -.156E+01 0.156E+01 0.220E+01   -.140E-02 0.203E-03 -.270E-02
   0.587E+03 0.578E+03 0.819E+03   -.585E+03 -.576E+03 -.815E+03   -.155E+01 -.156E+01 -.220E+01   -.447E-03 0.702E-02 -.142E-02
   0.591E+03 0.579E+03 -.818E+03   -.588E+03 -.576E+03 0.815E+03   -.156E+01 -.155E+01 0.219E+01   -.257E-02 0.221E-02 -.615E-03
   -.574E+03 -.591E+03 0.824E+03   0.571E+03 0.589E+03 -.821E+03   0.153E+01 0.157E+01 -.220E+01   -.524E-02 -.401E-02 -.281E-03
   -.572E+03 -.598E+03 -.825E+03   0.570E+03 0.596E+03 0.822E+03   0.151E+01 0.158E+01 0.222E+01   -.912E-03 0.117E-02 -.118E-02
   0.417E+03 0.979E+03 -.422E+03   -.415E+03 -.976E+03 0.421E+03   -.152E+01 -.182E+01 0.202E+00   -.891E-03 0.133E-02 -.491E-02
   -.974E+03 -.456E+03 -.440E+03   0.971E+03 0.454E+03 0.440E+03   0.189E+01 0.140E+01 0.994E-01   -.805E-03 0.297E-02 0.103E-02
   -.276E+03 0.309E+03 0.499E+03   0.277E+03 -.309E+03 -.500E+03   -.289E+00 0.380E+00 0.607E+00   -.631E-02 0.643E-02 -.616E-02
   0.979E+03 0.392E+03 0.419E+03   -.976E+03 -.390E+03 -.419E+03   -.182E+01 -.150E+01 -.236E+00   0.262E-02 0.392E-02 -.565E-02
   -.388E+03 -.983E+03 0.422E+03   0.386E+03 0.980E+03 -.421E+03   0.150E+01 0.180E+01 -.227E+00   -.393E-02 -.590E-02 -.394E-02
   -.343E+03 0.101E+04 -.441E+03   0.341E+03 -.101E+04 0.441E+03   0.159E+01 -.181E+01 0.273E+00   0.220E-02 0.283E-03 -.362E-02
   0.978E+03 -.398E+03 -.417E+03   -.975E+03 0.395E+03 0.417E+03   -.183E+01 0.150E+01 0.212E+00   0.118E-02 0.452E-02 -.322E-02
   -.978E+03 0.362E+03 0.525E+03   0.975E+03 -.359E+03 -.525E+03   0.176E+01 -.158E+01 0.114E+00   -.377E-02 0.301E-02 -.403E-02
   0.400E+03 -.978E+03 0.419E+03   -.398E+03 0.975E+03 -.419E+03   -.149E+01 0.182E+01 -.226E+00   -.314E-02 -.526E-02 -.372E-02
   0.342E+03 0.318E+03 0.463E+03   -.342E+03 -.318E+03 -.464E+03   0.362E+00 0.344E+00 0.503E+00   -.115E-02 0.565E-02 -.727E-02
   0.533E+02 0.648E+03 0.895E+01   -.532E+02 -.649E+03 -.897E+01   -.116E+00 0.779E+00 -.101E-02   -.717E-03 0.517E-02 -.330E-02
   -.578E+03 -.139E+02 0.993E+03   0.577E+03 0.139E+02 -.990E+03   0.294E+00 -.169E-01 -.236E+01   -.864E-02 0.522E-02 -.155E-02
   -.569E+03 -.298E+02 -.101E+04   0.569E+03 0.298E+02 0.101E+04   0.155E+00 0.248E-01 0.254E+01   0.215E-03 0.371E-02 -.113E-02
   0.594E+03 -.290E+01 0.970E+03   -.593E+03 0.292E+01 -.966E+03   -.313E+00 -.116E-01 -.235E+01   0.240E-02 0.270E-02 -.883E-03
   0.597E+03 -.372E+01 -.969E+03   -.596E+03 0.374E+01 0.965E+03   -.302E+00 -.229E-01 0.235E+01   -.935E-03 0.593E-02 -.314E-02
   0.777E+03 0.761E+03 0.180E+01   -.775E+03 -.759E+03 -.180E+01   -.112E+01 -.114E+01 0.325E-02   -.107E-02 0.334E-02 -.499E-02
   -.752E+03 -.793E+03 0.449E+01   0.750E+03 0.791E+03 -.452E+01   0.116E+01 0.125E+01 0.192E-01   -.251E-02 0.544E-03 -.230E-02
   -.493E+03 0.972E+03 0.170E+03   0.490E+03 -.968E+03 -.170E+03   -.478E+01 -.920E+01 -.467E+01   -.305E-02 -.503E-03 -.808E-03
   0.768E+03 -.766E+03 0.963E+00   -.766E+03 0.764E+03 -.947E+00   -.116E+01 0.113E+01 -.783E-02   -.811E-03 -.703E-03 -.377E-02
   0.127E+02 -.678E+01 0.108E+04   -.126E+02 0.675E+01 -.108E+04   -.911E-02 0.226E-01 -.160E+01   -.226E-02 0.403E-02 0.167E-03
   0.201E+02 -.107E+02 -.108E+04   -.200E+02 0.107E+02 0.108E+04   -.160E-01 0.512E-01 0.162E+01   -.494E-03 0.465E-02 -.340E-02
   0.980E+03 0.392E+03 -.418E+03   -.978E+03 -.390E+03 0.417E+03   -.182E+01 -.150E+01 0.240E+00   0.145E-03 0.456E-02 -.407E-02
   -.387E+03 -.986E+03 -.419E+03   0.384E+03 0.983E+03 0.419E+03   0.149E+01 0.181E+01 0.229E+00   0.195E-03 -.170E-02 -.223E-03
   -.230E+03 0.297E+03 -.502E+03   0.229E+03 -.297E+03 0.503E+03   0.147E+00 0.293E+00 -.884E+00   -.234E-02 0.337E-02 -.381E-02
   0.334E+03 -.329E+03 0.459E+03   -.334E+03 0.330E+03 -.460E+03   0.369E+00 -.373E+00 0.529E+00   -.488E-03 0.197E-02 -.779E-02
   0.348E+03 0.317E+03 -.459E+03   -.348E+03 -.317E+03 0.460E+03   0.333E+00 0.365E+00 -.502E+00   0.570E-03 0.575E-02 -.641E-02
   -.100E+04 0.218E+03 -.706E+03   0.998E+03 -.217E+03 0.705E+03   0.174E+01 0.120E+01 0.391E+01   0.490E-03 0.126E-02 0.890E-03
   0.401E+03 -.979E+03 -.418E+03   -.399E+03 0.976E+03 0.417E+03   -.148E+01 0.182E+01 0.228E+00   -.179E-02 -.305E-02 -.211E-02
   -.303E+03 -.344E+03 0.471E+03   0.303E+03 0.345E+03 -.471E+03   -.416E+00 -.324E+00 0.432E+00   -.504E-02 -.507E-03 -.802E-02
   0.653E+03 -.507E+01 0.162E+01   -.654E+03 0.504E+01 -.161E+01   0.728E+00 0.216E-01 -.263E-02   -.134E-03 0.444E-02 -.383E-02
   -.570E+03 -.133E+03 0.423E+02   0.571E+03 0.133E+03 -.423E+02   -.724E+00 -.144E+00 0.137E+00   -.550E-02 0.352E-02 -.265E-02
   0.694E+01 -.594E+03 0.971E+03   -.698E+01 0.593E+03 -.968E+03   0.225E-01 0.307E+00 -.234E+01   -.305E-02 -.550E-02 0.736E-03
   0.939E+01 -.597E+03 -.971E+03   -.941E+01 0.596E+03 0.967E+03   0.164E-01 0.304E+00 0.233E+01   -.279E-03 0.862E-03 -.163E-02
   0.392E+02 -.208E+02 0.662E+01   -.392E+02 0.208E+02 -.661E+01   -.220E-01 0.848E-02 -.198E-02   -.195E-02 0.263E-02 -.421E-02
   0.337E+03 -.331E+03 -.457E+03   -.337E+03 0.332E+03 0.457E+03   0.385E+00 -.368E+00 -.513E+00   -.246E-02 0.176E-02 -.386E-02
   -.295E+03 -.355E+03 -.466E+03   0.296E+03 0.355E+03 0.466E+03   -.411E+00 -.328E+00 -.504E+00   -.223E-02 0.262E-02 -.115E-02
   0.136E+02 -.654E+03 0.232E+01   -.136E+02 0.655E+03 -.231E+01   0.972E-02 -.725E+00 -.274E-02   -.297E-02 -.237E-02 -.467E-02
   -.186E+03 0.537E+02 -.177E+02   0.167E+03 -.370E+02 0.157E+02   0.127E+02 -.606E+01 0.325E+01   -.565E-03 -.971E-03 0.467E-03
   -.840E+03 0.521E+03 -.579E+02   0.903E+03 -.555E+03 0.603E+02   -.495E+02 0.282E+02 -.180E+01   0.554E-03 -.114E-02 0.405E-03
 -----------------------------------------------------------------------------------------------
   0.429E+02 -.162E+02 -.491E+00   0.341E-12 -.227E-12 -.161E-11   -.429E+02 0.161E+02 0.647E+00   -.730E-01 0.102E+00 -.154E+00
 
 
 POSITION                                       TOTAL-FORCE (eV/Angst)
 -----------------------------------------------------------------------------------
     13.37281      9.84801     12.50759         0.702291      1.112336      0.298613
     20.15199     16.62719     12.50759        -1.116888     -0.677921      0.260255
     16.62719      9.84801     12.50759        -0.773530      1.052516      0.221338
      9.84801     16.62719     12.50759         1.106872     -0.702653      0.284681
     15.00000     11.47521     10.20639        -0.001752      0.427351      1.274921
     15.00000     11.47521     19.79360        -0.001690      0.426311     -1.269665
     15.00000      8.28283     15.00000         0.018077      1.511068     -0.001210
      8.28283     15.00000     15.00000         1.514106     -0.007534      0.002681
     21.71717     15.00000     15.00000        -1.319895      0.225425     -0.072800
     15.00000     21.71717     15.00000         0.001065     -1.514773      0.000038
     18.35858     11.64142     10.25025        -0.752821      0.748676      1.059895
     18.35858     11.64142     19.74975        -0.784662      0.735839     -0.980741
     11.64142     18.35858     10.25025         0.760365     -0.752057      1.067184
     11.64142     18.35858     19.74975         0.755462     -0.756266     -1.070503
     11.64142     11.64142     10.25025         0.756895      0.756327      1.070586
     11.64142     11.64142     19.74975         0.755792      0.751742     -1.069323
     18.35858     18.35858     10.25025        -0.743704     -0.755479      1.068451
     18.35858     18.35858     19.74975        -0.725090     -0.767842     -1.081773
     13.37281      9.84801     17.49241         0.706964      1.109126     -0.292078
     20.15199     16.62719     17.49241        -1.136906     -0.591736     -0.227005
     16.73751     13.26249     12.54279         0.048400     -0.108595     -0.216518
      9.84801     13.37281     12.50759         1.102542      0.699563      0.295913
     16.62719     20.15199     12.50759        -0.703517     -1.113655      0.296424
     16.62719      9.84801     17.49241        -0.781750      1.062710     -0.238138
      9.84801     16.62719     17.49241         1.107591     -0.698782     -0.286150
     20.15199     13.37281     12.50759        -1.088027      0.770232      0.115239
     13.37281     20.15199     12.50759         0.696010     -1.107606      0.292328
     13.26249     13.26249     12.54279        -0.109893     -0.113559     -0.157577
     15.00000     11.52498     15.00000        -0.018821     -0.244765     -0.016392
     18.52479     15.00000     10.20639        -0.415285      0.007059      1.273915
     18.52479     15.00000     19.79360        -0.377189      0.009528     -1.262515
     11.47521     15.00000     10.20640         0.416015      0.003251      1.277984
     11.47521     15.00000     19.79360         0.415270      0.006173     -1.280624
     11.49535     11.49535     15.00000         0.818882      0.833399     -0.002098
     18.50465     18.50465     15.00000        -0.837899     -0.856363     -0.014433
     18.50465     11.49535     15.00000        -7.400331     -5.566851     -4.718940
     11.49535     18.50465     15.00000         0.838187     -0.822352      0.004542
     15.00000     15.00000     10.04368        -0.002629     -0.003101      1.178601
     15.00000     15.00000     19.95633        -0.004901     -0.007887     -1.184599
      9.84801     13.37281     17.49241         1.105613      0.700011     -0.296340
     16.62719     20.15199     17.49241        -0.701685     -1.109096     -0.294726
     16.73751     13.26249     17.45721        -0.073244     -0.095935      0.252432
     13.26249     16.73751     12.54279        -0.106990      0.112614     -0.152671
     13.26249     13.26249     17.45721        -0.107833     -0.110237      0.154607
     20.15199     13.37281     17.49241        -1.147075      2.695667      2.604026
     13.37281     20.15199     17.49241         0.698021     -1.110267     -0.295454
     16.73751     16.73751     12.54279         0.130876      0.112814     -0.155331
     11.52498     15.00000     15.00000        -0.225408     -0.005301      0.001061
     18.47502     15.00000     15.00000         0.517271     -0.598026      0.139966
     15.00000     18.52480     10.20639        -0.015658     -0.409506      1.272046
     15.00000     18.52480     19.79360        -0.005522     -0.417477     -1.279979
     15.00000     15.00000     15.00000        -0.029557      0.012079      0.004280
     13.26249     16.73751     17.45721        -0.117872      0.111867      0.153382
     16.73751     16.73751     17.45721         0.110007      0.119054      0.174216
     15.00000     18.47502     15.00000        -0.000348      0.225121     -0.000909
     19.37142     12.69447     15.73359        -6.061562     10.634177      1.223211
     20.35834     12.17396     15.89921        12.607360     -5.946412      0.595676
 -----------------------------------------------------------------------------------
    total drift:                               -0.000140     -0.001378      0.000806


--------------------------------------------------------------------------------------------------------



  FREE ENERGIE OF THE ION-ELECTRON SYSTEM (eV)
  ---------------------------------------------------
  free  energy   TOTEN  =      -172.64983293 eV

  energy  without entropy=     -172.60639453  energy(sigma->0) =     -172.63897333
 


--------------------------------------------------------------------------------------------------------


    POTLOK:  cpu time   20.6127: real time   20.6129


--------------------------------------------------------------------------------------------------------


     LOOP+:  cpu time28431.3706: real time28432.6010
    4ORBIT:  cpu time    0.0000: real time    0.0000

 total amount of memory used by VASP MPI-rank0  5486940. kBytes
=======================================================================

   base      :      30000. kBytes
   nonlr-proj:      17125. kBytes
   fftplans  :     924480. kBytes
   grid      :    1872000. kBytes
   one-center:        886. kBytes
   wavefun   :    2642449. kBytes
 
  
  
 General timing and accounting informations for this job:
 ========================================================
  
                  Total CPU time used (sec):    28542.920
                            User time (sec):    26328.077
                          System time (sec):     2214.843
                         Elapsed time (sec):    28544.229
  
                   Maximum memory used (kb):     7179468.
                   Average memory used (kb):           0.
  
                          Minor page faults:    817715514
                          Major page faults:            0
                 Voluntary context switches:          549
