       N       E                     dE             d eps       ncg     rms          rms(c)
DAV:   1     0.438755378991E+04    0.43876E+04   -0.10052E+05   688   0.815E+02
DAV:   2     0.202661708204E+04   -0.23609E+04   -0.21222E+04  1208   0.105E+02
DAV:   3     0.236782554202E+03   -0.17898E+04   -0.16812E+04  1016   0.919E+01
DAV:   4    -0.134024475237E+03   -0.37081E+03   -0.31532E+03   832   0.436E+01
DAV:   5    -0.180159156380E+03   -0.46135E+02   -0.38288E+02  1064   0.147E+01    0.149E+01
RMM:   6    -0.179764472826E+03    0.39468E+00   -0.53433E+01   718   0.893E+00    0.210E+01
RMM:   7    -0.183194511769E+03   -0.34300E+01   -0.18286E+01   848   0.460E+00    0.251E+01
RMM:   8    -0.183570225338E+03   -0.37571E+00   -0.66192E+00   795   0.329E+00    0.240E+01
RMM:   9    -0.181847647184E+03    0.17226E+01   -0.55308E+00   729   0.334E+00    0.236E+01
RMM:  10    -0.180280482552E+03    0.15672E+01   -0.26826E+00   742   0.239E+00    0.199E+01
RMM:  11    -0.178257120122E+03    0.20234E+01   -0.23212E+00   723   0.227E+00    0.167E+01
RMM:  12    -0.176996108525E+03    0.12610E+01   -0.15291E+00   720   0.184E+00    0.144E+01
RMM:  13    -0.177018031715E+03   -0.21923E-01   -0.12733E+00   722   0.165E+00    0.145E+01
RMM:  14    -0.176842379260E+03    0.17565E+00   -0.13850E+00   706   0.172E+00    0.152E+01
RMM:  15    -0.176451576139E+03    0.39080E+00   -0.97380E-01   712   0.147E+00    0.129E+01
RMM:  16    -0.175998590433E+03    0.45299E+00   -0.69608E-01   714   0.127E+00    0.117E+01
RMM:  17    -0.175945528865E+03    0.53062E-01   -0.47302E-01   710   0.104E+00    0.120E+01
RMM:  18    -0.176072857781E+03   -0.12733E+00   -0.48016E-01   711   0.103E+00    0.133E+01
RMM:  19    -0.176117782946E+03   -0.44925E-01   -0.40792E-01   709   0.985E-01    0.139E+01
RMM:  20    -0.175789857304E+03    0.32793E+00   -0.33648E-01   711   0.907E-01    0.100E+01
RMM:  21    -0.175550425793E+03    0.23943E+00   -0.22770E-01   701   0.741E-01    0.729E+00
RMM:  22    -0.175381501400E+03    0.16892E+00   -0.16305E-01   697   0.621E-01    0.593E+00
RMM:  23    -0.175249877472E+03    0.13162E+00   -0.14188E-01   696   0.565E-01    0.477E+00
RMM:  24    -0.175224152580E+03    0.25725E-01   -0.99589E-02   702   0.481E-01    0.490E+00
RMM:  25    -0.175147810113E+03    0.76342E-01   -0.63713E-02   700   0.395E-01    0.328E+00
RMM:  26    -0.175106825235E+03    0.40985E-01   -0.49740E-02   695   0.354E-01    0.263E+00
RMM:  27    -0.175104579317E+03    0.22459E-02   -0.33059E-02   697   0.280E-01    0.267E+00
RMM:  28    -0.175075978304E+03    0.28601E-01   -0.20419E-02   695   0.231E-01    0.168E+00
RMM:  29    -0.175061769831E+03    0.14208E-01   -0.12066E-02   695   0.181E-01    0.103E+00
RMM:  30    -0.175064151364E+03   -0.23815E-02   -0.10245E-02   697   0.161E-01    0.139E+00
RMM:  31    -0.175057772844E+03    0.63785E-02   -0.72301E-03   695   0.143E-01    0.114E+00
RMM:  32    -0.175052587143E+03    0.51857E-02   -0.41749E-03   692   0.113E-01    0.639E-01
RMM:  33    -0.175054043366E+03   -0.14562E-02   -0.38947E-03   694   0.978E-02    0.811E-01
RMM:  34    -0.175052866061E+03    0.11773E-02   -0.31439E-03   693   0.904E-02    0.567E-01
RMM:  35    -0.175052800882E+03    0.65179E-04   -0.12104E-03   692   0.597E-02    0.447E-01
RMM:  36    -0.175054243675E+03   -0.14428E-02   -0.11224E-03   693   0.538E-02    0.401E-01
RMM:  37    -0.175055521704E+03   -0.12780E-02   -0.82155E-04   687   0.471E-02    0.267E-01
RMM:  38    -0.175058484886E+03   -0.29632E-02   -0.83802E-04   683   0.434E-02    0.343E-01
RMM:  39    -0.175060104241E+03   -0.16194E-02   -0.52313E-04   577   0.347E-02    0.241E-01
RMM:  40    -0.175062395546E+03   -0.22913E-02   -0.50148E-04   562   0.327E-02    0.229E-01
RMM:  41    -0.175064807043E+03   -0.24115E-02   -0.41944E-04   499   0.302E-02    0.172E-01
RMM:  42    -0.175067008312E+03   -0.22013E-02   -0.36308E-04   473   0.274E-02    0.182E-01
RMM:  43    -0.175069708413E+03   -0.27001E-02   -0.41995E-04   508   0.270E-02    0.142E-01
RMM:  44    -0.175071153110E+03   -0.14447E-02   -0.25838E-04   432   0.214E-02    0.967E-02
RMM:  45    -0.175072699197E+03   -0.15461E-02   -0.21483E-04   418   0.190E-02    0.107E-01
RMM:  46    -0.175074267954E+03   -0.15688E-02   -0.22119E-04   427   0.182E-02    0.857E-02
RMM:  47    -0.175074912806E+03   -0.64485E-03   -0.10110E-04   418   0.127E-02    0.526E-02
RMM:  48    -0.175076011318E+03   -0.10985E-02   -0.83896E-05   410   0.110E-02    0.652E-02
RMM:  49    -0.175076936305E+03   -0.92499E-03   -0.66122E-05   410   0.982E-03    0.396E-02
RMM:  50    -0.175077427296E+03   -0.49099E-03   -0.38015E-05   402   0.725E-03    0.359E-02
RMM:  51    -0.175078151248E+03   -0.72395E-03   -0.32713E-05   403   0.669E-03    0.307E-02
RMM:  52    -0.175078473295E+03   -0.32205E-03   -0.15650E-05   296   0.503E-03    0.187E-02
RMM:  53    -0.175079029182E+03   -0.55589E-03   -0.12244E-05   264   0.471E-03    0.172E-02
RMM:  54    -0.175079341859E+03   -0.31268E-03   -0.82950E-06   220   0.431E-03    0.157E-02
RMM:  55    -0.175079835534E+03   -0.49367E-03   -0.17672E-05   263   0.490E-03    0.191E-02
RMM:  56    -0.175080074173E+03   -0.23864E-03   -0.98916E-06   208   0.423E-03    0.935E-03
RMM:  57    -0.175080236587E+03   -0.16241E-03   -0.86234E-06   189   0.389E-03    0.101E-02
RMM:  58    -0.175080429236E+03   -0.19265E-03   -0.89023E-06   185   0.396E-03    0.753E-03
RMM:  59    -0.175080527305E+03   -0.98069E-04   -0.46812E-06   140   0.369E-03
   1 F= -.17508053E+03 E0= -.17506036E+03  d E =-.806840E-01
