  57  57   0   0
  0.4736842E+03  0.3000000E-08  0.3000000E-08  0.3000000E-08  0.5000000E-15
  1.000000000000000E-004
  CAR 
 6_Pd100_top_free_z(O)                   
      1.31190696    -30.15005716  301     -4.14221664      1.00000000
    -30.150  0.0000E+00  0.0000E+00
    -30.045  0.0000E+00  0.0000E+00
    -29.940  0.0000E+00  0.0000E+00
    -29.835  0.2210E-27  0.2318E-28
    -29.731  0.9466E-24  0.9929E-25
    -29.626  0.2305E-20  0.2418E-21
    -29.521  0.3182E-17  0.3340E-18
    -29.416  0.2483E-14  0.2607E-15
    -29.311  0.1092E-11  0.1148E-12
    -29.206  0.2681E-09  0.2824E-10
    -29.101  0.3651E-07  0.3857E-08
    -28.996  0.2718E-05  0.2889E-06
    -28.892  0.1083E-03  0.1164E-04
    -28.787  0.2211E-02  0.2435E-03
    -28.682  0.2101E-01  0.2447E-02
    -28.577  0.6456E-01  0.9218E-02
    -28.472 -0.1648E+00 -0.8061E-02
    -28.367 -0.8198E+00 -0.9404E-01
    -28.262  0.1461E+01  0.5920E-01
    -28.157  0.8224E+01  0.9217E+00
    -28.053  0.8975E+01  0.1863E+01
    -27.948  0.2274E+01  0.2101E+01
    -27.843 -0.8067E+00  0.2017E+01
    -27.738 -0.2540E+00  0.1990E+01
    -27.633  0.6305E-01  0.1997E+01
    -27.528  0.2682E-01  0.2000E+01
    -27.423  0.3194E-02  0.2000E+01
    -27.318  0.1729E-03  0.2000E+01
    -27.214  0.4755E-05  0.2000E+01
    -27.109  0.6965E-07  0.2000E+01
    -27.004  0.5566E-09  0.2000E+01
    -26.899  0.2460E-11  0.2000E+01
    -26.794  0.6352E-14  0.2000E+01
    -26.689  0.0000E+00  0.2000E+01
    -26.584  0.0000E+00  0.2000E+01
    -26.479  0.0000E+00  0.2000E+01
    -26.375  0.0000E+00  0.2000E+01
    -26.270  0.0000E+00  0.2000E+01
    -26.165  0.0000E+00  0.2000E+01
    -26.060  0.0000E+00  0.2000E+01
    -25.955  0.0000E+00  0.2000E+01
    -25.850  0.0000E+00  0.2000E+01
    -25.745  0.0000E+00  0.2000E+01
    -25.641  0.0000E+00  0.2000E+01
    -25.536  0.0000E+00  0.2000E+01
    -25.431  0.0000E+00  0.2000E+01
    -25.326  0.0000E+00  0.2000E+01
    -25.221  0.0000E+00  0.2000E+01
    -25.116  0.0000E+00  0.2000E+01
    -25.011  0.0000E+00  0.2000E+01
    -24.906  0.0000E+00  0.2000E+01
    -24.802  0.0000E+00  0.2000E+01
    -24.697  0.0000E+00  0.2000E+01
    -24.592  0.0000E+00  0.2000E+01
    -24.487  0.0000E+00  0.2000E+01
    -24.382  0.0000E+00  0.2000E+01
    -24.277  0.0000E+00  0.2000E+01
    -24.172  0.0000E+00  0.2000E+01
    -24.067  0.0000E+00  0.2000E+01
    -23.963  0.0000E+00  0.2000E+01
    -23.858  0.0000E+00  0.2000E+01
    -23.753  0.0000E+00  0.2000E+01
    -23.648  0.0000E+00  0.2000E+01
    -23.543  0.0000E+00  0.2000E+01
    -23.438  0.0000E+00  0.2000E+01
    -23.333  0.0000E+00  0.2000E+01
    -23.228  0.0000E+00  0.2000E+01
    -23.124  0.0000E+00  0.2000E+01
    -23.019  0.0000E+00  0.2000E+01
    -22.914  0.0000E+00  0.2000E+01
    -22.809  0.0000E+00  0.2000E+01
    -22.704  0.0000E+00  0.2000E+01
    -22.599  0.0000E+00  0.2000E+01
    -22.494  0.0000E+00  0.2000E+01
    -22.389  0.0000E+00  0.2000E+01
    -22.285  0.0000E+00  0.2000E+01
    -22.180  0.0000E+00  0.2000E+01
    -22.075  0.0000E+00  0.2000E+01
    -21.970  0.0000E+00  0.2000E+01
    -21.865  0.0000E+00  0.2000E+01
    -21.760  0.0000E+00  0.2000E+01
    -21.655  0.0000E+00  0.2000E+01
    -21.550  0.0000E+00  0.2000E+01
    -21.446  0.0000E+00  0.2000E+01
    -21.341  0.0000E+00  0.2000E+01
    -21.236  0.0000E+00  0.2000E+01
    -21.131  0.0000E+00  0.2000E+01
    -21.026  0.0000E+00  0.2000E+01
    -20.921  0.0000E+00  0.2000E+01
    -20.816  0.0000E+00  0.2000E+01
    -20.711  0.0000E+00  0.2000E+01
    -20.607  0.0000E+00  0.2000E+01
    -20.502  0.0000E+00  0.2000E+01
    -20.397  0.0000E+00  0.2000E+01
    -20.292  0.0000E+00  0.2000E+01
    -20.187  0.0000E+00  0.2000E+01
    -20.082  0.0000E+00  0.2000E+01
    -19.977  0.0000E+00  0.2000E+01
    -19.872  0.0000E+00  0.2000E+01
    -19.768  0.0000E+00  0.2000E+01
    -19.663  0.0000E+00  0.2000E+01
    -19.558  0.0000E+00  0.2000E+01
    -19.453  0.0000E+00  0.2000E+01
    -19.348  0.0000E+00  0.2000E+01
    -19.243  0.0000E+00  0.2000E+01
    -19.138  0.0000E+00  0.2000E+01
    -19.033  0.0000E+00  0.2000E+01
    -18.929  0.0000E+00  0.2000E+01
    -18.824  0.0000E+00  0.2000E+01
    -18.719  0.0000E+00  0.2000E+01
    -18.614  0.0000E+00  0.2000E+01
    -18.509  0.0000E+00  0.2000E+01
    -18.404  0.0000E+00  0.2000E+01
    -18.299  0.0000E+00  0.2000E+01
    -18.195  0.0000E+00  0.2000E+01
    -18.090  0.0000E+00  0.2000E+01
    -17.985  0.0000E+00  0.2000E+01
    -17.880  0.0000E+00  0.2000E+01
    -17.775  0.0000E+00  0.2000E+01
    -17.670  0.0000E+00  0.2000E+01
    -17.565  0.0000E+00  0.2000E+01
    -17.460  0.0000E+00  0.2000E+01
    -17.356  0.0000E+00  0.2000E+01
    -17.251  0.0000E+00  0.2000E+01
    -17.146  0.0000E+00  0.2000E+01
    -17.041  0.0000E+00  0.2000E+01
    -16.936  0.0000E+00  0.2000E+01
    -16.831  0.0000E+00  0.2000E+01
    -16.726  0.0000E+00  0.2000E+01
    -16.621  0.0000E+00  0.2000E+01
    -16.517  0.0000E+00  0.2000E+01
    -16.412  0.0000E+00  0.2000E+01
    -16.307  0.0000E+00  0.2000E+01
    -16.202  0.0000E+00  0.2000E+01
    -16.097  0.0000E+00  0.2000E+01
    -15.992  0.0000E+00  0.2000E+01
    -15.887  0.0000E+00  0.2000E+01
    -15.782  0.0000E+00  0.2000E+01
    -15.678  0.0000E+00  0.2000E+01
    -15.573  0.0000E+00  0.2000E+01
    -15.468  0.0000E+00  0.2000E+01
    -15.363  0.0000E+00  0.2000E+01
    -15.258  0.0000E+00  0.2000E+01
    -15.153  0.1767E-25  0.2000E+01
    -15.048  0.5658E-22  0.2000E+01
    -14.943  0.1029E-18  0.2000E+01
    -14.839  0.1059E-15  0.2000E+01
    -14.734  0.6144E-13  0.2000E+01
    -14.629  0.2005E-10  0.2000E+01
    -14.524  0.3637E-08  0.2000E+01
    -14.419  0.3636E-06  0.2000E+01
    -14.314  0.1968E-04  0.2000E+01
    -14.209  0.5595E-03  0.2000E+01
    -14.104  0.7849E-02  0.2001E+01
    -14.000  0.4570E-01  0.2006E+01
    -13.895  0.2193E-01  0.2008E+01
    -13.790 -0.5425E+00  0.1951E+01
    -13.685 -0.3592E+00  0.1913E+01
    -13.580  0.4858E+01  0.2423E+01
    -13.475  0.1002E+02  0.3473E+01
    -13.370  0.5674E+01  0.4068E+01
    -13.265 -0.7940E-01  0.4060E+01
    -13.161 -0.6289E+00  0.3994E+01
    -13.056 -0.5031E-02  0.3993E+01
    -12.951  0.5151E-01  0.3999E+01
    -12.846  0.1001E-01  0.4000E+01
    -12.741  0.7763E-03  0.4000E+01
    -12.636  0.2940E-04  0.4000E+01
    -12.531  0.5821E-06  0.4000E+01
    -12.426  0.6244E-08  0.4000E+01
    -12.322  0.3599E-08  0.4000E+01
    -12.217  0.3570E-06  0.4000E+01
    -12.112  0.1937E-04  0.4000E+01
    -12.007  0.5523E-03  0.4000E+01
    -11.902  0.7774E-02  0.4001E+01
    -11.797  0.4547E-01  0.4006E+01
    -11.692  0.2290E-01  0.4008E+01
    -11.587 -0.5371E+00  0.3952E+01
    -11.483 -0.3495E+00  0.3915E+01
    -11.378  0.4891E+01  0.4428E+01
    -11.273  0.9878E+01  0.5464E+01
    -11.168  0.4900E+01  0.5978E+01
    -11.063  0.1139E+01  0.6097E+01
    -10.958  0.7317E+01  0.6865E+01
    -10.853  0.8910E+01  0.7799E+01
    -10.749  0.1902E+01  0.7999E+01
    -10.644  0.1967E+01  0.8205E+01
    -10.539  0.9005E+01  0.9149E+01
    -10.434  0.7836E+01  0.9971E+01
    -10.329  0.1116E+01  0.1009E+02
    -10.224 -0.7995E+00  0.1000E+02
    -10.119 -0.1243E+00  0.9991E+01
    -10.014  0.6350E-01  0.9998E+01
     -9.910  0.1836E-01  0.1000E+02
     -9.805  0.1815E-02  0.1000E+02
     -9.700  0.8443E-04  0.1000E+02
     -9.595  0.2023E-05  0.1000E+02
     -9.490  0.2597E-07  0.1000E+02
     -9.385  0.1826E-09  0.1000E+02
     -9.280  0.7114E-12  0.1000E+02
     -9.175  0.2117E-14  0.1000E+02
     -9.071  0.0000E+00  0.1000E+02
     -8.966  0.0000E+00  0.1000E+02
     -8.861  0.0000E+00  0.1000E+02
     -8.756  0.0000E+00  0.1000E+02
     -8.651  0.0000E+00  0.1000E+02
     -8.546  0.0000E+00  0.1000E+02
     -8.441  0.0000E+00  0.1000E+02
     -8.336  0.7444E-26  0.1000E+02
     -8.232  0.2646E-22  0.1000E+02
     -8.127  0.5345E-19  0.1000E+02
     -8.022  0.6114E-16  0.1000E+02
     -7.917  0.3948E-13  0.1000E+02
     -7.812  0.1434E-10  0.1000E+02
     -7.707  0.2904E-08  0.1000E+02
     -7.602  0.3248E-06  0.1000E+02
     -7.497  0.1977E-04  0.1000E+02
     -7.393  0.6378E-03  0.1000E+02
     -7.288  0.1037E-01  0.1000E+02
     -7.183  0.7498E-01  0.1001E+02
     -7.078  0.1281E+00  0.1002E+02
     -6.973 -0.7242E+00  0.9947E+01
     -6.868 -0.1591E+01  0.9780E+01
     -6.763  0.6246E+01  0.1043E+02
     -6.658  0.2176E+02  0.1272E+02
     -6.554  0.2316E+02  0.1514E+02
     -6.449  0.8476E+01  0.1603E+02
     -6.344 -0.1964E+01  0.1583E+02
     -6.239  0.7390E+01  0.1660E+02
     -6.134  0.2600E+02  0.1933E+02
     -6.029  0.2053E+02  0.2148E+02
     -5.924  0.1226E+02  0.2277E+02
     -5.819  0.3933E+02  0.2689E+02
     -5.715  0.7570E+02  0.3483E+02
     -5.610  0.1296E+03  0.4843E+02
     -5.505  0.2354E+03  0.7311E+02
     -5.400  0.2977E+03  0.1043E+03
     -5.295  0.2478E+03  0.1303E+03
     -5.190  0.2061E+03  0.1519E+03
     -5.085  0.2699E+03  0.1802E+03
     -4.980  0.3560E+03  0.2176E+03
     -4.876  0.3406E+03  0.2533E+03
     -4.771  0.2885E+03  0.2835E+03
     -4.666  0.3381E+03  0.3190E+03
     -4.561  0.4124E+03  0.3622E+03
     -4.456  0.4213E+03  0.4064E+03
     -4.351  0.4695E+03  0.4557E+03
     -4.246  0.5521E+03  0.5136E+03
     -4.142  0.4449E+03  0.5602E+03
     -4.037  0.1742E+03  0.5785E+03
     -3.932  0.2531E+02  0.5811E+03
     -3.827  0.2598E+02  0.5839E+03
     -3.722  0.2990E+02  0.5870E+03
     -3.617  0.1185E+02  0.5883E+03
     -3.512  0.1286E+02  0.5896E+03
     -3.407  0.1907E+02  0.5916E+03
     -3.303  0.1075E+02  0.5927E+03
     -3.198  0.6028E+01  0.5934E+03
     -3.093  0.3043E+02  0.5966E+03
     -2.988  0.6250E+02  0.6031E+03
     -2.883  0.4740E+02  0.6081E+03
     -2.778  0.1391E+02  0.6095E+03
     -2.673  0.4779E+01  0.6100E+03
     -2.568  0.1721E+02  0.6118E+03
     -2.464  0.2616E+02  0.6146E+03
     -2.359  0.1265E+02  0.6159E+03
     -2.254  0.6866E+01  0.6166E+03
     -2.149  0.2488E+02  0.6192E+03
     -2.044  0.3688E+02  0.6231E+03
     -1.939  0.3995E+02  0.6273E+03
     -1.834  0.4553E+02  0.6321E+03
     -1.729  0.4096E+02  0.6364E+03
     -1.625  0.3562E+02  0.6401E+03
     -1.520  0.3602E+02  0.6439E+03
     -1.415  0.2960E+02  0.6470E+03
     -1.310  0.1838E+02  0.6489E+03
     -1.205  0.6958E+01  0.6496E+03
     -1.100  0.1165E+02  0.6509E+03
     -0.995  0.4713E+02  0.6558E+03
     -0.890  0.7364E+02  0.6635E+03
     -0.786  0.5407E+02  0.6692E+03
     -0.681  0.2164E+02  0.6715E+03
     -0.576  0.5528E+01  0.6721E+03
     -0.471 -0.8944E-02  0.6721E+03
     -0.366 -0.6172E+00  0.6720E+03
     -0.261  0.1514E-01  0.6720E+03
     -0.156  0.9710E-01  0.6720E+03
     -0.051  0.2364E-01  0.6720E+03
      0.053  0.2318E-02  0.6720E+03
      0.158  0.1106E-03  0.6720E+03
      0.263  0.2747E-05  0.6720E+03
      0.368  0.3670E-07  0.6720E+03
      0.473  0.2688E-09  0.6720E+03
      0.578  0.1095E-11  0.6720E+03
      0.683  0.2117E-14  0.6720E+03
      0.788  0.0000E+00  0.6720E+03
      0.892  0.0000E+00  0.6720E+03
      0.997  0.0000E+00  0.6720E+03
      1.102  0.0000E+00  0.6720E+03
      1.207  0.0000E+00  0.6720E+03
      1.312  0.0000E+00  0.6720E+03
