   57   57    1    1
  0.4736842E+03  0.3000000E-08  0.3000000E-08  0.3000000E-08  0.5000000E-15
  1.000000000000000E-004
  CAR 
 6_Pd100_top_free_z(O)                   
    560      1    336
 
  0.0000000E+00  0.0000000E+00  0.0000000E+00  0.1000000E+01
    1      -28.150057   1.000000
    2      -13.521870   1.000000
    3      -11.319087   1.000000
    4      -10.945051   1.000000
    5      -10.553875   1.000000
    6       -6.686091   1.000000
    7       -6.685253   1.000000
    8       -6.561168   1.000000
    9       -6.177704   1.000000
   10       -6.133813   1.000000
   11       -6.127674   1.000000
   12       -5.870483   1.000000
   13       -5.857853   1.000000
   14       -5.813586   1.000000
   15       -5.807411   1.000000
   16       -5.751399   1.000000
   17       -5.749551   1.000000
   18       -5.728734   1.000000
   19       -5.689028   1.000000
   20       -5.683154   1.000000
   21       -5.680590   1.000000
   22       -5.678973   1.000000
   23       -5.607254   1.000000
   24       -5.598353   1.000000
   25       -5.594716   1.000000
   26       -5.593207   1.000000
   27       -5.591902   1.000000
   28       -5.564660   1.000000
   29       -5.543886   1.000000
   30       -5.534845   1.000000
   31       -5.531570   1.000000
   32       -5.525736   1.000000
   33       -5.519221   1.000000
   34       -5.515631   1.000000
   35       -5.514051   1.000000
   36       -5.509188   1.000000
   37       -5.505070   1.000000
   38       -5.497468   1.000000
   39       -5.493056   1.000000
   40       -5.485089   1.000000
   41       -5.475843   1.000000
   42       -5.471079   1.000000
   43       -5.469555   1.000000
   44       -5.466039   1.000000
   45       -5.463155   1.000000
   46       -5.458186   1.000000
   47       -5.449757   1.000000
   48       -5.430754   1.000000
   49       -5.426116   1.000000
   50       -5.421690   1.000000
   51       -5.416626   1.000000
   52       -5.412143   1.000000
   53       -5.402296   1.000000
   54       -5.397644   1.000000
   55       -5.395978   1.000000
   56       -5.391824   1.000000
   57       -5.378060   1.000000
   58       -5.371783   1.000000
   59       -5.362136   1.000000
   60       -5.332550   1.000000
   61       -5.321769   1.000000
   62       -5.316259   1.000000
   63       -5.314389   1.000000
   64       -5.312576   1.000000
   65       -5.308434   1.000000
   66       -5.303930   1.000000
   67       -5.299443   1.000000
   68       -5.297772   1.000000
   69       -5.287609   1.000000
   70       -5.277142   1.000000
   71       -5.255924   1.000000
   72       -5.215820   1.000000
   73       -5.188553   1.000000
   74       -5.183177   1.000000
   75       -5.180629   1.000000
   76       -5.177399   1.000000
   77       -5.175681   1.000000
   78       -5.175051   1.000000
   79       -5.174275   1.000000
   80       -5.164311   1.000000
   81       -5.147869   1.000000
   82       -5.146993   1.000000
   83       -5.143410   1.000000
   84       -5.139113   1.000000
   85       -5.120510   1.000000
   86       -5.119077   1.000000
   87       -5.116516   1.000000
   88       -5.096690   1.000000
   89       -5.096334   1.000000
   90       -5.090143   1.000000
   91       -5.077771   1.000000
   92       -5.058572   1.000000
   93       -5.054669   1.000000
   94       -5.049189   1.000000
   95       -5.047770   1.000000
   96       -5.045085   1.000000
   97       -5.044474   1.000000
   98       -5.029069   1.000000
   99       -5.026773   1.000000
  100       -5.022252   1.000000
  101       -5.021283   1.000000
  102       -5.013949   1.000000
  103       -5.010458   1.000000
  104       -5.003992   1.000000
  105       -5.001870   1.000000
  106       -5.001268   1.000000
  107       -5.000928   1.000000
  108       -4.993287   1.000000
  109       -4.979919   1.000000
  110       -4.978374   1.000000
  111       -4.976125   1.000000
  112       -4.974499   1.000000
  113       -4.966619   1.000000
  114       -4.965951   1.000000
  115       -4.956630   1.000000
  116       -4.954819   0.999999
  117       -4.950264   0.999999
  118       -4.947551   0.999999
  119       -4.927075   0.999999
  120       -4.923046   0.999998
  121       -4.915608   0.999998
  122       -4.914740   0.999998
  123       -4.910206   0.999998
  124       -4.907797   0.999997
  125       -4.899572   0.999997
  126       -4.897642   0.999996
  127       -4.888538   0.999995
  128       -4.873116   0.999992
  129       -4.868665   0.999991
  130       -4.866407   0.999990
  131       -4.841702   0.999979
  132       -4.837105   0.999976
  133       -4.834271   0.999973
  134       -4.828835   0.999969
  135       -4.828388   0.999968
  136       -4.826508   0.999967
  137       -4.818647   0.999958
  138       -4.805005   0.999939
  139       -4.801431   0.999933
  140       -4.791395   0.999912
  141       -4.789774   0.999908
  142       -4.768971   0.999844
  143       -4.752631   0.999767
  144       -4.748850   0.999745
  145       -4.733366   0.999635
  146       -4.732655   0.999629
  147       -4.732564   0.999628
  148       -4.726399   0.999573
  149       -4.714201   0.999444
  150       -4.703319   0.999304
  151       -4.702338   0.999289
  152       -4.700497   0.999263
  153       -4.690771   0.999106
  154       -4.678863   0.998880
  155       -4.677267   0.998847
  156       -4.674918   0.998797
  157       -4.669054   0.998664
  158       -4.668652   0.998654
  159       -4.666317   0.998598
  160       -4.659575   0.998427
  161       -4.659010   0.998413
  162       -4.651109   0.998193
  163       -4.649356   0.998142
  164       -4.647792   0.998096
  165       -4.645725   0.998033
  166       -4.640948   0.997884
  167       -4.639330   0.997833
  168       -4.633623   0.997644
  169       -4.628844   0.997480
  170       -4.627473   0.997432
  171       -4.623439   0.997289
  172       -4.620161   0.997170
  173       -4.607682   0.996706
  174       -4.593286   0.996169
  175       -4.591793   0.996115
  176       -4.588955   0.996013
  177       -4.587743   0.995970
  178       -4.586593   0.995930
  179       -4.583881   0.995837
  180       -4.570533   0.995428
  181       -4.564158   0.995274
  182       -4.559530   0.995185
  183       -4.551775   0.995087
  184       -4.549860   0.995075
  185       -4.547753   0.995067
  186       -4.547407   0.995066
  187       -4.546107   0.995065
  188       -4.545883   0.995065
  189       -4.543067   0.995073
  190       -4.542411   0.995077
  191       -4.512573   0.996189
  192       -4.510599   0.996342
  193       -4.508414   0.996526
  194       -4.501389   0.997221
  195       -4.499173   0.997475
  196       -4.486490   0.999275
  197       -4.482908   0.999898
  198       -4.479635   1.000513
  199       -4.476511   1.001143
  200       -4.470222   1.002540
  201       -4.465415   1.003726
  202       -4.463174   1.004315
  203       -4.462359   1.004535
  204       -4.460469   1.005056
  205       -4.456554   1.006188
  206       -4.454354   1.006855
  207       -4.452662   1.007383
  208       -4.445280   1.009837
  209       -4.439721   1.011845
  210       -4.434601   1.013809
  211       -4.421711   1.019200
  212       -4.416835   1.021382
  213       -4.407784   1.025587
  214       -4.406749   1.026078
  215       -4.403595   1.027583
  216       -4.402848   1.027940
  217       -4.398335   1.030110
  218       -4.396201   1.031138
  219       -4.394380   1.032014
  220       -4.391568   1.033364
  221       -4.390224   1.034006
  222       -4.384143   1.036875
  223       -4.356946   1.047785
  224       -4.348204   1.050051
  225       -4.346987   1.050296
  226       -4.340152   1.051308
  227       -4.333121   1.051619
  228       -4.331869   1.051588
  229       -4.329901   1.051483
  230       -4.329631   1.051463
  231       -4.324656   1.050846
  232       -4.323468   1.050625
  233       -4.321692   1.050242
  234       -4.321070   1.050092
  235       -4.318574   1.049406
  236       -4.315260   1.048278
  237       -4.314611   1.048027
  238       -4.309991   1.045949
  239       -4.309295   1.045590
  240       -4.304290   1.042637
  241       -4.298886   1.038683
  242       -4.295190   1.035496
  243       -4.293620   1.034019
  244       -4.292371   1.032790
  245       -4.287222   1.027210
  246       -4.285624   1.025306
  247       -4.279721   1.017539
  248       -4.278731   1.016121
  249       -4.275652   1.011492
  250       -4.274029   1.008919
  251       -4.262467   0.987835
  252       -4.257864   0.978058
  253       -4.254444   0.970275
  254       -4.249861   0.959136
  255       -4.246955   0.951654
  256       -4.244633   0.945441
  257       -4.244079   0.943929
  258       -4.243593   0.942590
  259       -4.237782   0.925888
  260       -4.237191   0.924117
  261       -4.232815   0.910578
  262       -4.231570   0.906592
  263       -4.230961   0.904623
  264       -4.229154   0.898688
  265       -4.227651   0.893662
  266       -4.216406   0.853378
  267       -4.215220   0.848862
  268       -4.212550   0.838513
  269       -4.211516   0.834437
  270       -4.209730   0.827316
  271       -4.208151   0.820926
  272       -4.192815   0.754757
  273       -4.191785   0.750059
  274       -4.188219   0.733588
  275       -4.184287   0.715042
  276       -4.177876   0.684027
  277       -4.174635   0.668016
  278       -4.163898   0.613637
  279       -4.163521   0.611696
  280       -4.162506   0.606460
  281       -4.161567   0.601606
  282       -4.148193   0.531590
  283       -4.146439   0.522324
  284       -4.126100   0.415186
  285       -4.124424   0.406467
  286       -4.120214   0.384709
  287       -4.113346   0.349741
  288       -4.102821   0.297786
  289       -3.985604  -0.038637
  290       -3.962455  -0.050309
  291       -3.903466  -0.038339
  292       -3.825386  -0.005459
  293       -3.816131  -0.003001
  294       -3.765274   0.004242
  295       -3.495349   0.000093
  296       -3.489749   0.000080
  297       -3.285186   0.000000
  298       -3.064243   0.000000
  299       -3.058089   0.000000
  300       -3.041390   0.000000
  301       -3.022803   0.000000
  302       -3.007961   0.000000
  303       -3.005635   0.000000
  304       -2.936295   0.000000
  305       -2.804136   0.000000
  306       -2.580834   0.000000
  307       -2.513584   0.000000
  308       -2.480937   0.000000
  309       -2.213570   0.000000
  310       -2.139972   0.000000
  311       -2.112278   0.000000
  312       -2.084029   0.000000
  313       -1.972013   0.000000
  314       -1.941344   0.000000
  315       -1.883245   0.000000
  316       -1.855845   0.000000
  317       -1.845413   0.000000
  318       -1.764624   0.000000
  319       -1.718640   0.000000
  320       -1.636338   0.000000
  321       -1.589445   0.000000
  322       -1.556992   0.000000
  323       -1.494255   0.000000
  324       -1.405737   0.000000
  325       -1.305547   0.000000
  326       -1.093855   0.000000
  327       -1.011339   0.000000
  328       -0.996454   0.000000
  329       -0.967222   0.000000
  330       -0.942994   0.000000
  331       -0.930355   0.000000
  332       -0.928074   0.000000
  333       -0.883331   0.000000
  334       -0.838683   0.000000
  335       -0.803376   0.000000
  336       -0.688093   0.000000
