   57   57    1    1
  0.4736842E+03  0.3000000E-08  0.3000000E-08  0.3000000E-08  0.5000000E-15
  1.000000000000000E-004
  CAR 
 6_Pd100_top_free_z(O)                   
    560      1    336
 
  0.0000000E+00  0.0000000E+00  0.0000000E+00  0.1000000E+01
    1      -28.683810   1.000000
    2      -13.433802   1.000000
    3      -11.077434   1.000000
    4      -11.070372   1.000000
    5      -10.572088   1.000000
    6       -6.644307   1.000000
    7       -6.135962   1.000000
    8       -6.134858   1.000000
    9       -6.133718   1.000000
   10       -5.986623   1.000000
   11       -5.984541   1.000000
   12       -5.804707   1.000000
   13       -5.791240   1.000000
   14       -5.787527   1.000000
   15       -5.740377   1.000000
   16       -5.687413   1.000000
   17       -5.677416   1.000000
   18       -5.676860   1.000000
   19       -5.676567   1.000000
   20       -5.630854   1.000000
   21       -5.618165   1.000000
   22       -5.610209   1.000000
   23       -5.590758   1.000000
   24       -5.590224   1.000000
   25       -5.586451   1.000000
   26       -5.585169   1.000000
   27       -5.580041   1.000000
   28       -5.534170   1.000000
   29       -5.524419   1.000000
   30       -5.523874   1.000000
   31       -5.516123   1.000000
   32       -5.510508   1.000000
   33       -5.509778   1.000000
   34       -5.509381   1.000000
   35       -5.503546   1.000000
   36       -5.498616   1.000000
   37       -5.494137   1.000000
   38       -5.490479   1.000000
   39       -5.469650   1.000000
   40       -5.463633   1.000000
   41       -5.462560   1.000000
   42       -5.460437   1.000000
   43       -5.459175   1.000000
   44       -5.458929   1.000000
   45       -5.458871   1.000000
   46       -5.453625   1.000000
   47       -5.447324   1.000000
   48       -5.445029   1.000000
   49       -5.420471   1.000000
   50       -5.420314   1.000000
   51       -5.418592   1.000000
   52       -5.404186   1.000000
   53       -5.400365   1.000000
   54       -5.400262   1.000000
   55       -5.385926   1.000000
   56       -5.377020   1.000000
   57       -5.375864   1.000000
   58       -5.347850   1.000000
   59       -5.332960   1.000000
   60       -5.309749   1.000000
   61       -5.307996   1.000000
   62       -5.307515   1.000000
   63       -5.307231   1.000000
   64       -5.305213   1.000000
   65       -5.303871   1.000000
   66       -5.293595   1.000000
   67       -5.290832   1.000000
   68       -5.275282   1.000000
   69       -5.273036   1.000000
   70       -5.259092   1.000000
   71       -5.230646   1.000000
   72       -5.178141   1.000000
   73       -5.177183   1.000000
   74       -5.172431   1.000000
   75       -5.170306   1.000000
   76       -5.168996   1.000000
   77       -5.168058   1.000000
   78       -5.167387   1.000000
   79       -5.165148   1.000000
   80       -5.138926   1.000000
   81       -5.138577   1.000000
   82       -5.137492   1.000000
   83       -5.123158   1.000000
   84       -5.114663   1.000000
   85       -5.113443   1.000000
   86       -5.112328   1.000000
   87       -5.101244   1.000000
   88       -5.090076   1.000000
   89       -5.089054   1.000000
   90       -5.086356   1.000000
   91       -5.064557   1.000000
   92       -5.049560   1.000000
   93       -5.047934   1.000000
   94       -5.043626   1.000000
   95       -5.043546   1.000000
   96       -5.038719   1.000000
   97       -5.038667   1.000000
   98       -5.017973   1.000000
   99       -5.014489   1.000000
  100       -5.009971   1.000000
  101       -5.003524   1.000000
  102       -5.001398   1.000000
  103       -4.997949   1.000000
  104       -4.995989   1.000000
  105       -4.995200   1.000000
  106       -4.994894   1.000000
  107       -4.985653   1.000000
  108       -4.980983   1.000000
  109       -4.972362   1.000000
  110       -4.970776   1.000000
  111       -4.970627   1.000000
  112       -4.969574   1.000000
  113       -4.960026   1.000000
  114       -4.958592   1.000000
  115       -4.956556   1.000000
  116       -4.950949   0.999999
  117       -4.938543   0.999999
  118       -4.938390   0.999999
  119       -4.927567   0.999999
  120       -4.911310   0.999998
  121       -4.908067   0.999998
  122       -4.908012   0.999998
  123       -4.907056   0.999998
  124       -4.903097   0.999997
  125       -4.892743   0.999996
  126       -4.892691   0.999996
  127       -4.875232   0.999993
  128       -4.870250   0.999992
  129       -4.869428   0.999992
  130       -4.857882   0.999988
  131       -4.833713   0.999976
  132       -4.830148   0.999973
  133       -4.823148   0.999967
  134       -4.823023   0.999967
  135       -4.821310   0.999966
  136       -4.812439   0.999956
  137       -4.810387   0.999953
  138       -4.788918   0.999916
  139       -4.783030   0.999902
  140       -4.779838   0.999893
  141       -4.777307   0.999886
  142       -4.755904   0.999804
  143       -4.752887   0.999790
  144       -4.733475   0.999668
  145       -4.729205   0.999634
  146       -4.728519   0.999628
  147       -4.725930   0.999606
  148       -4.722353   0.999573
  149       -4.718403   0.999535
  150       -4.699790   0.999311
  151       -4.691901   0.999192
  152       -4.690527   0.999170
  153       -4.672960   0.998841
  154       -4.668372   0.998741
  155       -4.668099   0.998735
  156       -4.666057   0.998688
  157       -4.663206   0.998621
  158       -4.663158   0.998620
  159       -4.654789   0.998407
  160       -4.649548   0.998264
  161       -4.647706   0.998211
  162       -4.645980   0.998161
  163       -4.642438   0.998056
  164       -4.640204   0.997987
  165       -4.640106   0.997984
  166       -4.635371   0.997835
  167       -4.635341   0.997834
  168       -4.630539   0.997676
  169       -4.621941   0.997379
  170       -4.619839   0.997304
  171       -4.618543   0.997258
  172       -4.617706   0.997228
  173       -4.613599   0.997078
  174       -4.587293   0.996098
  175       -4.587239   0.996096
  176       -4.583900   0.995976
  177       -4.583107   0.995949
  178       -4.577035   0.995743
  179       -4.576904   0.995739
  180       -4.574053   0.995647
  181       -4.563882   0.995361
  182       -4.555354   0.995182
  183       -4.544431   0.995069
  184       -4.544370   0.995068
  185       -4.542001   0.995065
  186       -4.541205   0.995066
  187       -4.540949   0.995066
  188       -4.540901   0.995066
  189       -4.537322   0.995084
  190       -4.537206   0.995085
  191       -4.504828   0.996487
  192       -4.500150   0.996925
  193       -4.499963   0.996944
  194       -4.495501   0.997433
  195       -4.493258   0.997704
  196       -4.480835   0.999551
  197       -4.471732   1.001300
  198       -4.471610   1.001326
  199       -4.465509   1.002702
  200       -4.459606   1.004192
  201       -4.457813   1.004675
  202       -4.454775   1.005529
  203       -4.448902   1.007298
  204       -4.448738   1.007349
  205       -4.445340   1.008447
  206       -4.440396   1.010137
  207       -4.440235   1.010194
  208       -4.435431   1.011942
  209       -4.435296   1.011992
  210       -4.429117   1.014387
  211       -4.418028   1.019047
  212       -4.408096   1.023549
  213       -4.398365   1.028158
  214       -4.398232   1.028221
  215       -4.397007   1.028810
  216       -4.391714   1.031358
  217       -4.391441   1.031490
  218       -4.390701   1.031846
  219       -4.387639   1.033315
  220       -4.380271   1.036802
  221       -4.380057   1.036901
  222       -4.356736   1.046553
  223       -4.350125   1.048598
  224       -4.342749   1.050336
  225       -4.342006   1.050475
  226       -4.330095   1.051625
  227       -4.327621   1.051580
  228       -4.326490   1.051523
  229       -4.326426   1.051519
  230       -4.322176   1.051089
  231       -4.319225   1.050583
  232       -4.319203   1.050579
  233       -4.313999   1.049237
  234       -4.313341   1.049025
  235       -4.311648   1.048434
  236       -4.311634   1.048429
  237       -4.310610   1.048039
  238       -4.308956   1.047356
  239       -4.305735   1.045833
  240       -4.305651   1.045790
  241       -4.297225   1.040517
  242       -4.289703   1.034127
  243       -4.286571   1.030966
  244       -4.286294   1.030671
  245       -4.279369   1.022514
  246       -4.273183   1.013880
  247       -4.272932   1.013502
  248       -4.272634   1.013049
  249       -4.271326   1.011030
  250       -4.270600   1.009882
  251       -4.256009   0.982777
  252       -4.247796   0.964011
  253       -4.247669   0.963700
  254       -4.245597   0.958547
  255       -4.240406   0.944904
  256       -4.239180   0.941529
  257       -4.239155   0.941460
  258       -4.238361   0.939241
  259       -4.232835   0.923132
  260       -4.232817   0.923079
  261       -4.227162   0.905369
  262       -4.225609   0.900293
  263       -4.225559   0.900129
  264       -4.225270   0.899171
  265       -4.222418   0.889575
  266       -4.210549   0.846397
  267       -4.207864   0.835930
  268       -4.207785   0.835620
  269       -4.207526   0.834593
  270       -4.204375   0.821957
  271       -4.203219   0.817238
  272       -4.189399   0.757538
  273       -4.184502   0.735046
  274       -4.182839   0.727262
  275       -4.182676   0.726495
  276       -4.173183   0.680768
  277       -4.173130   0.680505
  278       -4.167452   0.652244
  279       -4.158153   0.604791
  280       -4.157918   0.603577
  281       -4.157680   0.602344
  282       -4.144024   0.530851
  283       -4.130553   0.459669
  284       -4.120486   0.406942
  285       -4.120402   0.406508
  286       -4.114831   0.377766
  287       -4.108034   0.343298
  288       -4.099754   0.302439
  289       -4.044431   0.079578
  290       -3.949348  -0.051553
  291       -3.892445  -0.035083
  292       -3.813328  -0.003304
  293       -3.809891  -0.002471
  294       -3.808926  -0.002247
  295       -3.483577   0.000076
  296       -3.483324   0.000075
  297       -3.391980   0.000005
  298       -3.052950   0.000000
  299       -3.052715   0.000000
  300       -3.008920   0.000000
  301       -3.007015   0.000000
  302       -3.003024   0.000000
  303       -3.002807   0.000000
  304       -2.920829   0.000000
  305       -2.811006   0.000000
  306       -2.549849   0.000000
  307       -2.548039   0.000000
  308       -2.509691   0.000000
  309       -2.221124   0.000000
  310       -2.130224   0.000000
  311       -2.128277   0.000000
  312       -2.107753   0.000000
  313       -1.942061   0.000000
  314       -1.941263   0.000000
  315       -1.850178   0.000000
  316       -1.846440   0.000000
  317       -1.839160   0.000000
  318       -1.719721   0.000000
  319       -1.715199   0.000000
  320       -1.700413   0.000000
  321       -1.630940   0.000000
  322       -1.542414   0.000000
  323       -1.495199   0.000000
  324       -1.341700   0.000000
  325       -1.334889   0.000000
  326       -1.044504   0.000000
  327       -1.037781   0.000000
  328       -1.021952   0.000000
  329       -0.949093   0.000000
  330       -0.940251   0.000000
  331       -0.933044   0.000000
  332       -0.927591   0.000000
  333       -0.917852   0.000000
  334       -0.897436   0.000000
  335       -0.812869   0.000000
  336       -0.784894   0.000000
