 running on    1 total cores
 distrk:  each k-point on    1 cores,    1 groups
 distr:  one band on    1 cores,    1 groups
 using from now: INCAR     
 vasp.5.4.4.18Apr17-6-g9f103f2a35 (build Sep 03 2018 23:53:05) complex          
  
 POSCAR found type information on POSCAR  Pd C  O 
 POSCAR found :  3 types and      57 ions
 scaLAPACK will be used

 ----------------------------------------------------------------------------- 
|                                                                             |
|  ADVICE TO THIS USER RUNNING 'VASP/VAMP'   (HEAR YOUR MASTER'S VOICE ...):  |
|                                                                             |
|      You enforced a specific xc-type in the INCAR file,                     |
|      a different type was found on the POTCAR file                          |
|          I HOPE YOU KNOW, WHAT YOU ARE  DOING                               |
|                                                                             |
 ----------------------------------------------------------------------------- 

 LDA part: xc-table for Pade appr. of Perdew
 POSCAR, INCAR and KPOINTS ok, starting setup
 FFT: planning ...
 WAVECAR not read
 entering main loop
       N       E                     dE             d eps       ncg     rms          rms(c)
DAV:   1     0.439671568099E+04    0.43967E+04   -0.10053E+05   688   0.815E+02
DAV:   2     0.201122099914E+04   -0.23855E+04   -0.21461E+04  1224   0.105E+02
DAV:   3     0.228255359046E+03   -0.17830E+04   -0.16803E+04  1008   0.919E+01
DAV:   4    -0.134886660364E+03   -0.36314E+03   -0.30747E+03   824   0.436E+01
DAV:   5    -0.179941030909E+03   -0.45054E+02   -0.36854E+02  1048   0.147E+01    0.167E+01
RMM:   6    -0.180821630126E+03   -0.88060E+00   -0.66846E+01   730   0.950E+00    0.239E+01
RMM:   7    -0.184673780452E+03   -0.38522E+01   -0.21373E+01   850   0.512E+00    0.278E+01
RMM:   8    -0.183695180624E+03    0.97860E+00   -0.88251E+00   784   0.363E+00    0.236E+01
RMM:   9    -0.182701715502E+03    0.99347E+00   -0.67367E+00   722   0.378E+00    0.256E+01
RMM:  10    -0.181077156205E+03    0.16246E+01   -0.39777E+00   726   0.290E+00    0.260E+01
RMM:  11    -0.178680011894E+03    0.23971E+01   -0.20441E+00   741   0.204E+00    0.165E+01
RMM:  12    -0.177434254423E+03    0.12458E+01   -0.24766E+00   704   0.236E+00    0.201E+01
RMM:  13    -0.176968522845E+03    0.46573E+00   -0.13117E+00   722   0.165E+00    0.156E+01
RMM:  14    -0.177173520848E+03   -0.20500E+00   -0.15664E+00   714   0.183E+00    0.194E+01
RMM:  15    -0.176691349153E+03    0.48217E+00   -0.10079E+00   716   0.145E+00    0.150E+01
RMM:  16    -0.176267588114E+03    0.42376E+00   -0.10305E+00   712   0.151E+00    0.145E+01
RMM:  17    -0.175936622763E+03    0.33097E+00   -0.53580E-01   712   0.112E+00    0.115E+01
RMM:  18    -0.175828195106E+03    0.10843E+00   -0.50589E-01   700   0.109E+00    0.107E+01
RMM:  19    -0.175512357030E+03    0.31584E+00   -0.40478E-01   697   0.975E-01    0.835E+00
RMM:  20    -0.175366441277E+03    0.14592E+00   -0.29445E-01   702   0.842E-01    0.882E+00
RMM:  21    -0.175301163830E+03    0.65277E-01   -0.29002E-01   695   0.822E-01    0.726E+00
RMM:  22    -0.175280868518E+03    0.20295E-01   -0.20519E-01   701   0.704E-01    0.827E+00
RMM:  23    -0.175137661368E+03    0.14321E+00   -0.14162E-01   693   0.581E-01    0.645E+00
RMM:  24    -0.175040713687E+03    0.96948E-01   -0.11430E-01   694   0.514E-01    0.501E+00
RMM:  25    -0.175023428006E+03    0.17286E-01   -0.91787E-02   696   0.460E-01    0.496E+00
RMM:  26    -0.174986784983E+03    0.36643E-01   -0.73152E-02   695   0.421E-01    0.417E+00
RMM:  27    -0.174935217124E+03    0.51568E-01   -0.49877E-02   693   0.366E-01    0.301E+00
RMM:  28    -0.174915289344E+03    0.19928E-01   -0.28103E-02   693   0.278E-01    0.242E+00
RMM:  29    -0.174887218530E+03    0.28071E-01   -0.18688E-02   694   0.228E-01    0.130E+00
RMM:  30    -0.174889965648E+03   -0.27471E-02   -0.13039E-02   693   0.183E-01    0.156E+00
RMM:  31    -0.174879640035E+03    0.10326E-01   -0.99092E-03   693   0.161E-01    0.113E+00
RMM:  32    -0.174874210135E+03    0.54299E-02   -0.56527E-03   690   0.127E-01    0.830E-01
RMM:  33    -0.174875660600E+03   -0.14505E-02   -0.47480E-03   691   0.112E-01    0.964E-01
RMM:  34    -0.174871943367E+03    0.37172E-02   -0.34436E-03   689   0.985E-02    0.579E-01
RMM:  35    -0.174872189903E+03   -0.24654E-03   -0.22611E-03   690   0.803E-02    0.534E-01
RMM:  36    -0.174872919879E+03   -0.72998E-03   -0.18453E-03   690   0.695E-02    0.435E-01
RMM:  37    -0.174874111813E+03   -0.11919E-02   -0.12045E-03   688   0.556E-02    0.372E-01
RMM:  38    -0.174875606796E+03   -0.14950E-02   -0.80150E-04   688   0.457E-02    0.378E-01
RMM:  39    -0.174877776532E+03   -0.21697E-02   -0.74874E-04   675   0.440E-02    0.250E-01
RMM:  40    -0.174880191918E+03   -0.24154E-02   -0.62094E-04   624   0.378E-02    0.235E-01
RMM:  41    -0.174882983095E+03   -0.27912E-02   -0.50618E-04   553   0.335E-02    0.236E-01
RMM:  42    -0.174885222230E+03   -0.22391E-02   -0.42088E-04   504   0.295E-02    0.148E-01
RMM:  43    -0.174887250198E+03   -0.20280E-02   -0.32457E-04   443   0.260E-02    0.179E-01
RMM:  44    -0.174890637621E+03   -0.33874E-02   -0.62943E-04   570   0.305E-02    0.158E-01
RMM:  45    -0.174891580422E+03   -0.94280E-03   -0.20707E-04   426   0.195E-02    0.103E-01
RMM:  46    -0.174893552051E+03   -0.19716E-02   -0.27012E-04   443   0.193E-02    0.112E-01
RMM:  47    -0.174894411832E+03   -0.85978E-03   -0.13402E-04   412   0.151E-02    0.572E-02
RMM:  48    -0.174895222837E+03   -0.81100E-03   -0.84187E-05   409   0.115E-02    0.616E-02
RMM:  49    -0.174896462417E+03   -0.12396E-02   -0.76025E-05   407   0.105E-02    0.394E-02
RMM:  50    -0.174896970853E+03   -0.50844E-03   -0.40853E-05   397   0.767E-03    0.377E-02
RMM:  51    -0.174897832019E+03   -0.86117E-03   -0.33772E-05   403   0.694E-03    0.356E-02
RMM:  52    -0.174898225836E+03   -0.39382E-03   -0.17953E-05   324   0.540E-03    0.186E-02
RMM:  53    -0.174898762698E+03   -0.53686E-03   -0.15737E-05   312   0.503E-03    0.230E-02
RMM:  54    -0.174899144166E+03   -0.38147E-03   -0.87872E-06   217   0.439E-03    0.132E-02
RMM:  55    -0.174899398625E+03   -0.25446E-03   -0.79534E-06   217   0.428E-03    0.165E-02
RMM:  56    -0.174899752875E+03   -0.35425E-03   -0.13026E-05   237   0.439E-03    0.106E-02
RMM:  57    -0.174899943695E+03   -0.19082E-03   -0.71968E-06   181   0.389E-03    0.950E-03
RMM:  58    -0.174900182997E+03   -0.23930E-03   -0.13847E-05   220   0.420E-03    0.729E-03
RMM:  59    -0.174900277391E+03   -0.94394E-04   -0.41251E-06   139   0.361E-03
   1 F= -.17490028E+03 E0= -.17489297E+03  d E =-.292148E-01
================================= SLURM INFO ===================================
Command: run-cluster -n 1 -m 10000 -j 0060_vasp --same-node /opt/VASP/vasp
Exit code: 0
Job name: 0060_vasp
Job time: 0 days 5h:4m:0s
MPI task count: 1
Working dir: /home/pashkov/pyFitIt/pyfitit/data/random_pd_co_new/sample/0060
Job was running on nodes: h4
Task per node: 1
       JobID     MaxRSS  MaxDiskRead MaxDiskWrite    Elapsed    JobName 
------------ ---------- ------------ ------------ ---------- ---------- 
105164                                              05:04:00  0060_vasp 
105164.batch                                        05:04:00      batch 
