   57   57    1    1
  0.4736842E+03  0.3000000E-08  0.3000000E-08  0.3000000E-08  0.5000000E-15
  1.000000000000000E-004
  CAR 
 6_Pd100_top_free_z(O)                   
    560      1    336
 
  0.0000000E+00  0.0000000E+00  0.0000000E+00  0.1000000E+01
    1      -29.712750   1.000000
    2      -14.568734   1.000000
    3      -13.270597   1.000000
    4      -12.645782   1.000000
    5      -11.159584   1.000000
    6       -7.945311   1.000000
    7       -6.811144   1.000000
    8       -6.654648   1.000000
    9       -6.330275   1.000000
   10       -6.269687   1.000000
   11       -6.185674   1.000000
   12       -6.112466   1.000000
   13       -6.090619   1.000000
   14       -5.994263   1.000000
   15       -5.885126   1.000000
   16       -5.858855   1.000000
   17       -5.839644   1.000000
   18       -5.812505   1.000000
   19       -5.778784   1.000000
   20       -5.750223   1.000000
   21       -5.723856   1.000000
   22       -5.657684   1.000000
   23       -5.654995   1.000000
   24       -5.645954   1.000000
   25       -5.633418   1.000000
   26       -5.600376   1.000000
   27       -5.586835   1.000000
   28       -5.565563   1.000000
   29       -5.553339   1.000000
   30       -5.542070   1.000000
   31       -5.531126   1.000000
   32       -5.523657   1.000000
   33       -5.513308   1.000000
   34       -5.507721   1.000000
   35       -5.501833   1.000000
   36       -5.496626   1.000000
   37       -5.487562   1.000000
   38       -5.481166   1.000000
   39       -5.476779   1.000000
   40       -5.470311   1.000000
   41       -5.467827   1.000000
   42       -5.465271   1.000000
   43       -5.456078   1.000000
   44       -5.440606   1.000000
   45       -5.436580   1.000000
   46       -5.434956   1.000000
   47       -5.429839   1.000000
   48       -5.425459   1.000000
   49       -5.422448   1.000000
   50       -5.404510   1.000000
   51       -5.402726   1.000000
   52       -5.395649   1.000000
   53       -5.391091   1.000000
   54       -5.385763   1.000000
   55       -5.372999   1.000000
   56       -5.367052   1.000000
   57       -5.361120   1.000000
   58       -5.345497   1.000000
   59       -5.340104   1.000000
   60       -5.326835   1.000000
   61       -5.322417   1.000000
   62       -5.320106   1.000000
   63       -5.295906   1.000000
   64       -5.288703   1.000000
   65       -5.285635   1.000000
   66       -5.283082   1.000000
   67       -5.279922   1.000000
   68       -5.278964   1.000000
   69       -5.262250   1.000000
   70       -5.256695   1.000000
   71       -5.253474   1.000000
   72       -5.218610   1.000000
   73       -5.197512   1.000000
   74       -5.195105   1.000000
   75       -5.170776   1.000000
   76       -5.165953   1.000000
   77       -5.162680   1.000000
   78       -5.153980   1.000000
   79       -5.150408   1.000000
   80       -5.145203   1.000000
   81       -5.140756   1.000000
   82       -5.137308   1.000000
   83       -5.127025   1.000000
   84       -5.114705   1.000000
   85       -5.103040   1.000000
   86       -5.094985   1.000000
   87       -5.090509   1.000000
   88       -5.084178   1.000000
   89       -5.079652   1.000000
   90       -5.073534   1.000000
   91       -5.069566   1.000000
   92       -5.061766   1.000000
   93       -5.048661   1.000000
   94       -5.043577   1.000000
   95       -5.032796   1.000000
   96       -5.025057   1.000000
   97       -5.018141   1.000000
   98       -5.016302   1.000000
   99       -5.014855   1.000000
  100       -5.007125   1.000000
  101       -5.000330   1.000000
  102       -4.995805   1.000000
  103       -4.986468   1.000000
  104       -4.982694   1.000000
  105       -4.979011   1.000000
  106       -4.976798   1.000000
  107       -4.970057   1.000000
  108       -4.964877   1.000000
  109       -4.961494   1.000000
  110       -4.956965   1.000000
  111       -4.953007   1.000000
  112       -4.947335   1.000000
  113       -4.943200   1.000000
  114       -4.939352   1.000000
  115       -4.931661   1.000000
  116       -4.924256   0.999999
  117       -4.918842   0.999999
  118       -4.915914   0.999999
  119       -4.913398   0.999999
  120       -4.897831   0.999999
  121       -4.891312   0.999998
  122       -4.887968   0.999998
  123       -4.883972   0.999998
  124       -4.881000   0.999998
  125       -4.869311   0.999996
  126       -4.868967   0.999996
  127       -4.862207   0.999995
  128       -4.847448   0.999993
  129       -4.843181   0.999992
  130       -4.840228   0.999991
  131       -4.830334   0.999987
  132       -4.826476   0.999986
  133       -4.815515   0.999980
  134       -4.812485   0.999978
  135       -4.803710   0.999972
  136       -4.801079   0.999970
  137       -4.797562   0.999967
  138       -4.786234   0.999954
  139       -4.784040   0.999951
  140       -4.772595   0.999933
  141       -4.768968   0.999926
  142       -4.747154   0.999869
  143       -4.736788   0.999830
  144       -4.717978   0.999732
  145       -4.716139   0.999720
  146       -4.708266   0.999664
  147       -4.704350   0.999633
  148       -4.699832   0.999594
  149       -4.694408   0.999543
  150       -4.684077   0.999429
  151       -4.679328   0.999369
  152       -4.672146   0.999270
  153       -4.658333   0.999042
  154       -4.656110   0.999000
  155       -4.651517   0.998911
  156       -4.646798   0.998812
  157       -4.643184   0.998732
  158       -4.640976   0.998681
  159       -4.639489   0.998646
  160       -4.630723   0.998427
  161       -4.626373   0.998309
  162       -4.622444   0.998198
  163       -4.622018   0.998185
  164       -4.618980   0.998096
  165       -4.616910   0.998033
  166       -4.613779   0.997937
  167       -4.608044   0.997752
  168       -4.606611   0.997705
  169       -4.604756   0.997643
  170       -4.597186   0.997381
  171       -4.590693   0.997147
  172       -4.589971   0.997120
  173       -4.577842   0.996668
  174       -4.567496   0.996280
  175       -4.566020   0.996226
  176       -4.562659   0.996103
  177       -4.560924   0.996041
  178       -4.559618   0.995994
  179       -4.552500   0.995751
  180       -4.550028   0.995672
  181       -4.543805   0.995485
  182       -4.540594   0.995399
  183       -4.527504   0.995136
  184       -4.525445   0.995111
  185       -4.522968   0.995087
  186       -4.519778   0.995069
  187       -4.517589   0.995065
  188       -4.516892   0.995065
  189       -4.512517   0.995084
  190       -4.504824   0.995199
  191       -4.494702   0.995537
  192       -4.491135   0.995714
  193       -4.482006   0.996324
  194       -4.478271   0.996644
  195       -4.468299   0.997725
  196       -4.464850   0.998181
  197       -4.461828   0.998617
  198       -4.459236   0.999019
  199       -4.452642   1.000164
  200       -4.449988   1.000676
  201       -4.447999   1.001079
  202       -4.444136   1.001911
  203       -4.442691   1.002239
  204       -4.431218   1.005177
  205       -4.424663   1.007124
  206       -4.423994   1.007334
  207       -4.418266   1.009214
  208       -4.413954   1.010725
  209       -4.411656   1.011564
  210       -4.408205   1.012865
  211       -4.401090   1.015700
  212       -4.392101   1.019548
  213       -4.387525   1.021604
  214       -4.383139   1.023625
  215       -4.378298   1.025902
  216       -4.376116   1.026941
  217       -4.373263   1.028306
  218       -4.367757   1.030956
  219       -4.365794   1.031901
  220       -4.361859   1.033788
  221       -4.359483   1.034919
  222       -4.347391   1.040466
  223       -4.346313   1.040936
  224       -4.331259   1.046784
  225       -4.317149   1.050487
  226       -4.315495   1.050768
  227       -4.313380   1.051073
  228       -4.310160   1.051415
  229       -4.307688   1.051569
  230       -4.303936   1.051613
  231       -4.301523   1.051512
  232       -4.297838   1.051152
  233       -4.295611   1.050806
  234       -4.293646   1.050418
  235       -4.292658   1.050192
  236       -4.291841   1.049989
  237       -4.289199   1.049235
  238       -4.284394   1.047454
  239       -4.280074   1.045378
  240       -4.278221   1.044342
  241       -4.275603   1.042725
  242       -4.270899   1.039347
  243       -4.268491   1.037375
  244       -4.265316   1.034514
  245       -4.262640   1.031865
  246       -4.258055   1.026806
  247       -4.250565   1.017063
  248       -4.249105   1.014943
  249       -4.243611   1.006297
  250       -4.239658   0.999410
  251       -4.238550   0.997377
  252       -4.236329   0.993166
  253       -4.231346   0.983051
  254       -4.222895   0.963742
  255       -4.220096   0.956743
  256       -4.215897   0.945673
  257       -4.213214   0.938241
  258       -4.211047   0.932036
  259       -4.210107   0.929287
  260       -4.207425   0.921257
  261       -4.205091   0.914042
  262       -4.202845   0.906905
  263       -4.199607   0.896273
  264       -4.199011   0.894272
  265       -4.197527   0.889233
  266       -4.194053   0.877120
  267       -4.189122   0.859158
  268       -4.183922   0.839269
  269       -4.181480   0.829605
  270       -4.180939   0.827438
  271       -4.177461   0.813260
  272       -4.175164   0.803679
  273       -4.166259   0.764976
  274       -4.157659   0.725438
  275       -4.153410   0.705202
  276       -4.147040   0.674098
  277       -4.146322   0.670540
  278       -4.137987   0.628558
  279       -4.135695   0.616819
  280       -4.131504   0.595175
  281       -4.122544   0.548313
  282       -4.121251   0.541501
  283       -4.111091   0.487816
  284       -4.096903   0.413228
  285       -4.095614   0.406529
  286       -4.085259   0.353444
  287       -4.081860   0.336384
  288       -4.076555   0.310190
  289       -3.974383  -0.019634
  290       -3.877157  -0.039474
  291       -3.846646  -0.025029
  292       -3.785673  -0.002607
  293       -3.782580  -0.001894
  294       -3.642259   0.003081
  295       -3.473736   0.000113
  296       -3.444772   0.000052
  297       -3.217464   0.000000
  298       -3.042809   0.000000
  299       -3.030428   0.000000
  300       -2.995821   0.000000
  301       -2.982010   0.000000
  302       -2.972494   0.000000
  303       -2.963546   0.000000
  304       -2.874355   0.000000
  305       -2.707869   0.000000
  306       -2.492730   0.000000
  307       -2.463180   0.000000
  308       -2.400768   0.000000
  309       -2.293101   0.000000
  310       -2.201838   0.000000
  311       -2.091577   0.000000
  312       -2.004093   0.000000
  313       -1.931044   0.000000
  314       -1.907786   0.000000
  315       -1.837818   0.000000
  316       -1.825366   0.000000
  317       -1.808661   0.000000
  318       -1.724602   0.000000
  319       -1.641771   0.000000
  320       -1.607104   0.000000
  321       -1.543358   0.000000
  322       -1.529902   0.000000
  323       -1.323396   0.000000
  324       -1.286940   0.000000
  325       -1.259453   0.000000
  326       -1.203347   0.000000
  327       -1.192666   0.000000
  328       -1.085570   0.000000
  329       -0.960605   0.000000
  330       -0.958500   0.000000
  331       -0.912595   0.000000
  332       -0.893604   0.000000
  333       -0.842904   0.000000
  334       -0.782158   0.000000
  335       -0.761690   0.000000
  336       -0.709506   0.000000
