 vasp.5.4.4.18Apr17-6-g9f103f2a35 (build Sep 03 2018 23:53:05) complex          
  
 executed on             LinuxIFC date 2021.12.01  15:34:40
 running on    1 total cores
 distrk:  each k-point on    1 cores,    1 groups
 distr:  one band on NCORES_PER_BAND=   1 cores,    1 groups


--------------------------------------------------------------------------------------------------------


 INCAR:
 POTCAR:    PAW_PBE Pd 04Jan2005                  
 POTCAR:    PAW_PBE C 08Apr2002                   
 POTCAR:    PAW_PBE O 08Apr2002                   
 POTCAR:    PAW_PBE Pd 04Jan2005                  
   VRHFIN =Pd : s1 d9                                                           
   LEXCH  = PE                                                                  
   EATOM  =   809.7530 eV,   59.5152 Ry                                         
                                                                                
   TITEL  = PAW_PBE Pd 04Jan2005                                                
   LULTRA =        F    use ultrasoft PP ?                                      
   IUNSCR =        1    unscreen: 0-lin 1-nonlin 2-no                           
   RPACOR =    2.000    partial core radius                                     
   POMASS =  106.420; ZVAL   =   10.000    mass and valenz                      
   RCORE  =    2.600    outmost cutoff radius                                   
   RWIGS  =    2.710; RWIGS  =    1.434    wigner-seitz radius (au A)           
   ENMAX  =  250.925; ENMIN  =  188.194 eV                                      
   ICORE  =        3    local potential                                         
   LCOR   =        T    correct aug charges                                     
   LPAW   =        T    paw PP                                                  
   EAUG   =  416.230                                                            
   DEXC   =    0.000                                                            
   RMAX   =    2.653    core radius for proj-oper                               
   RAUG   =    1.300    factor for augmentation sphere                          
   RDEP   =    2.734    radius for radial grids                                 
   RDEPT  =    2.103    core radius for aug-charge                              
                                                                                
   Atomic configuration                                                         
   12 entries                                                                   
     n  l   j            E        occ.                                          
     1  0  0.50    -24164.6631   2.0000                                         
     2  0  0.50     -3530.9218   2.0000                                         
     2  1  1.50     -3165.6822   6.0000                                         
     3  0  0.50      -639.4577   2.0000                                         
     3  1  1.50      -519.4532   6.0000                                         
     3  2  2.50      -328.9757  10.0000                                         
     4  0  0.50       -88.7014   2.0000                                         
     4  1  1.50       -54.4540   6.0000                                         
     4  2  2.50        -6.6878   9.0000                                         
     5  0  0.50        -4.3543   1.0000                                         
     5  1  0.50        -1.3606   0.0000                                         
     4  3  2.50        -1.3606   0.0000                                         
   Description                                                                  
     l       E           TYP  RCUT    TYP  RCUT                                 
     2     -6.6878251     23  2.400                                             
     2     -8.0484077     23  2.400                                             
     0     -4.3542939     23  2.400                                             
     0      4.3406793     23  2.400                                             
     1     -4.0817478     23  2.600                                             
     1     15.8380318     23  2.600                                             
     3     -4.0817478     23  2.400                                             
  local pseudopotential read in
  partial core-charges read in
  partial kinetic energy density read in
  atomic valenz-charges read in
  non local Contribution for L=           2  read in
    real space projection operators read in
  non local Contribution for L=           2  read in
    real space projection operators read in
  non local Contribution for L=           0  read in
    real space projection operators read in
  non local Contribution for L=           0  read in
    real space projection operators read in
  non local Contribution for L=           1  read in
    real space projection operators read in
  non local Contribution for L=           1  read in
    real space projection operators read in
    PAW grid and wavefunctions read in
 
   number of l-projection  operators is LMAX  =           6
   number of lm-projection operators is LMMAX =          18
 
 POTCAR:    PAW_PBE C 08Apr2002                   
   VRHFIN =C: s2p2                                                              
   LEXCH  = PE                                                                  
   EATOM  =   147.1560 eV,   10.8157 Ry                                         
                                                                                
   TITEL  = PAW_PBE C 08Apr2002                                                 
   LULTRA =        F    use ultrasoft PP ?                                      
   IUNSCR =        1    unscreen: 0-lin 1-nonlin 2-no                           
   RPACOR =    1.200    partial core radius                                     
   POMASS =   12.011; ZVAL   =    4.000    mass and valenz                      
   RCORE  =    1.500    outmost cutoff radius                                   
   RWIGS  =    1.630; RWIGS  =    0.863    wigner-seitz radius (au A)           
   ENMAX  =  400.000; ENMIN  =  300.000 eV                                      
   ICORE  =        2    local potential                                         
   LCOR   =        T    correct aug charges                                     
   LPAW   =        T    paw PP                                                  
   EAUG   =  644.873                                                            
   DEXC   =    0.000                                                            
   RMAX   =    1.529    core radius for proj-oper                               
   RAUG   =    1.300    factor for augmentation sphere                          
   RDEP   =    1.501    radius for radial grids                                 
   RDEPT  =    1.300    core radius for aug-charge                              
                                                                                
   Atomic configuration                                                         
    4 entries                                                                   
     n  l   j            E        occ.                                          
     1  0  0.50      -273.3789   2.0000                                         
     2  0  0.50       -13.7508   2.0000                                         
     2  1  0.50        -5.2854   2.0000                                         
     3  2  1.50        -5.4423   0.0000                                         
   Description                                                                  
     l       E           TYP  RCUT    TYP  RCUT                                 
     0    -13.7508458     23  1.200                                             
     0     -8.2022199     23  1.200                                             
     1     -5.2854383     23  1.500                                             
     1     34.0145650     23  1.500                                             
     2     -5.4423304      7  1.500                                             
  local pseudopotential read in
  partial core-charges read in
  partial kinetic energy density read in
  atomic valenz-charges read in
  non local Contribution for L=           0  read in
    real space projection operators read in
  non local Contribution for L=           0  read in
    real space projection operators read in
  non local Contribution for L=           1  read in
    real space projection operators read in
  non local Contribution for L=           1  read in
    real space projection operators read in
    PAW grid and wavefunctions read in
 
   number of l-projection  operators is LMAX  =           4
   number of lm-projection operators is LMMAX =           8
 
 POTCAR:    PAW_PBE O 08Apr2002                   
   VRHFIN =O: s2p4                                                              
   LEXCH  = PE                                                                  
   EATOM  =   432.3788 eV,   31.7789 Ry                                         
                                                                                
   TITEL  = PAW_PBE O 08Apr2002                                                 
   LULTRA =        F    use ultrasoft PP ?                                      
   IUNSCR =        1    unscreen: 0-lin 1-nonlin 2-no                           
   RPACOR =    1.200    partial core radius                                     
   POMASS =   16.000; ZVAL   =    6.000    mass and valenz                      
   RCORE  =    1.520    outmost cutoff radius                                   
   RWIGS  =    1.550; RWIGS  =    0.820    wigner-seitz radius (au A)           
   ENMAX  =  400.000; ENMIN  =  300.000 eV                                      
   ICORE  =        2    local potential                                         
   LCOR   =        T    correct aug charges                                     
   LPAW   =        T    paw PP                                                  
   EAUG   =  605.392                                                            
   DEXC   =    0.000                                                            
   RMAX   =    1.553    core radius for proj-oper                               
   RAUG   =    1.300    factor for augmentation sphere                          
   RDEP   =    1.550    radius for radial grids                                 
   RDEPT  =    1.329    core radius for aug-charge                              
                                                                                
   Atomic configuration                                                         
    4 entries                                                                   
     n  l   j            E        occ.                                          
     1  0  0.50      -514.6923   2.0000                                         
     2  0  0.50       -23.9615   2.0000                                         
     2  1  0.50        -9.0305   4.0000                                         
     3  2  1.50        -9.5241   0.0000                                         
   Description                                                                  
     l       E           TYP  RCUT    TYP  RCUT                                 
     0    -23.9615318     23  1.200                                             
     0     -9.5240782     23  1.200                                             
     1     -9.0304911     23  1.520                                             
     1      8.1634956     23  1.520                                             
     2     -9.5240782      7  1.500                                             
  local pseudopotential read in
  partial core-charges read in
  partial kinetic energy density read in
  kinetic energy density of atom read in
  atomic valenz-charges read in
  non local Contribution for L=           0  read in
    real space projection operators read in
  non local Contribution for L=           0  read in
    real space projection operators read in
  non local Contribution for L=           1  read in
    real space projection operators read in
  non local Contribution for L=           1  read in
    real space projection operators read in
    PAW grid and wavefunctions read in
 
   number of l-projection  operators is LMAX  =           4
   number of lm-projection operators is LMMAX =           8
 
 Optimization of the real space projectors (new method)

 maximal supplied QI-value         = 14.36
 optimisation between [QCUT,QGAM] = [ 10.20, 20.39] = [ 29.12,116.47] Ry 
 Optimized for a Real-space Cutoff    1.51 Angstroem

   l    n(q)    QCUT    max X(q) W(low)/X(q) W(high)/X(q)  e(spline) 
   2      8    10.197    59.108    0.26E-03    0.14E-03    0.96E-07
   2      8    10.197    58.101    0.27E-03    0.14E-03    0.98E-07
   0      9    10.197   102.235    0.54E-04    0.60E-05    0.72E-07
   0      9    10.197    58.388    0.52E-04    0.60E-05    0.68E-07
   1      9    10.197    22.191    0.18E-03    0.25E-03    0.79E-07
   1      9    10.197    15.590    0.15E-03    0.21E-03    0.69E-07
 Optimization of the real space projectors (new method)

 maximal supplied QI-value         = 25.13
 optimisation between [QCUT,QGAM] = [ 10.05, 20.36] = [ 28.30,116.06] Ry 
 Optimized for a Real-space Cutoff    1.30 Angstroem

   l    n(q)    QCUT    max X(q) W(low)/X(q) W(high)/X(q)  e(spline) 
   0      8    10.053   115.676    0.49E-03    0.72E-03    0.18E-06
   0      8    10.053    87.132    0.49E-03    0.71E-03    0.18E-06
   1      7    10.053     4.429    0.32E-03    0.31E-03    0.18E-06
   1      7    10.053     2.733    0.23E-03    0.19E-03    0.20E-06
 Optimization of the real space projectors (new method)

 maximal supplied QI-value         = 24.76
 optimisation between [QCUT,QGAM] = [ 10.15, 20.30] = [ 28.85,115.39] Ry 
 Optimized for a Real-space Cutoff    1.38 Angstroem

   l    n(q)    QCUT    max X(q) W(low)/X(q) W(high)/X(q)  e(spline) 
   0      8    10.150    20.381    0.22E-03    0.32E-03    0.29E-06
   0      8    10.150    15.268    0.23E-03    0.35E-03    0.30E-06
   1      8    10.150     5.964    0.46E-03    0.53E-03    0.21E-06
   1      8    10.150     5.382    0.38E-03    0.45E-03    0.19E-06

 ----------------------------------------------------------------------------- 
|                                                                             |
|  ADVICE TO THIS USER RUNNING 'VASP/VAMP'   (HEAR YOUR MASTER'S VOICE ...):  |
|                                                                             |
|      You enforced a specific xc-type in the INCAR file,                     |
|      a different type was found on the POTCAR file                          |
|          I HOPE YOU KNOW, WHAT YOU ARE  DOING                               |
|                                                                             |
 ----------------------------------------------------------------------------- 

  PAW_PBE Pd 04Jan2005                  :
 energy of atom  1       EATOM= -809.7530
 kinetic energy error for atom=    0.0091 (will be added to EATOM!!)
  PAW_PBE C 08Apr2002                   :
 energy of atom  2       EATOM= -147.1560
 kinetic energy error for atom=    0.0288 (will be added to EATOM!!)
  PAW_PBE O 08Apr2002                   :
 energy of atom  3       EATOM= -432.3788
 kinetic energy error for atom=    0.1156 (will be added to EATOM!!)
 
 
 POSCAR: Pd55PES                                 
  positions in cartesian coordinates
  No initial velocities read in
 exchange correlation table for  LEXCH =        9
   RHO(1)=    0.500       N(1)  =     2000
   RHO(2)=  100.500       N(2)  =     4000
 


--------------------------------------------------------------------------------------------------------


 ion  position               nearest neighbor table
   1  0.446  0.328  0.417-   3 3.25   5 3.25   7 3.36  15 3.36  29 3.42  28 3.42
   2  0.672  0.554  0.417-  57 2.27  56 2.54  26 3.25  30 3.25  17 3.36   9 3.36  47 3.42  49 3.42

   3  0.554  0.328  0.417-   1 3.25   5 3.25   7 3.36  11 3.36  29 3.42  21 3.42
   4  0.328  0.554  0.417-  32 3.25  22 3.25  13 3.36   8 3.36  43 3.42  48 3.42
   5  0.500  0.383  0.340-   1 3.25   3 3.25  11 3.36  15 3.36  21 3.42  28 3.42
   6  0.500  0.383  0.660-  24 3.25  19 3.25  16 3.36  12 3.36  42 3.42  44 3.42
   7  0.500  0.276  0.500-  29 3.24   3 3.36   1 3.36  19 3.36  24 3.36
   8  0.276  0.500  0.500-  48 3.24  22 3.36  40 3.36   4 3.36  25 3.36
   9  0.724  0.500  0.500-  49 3.24  26 3.36  45 3.36   2 3.36  20 3.36
  10  0.500  0.724  0.500-  55 3.24  27 3.36  23 3.36  46 3.36  41 3.36
  11  0.612  0.388  0.342-  21 3.24   5 3.36   3 3.36  30 3.36  26 3.36
  12  0.612  0.388  0.658-  42 3.24  24 3.36  45 3.36   6 3.36  31 3.36
  13  0.388  0.612  0.342-  43 3.24  32 3.36  50 3.36   4 3.36  27 3.36
  14  0.388  0.612  0.658-  53 3.24  25 3.36  33 3.36  51 3.36  46 3.36
  15  0.388  0.388  0.342-  28 3.24   5 3.36   1 3.36  32 3.36  22 3.36
  16  0.388  0.388  0.658-  44 3.24  19 3.36  40 3.36   6 3.36  33 3.36
  17  0.612  0.612  0.342-  47 3.24  30 3.36  50 3.36   2 3.36  23 3.36
  18  0.612  0.612  0.658-  54 3.24  31 3.36  20 3.36  51 3.36  41 3.36
  19  0.446  0.328  0.583-   6 3.25  24 3.25  16 3.36   7 3.36  44 3.42  29 3.42
  20  0.672  0.554  0.583-  31 3.25  45 3.25  18 3.36   9 3.36  54 3.42  49 3.42
  21  0.558  0.442  0.418-  11 3.24   5 3.42   3 3.42  30 3.42  26 3.42
  22  0.328  0.446  0.417-   4 3.25  32 3.25   8 3.36  15 3.36  48 3.42  28 3.42
  23  0.554  0.672  0.417-  27 3.25  50 3.25  10 3.36  17 3.36  55 3.42  47 3.42
  24  0.554  0.328  0.583-   6 3.25  19 3.25  12 3.36   7 3.36  42 3.42  29 3.42
  25  0.328  0.554  0.583-  33 3.25  40 3.25  14 3.36   8 3.36  53 3.42  48 3.42
  26  0.672  0.446  0.417-   2 3.25  30 3.25   9 3.36  11 3.36  49 3.42  21 3.42
  27  0.446  0.672  0.417-  23 3.25  50 3.25  10 3.36  13 3.36  55 3.42  43 3.42
  28  0.442  0.442  0.418-  15 3.24   5 3.42   1 3.42  32 3.42  22 3.42
  29  0.500  0.384  0.500-   7 3.24   3 3.42   1 3.42  24 3.42  19 3.42
  30  0.617  0.500  0.340-   2 3.25  26 3.25  17 3.36  11 3.36  47 3.42  21 3.42
  31  0.617  0.500  0.660-  20 3.25  45 3.25  18 3.36  12 3.36  54 3.42  42 3.42
  32  0.383  0.500  0.340-   4 3.25  22 3.25  13 3.36  15 3.36  43 3.42  28 3.42
  33  0.383  0.500  0.660-  25 3.25  40 3.25  14 3.36  16 3.36  53 3.42  44 3.42
  34  0.383  0.383  0.500-
  35  0.617  0.617  0.500-  56 1.78  57 1.95
  36  0.617  0.383  0.500-
  37  0.383  0.617  0.500-
  38  0.500  0.500  0.335-
  39  0.500  0.500  0.665-
  40  0.328  0.446  0.583-  33 3.25  25 3.25  16 3.36   8 3.36  44 3.42  48 3.42
  41  0.554  0.672  0.583-  46 3.25  51 3.25  10 3.36  18 3.36  54 3.42  55 3.42
  42  0.558  0.442  0.582-  12 3.24   6 3.42  24 3.42  31 3.42  45 3.42
  43  0.442  0.558  0.418-  13 3.24   4 3.42  32 3.42  27 3.42  50 3.42
  44  0.442  0.442  0.582-  16 3.24   6 3.42  19 3.42  33 3.42  40 3.42
  45  0.672  0.446  0.583-  20 3.25  31 3.25   9 3.36  12 3.36  49 3.42  42 3.42
  46  0.446  0.672  0.583-  41 3.25  51 3.25  10 3.36  14 3.36  53 3.42  55 3.42
  47  0.558  0.558  0.418-  17 3.24   2 3.42  30 3.42  23 3.42  50 3.42
  48  0.384  0.500  0.500-   8 3.24   4 3.42  22 3.42  25 3.42  40 3.42
  49  0.616  0.500  0.500-  56 1.89   9 3.24   2 3.42  26 3.42  20 3.42  45 3.42
  50  0.500  0.617  0.340-  27 3.25  23 3.25  13 3.36  17 3.36  43 3.42  47 3.42
  51  0.500  0.617  0.660-  41 3.25  46 3.25  14 3.36  18 3.36  53 3.42  54 3.42
  52  0.500  0.500  0.500-
  53  0.442  0.558  0.582-  14 3.24  25 3.42  33 3.42  51 3.42  46 3.42
  54  0.558  0.558  0.582-  18 3.24  31 3.42  20 3.42  51 3.42  41 3.42
  55  0.500  0.616  0.500-  10 3.24  23 3.42  27 3.42  41 3.42  46 3.42
  56  0.632  0.560  0.492-  57 1.13  35 1.78  49 1.89   2 2.54
  57  0.666  0.576  0.489-  56 1.13  35 1.95   2 2.27
 
  LATTYP: Found a simple cubic cell.
 ALAT       =    30.0000000000
  
  Lattice vectors:
  
 A1 = (  30.0000000000,   0.0000000000,   0.0000000000)
 A2 = (   0.0000000000,  30.0000000000,   0.0000000000)
 A3 = (   0.0000000000,   0.0000000000,  30.0000000000)


Analysis of symmetry for initial positions (statically):
=====================================================================
 Subroutine PRICEL returns:
 Original cell was already a primitive cell.
 

 Routine SETGRP: Setting up the symmetry group for a 
 simple cubic supercell.


 Subroutine GETGRP returns: Found  1 space group operations
 (whereof  1 operations were pure point group operations)
 out of a pool of 48 trial point group operations.


The static configuration has the point symmetry C_1 .


Analysis of symmetry for dynamics (positions and initial velocities):
=====================================================================
 Subroutine PRICEL returns:
 Original cell was already a primitive cell.
 

 Routine SETGRP: Setting up the symmetry group for a 
 simple cubic supercell.


 Subroutine GETGRP returns: Found  1 space group operations
 (whereof  1 operations were pure point group operations)
 out of a pool of 48 trial point group operations.


The dynamic configuration has the point symmetry C_1 .


Analysis of constrained symmetry for selective dynamics:
=====================================================================
 Subroutine PRICEL returns:
 Original cell was already a primitive cell.
 

 Routine SETGRP: Setting up the symmetry group for a 
 simple cubic supercell.


 Subroutine GETGRP returns: Found  1 space group operations
 (whereof  1 operations were pure point group operations)
 out of a pool of 48 trial point group operations.


The constrained configuration has the point symmetry C_1 .


 Subroutine INISYM returns: Found  1 space group operations
 (whereof  1 operations are pure point group operations),
 and found     1 'primitive' translations

 
 
 KPOINTS: K-points                                

Automatic generation of k-mesh.
Space group operators:
 irot       det(A)        alpha          n_x          n_y          n_z        tau_x        tau_y        tau_z
    1     1.000000     0.000000     1.000000     0.000000     0.000000     0.000000     0.000000     0.000000
 
 Subroutine IBZKPT returns following result:
 ===========================================
 
 Found      1 irreducible k-points:
 
 Following reciprocal coordinates:
            Coordinates               Weight
  0.000000  0.000000  0.000000      1.000000
 
 Following cartesian coordinates:
            Coordinates               Weight
  0.000000  0.000000  0.000000      1.000000
 


--------------------------------------------------------------------------------------------------------




 Dimension of arrays:
   k-points           NKPTS =      1   k-points in BZ     NKDIM =      1   number of bands    NBANDS=    336
   number of dos      NEDOS =    301   number of ions     NIONS =     57
   non local maximal  LDIM  =      6   non local SUM 2l+1 LMDIM =     18
   total plane-waves  NPLWV = ******
   max r-space proj   IRMAX =   1847   max aug-charges    IRDMAX=   6262
   dimension x,y,z NGX =   150 NGY =  150 NGZ =  150
   dimension x,y,z NGXF=   300 NGYF=  300 NGZF=  300
   support grid    NGXF=   300 NGYF=  300 NGZF=  300
   ions per type =              55   1   1
   NGX,Y,Z   is equivalent  to a cutoff of   8.31,  8.31,  8.31 a.u.
   NGXF,Y,Z  is equivalent  to a cutoff of  16.62, 16.62, 16.62 a.u.

 SYSTEM =  6_Pd100_top_free_z(O)                   
 POSCAR =  Pd55PES                                 

 Startparameter for this run:
   NWRITE =      2    write-flag & timer
   PREC   = normal    normal or accurate (medium, high low for compatibility)
   ISTART =      0    job   : 0-new  1-cont  2-samecut
   ICHARG =      2    charge: 1-file 2-atom 10-const
   ISPIN  =      1    spin polarized calculation?
   LNONCOLLINEAR =      F non collinear calculations
   LSORBIT =      F    spin-orbit coupling
   INIWAV =      1    electr: 0-lowe 1-rand  2-diag
   LASPH  =      F    aspherical Exc in radial PAW
   METAGGA=      F    non-selfconsistent MetaGGA calc.

 Electronic Relaxation 1
   ENCUT  =  400.0 eV  29.40 Ry    5.42 a.u.  48.92 48.92 48.92*2*pi/ulx,y,z
   ENINI  =  400.0     initial cutoff
   ENAUG  =  644.9 eV  augmentation charge cutoff
   NELM   =    100;   NELMIN=  6; NELMDL= -5     # of ELM steps 
   EDIFF  = 0.1E-03   stopping-criterion for ELM
   LREAL  =      T    real-space projection
   NLSPLINE    = F    spline interpolate recip. space projectors
   LCOMPAT=      F    compatible to vasp.4.4
   GGA_COMPAT  = T    GGA compatible to vasp.4.4-vasp.4.6
   LMAXPAW     = -100 max onsite density
   LMAXMIX     =    2 max onsite mixed and CHGCAR
   VOSKOWN=      0    Vosko Wilk Nusair interpolation
   ROPT   =   -0.00050  -0.00050  -0.00050
 Ionic relaxation
   EDIFFG = -.5E-01   stopping-criterion for IOM
   NSW    =      0    number of steps for IOM
   NBLOCK =      1;   KBLOCK =      1    inner block; outer block 
   IBRION =     -1    ionic relax: 0-MD 1-quasi-New 2-CG
   NFREE  =      1    steps in history (QN), initial steepest desc. (CG)
   ISIF   =      2    stress and relaxation
   IWAVPR =     10    prediction:  0-non 1-charg 2-wave 3-comb
   ISYM   =      2    0-nonsym 1-usesym 2-fastsym
   LCORR  =      T    Harris-Foulkes like correction to forces

   POTIM  = 0.5000    time-step for ionic-motion
   TEIN   =    0.0    initial temperature
   TEBEG  =    0.0;   TEEND  =   0.0 temperature during run
   SMASS  =  -3.00    Nose mass-parameter (am)
   estimated Nose-frequenzy (Omega)   =  0.10E-29 period in steps =****** mass=  -0.206E-25a.u.
   SCALEE = 1.0000    scale energy and forces
   NPACO  =    256;   APACO  = 16.0  distance and # of slots for P.C.
   PSTRESS=    0.0 pullay stress

  Mass of Ions in am
   POMASS = 106.42 12.01 16.00
  Ionic Valenz
   ZVAL   =  10.00  4.00  6.00
  Atomic Wigner-Seitz radii
   RWIGS  =  -1.00 -1.00 -1.00
  virtual crystal weights 
   VCA    =   1.00  1.00  1.00
   NELECT =     560.0000    total number of electrons
   NUPDOWN=      -1.0000    fix difference up-down

 DOS related values:
   EMIN   =  10.00;   EMAX   =-10.00  energy-range for DOS
   EFERMI =   0.00
   ISMEAR =     2;   SIGMA  =   0.20  broadening in eV -4-tet -1-fermi 0-gaus

 Electronic relaxation 2 (details)
   IALGO  =     68    algorithm
   LDIAG  =      T    sub-space diagonalisation (order eigenvalues)
   LSUBROT=      F    optimize rotation matrix (better conditioning)
   TURBO    =      0    0=normal 1=particle mesh
   IRESTART =      0    0=no restart 2=restart with 2 vectors
   NREBOOT  =      0    no. of reboots
   NMIN     =      0    reboot dimension
   EREF     =   0.00    reference energy to select bands
   IMIX   =      4    mixing-type and parameters
     AMIX     =   0.40;   BMIX     =  1.00
     AMIX_MAG =   1.60;   BMIX_MAG =  1.00
     AMIN     =   0.10
     WC   =   100.;   INIMIX=   1;  MIXPRE=   1;  MAXMIX= -45

 Intra band minimization:
   WEIMIN = 0.0000     energy-eigenvalue tresh-hold
   EBREAK =  0.74E-07  absolut break condition
   DEPER  =   0.30     relativ break condition  

   TIME   =   0.40     timestep for ELM

  volume/ion in A,a.u.               =     473.68      3196.58
  Fermi-wavevector in a.u.,A,eV,Ry     =   0.449797  0.849992  2.752691  0.202317
  Thomas-Fermi vector in A             =   1.430086
 
 Write flags
   LWAVE        =      F    write WAVECAR
   LDOWNSAMPLE  =      F    k-point downsampling of WAVECAR
   LCHARG       =      F    write CHGCAR
   LVTOT        =      F    write LOCPOT, total local potential
   LVHAR        =      F    write LOCPOT, Hartree potential only
   LELF         =      F    write electronic localiz. function (ELF)
   LORBIT       =      0    0 simple, 1 ext, 2 COOP (PROOUT), +10 PAW based schemes


 Dipole corrections
   LMONO  =      F    monopole corrections only (constant potential shift)
   LDIPOL =      F    correct potential (dipole corrections)
   IDIPOL =      0    1-x, 2-y, 3-z, 4-all directions 
   EPSILON=  1.0000000 bulk dielectric constant

 Exchange correlation treatment:
   GGA     =    RP    GGA type
   LEXCH   =     9    internal setting for exchange type
   VOSKOWN=      0    Vosko Wilk Nusair interpolation
   LHFCALC =     F    Hartree Fock is set to
   LHFONE  =     F    Hartree Fock one center treatment
   AEXX    =    0.0000 exact exchange contribution

 Linear response parameters
   LEPSILON=     F    determine dielectric tensor
   LRPA    =     F    only Hartree local field effects (RPA)
   LNABLA  =     F    use nabla operator in PAW spheres
   LVEL    =     F    velocity operator in full k-point grid
   LINTERFAST=   F  fast interpolation
   KINTER  =     0    interpolate to denser k-point grid
   CSHIFT  =0.1000    complex shift for real part using Kramers Kronig
   OMEGAMAX=  -1.0    maximum frequency
   DEG_THRESHOLD= 0.2000000E-02 threshold for treating states as degnerate
   RTIME   =   -0.100 relaxation time in fs
  (WPLASMAI=    0.000 imaginary part of plasma frequency in eV, 0.658/RTIME)
   DFIELD  = 0.0000000 0.0000000 0.0000000 field for delta impulse in time
 
 Orbital magnetization related:
   ORBITALMAG=     F  switch on orbital magnetization
   LCHIMAG   =     F  perturbation theory with respect to B field
   DQ        =  0.001000  dq finite difference perturbation B field
   LLRAUG    =     F  two centre corrections for induced B field



--------------------------------------------------------------------------------------------------------


 Static calculation
 charge density and potential will be updated during run
 non-spin polarized calculation
 RMM-DIIS sequential band-by-band and
  variant of blocked Davidson during initial phase
 perform sub-space diagonalisation
    before iterative eigenvector-optimisation
 modified Broyden-mixing scheme, WC =      100.0
 initial mixing is a Kerker type mixing with AMIX =  0.4000 and BMIX =      1.0000
 Hartree-type preconditioning will be used
 using additional bands           56
 real space projection scheme for non local part
 use partial core corrections
 calculate Harris-corrections to forces 
   (improved forces if not selfconsistent)
 use gradient corrections 
 use of overlap-Matrix (Vanderbilt PP)
 Methfessel and Paxton  Order N= 2 SIGMA  =   0.20


--------------------------------------------------------------------------------------------------------


  energy-cutoff  :      400.00
  volume of cell :    27000.00
      direct lattice vectors                 reciprocal lattice vectors
    30.000000000  0.000000000  0.000000000     0.033333333  0.000000000  0.000000000
     0.000000000 30.000000000  0.000000000     0.000000000  0.033333333  0.000000000
     0.000000000  0.000000000 30.000000000     0.000000000  0.000000000  0.033333333

  length of vectors
    30.000000000 30.000000000 30.000000000     0.033333333  0.033333333  0.033333333


 
 k-points in units of 2pi/SCALE and weight: K-points                                
   0.00000000  0.00000000  0.00000000       1.000
 
 k-points in reciprocal lattice and weights: K-points                                
   0.00000000  0.00000000  0.00000000       1.000
 
 position of ions in fractional coordinates (direct lattice) 
   0.44576020  0.32826710  0.41691983
   0.67173288  0.55423978  0.41691983
   0.55423980  0.32826710  0.41691983
   0.32826712  0.55423978  0.41691983
   0.50000000  0.38250690  0.34021317
   0.50000000  0.38250690  0.65978680
   0.50000000  0.27609440  0.50000000
   0.27609443  0.49999998  0.50000000
   0.72390557  0.49999998  0.50000000
   0.50000000  0.72390555  0.50000000
   0.61195280  0.38804720  0.34167483
   0.61195280  0.38804720  0.65832513
   0.38804722  0.61195278  0.34167483
   0.38804722  0.61195278  0.65832513
   0.38804720  0.38804720  0.34167483
   0.38804720  0.38804720  0.65832513
   0.61195278  0.61195278  0.34167483
   0.61195278  0.61195278  0.65832513
   0.44576020  0.32826710  0.58308023
   0.67173288  0.55423978  0.58308023
   0.55791699  0.44208301  0.41809300
   0.32826705  0.44576024  0.41691983
   0.55423973  0.67173293  0.41691983
   0.55423980  0.32826710  0.58308023
   0.32826712  0.55423978  0.58308023
   0.67173295  0.44576024  0.41691983
   0.44576027  0.67173293  0.41691983
   0.44208301  0.44208301  0.41809300
   0.50000000  0.38416601  0.50000000
   0.61749315  0.50000005  0.34021317
   0.61749315  0.50000005  0.65978680
   0.38250685  0.50000005  0.34021317
   0.38250685  0.50000005  0.65978680
   0.38317830  0.38317830  0.50000000
   0.61682172  0.61682172  0.50000000
   0.61682170  0.38317830  0.50000000
   0.38317828  0.61682172  0.50000000
   0.50000000  0.50000000  0.33478917
   0.50000000  0.50000000  0.66521087
   0.32826705  0.44576024  0.58308023
   0.55423973  0.67173293  0.58308023
   0.55791699  0.44208301  0.58190703
   0.44208298  0.55791702  0.41809300
   0.44208301  0.44208301  0.58190703
   0.67173295  0.44576024  0.58308023
   0.44576027  0.67173293  0.58308023
   0.55791702  0.55791702  0.41809300
   0.38416599  0.50000002  0.50000000
   0.61583401  0.50000002  0.50000000
   0.50000000  0.61749319  0.34021317
   0.50000000  0.61749319  0.65978680
   0.50000000  0.50000000  0.50000000
   0.44208298  0.55791702  0.58190703
   0.55791702  0.55791702  0.58190703
   0.50000000  0.61583404  0.50000000
   0.63215660  0.56030660  0.49152800
   0.66630537  0.57588960  0.48933887
 
 position of ions in cartesian coordinates  (Angst):
  13.37280588  9.84801292 12.50759500
  20.15198637 16.62719342 12.50759500
  16.62719412  9.84801292 12.50759500
   9.84801363 16.62719342 12.50759500
  15.00000000 11.47520705 10.20639500
  15.00000000 11.47520705 19.79360400
  15.00000000  8.28283206 15.00000000
   8.28283277 14.99999929 15.00000000
  21.71716723 14.99999929 15.00000000
  15.00000000 21.71716652 14.99999999
  18.35858397 11.64141603 10.25024500
  18.35858397 11.64141603 19.74975399
  11.64141674 18.35858326 10.25024500
  11.64141674 18.35858326 19.74975400
  11.64141603 11.64141603 10.25024500
  11.64141603 11.64141603 19.74975400
  18.35858326 18.35858326 10.25024500
  18.35858326 18.35858326 19.74975400
  13.37280588  9.84801291 17.49240700
  20.15198638 16.62719341 17.49240700
  16.73750985 13.26249015 12.54279000
   9.84801151 13.37280729 12.50759500
  16.62719200 20.15198779 12.50759500
  16.62719412  9.84801292 17.49240700
   9.84801363 16.62719342 17.49240700
  20.15198849 13.37280729 12.50759500
  13.37280800 20.15198779 12.50759500
  13.26249015 13.26249015 12.54279000
  15.00000000 11.52498029 15.00000000
  18.52479437 15.00000140 10.20639500
  18.52479437 15.00000141 19.79360400
  11.47520562 15.00000141 10.20639501
  11.47520563 15.00000141 19.79360400
  11.49534898 11.49534898 15.00000000
  18.50465172 18.50465172 15.00000000
  18.50465102 11.49534898 15.00000000
  11.49534828 18.50465172 15.00000000
  15.00000000 15.00000000 10.04367500
  15.00000000 15.00000000 19.95632599
   9.84801151 13.37280729 17.49240700
  16.62719200 20.15198779 17.49240700
  16.73750985 13.26249015 17.45721100
  13.26248944 16.73751056 12.54279001
  13.26249015 13.26249015 17.45721100
  20.15198849 13.37280729 17.49240699
  13.37280800 20.15198779 17.49240700
  16.73751056 16.73751056 12.54279000
  11.52497959 15.00000071 15.00000000
  18.47502041 15.00000071 15.00000000
  14.99999999 18.52479579 10.20639500
  15.00000000 18.52479578 19.79360400
  15.00000000 15.00000000 15.00000000
  13.26248944 16.73751057 17.45721101
  16.73751056 16.73751057 17.45721100
  15.00000000 18.47502112 15.00000000
  18.96469800 16.80919800 14.74584000
  19.98916100 17.27668800 14.68016600
 


--------------------------------------------------------------------------------------------------------


 k-point  1 :   0.0000 0.0000 0.0000  plane waves:  490521

 maximum and minimum number of plane-waves per node :    490521   490521

 maximum number of plane-waves:    490521
 maximum index in each direction: 
   IXMAX=   48   IYMAX=   48   IZMAX=   48
   IXMIN=  -48   IYMIN=  -48   IZMIN=  -48


 serial   3D FFT for wavefunctions
 parallel 3D FFT for charge:
    minimum data exchange during FFTs selected (reduces bandwidth)


 total amount of memory used by VASP MPI-rank0  5486941. kBytes
=======================================================================

   base      :      30000. kBytes
   nonlr-proj:      17126. kBytes
   fftplans  :     924480. kBytes
   grid      :    1872000. kBytes
   one-center:        886. kBytes
   wavefun   :    2642449. kBytes
 
     INWAV:  cpu time    0.0001: real time    0.0004
 Broyden mixing: mesh for mixing (old mesh)
   NGX = 97   NGY = 97   NGZ = 97
  (NGX  =300   NGY  =300   NGZ  =300)
  gives a total of 912673 points

 initial charge density was supplied:
 charge density of overlapping atoms calculated
 number of electron     560.0000000 magnetization 
 keeping initial charge density in first step


--------------------------------------------------------------------------------------------------------


 Maximum index for non-local projection operator         1763
 Maximum index for augmentation-charges         5898 (set IRDMAX)


--------------------------------------------------------------------------------------------------------


 First call to EWALD:  gamma=   0.059
 Maximum number of real-space cells 3x 3x 3
 Maximum number of reciprocal cells 3x 3x 3

    FEWALD:  cpu time    0.0147: real time    0.0147


--------------------------------------- Iteration      1(   1)  ---------------------------------------


    POTLOK:  cpu time   13.6576: real time   13.6623
    SETDIJ:  cpu time    0.1149: real time    0.1149
     EDDAV:  cpu time  348.0062: real time  348.0792
       DOS:  cpu time    0.0013: real time    0.0013
    --------------------------------------------
      LOOP:  cpu time  361.7799: real time  361.8577

 eigenvalue-minimisations  :   688
 total energy-change (2. order) : 0.4414338E+04  (-0.1005854E+05)
 number of electron     560.0000000 magnetization 
 augmentation part      560.0000000 magnetization 

 Free energy of the ion-electron system (eV)
  ---------------------------------------------------
  alpha Z        PSCENC =        75.25431677
  Ewald energy   TEWEN  =    141653.89736042
  -Hartree energ DENC   =   -184987.68659356
  -exchange      EXHF   =         0.00000000
  -V(xc)+E(xc)   XCENC  =     -1699.97158113
  PAW double counting   =     44873.02882129   -41398.84523641
  entropy T*S    EENTRO =         0.01983570
  eigenvalues    EBANDS =       812.13592761
  atomic energy  EATOM  =     45086.50549395
  Solvation  Ediel_sol  =         0.00000000
  ---------------------------------------------------
  free energy    TOTEN  =      4414.33834464 eV

  energy without entropy =     4414.31850894  energy(sigma->0) =     4414.33338572


--------------------------------------------------------------------------------------------------------




--------------------------------------- Iteration      1(   2)  ---------------------------------------


     EDDAV:  cpu time  558.5802: real time  558.5902
       DOS:  cpu time    0.0012: real time    0.0012
    --------------------------------------------
      LOOP:  cpu time  558.5814: real time  558.5914

 eigenvalue-minimisations  :  1224
 total energy-change (2. order) :-0.2399507E+04  (-0.2160225E+04)
 number of electron     560.0000000 magnetization 
 augmentation part      560.0000000 magnetization 

 Free energy of the ion-electron system (eV)
  ---------------------------------------------------
  alpha Z        PSCENC =        75.25431677
  Ewald energy   TEWEN  =    141653.89736042
  -Hartree energ DENC   =   -184987.68659356
  -exchange      EXHF   =         0.00000000
  -V(xc)+E(xc)   XCENC  =     -1699.97158113
  PAW double counting   =     44873.02882129   -41398.84523641
  entropy T*S    EENTRO =        -0.02351939
  eigenvalues    EBANDS =     -1587.32721769
  atomic energy  EATOM  =     45086.50549395
  Solvation  Ediel_sol  =         0.00000000
  ---------------------------------------------------
  free energy    TOTEN  =      2014.83184425 eV

  energy without entropy =     2014.85536364  energy(sigma->0) =     2014.83772409


--------------------------------------------------------------------------------------------------------




--------------------------------------- Iteration      1(   3)  ---------------------------------------


     EDDAV:  cpu time  471.7721: real time  471.7792
       DOS:  cpu time    0.0011: real time    0.0011
    --------------------------------------------
      LOOP:  cpu time  471.7732: real time  471.7802

 eigenvalue-minimisations  :  1000
 total energy-change (2. order) :-0.1777227E+04  (-0.1673437E+04)
 number of electron     560.0000000 magnetization 
 augmentation part      560.0000000 magnetization 

 Free energy of the ion-electron system (eV)
  ---------------------------------------------------
  alpha Z        PSCENC =        75.25431677
  Ewald energy   TEWEN  =    141653.89736042
  -Hartree energ DENC   =   -184987.68659356
  -exchange      EXHF   =         0.00000000
  -V(xc)+E(xc)   XCENC  =     -1699.97158113
  PAW double counting   =     44873.02882129   -41398.84523641
  entropy T*S    EENTRO =         0.01890480
  eigenvalues    EBANDS =     -3364.59673823
  atomic energy  EATOM  =     45086.50549395
  Solvation  Ediel_sol  =         0.00000000
  ---------------------------------------------------
  free energy    TOTEN  =       237.60474790 eV

  energy without entropy =      237.58584310  energy(sigma->0) =      237.60002170


--------------------------------------------------------------------------------------------------------




--------------------------------------- Iteration      1(   4)  ---------------------------------------


     EDDAV:  cpu time  409.5633: real time  409.5743
       DOS:  cpu time    0.0011: real time    0.0011
    --------------------------------------------
      LOOP:  cpu time  409.5643: real time  409.5754

 eigenvalue-minimisations  :   840
 total energy-change (2. order) :-0.3718376E+03  (-0.3164052E+03)
 number of electron     560.0000000 magnetization 
 augmentation part      560.0000000 magnetization 

 Free energy of the ion-electron system (eV)
  ---------------------------------------------------
  alpha Z        PSCENC =        75.25431677
  Ewald energy   TEWEN  =    141653.89736042
  -Hartree energ DENC   =   -184987.68659356
  -exchange      EXHF   =         0.00000000
  -V(xc)+E(xc)   XCENC  =     -1699.97158113
  PAW double counting   =     44873.02882129   -41398.84523641
  entropy T*S    EENTRO =         0.02465567
  eigenvalues    EBANDS =     -3736.44009352
  atomic energy  EATOM  =     45086.50549395
  Solvation  Ediel_sol  =         0.00000000
  ---------------------------------------------------
  free energy    TOTEN  =      -134.23285651 eV

  energy without entropy =     -134.25751218  energy(sigma->0) =     -134.23902043


--------------------------------------------------------------------------------------------------------




--------------------------------------- Iteration      1(   5)  ---------------------------------------


     EDDAV:  cpu time  497.4996: real time  497.5110
       DOS:  cpu time    0.0014: real time    0.0014
    CHARGE:  cpu time   25.3264: real time   25.3266
    MIXING:  cpu time    0.4311: real time    0.4311
    --------------------------------------------
      LOOP:  cpu time  523.2586: real time  523.2701

 eigenvalue-minimisations  :  1056
 total energy-change (2. order) :-0.4541564E+02  (-0.3766517E+02)
 number of electron     559.9999873 magnetization 
 augmentation part      245.1004357 magnetization 

 Broyden mixing:
  rms(total) = 0.22012E+01    rms(broyden)= 0.22003E+01
  rms(prec ) = 0.22954E+01
  weight for this iteration     100.00

 Free energy of the ion-electron system (eV)
  ---------------------------------------------------
  alpha Z        PSCENC =        75.25431677
  Ewald energy   TEWEN  =    141653.89736042
  -Hartree energ DENC   =   -184987.68659356
  -exchange      EXHF   =         0.00000000
  -V(xc)+E(xc)   XCENC  =     -1699.97158113
  PAW double counting   =     44873.02882129   -41398.84523641
  entropy T*S    EENTRO =         0.49371604
  eigenvalues    EBANDS =     -3782.32479754
  atomic energy  EATOM  =     45086.50549395
  Solvation  Ediel_sol  =         0.00000000
  ---------------------------------------------------
  free energy    TOTEN  =      -179.64850017 eV

  energy without entropy =     -180.14221621  energy(sigma->0) =     -179.77192918


--------------------------------------------------------------------------------------------------------




--------------------------------------- Iteration      1(   6)  ---------------------------------------


    POTLOK:  cpu time   13.2789: real time   13.2804
    SETDIJ:  cpu time    0.1218: real time    0.1218
    EDDIAG:  cpu time   67.1370: real time   67.1433
  RMM-DIIS:  cpu time  184.7845: real time  184.8036
    ORTHCH:  cpu time   13.2409: real time   13.2408
       DOS:  cpu time    0.0014: real time    0.0014
    CHARGE:  cpu time   24.9477: real time   24.9475
    MIXING:  cpu time    0.4510: real time    0.4510
    --------------------------------------------
      LOOP:  cpu time  303.9632: real time  303.9898

 eigenvalue-minimisations  :   727
 total energy-change (2. order) :-0.3455796E+00  (-0.7695499E+01)
 number of electron     559.9999924 magnetization 
 augmentation part      240.3408632 magnetization 

 Broyden mixing:
  rms(total) = 0.27154E+01    rms(broyden)= 0.27152E+01
  rms(prec ) = 0.30963E+01
  weight for this iteration     100.00

 eigenvalues of (default mixing * dielectric matrix)
  average eigenvalue GAMMA=   0.3966
  0.3966

 Free energy of the ion-electron system (eV)
  ---------------------------------------------------
  alpha Z        PSCENC =        75.25431677
  Ewald energy   TEWEN  =    141653.89736042
  -Hartree energ DENC   =   -185397.74997198
  -exchange      EXHF   =         0.00000000
  -V(xc)+E(xc)   XCENC  =     -1693.43436362
  PAW double counting   =     45776.17879742   -42276.16911600
  entropy T*S    EENTRO =        -0.12686207
  eigenvalues    EBANDS =     -3404.34973466
  atomic energy  EATOM  =     45086.50549395
  Solvation  Ediel_sol  =         0.00000000
  ---------------------------------------------------
  free energy    TOTEN  =      -179.99407977 eV

  energy without entropy =     -179.86721770  energy(sigma->0) =     -179.96236425


--------------------------------------------------------------------------------------------------------




--------------------------------------- Iteration      1(   7)  ---------------------------------------


    POTLOK:  cpu time   12.9589: real time   12.9594
    SETDIJ:  cpu time    0.1217: real time    0.1217
    EDDIAG:  cpu time   67.4120: real time   67.4133
  RMM-DIIS:  cpu time  213.4976: real time  213.4972
    ORTHCH:  cpu time   13.4654: real time   13.4653
       DOS:  cpu time    0.0013: real time    0.0013
    CHARGE:  cpu time   24.9140: real time   24.9137
    MIXING:  cpu time    0.4731: real time    0.4731
    --------------------------------------------
      LOOP:  cpu time  332.8440: real time  332.8450

 eigenvalue-minimisations  :   844
 total energy-change (2. order) :-0.5258127E+01  (-0.2598576E+01)
 number of electron     559.9999899 magnetization 
 augmentation part      239.6528203 magnetization 

 Broyden mixing:
  rms(total) = 0.30546E+01    rms(broyden)= 0.30543E+01
  rms(prec ) = 0.36688E+01
  weight for this iteration     100.00

 eigenvalues of (default mixing * dielectric matrix)
  average eigenvalue GAMMA=   0.3620
  0.5498  0.1742

 Free energy of the ion-electron system (eV)
  ---------------------------------------------------
  alpha Z        PSCENC =        75.25431677
  Ewald energy   TEWEN  =    141653.89736042
  -Hartree energ DENC   =   -185499.41528336
  -exchange      EXHF   =         0.00000000
  -V(xc)+E(xc)   XCENC  =     -1693.83474167
  PAW double counting   =     45889.24794326   -42386.75995091
  entropy T*S    EENTRO =        -0.01306175
  eigenvalues    EBANDS =     -3310.13428385
  atomic energy  EATOM  =     45086.50549395
  Solvation  Ediel_sol  =         0.00000000
  ---------------------------------------------------
  free energy    TOTEN  =      -185.25220713 eV

  energy without entropy =     -185.23914538  energy(sigma->0) =     -185.24894169


--------------------------------------------------------------------------------------------------------




--------------------------------------- Iteration      1(   8)  ---------------------------------------


    POTLOK:  cpu time   12.9285: real time   12.9291
    SETDIJ:  cpu time    0.1202: real time    0.1202
    EDDIAG:  cpu time   67.2642: real time   67.2639
  RMM-DIIS:  cpu time  200.5725: real time  200.5740
    ORTHCH:  cpu time   13.5643: real time   13.5642
       DOS:  cpu time    0.0013: real time    0.0013
    CHARGE:  cpu time   24.8130: real time   24.8127
    MIXING:  cpu time    0.5103: real time    0.5103
    --------------------------------------------
      LOOP:  cpu time  319.7743: real time  319.7757

 eigenvalue-minimisations  :   791
 total energy-change (2. order) :-0.6206477E+00  (-0.1345093E+01)
 number of electron     559.9999858 magnetization 
 augmentation part      239.6895127 magnetization 

 Broyden mixing:
  rms(total) = 0.30022E+01    rms(broyden)= 0.30018E+01
  rms(prec ) = 0.34774E+01
  weight for this iteration     100.00

 eigenvalues of (default mixing * dielectric matrix)
  average eigenvalue GAMMA=   0.3628
  0.7523  0.1680  0.1680

 Free energy of the ion-electron system (eV)
  ---------------------------------------------------
  alpha Z        PSCENC =        75.25431677
  Ewald energy   TEWEN  =    141653.89736042
  -Hartree energ DENC   =   -185539.00166956
  -exchange      EXHF   =         0.00000000
  -V(xc)+E(xc)   XCENC  =     -1694.10212890
  PAW double counting   =     45975.08035029   -42471.01019198
  entropy T*S    EENTRO =        -0.14518464
  eigenvalues    EBANDS =     -3272.35120114
  atomic energy  EATOM  =     45086.50549395
  Solvation  Ediel_sol  =         0.00000000
  ---------------------------------------------------
  free energy    TOTEN  =      -185.87285478 eV

  energy without entropy =     -185.72767015  energy(sigma->0) =     -185.83655862


--------------------------------------------------------------------------------------------------------




--------------------------------------- Iteration      1(   9)  ---------------------------------------


    POTLOK:  cpu time   13.1590: real time   13.1601
    SETDIJ:  cpu time    0.1219: real time    0.1219
    EDDIAG:  cpu time   67.1135: real time   67.1147
  RMM-DIIS:  cpu time  184.6447: real time  184.6441
    ORTHCH:  cpu time   13.3638: real time   13.3637
       DOS:  cpu time    0.0014: real time    0.0014
    CHARGE:  cpu time   24.8433: real time   24.8460
    MIXING:  cpu time    0.5379: real time    0.5379
    --------------------------------------------
      LOOP:  cpu time  303.7854: real time  303.7897

 eigenvalue-minimisations  :   725
 total energy-change (2. order) : 0.1037746E+01  (-0.1156329E+01)
 number of electron     559.9999852 magnetization 
 augmentation part      240.7659164 magnetization 

 Broyden mixing:
  rms(total) = 0.34796E+01    rms(broyden)= 0.34793E+01
  rms(prec ) = 0.40742E+01
  weight for this iteration     100.00

 eigenvalues of (default mixing * dielectric matrix)
  average eigenvalue GAMMA=   0.3379
  0.8745  0.1745  0.1745  0.1282

 Free energy of the ion-electron system (eV)
  ---------------------------------------------------
  alpha Z        PSCENC =        75.25431677
  Ewald energy   TEWEN  =    141653.89736042
  -Hartree energ DENC   =   -185535.58276616
  -exchange      EXHF   =         0.00000000
  -V(xc)+E(xc)   XCENC  =     -1694.23008674
  PAW double counting   =     46067.91833875   -42562.13214053
  entropy T*S    EENTRO =         0.03757064
  eigenvalues    EBANDS =     -3276.50319606
  atomic energy  EATOM  =     45086.50549395
  Solvation  Ediel_sol  =         0.00000000
  ---------------------------------------------------
  free energy    TOTEN  =      -184.83510896 eV

  energy without entropy =     -184.87267961  energy(sigma->0) =     -184.84450162


--------------------------------------------------------------------------------------------------------




--------------------------------------- Iteration      1(  10)  ---------------------------------------


    POTLOK:  cpu time   13.0818: real time   13.0827
    SETDIJ:  cpu time    0.1194: real time    0.1194
    EDDIAG:  cpu time   66.5354: real time   66.5359
  RMM-DIIS:  cpu time  190.6284: real time  190.6317
    ORTHCH:  cpu time   13.2675: real time   13.2675
       DOS:  cpu time    0.0014: real time    0.0014
    CHARGE:  cpu time   24.8925: real time   24.8925
    MIXING:  cpu time    0.5771: real time    0.5771
    --------------------------------------------
      LOOP:  cpu time  309.1035: real time  309.1081

 eigenvalue-minimisations  :   751
 total energy-change (2. order) : 0.2376280E+01  (-0.7225826E+00)
 number of electron     559.9999873 magnetization 
 augmentation part      241.1492956 magnetization 

 Broyden mixing:
  rms(total) = 0.24647E+01    rms(broyden)= 0.24643E+01
  rms(prec ) = 0.28957E+01
  weight for this iteration     100.00

 eigenvalues of (default mixing * dielectric matrix)
  average eigenvalue GAMMA=   0.3415
  1.0396  0.2113  0.2113  0.1227  0.1227

 Free energy of the ion-electron system (eV)
  ---------------------------------------------------
  alpha Z        PSCENC =        75.25431677
  Ewald energy   TEWEN  =    141653.89736042
  -Hartree energ DENC   =   -185559.87014232
  -exchange      EXHF   =         0.00000000
  -V(xc)+E(xc)   XCENC  =     -1694.17954089
  PAW double counting   =     46130.40300660   -42623.35791283
  entropy T*S    EENTRO =        -0.04742654
  eigenvalues    EBANDS =     -3251.06398415
  atomic energy  EATOM  =     45086.50549395
  Solvation  Ediel_sol  =         0.00000000
  ---------------------------------------------------
  free energy    TOTEN  =      -182.45882899 eV

  energy without entropy =     -182.41140246  energy(sigma->0) =     -182.44697236


--------------------------------------------------------------------------------------------------------




--------------------------------------- Iteration      1(  11)  ---------------------------------------


    POTLOK:  cpu time   12.8227: real time   12.8233
    SETDIJ:  cpu time    0.1170: real time    0.1170
    EDDIAG:  cpu time   66.7208: real time   66.7216
  RMM-DIIS:  cpu time  183.5287: real time  183.5315
    ORTHCH:  cpu time   13.3669: real time   13.3669
       DOS:  cpu time    0.0014: real time    0.0014
    CHARGE:  cpu time   24.7042: real time   24.7043
    MIXING:  cpu time    0.6085: real time    0.6085
    --------------------------------------------
      LOOP:  cpu time  301.8701: real time  301.8744

 eigenvalue-minimisations  :   724
 total energy-change (2. order) : 0.2234951E+01  (-0.6025430E+00)
 number of electron     559.9999889 magnetization 
 augmentation part      241.2878837 magnetization 

 Broyden mixing:
  rms(total) = 0.25616E+01    rms(broyden)= 0.25612E+01
  rms(prec ) = 0.30136E+01
  weight for this iteration     100.00

 eigenvalues of (default mixing * dielectric matrix)
  average eigenvalue GAMMA=   0.3329
  1.1797  0.2356  0.1812  0.1812  0.1099  0.1099

 Free energy of the ion-electron system (eV)
  ---------------------------------------------------
  alpha Z        PSCENC =        75.25431677
  Ewald energy   TEWEN  =    141653.89736042
  -Hartree energ DENC   =   -185599.78153351
  -exchange      EXHF   =         0.00000000
  -V(xc)+E(xc)   XCENC  =     -1693.99975742
  PAW double counting   =     46211.99893792   -42703.06871882
  entropy T*S    EENTRO =        -0.10852723
  eigenvalues    EBANDS =     -3210.92145000
  atomic energy  EATOM  =     45086.50549395
  Solvation  Ediel_sol  =         0.00000000
  ---------------------------------------------------
  free energy    TOTEN  =      -180.22387791 eV

  energy without entropy =     -180.11535069  energy(sigma->0) =     -180.19674611


--------------------------------------------------------------------------------------------------------




--------------------------------------- Iteration      1(  12)  ---------------------------------------


    POTLOK:  cpu time   13.0789: real time   13.0796
    SETDIJ:  cpu time    0.1202: real time    0.1202
    EDDIAG:  cpu time   66.3125: real time   66.3140
  RMM-DIIS:  cpu time  177.4448: real time  177.4488
    ORTHCH:  cpu time   13.0136: real time   13.0137
       DOS:  cpu time    0.0014: real time    0.0014
    CHARGE:  cpu time   24.2747: real time   24.2748
    MIXING:  cpu time    0.6112: real time    0.6112
    --------------------------------------------
      LOOP:  cpu time  294.8575: real time  294.8637

 eigenvalue-minimisations  :   725
 total energy-change (2. order) : 0.2343304E+01  (-0.4402222E+00)
 number of electron     559.9999869 magnetization 
 augmentation part      242.0006126 magnetization 

 Broyden mixing:
  rms(total) = 0.24130E+01    rms(broyden)= 0.24127E+01
  rms(prec ) = 0.28973E+01
  weight for this iteration     100.00

 eigenvalues of (default mixing * dielectric matrix)
  average eigenvalue GAMMA=   0.3215
  1.2682  0.2734  0.1933  0.1933  0.1202  0.1202  0.0820

 Free energy of the ion-electron system (eV)
  ---------------------------------------------------
  alpha Z        PSCENC =        75.25431677
  Ewald energy   TEWEN  =    141653.89736042
  -Hartree energ DENC   =   -185613.49283288
  -exchange      EXHF   =         0.00000000
  -V(xc)+E(xc)   XCENC  =     -1693.77559545
  PAW double counting   =     46273.22899870   -42762.73926672
  entropy T*S    EENTRO =         0.11209120
  eigenvalues    EBANDS =     -3196.87114006
  atomic energy  EATOM  =     45086.50549395
  Solvation  Ediel_sol  =         0.00000000
  ---------------------------------------------------
  free energy    TOTEN  =      -177.88057407 eV

  energy without entropy =     -177.99266527  energy(sigma->0) =     -177.90859687


--------------------------------------------------------------------------------------------------------




--------------------------------------- Iteration      1(  13)  ---------------------------------------


    POTLOK:  cpu time   12.5313: real time   12.5318
    SETDIJ:  cpu time    0.1186: real time    0.1186
    EDDIAG:  cpu time   65.8754: real time   65.8801
  RMM-DIIS:  cpu time  178.3512: real time  178.3544
    ORTHCH:  cpu time   13.0709: real time   13.0707
       DOS:  cpu time    0.0014: real time    0.0014
    CHARGE:  cpu time   24.1041: real time   24.1038
    MIXING:  cpu time    0.6497: real time    0.6497
    --------------------------------------------
      LOOP:  cpu time  294.7026: real time  294.7106

 eigenvalue-minimisations  :   725
 total energy-change (2. order) : 0.4397686E+00  (-0.2784269E+00)
 number of electron     559.9999882 magnetization 
 augmentation part      241.8715614 magnetization 

 Broyden mixing:
  rms(total) = 0.21495E+01    rms(broyden)= 0.21492E+01
  rms(prec ) = 0.25844E+01
  weight for this iteration     100.00

 eigenvalues of (default mixing * dielectric matrix)
  average eigenvalue GAMMA=   0.3176
  1.3868  0.2813  0.2164  0.2164  0.1386  0.1386  0.0813  0.0813

 Free energy of the ion-electron system (eV)
  ---------------------------------------------------
  alpha Z        PSCENC =        75.25431677
  Ewald energy   TEWEN  =    141653.89736042
  -Hartree energ DENC   =   -185637.51410484
  -exchange      EXHF   =         0.00000000
  -V(xc)+E(xc)   XCENC  =     -1693.52021707
  PAW double counting   =     46319.26022027   -42807.38857385
  entropy T*S    EENTRO =        -0.01242896
  eigenvalues    EBANDS =     -3173.92287218
  atomic energy  EATOM  =     45086.50549395
  Solvation  Ediel_sol  =         0.00000000
  ---------------------------------------------------
  free energy    TOTEN  =      -177.44080549 eV

  energy without entropy =     -177.42837653  energy(sigma->0) =     -177.43769825


--------------------------------------------------------------------------------------------------------




--------------------------------------- Iteration      1(  14)  ---------------------------------------


    POTLOK:  cpu time   12.5700: real time   12.5709
    SETDIJ:  cpu time    0.1193: real time    0.1193
    EDDIAG:  cpu time   65.4887: real time   65.4884
  RMM-DIIS:  cpu time  177.8102: real time  177.8114
    ORTHCH:  cpu time   13.0307: real time   13.0306
       DOS:  cpu time    0.0014: real time    0.0014
    CHARGE:  cpu time   24.1972: real time   24.1970
    MIXING:  cpu time    0.6921: real time    0.6921
    --------------------------------------------
      LOOP:  cpu time  293.9098: real time  293.9111

 eigenvalue-minimisations  :   722
 total energy-change (2. order) : 0.2252721E+00  (-0.2855498E+00)
 number of electron     559.9999855 magnetization 
 augmentation part      241.6777971 magnetization 

 Broyden mixing:
  rms(total) = 0.20777E+01    rms(broyden)= 0.20773E+01
  rms(prec ) = 0.23923E+01
  weight for this iteration     100.00

 eigenvalues of (default mixing * dielectric matrix)
  average eigenvalue GAMMA=   0.3201
  1.5476  0.2960  0.2960  0.1543  0.1543  0.1618  0.0963  0.0963  0.0781

 Free energy of the ion-electron system (eV)
  ---------------------------------------------------
  alpha Z        PSCENC =        75.25431677
  Ewald energy   TEWEN  =    141653.89736042
  -Hartree energ DENC   =   -185667.21118425
  -exchange      EXHF   =         0.00000000
  -V(xc)+E(xc)   XCENC  =     -1693.12966917
  PAW double counting   =     46378.56943798   -42864.83768123
  entropy T*S    EENTRO =        -0.03692040
  eigenvalues    EBANDS =     -3146.22668747
  atomic energy  EATOM  =     45086.50549395
  Solvation  Ediel_sol  =         0.00000000
  ---------------------------------------------------
  free energy    TOTEN  =      -177.21553339 eV

  energy without entropy =     -177.17861299  energy(sigma->0) =     -177.20630329


--------------------------------------------------------------------------------------------------------




--------------------------------------- Iteration      1(  15)  ---------------------------------------


    POTLOK:  cpu time   12.6005: real time   12.6020
    SETDIJ:  cpu time    0.1183: real time    0.1183
    EDDIAG:  cpu time   65.5396: real time   65.5399
  RMM-DIIS:  cpu time  174.2615: real time  174.2623
    ORTHCH:  cpu time   13.0523: real time   13.0530
       DOS:  cpu time    0.0014: real time    0.0014
    CHARGE:  cpu time   24.2770: real time   24.2768
    MIXING:  cpu time    0.7330: real time    0.7330
    --------------------------------------------
      LOOP:  cpu time  290.5837: real time  290.5868

 eigenvalue-minimisations  :   705
 total energy-change (2. order) : 0.7035672E+00  (-0.2702867E+00)
 number of electron     559.9999892 magnetization 
 augmentation part      241.6043915 magnetization 

 Broyden mixing:
  rms(total) = 0.23750E+01    rms(broyden)= 0.23748E+01
  rms(prec ) = 0.27634E+01
  weight for this iteration     100.00

 eigenvalues of (default mixing * dielectric matrix)
  average eigenvalue GAMMA=   0.3195
  1.6637  0.3353  0.3353  0.1816  0.1558  0.1558  0.1125  0.1125  0.0710  0.0710

 Free energy of the ion-electron system (eV)
  ---------------------------------------------------
  alpha Z        PSCENC =        75.25431677
  Ewald energy   TEWEN  =    141653.89736042
  -Hartree energ DENC   =   -185698.82170082
  -exchange      EXHF   =         0.00000000
  -V(xc)+E(xc)   XCENC  =     -1692.65067871
  PAW double counting   =     46450.39967132   -42934.40004750
  entropy T*S    EENTRO =         0.06405951
  eigenvalues    EBANDS =     -3116.76044111
  atomic energy  EATOM  =     45086.50549395
  Solvation  Ediel_sol  =         0.00000000
  ---------------------------------------------------
  free energy    TOTEN  =      -176.51196618 eV

  energy without entropy =     -176.57602568  energy(sigma->0) =     -176.52798105


--------------------------------------------------------------------------------------------------------




--------------------------------------- Iteration      1(  16)  ---------------------------------------


    POTLOK:  cpu time   12.5576: real time   12.5587
    SETDIJ:  cpu time    0.1189: real time    0.1189
    EDDIAG:  cpu time   65.5577: real time   65.5574
  RMM-DIIS:  cpu time  174.8227: real time  174.8251
    ORTHCH:  cpu time   13.1441: real time   13.1439
       DOS:  cpu time    0.0014: real time    0.0014
    CHARGE:  cpu time   24.2290: real time   24.2288
    MIXING:  cpu time    0.7825: real time    0.7825
    --------------------------------------------
      LOOP:  cpu time  291.2139: real time  291.2167

 eigenvalue-minimisations  :   709
 total energy-change (2. order) : 0.8306100E+00  (-0.1965636E+00)
 number of electron     559.9999904 magnetization 
 augmentation part      241.3249545 magnetization 

 Broyden mixing:
  rms(total) = 0.17823E+01    rms(broyden)= 0.17820E+01
  rms(prec ) = 0.21198E+01
  weight for this iteration     100.00

 eigenvalues of (default mixing * dielectric matrix)
  average eigenvalue GAMMA=   0.3139
  1.7426  0.4221  0.2493  0.2493  0.1673  0.1673  0.1137  0.1137  0.0829  0.0829
  0.0618

 Free energy of the ion-electron system (eV)
  ---------------------------------------------------
  alpha Z        PSCENC =        75.25431677
  Ewald energy   TEWEN  =    141653.89736042
  -Hartree energ DENC   =   -185727.87964938
  -exchange      EXHF   =         0.00000000
  -V(xc)+E(xc)   XCENC  =     -1692.20980232
  PAW double counting   =     46506.69483148   -42988.76811744
  entropy T*S    EENTRO =         0.01949371
  eigenvalues    EBANDS =     -3089.19528336
  atomic energy  EATOM  =     45086.50549395
  Solvation  Ediel_sol  =         0.00000000
  ---------------------------------------------------
  free energy    TOTEN  =      -175.68135615 eV

  energy without entropy =     -175.70084986  energy(sigma->0) =     -175.68622958


--------------------------------------------------------------------------------------------------------




--------------------------------------- Iteration      1(  17)  ---------------------------------------


    POTLOK:  cpu time   12.5347: real time   12.5354
    SETDIJ:  cpu time    0.1195: real time    0.1195
    EDDIAG:  cpu time   65.6634: real time   65.6655
  RMM-DIIS:  cpu time  175.1599: real time  175.1670
    ORTHCH:  cpu time   13.0653: real time   13.0652
       DOS:  cpu time    0.0014: real time    0.0014
    CHARGE:  cpu time   24.1998: real time   24.2042
    MIXING:  cpu time    0.8210: real time    0.8210
    --------------------------------------------
      LOOP:  cpu time  291.5650: real time  291.5793

 eigenvalue-minimisations  :   708
 total energy-change (2. order) : 0.1368802E+01  (-0.1053624E+00)
 number of electron     559.9999901 magnetization 
 augmentation part      241.4820569 magnetization 

 Broyden mixing:
  rms(total) = 0.11206E+01    rms(broyden)= 0.11203E+01
  rms(prec ) = 0.12810E+01
  weight for this iteration     100.00

 eigenvalues of (default mixing * dielectric matrix)
  average eigenvalue GAMMA=   0.3094
  1.7888  0.4756  0.2711  0.2711  0.1577  0.1577  0.1605  0.1033  0.1033  0.0814
  0.0814  0.0610

 Free energy of the ion-electron system (eV)
  ---------------------------------------------------
  alpha Z        PSCENC =        75.25431677
  Ewald energy   TEWEN  =    141653.89736042
  -Hartree energ DENC   =   -185741.71867244
  -exchange      EXHF   =         0.00000000
  -V(xc)+E(xc)   XCENC  =     -1691.92366785
  PAW double counting   =     46538.58828175   -43019.50852438
  entropy T*S    EENTRO =        -0.02910220
  eigenvalues    EBANDS =     -3075.37804002
  atomic energy  EATOM  =     45086.50549395
  Solvation  Ediel_sol  =         0.00000000
  ---------------------------------------------------
  free energy    TOTEN  =      -174.31255399 eV

  energy without entropy =     -174.28345180  energy(sigma->0) =     -174.30527845


--------------------------------------------------------------------------------------------------------




--------------------------------------- Iteration      1(  18)  ---------------------------------------


    POTLOK:  cpu time   12.6271: real time   12.6286
    SETDIJ:  cpu time    0.1162: real time    0.1162
    EDDIAG:  cpu time   65.4201: real time   65.4199
  RMM-DIIS:  cpu time  173.1097: real time  173.1100
    ORTHCH:  cpu time   13.0272: real time   13.0289
       DOS:  cpu time    0.0014: real time    0.0014
    CHARGE:  cpu time   24.2500: real time   24.2498
    MIXING:  cpu time    0.8647: real time    0.8647
    --------------------------------------------
      LOOP:  cpu time  289.4166: real time  289.4196

 eigenvalue-minimisations  :   701
 total energy-change (2. order) : 0.5299917E+00  (-0.6507138E-01)
 number of electron     559.9999897 magnetization 
 augmentation part      241.5327918 magnetization 

 Broyden mixing:
  rms(total) = 0.90630E+00    rms(broyden)= 0.90607E+00
  rms(prec ) = 0.10341E+01
  weight for this iteration     100.00

 eigenvalues of (default mixing * dielectric matrix)
  average eigenvalue GAMMA=   0.3149
  1.8388  0.5252  0.3564  0.3564  0.1660  0.1660  0.1080  0.1080  0.1341  0.1164
  0.0796  0.0796  0.0594

 Free energy of the ion-electron system (eV)
  ---------------------------------------------------
  alpha Z        PSCENC =        75.25431677
  Ewald energy   TEWEN  =    141653.89736042
  -Hartree energ DENC   =   -185753.76223005
  -exchange      EXHF   =         0.00000000
  -V(xc)+E(xc)   XCENC  =     -1691.72278543
  PAW double counting   =     46556.88259931   -43036.97200728
  entropy T*S    EENTRO =         0.01188719
  eigenvalues    EBANDS =     -3063.87719716
  atomic energy  EATOM  =     45086.50549395
  Solvation  Ediel_sol  =         0.00000000
  ---------------------------------------------------
  free energy    TOTEN  =      -173.78256228 eV

  energy without entropy =     -173.79444947  energy(sigma->0) =     -173.78553407


--------------------------------------------------------------------------------------------------------




--------------------------------------- Iteration      1(  19)  ---------------------------------------


    POTLOK:  cpu time   12.6764: real time   12.6770
    SETDIJ:  cpu time    0.1176: real time    0.1176
    EDDIAG:  cpu time   65.5524: real time   65.5521
  RMM-DIIS:  cpu time  174.0086: real time  174.0130
    ORTHCH:  cpu time   12.9915: real time   12.9914
       DOS:  cpu time    0.0014: real time    0.0014
    CHARGE:  cpu time   24.2430: real time   24.2428
    MIXING:  cpu time    0.9778: real time    0.9778
    --------------------------------------------
      LOOP:  cpu time  290.5686: real time  290.5731

 eigenvalue-minimisations  :   705
 total energy-change (2. order) :-0.9772433E-01  (-0.5034614E-01)
 number of electron     559.9999895 magnetization 
 augmentation part      241.4501023 magnetization 

 Broyden mixing:
  rms(total) = 0.92902E+00    rms(broyden)= 0.92878E+00
  rms(prec ) = 0.10516E+01
  weight for this iteration     100.00

 eigenvalues of (default mixing * dielectric matrix)
  average eigenvalue GAMMA=   0.3291
  1.9276  0.6432  0.4450  0.4450  0.1694  0.1694  0.1398  0.1398  0.1099  0.1099
  0.0831  0.0831  0.0820  0.0596

 Free energy of the ion-electron system (eV)
  ---------------------------------------------------
  alpha Z        PSCENC =        75.25431677
  Ewald energy   TEWEN  =    141653.89736042
  -Hartree energ DENC   =   -185768.03463524
  -exchange      EXHF   =         0.00000000
  -V(xc)+E(xc)   XCENC  =     -1691.52366247
  PAW double counting   =     46572.65624094   -43051.83537227
  entropy T*S    EENTRO =         0.02547090
  eigenvalues    EBANDS =     -3050.82549961
  atomic energy  EATOM  =     45086.50549395
  Solvation  Ediel_sol  =         0.00000000
  ---------------------------------------------------
  free energy    TOTEN  =      -173.88028661 eV

  energy without entropy =     -173.90575750  energy(sigma->0) =     -173.88665433


--------------------------------------------------------------------------------------------------------




--------------------------------------- Iteration      1(  20)  ---------------------------------------


    POTLOK:  cpu time   12.5253: real time   12.5264
    SETDIJ:  cpu time    0.1204: real time    0.1204
    EDDIAG:  cpu time   65.6409: real time   65.6409
  RMM-DIIS:  cpu time  172.1507: real time  172.1531
    ORTHCH:  cpu time   13.0386: real time   13.0385
       DOS:  cpu time    0.0014: real time    0.0014
    CHARGE:  cpu time   24.2365: real time   24.2363
    MIXING:  cpu time    0.9796: real time    0.9796
    --------------------------------------------
      LOOP:  cpu time  288.6935: real time  288.6966

 eigenvalue-minimisations  :   696
 total energy-change (2. order) : 0.1796499E+00  (-0.3765429E-01)
 number of electron     559.9999874 magnetization 
 augmentation part      241.3414309 magnetization 

 Broyden mixing:
  rms(total) = 0.83964E+00    rms(broyden)= 0.83943E+00
  rms(prec ) = 0.94890E+00
  weight for this iteration     100.00

 eigenvalues of (default mixing * dielectric matrix)
  average eigenvalue GAMMA=   0.3240
  1.9732  0.7077  0.4350  0.4350  0.1721  0.1721  0.1655  0.1655  0.1061  0.1061
  0.1062  0.0985  0.0787  0.0787  0.0595

 Free energy of the ion-electron system (eV)
  ---------------------------------------------------
  alpha Z        PSCENC =        75.25431677
  Ewald energy   TEWEN  =    141653.89736042
  -Hartree energ DENC   =   -185796.71863888
  -exchange      EXHF   =         0.00000000
  -V(xc)+E(xc)   XCENC  =     -1691.07881971
  PAW double counting   =     46599.40910354   -43076.77106188
  entropy T*S    EENTRO =        -0.03224601
  eigenvalues    EBANDS =     -3024.16614492
  atomic energy  EATOM  =     45086.50549395
  Solvation  Ediel_sol  =         0.00000000
  ---------------------------------------------------
  free energy    TOTEN  =      -173.70063672 eV

  energy without entropy =     -173.66839071  energy(sigma->0) =     -173.69257522


--------------------------------------------------------------------------------------------------------




--------------------------------------- Iteration      1(  21)  ---------------------------------------


    POTLOK:  cpu time   12.5947: real time   12.5956
    SETDIJ:  cpu time    0.1311: real time    0.1311
    EDDIAG:  cpu time   65.6784: real time   65.6787
  RMM-DIIS:  cpu time  172.5728: real time  172.5752
    ORTHCH:  cpu time   13.0309: real time   13.0310
       DOS:  cpu time    0.0014: real time    0.0014
    CHARGE:  cpu time   24.2272: real time   24.2271
    MIXING:  cpu time    1.0367: real time    1.0368
    --------------------------------------------
      LOOP:  cpu time  289.2732: real time  289.2769

 eigenvalue-minimisations  :   698
 total energy-change (2. order) : 0.2339561E+00  (-0.2195988E-01)
 number of electron     559.9999893 magnetization 
 augmentation part      241.2432455 magnetization 

 Broyden mixing:
  rms(total) = 0.58853E+00    rms(broyden)= 0.58833E+00
  rms(prec ) = 0.68160E+00
  weight for this iteration     100.00

 eigenvalues of (default mixing * dielectric matrix)
  average eigenvalue GAMMA=   0.3318
  2.0343  0.7391  0.5149  0.3756  0.3756  0.1682  0.1682  0.1556  0.1556  0.1100
  0.1100  0.0916  0.0916  0.0794  0.0794  0.0596

 Free energy of the ion-electron system (eV)
  ---------------------------------------------------
  alpha Z        PSCENC =        75.25431677
  Ewald energy   TEWEN  =    141653.89736042
  -Hartree energ DENC   =   -185812.54094561
  -exchange      EXHF   =         0.00000000
  -V(xc)+E(xc)   XCENC  =     -1690.84425649
  PAW double counting   =     46611.87138744   -43088.29436163
  entropy T*S    EENTRO =        -0.04540029
  eigenvalues    EBANDS =     -3009.27027520
  atomic energy  EATOM  =     45086.50549395
  Solvation  Ediel_sol  =         0.00000000
  ---------------------------------------------------
  free energy    TOTEN  =      -173.46668064 eV

  energy without entropy =     -173.42128035  energy(sigma->0) =     -173.45533057


--------------------------------------------------------------------------------------------------------




--------------------------------------- Iteration      1(  22)  ---------------------------------------


    POTLOK:  cpu time   12.5126: real time   12.5139
    SETDIJ:  cpu time    0.1182: real time    0.1182
    EDDIAG:  cpu time   65.5629: real time   65.5653
  RMM-DIIS:  cpu time  171.5692: real time  171.5768
    ORTHCH:  cpu time   13.1631: real time   13.1630
       DOS:  cpu time    0.0015: real time    0.0015
    CHARGE:  cpu time   24.2344: real time   24.2342
    MIXING:  cpu time    1.0885: real time    1.0885
    --------------------------------------------
      LOOP:  cpu time  288.2503: real time  288.2613

 eigenvalue-minimisations  :   694
 total energy-change (2. order) :-0.6647758E-02  (-0.1911124E-01)
 number of electron     559.9999899 magnetization 
 augmentation part      241.1455323 magnetization 

 Broyden mixing:
  rms(total) = 0.66317E+00    rms(broyden)= 0.66303E+00
  rms(prec ) = 0.76662E+00
  weight for this iteration     100.00

 eigenvalues of (default mixing * dielectric matrix)
  average eigenvalue GAMMA=   0.3450
  2.1075  0.8012  0.7793  0.4054  0.4054  0.1689  0.1689  0.1553  0.1553  0.1106
  0.1106  0.1047  0.0595  0.0805  0.0805  0.0856  0.0856

 Free energy of the ion-electron system (eV)
  ---------------------------------------------------
  alpha Z        PSCENC =        75.25431677
  Ewald energy   TEWEN  =    141653.89736042
  -Hartree energ DENC   =   -185830.51301784
  -exchange      EXHF   =         0.00000000
  -V(xc)+E(xc)   XCENC  =     -1690.58954142
  PAW double counting   =     46620.37644969   -43095.78436678
  entropy T*S    EENTRO =        -0.04432517
  eigenvalues    EBANDS =     -2992.57569803
  atomic energy  EATOM  =     45086.50549395
  Solvation  Ediel_sol  =         0.00000000
  ---------------------------------------------------
  free energy    TOTEN  =      -173.47332840 eV

  energy without entropy =     -173.42900323  energy(sigma->0) =     -173.46224711


--------------------------------------------------------------------------------------------------------




--------------------------------------- Iteration      1(  23)  ---------------------------------------


    POTLOK:  cpu time   12.4776: real time   12.4790
    SETDIJ:  cpu time    0.1163: real time    0.1163
    EDDIAG:  cpu time   65.5396: real time   65.5396
  RMM-DIIS:  cpu time  172.0881: real time  172.0895
    ORTHCH:  cpu time   13.0506: real time   13.0505
       DOS:  cpu time    0.0014: real time    0.0014
    CHARGE:  cpu time   24.4063: real time   24.4060
    MIXING:  cpu time    1.1566: real time    1.1566
    --------------------------------------------
      LOOP:  cpu time  288.8364: real time  288.8389

 eigenvalue-minimisations  :   697
 total energy-change (2. order) : 0.6836388E-01  (-0.2035118E-01)
 number of electron     559.9999895 magnetization 
 augmentation part      241.0443178 magnetization 

 Broyden mixing:
  rms(total) = 0.53487E+00    rms(broyden)= 0.53466E+00
  rms(prec ) = 0.60881E+00
  weight for this iteration     100.00

 eigenvalues of (default mixing * dielectric matrix)
  average eigenvalue GAMMA=   0.3577
[...]
 -0.007  -0.012   0.004   0.004   0.006  -0.006  -0.012   0.004
 -0.011  -0.021   0.006   0.007   0.009  -0.011  -0.020   0.006
 -0.015  -0.005   0.013   0.000   0.022  -0.014  -0.005   0.012
  0.000  -0.023  -0.006  -0.015  -0.000   0.000  -0.022  -0.006
 -0.022   0.000   0.009  -0.005  -0.016  -0.022   0.000   0.008
 -0.017  -0.006   0.015   0.000   0.027  -0.017  -0.006   0.015
  0.000  -0.027  -0.007  -0.018  -0.000   0.000  -0.027  -0.007
 -0.027   0.000   0.010  -0.006  -0.019  -0.026   0.000   0.010
 total augmentation occupancy for first ion, spin component:           1
  1.535  -0.031   0.005   0.016   0.024   0.077  -0.008  -0.002   0.036  -0.010   0.093  -0.032   0.012   0.002   0.002  -0.019
 -0.031   1.401   0.030   0.072  -0.001  -0.007   0.071   0.011  -0.015  -0.008   0.218  -0.067   0.019   0.001   0.003  -0.006
  0.005   0.030   1.540   0.002   0.001  -0.002   0.013   0.074  -0.013   0.017  -0.053   0.017  -0.003  -0.006  -0.005   0.016
  0.016   0.072   0.002   1.338   0.044   0.034  -0.014  -0.012   0.091  -0.022  -0.081   0.021  -0.001  -0.009  -0.003   0.001
  0.024  -0.001   0.001   0.044   1.439  -0.010  -0.008   0.016  -0.022   0.067  -0.095   0.031  -0.002  -0.009  -0.010   0.026
  0.077  -0.007  -0.002   0.034  -0.010   0.217   0.019  -0.002  -0.045   0.004  -0.048   0.002   0.017  -0.010   0.035  -0.004
 -0.008   0.071   0.013  -0.014  -0.008   0.019   0.263  -0.023  -0.003   0.005  -0.108   0.007  -0.001   0.051  -0.010  -0.000
 -0.002   0.011   0.074  -0.012   0.016  -0.002  -0.023   0.215   0.014  -0.020   0.028  -0.001  -0.012   0.009  -0.018   0.003
  0.036  -0.015  -0.013   0.091  -0.022  -0.045  -0.003   0.014   0.261   0.007   0.043  -0.004  -0.009   0.036   0.004   0.000
 -0.010  -0.008   0.017  -0.022   0.067   0.004   0.005  -0.020   0.007   0.259   0.046  -0.002  -0.038   0.002   0.049   0.007
  0.093   0.218  -0.053  -0.081  -0.095  -0.048  -0.108   0.028   0.043   0.046   0.948  -0.141   0.084   0.014   0.064  -0.013
 -0.032  -0.067   0.017   0.021   0.031   0.002   0.007  -0.001  -0.004  -0.002  -0.141   0.023  -0.014  -0.003  -0.010   0.003
  0.012   0.019  -0.003  -0.001  -0.002   0.017  -0.001  -0.012  -0.009  -0.038   0.084  -0.014   0.029  -0.008  -0.004  -0.003
  0.002   0.001  -0.006  -0.009  -0.009  -0.010   0.051   0.009   0.036   0.002   0.014  -0.003  -0.008   0.036   0.004   0.000
  0.002   0.003  -0.005  -0.003  -0.010   0.035  -0.010  -0.018   0.004   0.049   0.064  -0.010  -0.004   0.004   0.035  -0.000
 -0.019  -0.006   0.016   0.001   0.026  -0.004  -0.000   0.003   0.000   0.007  -0.013   0.003  -0.003   0.000  -0.000   0.001
  0.001  -0.028  -0.007  -0.018   0.001   0.001  -0.008  -0.002  -0.006  -0.000  -0.003   0.001   0.000  -0.003  -0.000   0.000
 -0.028   0.001   0.012  -0.005  -0.019  -0.006   0.001   0.003  -0.001  -0.007  -0.008   0.001  -0.000  -0.000  -0.003   0.000


------------------------ aborting loop because EDIFF is reached ----------------------------------------


    CHARGE:  cpu time   24.4724: real time   24.4747
    FORLOC:  cpu time    6.6963: real time    6.6965
    FORNL :  cpu time   63.6333: real time   63.6381
    STRESS:  cpu time  192.2996: real time  192.3090
    FORCOR:  cpu time   21.3620: real time   21.3621
    FORHAR:  cpu time    9.5379: real time    9.5380
    MIXING:  cpu time    3.3487: real time    3.3487
    OFIELD:  cpu time    0.0000: real time    0.0000

  FORCE on cell =-STRESS in cart. coord.  units (eV):
  Direction    XX          YY          ZZ          XY          YZ          ZX
  --------------------------------------------------------------------------------------
  Alpha Z    75.25432    75.25432    75.25432
  Ewald   48492.32735 46803.69589 46357.76786   495.93480    -7.40757  -179.23675
  Hartree 63231.53520 61504.52759 61263.50991   497.61725   -31.68338  -129.27455
  E(xc)   -2907.85313 -2906.67537 -2908.59976     0.30353     0.25019    -0.32074
  Local  ************************************  -983.46809    43.14719   300.90098
  n-local  -885.37853  -865.46751  -877.96878    -0.59301     0.61004    -0.31438
  augment  4107.75972  4091.53999  4109.39190    -2.21102    -1.16771     1.45191
  Kinetic  7819.65553  7797.40443  7833.00197    -8.19384    -2.26473     4.34834
  Fock        0.00000     0.00000     0.00000     0.00000     0.00000     0.00000
  -------------------------------------------------------------------------------------
  Total     -94.61693   -98.46423  -108.10447    -0.61038     1.48403    -2.44519
  in kB      -5.61456    -5.84286    -6.41491    -0.03622     0.08806    -0.14510
  external pressure =       -5.96 kB  Pullay stress =        0.00 kB


 VOLUME and BASIS-vectors are now :
 -----------------------------------------------------------------------------
  energy-cutoff  :      400.00
  volume of cell :    27000.00
      direct lattice vectors                 reciprocal lattice vectors
    30.000000000  0.000000000  0.000000000     0.033333333  0.000000000  0.000000000
     0.000000000 30.000000000  0.000000000     0.000000000  0.033333333  0.000000000
     0.000000000  0.000000000 30.000000000     0.000000000  0.000000000  0.033333333

  length of vectors
    30.000000000 30.000000000 30.000000000     0.033333333  0.033333333  0.033333333


 FORCES acting on ions
    electron-ion (+dipol)            ewald-force                    non-local-force                 convergence-correction
 -----------------------------------------------------------------------------------------------
   0.402E+03 0.980E+03 0.419E+03   -.400E+03 -.977E+03 -.418E+03   -.148E+01 -.182E+01 -.225E+00   0.873E-03 0.753E-02 0.464E-04
   -.102E+04 -.340E+03 0.652E+03   0.102E+04 0.337E+03 -.653E+03   0.123E+01 0.132E+01 0.909E-01   -.374E-02 -.288E-02 -.384E-02
   -.386E+03 0.988E+03 0.421E+03   0.384E+03 -.985E+03 -.421E+03   0.149E+01 -.183E+01 -.221E+00   -.455E-02 0.735E-02 -.138E-02
   0.981E+03 -.393E+03 0.419E+03   -.978E+03 0.391E+03 -.418E+03   -.182E+01 0.150E+01 -.238E+00   0.985E-03 -.320E-02 0.148E-02
   0.972E+01 0.597E+03 0.973E+03   -.973E+01 -.597E+03 -.969E+03   0.343E-02 -.302E+00 -.235E+01   -.801E-03 0.254E-02 0.455E-02
   0.861E+01 0.596E+03 -.973E+03   -.864E+01 -.595E+03 0.969E+03   0.130E-01 -.303E+00 0.234E+01   -.275E-02 0.596E-04 -.155E-02
   0.603E+01 0.114E+04 -.388E+00   -.602E+01 -.114E+04 0.395E+00   -.369E-02 -.311E+01 -.124E-02   -.202E-02 0.449E-02 -.519E-02
   0.114E+04 0.187E+01 -.264E+00   -.113E+04 -.185E+01 0.262E+00   -.312E+01 -.119E-01 0.187E-02   0.346E-02 -.249E-02 0.125E-03
   -.124E+04 0.110E+03 -.155E+02   0.123E+04 -.111E+03 0.156E+02   0.265E+01 0.432E+00 -.775E-01   -.159E-02 -.645E-03 -.583E-02
   0.226E+02 -.116E+04 -.144E+01   -.225E+02 0.115E+04 0.145E+01   -.745E-01 0.315E+01 -.513E-02   0.819E-03 0.363E-03 -.445E-02
   -.573E+03 0.598E+03 0.828E+03   0.571E+03 -.595E+03 -.825E+03   0.153E+01 -.156E+01 -.222E+01   -.366E-02 0.409E-02 0.238E-02
   -.574E+03 0.595E+03 -.828E+03   0.571E+03 -.592E+03 0.824E+03   0.153E+01 -.157E+01 0.221E+01   0.237E-02 -.157E-02 0.340E-03
   0.590E+03 -.580E+03 0.819E+03   -.588E+03 0.577E+03 -.816E+03   -.156E+01 0.155E+01 -.220E+01   0.140E-02 -.168E-02 -.108E-02
   0.589E+03 -.579E+03 -.819E+03   -.587E+03 0.577E+03 0.816E+03   -.155E+01 0.156E+01 0.220E+01   -.473E-02 -.232E-02 -.761E-03
   0.585E+03 0.583E+03 0.816E+03   -.583E+03 -.581E+03 -.813E+03   -.156E+01 -.156E+01 -.220E+01   0.591E-02 -.460E-03 0.425E-02
   0.585E+03 0.583E+03 -.816E+03   -.582E+03 -.580E+03 0.813E+03   -.157E+01 -.156E+01 0.220E+01   -.491E-02 0.115E-02 -.298E-02
   -.562E+03 -.593E+03 0.868E+03   0.560E+03 0.591E+03 -.864E+03   0.158E+01 0.159E+01 -.218E+01   -.150E-02 -.345E-02 0.770E-03
   -.567E+03 -.589E+03 -.857E+03   0.564E+03 0.587E+03 0.854E+03   0.156E+01 0.156E+01 0.220E+01   0.492E-02 -.295E-03 0.142E-02
   0.401E+03 0.979E+03 -.419E+03   -.399E+03 -.976E+03 0.419E+03   -.148E+01 -.182E+01 0.226E+00   -.382E-02 0.320E-02 -.740E-02
   -.100E+04 -.367E+03 -.573E+03   0.998E+03 0.364E+03 0.574E+03   0.164E+01 0.169E+01 -.646E+00   0.158E-02 0.837E-04 -.333E-02
   -.293E+03 0.359E+03 0.474E+03   0.293E+03 -.359E+03 -.475E+03   -.383E+00 0.369E+00 0.478E+00   -.429E-02 0.136E-03 -.434E-03
   0.979E+03 0.398E+03 0.418E+03   -.976E+03 -.395E+03 -.418E+03   -.183E+01 -.150E+01 -.209E+00   0.571E-02 -.143E-02 0.380E-02
   -.357E+03 -.101E+04 0.444E+03   0.354E+03 0.101E+04 -.443E+03   0.156E+01 0.182E+01 -.285E+00   0.295E-02 -.460E-02 -.578E-02
   -.387E+03 0.987E+03 -.422E+03   0.385E+03 -.984E+03 0.422E+03   0.149E+01 -.182E+01 0.221E+00   0.168E-03 0.329E-03 -.675E-02
   0.981E+03 -.393E+03 -.419E+03   -.978E+03 0.391E+03 0.419E+03   -.182E+01 0.150E+01 0.234E+00   0.292E-03 -.539E-02 -.326E-02
   -.980E+03 0.456E+03 0.453E+03   0.977E+03 -.454E+03 -.452E+03   0.181E+01 -.140E+01 -.166E+00   -.512E-02 0.940E-03 -.279E-02
   0.415E+03 -.981E+03 0.424E+03   -.413E+03 0.978E+03 -.423E+03   -.152E+01 0.181E+01 -.202E+00   0.148E-02 -.338E-02 -.494E-02
   0.339E+03 0.332E+03 0.459E+03   -.340E+03 -.332E+03 -.460E+03   0.380E+00 0.366E+00 0.511E+00   0.475E-02 -.367E-02 0.379E-02
   0.167E+02 0.658E+03 -.107E+01   -.167E+02 -.659E+03 0.108E+01   -.140E-01 0.712E+00 0.191E-02   -.403E-02 0.589E-02 -.953E-02
   -.575E+03 0.222E+02 0.101E+04   0.574E+03 -.222E+02 -.101E+04   0.260E+00 -.496E-01 -.243E+01   -.187E-02 -.112E-02 0.305E-02
   -.578E+03 0.164E+02 -.100E+04   0.577E+03 -.164E+02 0.100E+04   0.291E+00 0.400E-02 0.238E+01   0.160E-02 -.929E-03 0.589E-03
   0.597E+03 0.319E+01 0.970E+03   -.596E+03 -.321E+01 -.967E+03   -.303E+00 0.223E-01 -.235E+01   0.345E-02 -.299E-02 0.284E-02
   0.596E+03 0.291E+01 -.970E+03   -.595E+03 -.292E+01 0.967E+03   -.311E+00 0.123E-01 0.235E+01   -.297E-02 -.315E-02 -.423E-02
   0.770E+03 0.767E+03 -.406E+00   -.768E+03 -.765E+03 0.408E+00   -.116E+01 -.113E+01 0.103E-02   0.340E-02 0.368E-02 -.398E-02
   -.541E+03 -.108E+04 -.631E+02   0.538E+03 0.107E+04 0.632E+02   -.271E+01 0.887E+01 0.131E+01   0.143E-02 -.296E-02 -.754E-02
   -.752E+03 0.802E+03 -.215E+01   0.750E+03 -.800E+03 0.220E+01   0.122E+01 -.135E+01 -.249E-01   -.367E-02 0.227E-02 -.740E-02
   0.778E+03 -.763E+03 -.715E+00   -.776E+03 0.761E+03 0.719E+00   -.111E+01 0.116E+01 -.635E-03   -.152E-02 -.614E-02 -.175E-02
   0.194E+02 0.894E+01 0.109E+04   -.193E+02 -.889E+01 -.109E+04   -.153E-01 -.447E-01 -.161E+01   0.286E-02 -.407E-02 0.443E-02
   0.162E+02 0.745E+01 -.109E+04   -.161E+02 -.742E+01 0.108E+04   -.175E-01 -.270E-01 0.160E+01   -.318E-02 -.230E-02 -.238E-02
   0.979E+03 0.397E+03 -.419E+03   -.976E+03 -.395E+03 0.418E+03   -.182E+01 -.150E+01 0.208E+00   0.194E-02 -.120E-02 -.468E-02
   -.363E+03 -.100E+04 -.445E+03   0.360E+03 0.100E+04 0.445E+03   0.149E+01 0.187E+01 0.392E+00   0.318E-02 0.525E-03 -.317E-02
   -.297E+03 0.353E+03 -.476E+03   0.297E+03 -.354E+03 0.477E+03   -.425E+00 0.349E+00 -.410E+00   -.359E-02 -.134E-03 -.104E-01
   0.350E+03 -.319E+03 0.463E+03   -.350E+03 0.319E+03 -.463E+03   0.340E+00 -.362E+00 0.492E+00   0.296E-02 -.802E-02 0.458E-03
   0.338E+03 0.331E+03 -.460E+03   -.338E+03 -.332E+03 0.461E+03   0.367E+00 0.374E+00 -.519E+00   -.447E-02 0.108E-02 -.111E-01
   -.978E+03 0.444E+03 -.453E+03   0.975E+03 -.442E+03 0.453E+03   0.186E+01 -.146E+01 0.210E+00   -.130E-04 -.137E-02 -.411E-02
   0.414E+03 -.980E+03 -.425E+03   -.411E+03 0.977E+03 0.424E+03   -.151E+01 0.180E+01 0.207E+00   -.496E-02 -.804E-03 -.184E-02
   -.233E+03 -.311E+03 0.523E+03   0.233E+03 0.312E+03 -.524E+03   0.332E-01 -.342E+00 0.930E+00   0.594E-03 -.555E-02 -.321E-02
   0.656E+03 0.496E+01 -.692E+00   -.657E+03 -.492E+01 0.693E+00   0.737E+00 -.244E-01 0.133E-02   0.338E-02 -.656E-02 -.176E-02
   -.532E+03 0.253E+03 -.355E+02   0.534E+03 -.248E+03 0.348E+02   -.221E+01 -.613E+01 0.849E+00   -.435E-02 -.289E-02 -.984E-02
   0.219E+02 -.593E+03 0.985E+03   -.219E+02 0.592E+03 -.982E+03   -.131E-01 0.344E+00 -.237E+01   0.356E-02 -.288E-02 -.804E-03
   0.182E+02 -.592E+03 -.984E+03   -.181E+02 0.591E+03 0.980E+03   -.153E-01 0.343E+00 0.236E+01   -.223E-02 -.169E-02 0.371E-03
   0.523E+02 0.239E+02 -.336E+01   -.524E+02 -.240E+02 0.337E+01   0.108E-01 0.223E-01 0.851E-03   -.314E-02 -.720E-02 -.749E-02
   0.347E+03 -.319E+03 -.464E+03   -.347E+03 0.320E+03 0.465E+03   0.349E+00 -.349E+00 -.496E+00   -.363E-02 -.807E-02 -.752E-02
   -.257E+03 -.314E+03 -.517E+03   0.257E+03 0.314E+03 0.519E+03   -.116E+00 -.356E+00 -.807E+00   -.116E-02 -.544E-02 -.791E-02
   0.593E+02 -.657E+03 -.378E+01   -.592E+02 0.658E+03 0.381E+01   -.156E+00 -.790E+00 -.765E-02   0.490E-03 -.862E-02 -.628E-02
   -.128E+03 -.596E+02 0.135E+02   0.106E+03 0.445E+02 -.120E+02   0.123E+02 0.665E+01 -.124E+01   -.601E-03 -.138E-02 -.330E-02
   -.842E+03 -.405E+03 0.195E+02   0.910E+03 0.425E+03 -.205E+02   -.536E+02 -.168E+02 -.233E+00   -.786E-03 -.116E-02 -.443E-02
 -----------------------------------------------------------------------------------------------
   0.476E+02 0.819E+01 -.134E+00   0.796E-12 -.148E-11 -.171E-11   -.476E+02 -.811E+01 0.286E+00   -.231E-01 -.784E-01 -.152E+00
 
 
 POSITION                                       TOTAL-FORCE (eV/Angst)
 -----------------------------------------------------------------------------------
     13.37281      9.84801     12.50759         0.697391      1.109296      0.293383
     20.15199     16.62719     12.50759        -0.939496     -1.025925     -0.696406
     16.62719      9.84801     12.50759        -0.701665      1.107420      0.290812
      9.84801     16.62719     12.50759         1.103607     -0.700356      0.297109
     15.00000     11.47521     10.20639        -0.006647      0.414439      1.271980
     15.00000     11.47521     19.79360        -0.015012      0.407868     -1.266363
     15.00000      8.28283     15.00000         0.000852      1.515315      0.000458
      8.28283     15.00000     15.00000         1.517142      0.006267     -0.000657
     21.71717     15.00000     15.00000        -1.209516     -0.268557      0.044195
     15.00000     21.71717     15.00000         0.021181     -1.514689      0.003702
     18.35858     11.64142     10.25025        -0.742861      0.755802      1.077533
     18.35858     11.64142     19.74975        -0.746150      0.757581     -1.074084
     11.64142     18.35858     10.25025         0.757247     -0.752688      1.070166
     11.64142     18.35858     19.74975         0.757774     -0.755891     -1.071284
     11.64142     11.64142     10.25025         0.755794      0.755182      1.071868
     11.64142     11.64142     19.74975         0.759035      0.751393     -1.070196
     18.35858     18.35858     10.25025        -0.772851     -0.728783      1.012462
     18.35858     18.35858     19.74975        -0.762041     -0.748120     -1.042677
     13.37281      9.84801     17.49241         0.694269      1.109610     -0.292370
     20.15199     16.62719     17.49241        -1.050323     -0.850633      0.168370
     16.73751     13.26249     12.54279         0.105910     -0.143653     -0.190920
      9.84801     13.37281     12.50759         1.108257      0.698901      0.286858
     16.62719     20.15199     12.50759        -0.789238     -1.065236      0.245447
     16.62719      9.84801     17.49241        -0.702407      1.111966     -0.292956
      9.84801     16.62719     17.49241         1.100199     -0.700337     -0.296637
     20.15199     13.37281     12.50759        -1.128492      0.629426      0.219447
     13.37281     20.15199     12.50759         0.719344     -1.108983      0.290651
     13.26249     13.26249     12.54279        -0.115543     -0.113123     -0.150414
     15.00000     11.52498     15.00000         0.011020     -0.217027      0.000246
     18.52479     15.00000     10.20639        -0.385963     -0.004785      1.236314
     18.52479     15.00000     19.79360        -0.409729     -0.006512     -1.262046
     11.47521     15.00000     10.20640         0.416768     -0.004800      1.279035
     11.47521     15.00000     19.79360         0.416984     -0.001679     -1.279246
     11.49535     11.49535     15.00000         0.834294      0.822768     -0.001025
     18.50465     18.50465     15.00000        -5.334649      5.766830      1.379209
     18.50465     11.49535     15.00000        -0.846220      0.853486      0.014092
     11.49535     18.50465     15.00000         0.814441     -0.836521      0.001461
     15.00000     15.00000     10.04368        -0.001428      0.004333      1.175805
     15.00000     15.00000     19.95633         0.001729      0.003788     -1.179121
      9.84801     13.37281     17.49241         1.107957      0.701264     -0.287135
     16.62719     20.15199     17.49241        -0.764909     -1.073807     -0.276632
     16.73751     13.26249     17.45721         0.125058     -0.140307      0.179835
     13.26249     16.73751     12.54279        -0.108468      0.110251     -0.156972
     13.26249     13.26249     17.45721        -0.109341     -0.114296      0.149308
     20.15199     13.37281     17.49241        -1.128133      0.654733     -0.233323
     13.37281     20.15199     17.49241         0.713185     -1.110927     -0.295474
     16.73751     16.73751     12.54279        -0.004277      0.082231     -0.228343
     11.52498     15.00000     15.00000        -0.224340      0.004866      0.000337
     18.47502     15.00000     15.00000        -0.305820     -0.707772      0.114993
     15.00000     18.52480     10.20639         0.002021     -0.437098      1.269222
     15.00000     18.52480     19.79360         0.002496     -0.430207     -1.270727
     15.00000     15.00000     15.00000        -0.086764     -0.015300      0.002329
     13.26249     16.73751     17.45721        -0.109649      0.111383      0.160172
     16.73751     16.73751     17.45721         0.016399      0.093561      0.254870
     15.00000     18.47502     15.00000        -0.018096      0.273695      0.010653
     18.96470     16.80920     14.74584        -9.462605     -8.376423      0.225851
     19.98916     17.27669     14.68017        14.422279      3.340782     -1.183163
 -----------------------------------------------------------------------------------
    total drift:                               -0.000397      0.004900      0.000101


--------------------------------------------------------------------------------------------------------



  FREE ENERGIE OF THE ION-ELECTRON SYSTEM (eV)
  ---------------------------------------------------
  free  energy   TOTEN  =      -173.16314049 eV

  energy  without entropy=     -173.11255009  energy(sigma->0) =     -173.15049289
 


--------------------------------------------------------------------------------------------------------


    POTLOK:  cpu time   13.6005: real time   13.6006


--------------------------------------------------------------------------------------------------------


     LOOP+:  cpu time17678.7764: real time17679.1628
    4ORBIT:  cpu time    0.0000: real time    0.0000

 total amount of memory used by VASP MPI-rank0  5486941. kBytes
=======================================================================

   base      :      30000. kBytes
   nonlr-proj:      17126. kBytes
   fftplans  :     924480. kBytes
   grid      :    1872000. kBytes
   one-center:        886. kBytes
   wavefun   :    2642449. kBytes
 
  
  
 General timing and accounting informations for this job:
 ========================================================
  
                  Total CPU time used (sec):    17751.443
                            User time (sec):    16766.461
                          System time (sec):      984.983
                         Elapsed time (sec):    17751.866
  
                   Maximum memory used (kb):     7179104.
                   Average memory used (kb):           0.
  
                          Minor page faults:    825330783
                          Major page faults:            0
                 Voluntary context switches:          351
