 running on    1 total cores
 distrk:  each k-point on    1 cores,    1 groups
 distr:  one band on    1 cores,    1 groups
 using from now: INCAR     
 vasp.5.4.4.18Apr17-6-g9f103f2a35 (build Sep 03 2018 23:53:05) complex          
  
 POSCAR found type information on POSCAR  Pd C  O 
 POSCAR found :  3 types and      57 ions
 scaLAPACK will be used

 ----------------------------------------------------------------------------- 
|                                                                             |
|  ADVICE TO THIS USER RUNNING 'VASP/VAMP'   (HEAR YOUR MASTER'S VOICE ...):  |
|                                                                             |
|      You enforced a specific xc-type in the INCAR file,                     |
|      a different type was found on the POTCAR file                          |
|          I HOPE YOU KNOW, WHAT YOU ARE  DOING                               |
|                                                                             |
 ----------------------------------------------------------------------------- 

 LDA part: xc-table for Pade appr. of Perdew
 POSCAR, INCAR and KPOINTS ok, starting setup
 FFT: planning ...
 WAVECAR not read
 entering main loop
       N       E                     dE             d eps       ncg     rms          rms(c)
DAV:   1     0.438860967372E+04    0.43886E+04   -0.10050E+05   688   0.815E+02
DAV:   2     0.202672441387E+04   -0.23619E+04   -0.21218E+04  1208   0.105E+02
DAV:   3     0.240620998621E+03   -0.17861E+04   -0.16756E+04  1000   0.919E+01
DAV:   4    -0.134036494004E+03   -0.37466E+03   -0.31666E+03   824   0.437E+01
DAV:   5    -0.179926312149E+03   -0.45890E+02   -0.38557E+02  1040   0.147E+01    0.155E+01
RMM:   6    -0.180707927786E+03   -0.78162E+00   -0.60055E+01   734   0.899E+00    0.232E+01
RMM:   7    -0.182837594956E+03   -0.21297E+01   -0.20228E+01   851   0.476E+00    0.235E+01
RMM:   8    -0.184772667700E+03   -0.19351E+01   -0.74680E+00   783   0.347E+00    0.275E+01
RMM:   9    -0.183045453415E+03    0.17272E+01   -0.58531E+00   729   0.315E+00    0.260E+01
RMM:  10    -0.181404041668E+03    0.16414E+01   -0.36667E+00   735   0.272E+00    0.207E+01
RMM:  11    -0.179195574899E+03    0.22085E+01   -0.23959E+00   733   0.229E+00    0.193E+01
RMM:  12    -0.178216055100E+03    0.97952E+00   -0.16551E+00   727   0.191E+00    0.153E+01
RMM:  13    -0.176871027682E+03    0.13450E+01   -0.14889E+00   713   0.181E+00    0.119E+01
RMM:  14    -0.176784521724E+03    0.86506E-01   -0.16245E+00   705   0.187E+00    0.128E+01
RMM:  15    -0.177301235893E+03   -0.51671E+00   -0.10400E+00   719   0.151E+00    0.207E+01
RMM:  16    -0.176377989834E+03    0.92325E+00   -0.81922E-01   724   0.137E+00    0.132E+01
RMM:  17    -0.176062320907E+03    0.31567E+00   -0.61791E-01   703   0.119E+00    0.108E+01
RMM:  18    -0.176131623641E+03   -0.69303E-01   -0.37855E-01   713   0.949E-01    0.121E+01
RMM:  19    -0.176013715456E+03    0.11791E+00   -0.38083E-01   714   0.941E-01    0.106E+01
RMM:  20    -0.175707518854E+03    0.30620E+00   -0.33166E-01   702   0.894E-01    0.859E+00
RMM:  21    -0.175616596364E+03    0.90922E-01   -0.17625E-01   698   0.666E-01    0.719E+00
RMM:  22    -0.175555074739E+03    0.61522E-01   -0.19358E-01   696   0.676E-01    0.641E+00
RMM:  23    -0.175524075243E+03    0.30999E-01   -0.16843E-01   698   0.647E-01    0.618E+00
RMM:  24    -0.175450364828E+03    0.73710E-01   -0.12424E-01   701   0.556E-01    0.564E+00
RMM:  25    -0.175332009404E+03    0.11836E+00   -0.83493E-02   696   0.454E-01    0.356E+00
RMM:  26    -0.175276286725E+03    0.55723E-01   -0.46636E-02   696   0.352E-01    0.235E+00
RMM:  27    -0.175263729354E+03    0.12557E-01   -0.31148E-02   696   0.280E-01    0.197E+00
RMM:  28    -0.175253476371E+03    0.10253E-01   -0.18996E-02   695   0.222E-01    0.176E+00
RMM:  29    -0.175246158517E+03    0.73179E-02   -0.11716E-02   700   0.176E-01    0.172E+00
RMM:  30    -0.175234274404E+03    0.11884E-01   -0.10256E-02   696   0.158E-01    0.115E+00
RMM:  31    -0.175230378910E+03    0.38955E-02   -0.87150E-03   698   0.143E-01    0.104E+00
RMM:  32    -0.175230626375E+03   -0.24747E-03   -0.66133E-03   695   0.127E-01    0.120E+00
RMM:  33    -0.175227582199E+03    0.30442E-02   -0.51453E-03   694   0.117E-01    0.961E-01
RMM:  34    -0.175225500145E+03    0.20821E-02   -0.26711E-03   694   0.884E-02    0.650E-01
RMM:  35    -0.175227052126E+03   -0.15520E-02   -0.27896E-03   692   0.820E-02    0.566E-01
RMM:  36    -0.175226959518E+03    0.92608E-04   -0.15723E-03   694   0.657E-02    0.332E-01
RMM:  37    -0.175228464596E+03   -0.15051E-02   -0.83213E-04   690   0.457E-02    0.381E-01
RMM:  38    -0.175230016634E+03   -0.15520E-02   -0.51678E-04   593   0.380E-02    0.185E-01
RMM:  39    -0.175231463842E+03   -0.14472E-02   -0.37861E-04   478   0.320E-02    0.192E-01
RMM:  40    -0.175236283888E+03   -0.48200E-02   -0.79176E-04   663   0.403E-02    0.258E-01
RMM:  41    -0.175238344968E+03   -0.20611E-02   -0.45744E-04   524   0.315E-02    0.142E-01
RMM:  42    -0.175240605675E+03   -0.22607E-02   -0.34713E-04   452   0.270E-02    0.184E-01
RMM:  43    -0.175244323888E+03   -0.37182E-02   -0.62062E-04   563   0.304E-02    0.130E-01
RMM:  44    -0.175245246075E+03   -0.92219E-03   -0.17932E-04   425   0.178E-02    0.945E-02
RMM:  45    -0.175247349059E+03   -0.21030E-02   -0.23631E-04   433   0.181E-02    0.823E-02
RMM:  46    -0.175248281483E+03   -0.93242E-03   -0.12407E-04   411   0.141E-02    0.594E-02
RMM:  47    -0.175249569552E+03   -0.12881E-02   -0.11685E-04   409   0.130E-02    0.749E-02
RMM:  48    -0.175250441781E+03   -0.87223E-03   -0.84436E-05   409   0.110E-02    0.363E-02
RMM:  49    -0.175250933151E+03   -0.49137E-03   -0.46016E-05   405   0.772E-03    0.400E-02
RMM:  50    -0.175251748434E+03   -0.81528E-03   -0.41329E-05   402   0.721E-03    0.269E-02
RMM:  51    -0.175251927506E+03   -0.17907E-03   -0.15150E-05   270   0.487E-03    0.239E-02
RMM:  52    -0.175252518153E+03   -0.59065E-03   -0.14204E-05   271   0.488E-03    0.190E-02
RMM:  53    -0.175252791655E+03   -0.27350E-03   -0.63622E-06   189   0.419E-03    0.132E-02
RMM:  54    -0.175253191216E+03   -0.39956E-03   -0.15061E-05   285   0.468E-03    0.136E-02
RMM:  55    -0.175253491960E+03   -0.30074E-03   -0.87519E-06   193   0.413E-03    0.947E-03
RMM:  56    -0.175253679552E+03   -0.18759E-03   -0.12092E-05   212   0.413E-03    0.112E-02
RMM:  57    -0.175253807037E+03   -0.12749E-03   -0.59845E-06   153   0.364E-03    0.505E-03
RMM:  58    -0.175253890926E+03   -0.83888E-04   -0.18409E-06   110   0.358E-03
   1 F= -.17525389E+03 E0= -.17523399E+03  d E =-.796121E-01
================================= SLURM INFO ===================================
Command: run-cluster -n 1 -m 10000 -j 000483_vasp --same-node /opt/VASP/vasp
Exit code: 0
Job name: 000483_vasp
Job time: 0 days 5h:7m:10s
MPI task count: 1
Working dir: /home/pashkov/pyFitIt/pyfitit/data/adaptive_pd_co_new_2/sample/000483
Job was running on nodes: h23
Task per node: 1
       JobID     MaxRSS  MaxDiskRead MaxDiskWrite    Elapsed    JobName 
------------ ---------- ------------ ------------ ---------- ---------- 
107095                                              05:07:10 000483_va+ 
107095.batch                                        05:07:10      batch 
