<?xml version="1.0" encoding="ISO-8859-1"?>
<modeling>
 <generator>
  <i name="program" type="string">vasp </i>
  <i name="version" type="string">5.4.4.18Apr17-6-g9f103f2a35  </i>
  <i name="subversion" type="string">(build Sep 03 2018 23:53:05) complex            parallel </i>
  <i name="platform" type="string">LinuxIFC </i>
  <i name="date" type="string">2021 12 02 </i>
  <i name="time" type="string">23:38:00 </i>
 </generator>
 <incar>
  <i type="string" name="SYSTEM"> 6_Pd100_top_free_z(O)</i>
  <i type="int" name="ISTART">     0</i>
  <i type="string" name="PREC">normal   			! encut=max(enmax), ngx,y,z</i>
  <i type="string" name="ALGO"> Fast     			! Mix RMM-DIIS and Dav</i>
  <i type="logical" name="ADDGRID"> F  </i>
  <i type="int" name="ISPIN">     1</i>
  <i type="int" name="ICHARG">     2</i>
  <i type="int" name="NELM">   100</i>
  <i type="int" name="NELMIN">     6</i>
  <i type="int" name="IBRION">     2</i>
  <i name="EDIFF">      0.00010000</i>
  <i name="EDIFFG">     -0.05000000</i>
  <i type="int" name="NSW">     0</i>
  <i type="int" name="ISIF">     2</i>
  <i type="int" name="ISYM">     2</i>
  <i name="ENCUT">    400.00000000</i>
  <i type="string" name="LREAL"> Auto     			! Auto or A projection done</i>
  <i type="int" name="ISMEAR">     2</i>
  <i name="SIGMA">      0.20000000</i>
  <i type="logical" name="LWAVE"> F  </i>
  <i type="logical" name="LCHARG"> F  </i>
  <v type="int" name="KPOINT_BSE">    -1     0     0     0</v>
  <i type="int" name="MAXMEM"> 10000</i>
  <i type="int" name="NELM">   100</i>
  <i type="string" name="GGA"> RP         			! Revised PBE</i>
 </incar>
 <structure name="primitive_cell" >
  <crystal>
   <varray name="basis" >
    <v>      30.00000000       0.00000000       0.00000000 </v>
    <v>       0.00000000      30.00000000       0.00000000 </v>
    <v>       0.00000000       0.00000000      30.00000000 </v>
   </varray>
   <i name="volume">  27000.00000000 </i>
   <varray name="rec_basis" >
    <v>       0.03333333       0.00000000       0.00000000 </v>
    <v>       0.00000000       0.03333333       0.00000000 </v>
    <v>       0.00000000       0.00000000       0.03333333 </v>
   </varray>
  </crystal>
  <varray name="positions" >
   <v>       0.44576020       0.32826710       0.41691983 </v>
   <v>      -0.44576020       0.32826710       0.41691983 </v>
   <v>      -0.50000000       0.38250690       0.34021317 </v>
   <v>      -0.50000000       0.27609440      -0.50000000 </v>
   <v>       0.38804720       0.38804720       0.34167483 </v>
   <v>      -0.50000000       0.38416601      -0.50000000 </v>
   <v>       0.44208300       0.44208300       0.41809300 </v>
   <v>       0.38317830       0.38317830      -0.50000000 </v>
   <v>      -0.44208300       0.44208300       0.41809300 </v>
   <v>       0.44576020       0.32826710      -0.41691977 </v>
   <v>       0.32826705       0.44576024       0.41691983 </v>
   <v>      -0.38804720       0.38804720       0.34167483 </v>
   <v>      -0.38317830       0.38317830      -0.50000000 </v>
   <v>      -0.50000000      -0.50000000       0.33478917 </v>
   <v>      -0.50000000      -0.50000000      -0.50000000 </v>
   <v>      -0.44576020       0.32826710      -0.41691977 </v>
   <v>       0.38250685      -0.49999995       0.34021317 </v>
   <v>       0.44208300       0.44208300      -0.41809297 </v>
   <v>       0.38416599      -0.49999998      -0.50000000 </v>
   <v>      -0.44208300       0.44208300      -0.41809297 </v>
   <v>       0.44208298      -0.44208298       0.41809300 </v>
   <v>       0.32826705       0.44576024      -0.41691977 </v>
   <v>      -0.50000000       0.38250690      -0.34021320 </v>
   <v>       0.32826712      -0.44576022       0.41691983 </v>
   <v>      -0.38250685      -0.49999995       0.34021317 </v>
   <v>      -0.32826705       0.44576024       0.41691983 </v>
   <v>       0.27609443       0.49999998      -0.50000000 </v>
   <v>       0.38804720       0.38804720      -0.34167487 </v>
   <v>      -0.38416599      -0.49999998      -0.50000000 </v>
   <v>      -0.44208298      -0.44208298       0.41809300 </v>
   <v>       0.44208298      -0.44208298      -0.41809297 </v>
   <v>      -0.38804720       0.38804720      -0.34167487 </v>
   <v>       0.38804722      -0.38804722       0.34167483 </v>
   <v>       0.38250685      -0.49999995      -0.34021320 </v>
   <v>       0.32826712      -0.44576022      -0.41691977 </v>
   <v>      -0.32826705       0.44576024      -0.41691977 </v>
   <v>       0.50000000      -0.38250681       0.34021317 </v>
   <v>      -0.50000000      -0.38416596      -0.50000000 </v>
   <v>      -0.44208298      -0.44208298      -0.41809297 </v>
   <v>      -0.50000000      -0.50000000      -0.33478913 </v>
   <v>       0.38317828      -0.38317828      -0.50000000 </v>
   <v>      -0.32826712      -0.44576022       0.41691983 </v>
   <v>      -0.27609443       0.49999998      -0.50000000 </v>
   <v>      -0.38804722      -0.38804722       0.34167483 </v>
   <v>      -0.38250685      -0.49999995      -0.34021320 </v>
   <v>       0.44576027      -0.32826707       0.41691983 </v>
   <v>      -0.38317828      -0.38317828      -0.50000000 </v>
   <v>      -0.32826712      -0.44576022      -0.41691977 </v>
   <v>      -0.44576027      -0.32826707       0.41691983 </v>
   <v>       0.38804722      -0.38804722      -0.34167487 </v>
   <v>      -0.50000000      -0.38250681      -0.34021320 </v>
   <v>       0.44576027      -0.32826707      -0.41691977 </v>
   <v>      -0.34446680      -0.35616910       0.30685683 </v>
   <v>      -0.44576027      -0.32826707      -0.41691977 </v>
   <v>      -0.50000000      -0.27609445       0.50000000 </v>
   <v>      -0.38804722      -0.38804722      -0.34167487 </v>
   <v>      -0.32406720      -0.33730437       0.28152433 </v>
  </varray>
 </structure>
 <varray name="primitive_index" >
  <v type="int" >        1 </v>
  <v type="int" >        3 </v>
  <v type="int" >        5 </v>
  <v type="int" >        7 </v>
  <v type="int" >       15 </v>
  <v type="int" >       29 </v>
  <v type="int" >       28 </v>
  <v type="int" >       34 </v>
  <v type="int" >       21 </v>
  <v type="int" >       19 </v>
  <v type="int" >       22 </v>
  <v type="int" >       11 </v>
  <v type="int" >       36 </v>
  <v type="int" >       38 </v>
  <v type="int" >       52 </v>
  <v type="int" >       24 </v>
  <v type="int" >       32 </v>
  <v type="int" >       44 </v>
  <v type="int" >       48 </v>
  <v type="int" >       42 </v>
  <v type="int" >       43 </v>
  <v type="int" >       40 </v>
  <v type="int" >        6 </v>
  <v type="int" >        4 </v>
  <v type="int" >       30 </v>
  <v type="int" >       26 </v>
  <v type="int" >        8 </v>
  <v type="int" >       16 </v>
  <v type="int" >       49 </v>
  <v type="int" >       47 </v>
  <v type="int" >       53 </v>
  <v type="int" >       12 </v>
  <v type="int" >       13 </v>
  <v type="int" >       33 </v>
  <v type="int" >       25 </v>
  <v type="int" >       45 </v>
  <v type="int" >       50 </v>
  <v type="int" >       55 </v>
  <v type="int" >       54 </v>
  <v type="int" >       39 </v>
  <v type="int" >       37 </v>
  <v type="int" >        2 </v>
  <v type="int" >        9 </v>
  <v type="int" >       17 </v>
  <v type="int" >       31 </v>
  <v type="int" >       27 </v>
  <v type="int" >       35 </v>
  <v type="int" >       20 </v>
  <v type="int" >       23 </v>
  <v type="int" >       14 </v>
  <v type="int" >       51 </v>
  <v type="int" >       46 </v>
  <v type="int" >       56 </v>
  <v type="int" >       41 </v>
  <v type="int" >       10 </v>
  <v type="int" >       18 </v>
  <v type="int" >       57 </v>
 </varray>
 <kpoints>
  <generation param="Monkhorst-Pack">
   <v type="int" name="divisions">       1        1        1 </v>
   <v name="usershift">      0.00000000       0.00000000       0.00000000 </v>
   <v name="genvec1">      1.00000000       0.00000000       0.00000000 </v>
   <v name="genvec2">      0.00000000       1.00000000       0.00000000 </v>
   <v name="genvec3">      0.00000000       0.00000000       1.00000000 </v>
   <v name="shift">      0.00000000       0.00000000       0.00000000 </v>
  </generation>
  <varray name="kpointlist" >
   <v>       0.00000000       0.00000000       0.00000000 </v>
  </varray>
  <varray name="weights" >
   <v>       1.00000000 </v>
  </varray>
 </kpoints>
 <parameters>
  <separator name="general" >
   <i type="string" name="SYSTEM">6_Pd100_top_free_z(O)</i>
   <i type="logical" name="LCOMPAT"> F  </i>
  </separator>
  <separator name="electronic" >
   <i type="string" name="PREC">normal</i>
   <i name="ENMAX">    400.00000000</i>
   <i name="ENAUG">    644.87300000</i>
   <i name="EDIFF">      0.00010000</i>
   <i type="int" name="IALGO">    68</i>
   <i type="int" name="IWAVPR">    10</i>
   <i type="int" name="NBANDS">   336</i>
   <i name="NELECT">    560.00000000</i>
   <i type="int" name="TURBO">     0</i>
   <i type="int" name="IRESTART">     0</i>
   <i type="int" name="NREBOOT">     0</i>
   <i type="int" name="NMIN">     0</i>
   <i name="EREF">      0.00000000</i>
   <separator name="electronic smearing" >
    <i type="int" name="ISMEAR">     2</i>
    <i name="SIGMA">      0.20000000</i>
    <i name="KSPACING">      0.50000000</i>
    <i type="logical" name="KGAMMA"> T  </i>
   </separator>
   <separator name="electronic projectors" >
    <i type="logical" name="LREAL"> T  </i>
    <v name="ROPT">     -0.00050000     -0.00050000     -0.00050000</v>
    <i type="int" name="LMAXPAW">  -100</i>
    <i type="int" name="LMAXMIX">     2</i>
    <i type="logical" name="NLSPLINE"> F  </i>
   </separator>
   <separator name="electronic startup" >
    <i type="int" name="ISTART">     0</i>
    <i type="int" name="ICHARG">     2</i>
    <i type="int" name="INIWAV">     1</i>
   </separator>
   <separator name="electronic spin" >
    <i type="int" name="ISPIN">     1</i>
    <i type="logical" name="LNONCOLLINEAR"> F  </i>
    <v name="MAGMOM">      1.00000000      1.00000000      1.00000000      1.00000000      1.00000000      1.00000000      1.00000000      1.00000000      1.00000000      1.00000000      1.00000000      1.00000000      1.00000000      1.00000000      1.00000000      1.00000000      1.00000000      1.00000000      1.00000000      1.00000000
      1.00000000      1.00000000      1.00000000      1.00000000      1.00000000      1.00000000      1.00000000      1.00000000      1.00000000      1.00000000      1.00000000      1.00000000      1.00000000      1.00000000      1.00000000      1.00000000      1.00000000      1.00000000      1.00000000      1.00000000
      1.00000000      1.00000000      1.00000000      1.00000000      1.00000000      1.00000000      1.00000000      1.00000000      1.00000000      1.00000000      1.00000000      1.00000000      1.00000000      1.00000000      1.00000000      1.00000000      1.00000000</v>
    <i name="NUPDOWN">     -1.00000000</i>
    <i type="logical" name="LSORBIT"> F  </i>
    <v name="SAXIS">      0.00000000      0.00000000      1.00000000</v>
    <i type="logical" name="LSPIRAL"> F  </i>
    <v name="QSPIRAL">      0.00000000      0.00000000      0.00000000</v>
    <i type="logical" name="LZEROZ"> F  </i>
   </separator>
   <separator name="electronic exchange-correlation" >
    <i type="logical" name="LASPH"> F  </i>
    <i type="logical" name="LMETAGGA"> F  </i>
   </separator>
   <separator name="electronic convergence" >
    <i type="int" name="NELM">   100</i>
    <i type="int" name="NELMDL">    -5</i>
    <i type="int" name="NELMIN">     6</i>
    <i name="ENINI">    400.00000000</i>
    <separator name="electronic convergence detail" >
     <i type="logical" name="LDIAG"> T  </i>
     <i type="logical" name="LSUBROT"> F  </i>
     <i name="WEIMIN">      0.00000000</i>
     <i name="EBREAK">      0.00000007</i>
     <i name="DEPER">      0.30000000</i>
     <i type="int" name="NRMM">     4</i>
     <i name="TIME">      0.40000000</i>
    </separator>
   </separator>
   <separator name="electronic mixer" >
    <i name="AMIX">      0.40000000</i>
    <i name="BMIX">      1.00000000</i>
    <i name="AMIN">      0.10000000</i>
    <i name="AMIX_MAG">      1.60000000</i>
    <i name="BMIX_MAG">      1.00000000</i>
    <separator name="electronic mixer details" >
     <i type="int" name="IMIX">     4</i>
     <i type="logical" name="MIXFIRST"> F  </i>
     <i type="int" name="MAXMIX">   -45</i>
     <i name="WC">    100.00000000</i>
     <i type="int" name="INIMIX">     1</i>
     <i type="int" name="MIXPRE">     1</i>
     <i type="int" name="MREMOVE">     5</i>
    </separator>
   </separator>
   <separator name="electronic dipolcorrection" >
    <i type="logical" name="LDIPOL"> F  </i>
    <i type="logical" name="LMONO"> F  </i>
    <i type="int" name="IDIPOL">     0</i>
    <i name="EPSILON">      1.00000000</i>
    <v name="DIPOL">   -100.00000000   -100.00000000   -100.00000000</v>
    <i name="EFIELD">      0.00000000</i>
   </separator>
  </separator>
  <separator name="grids" >
   <i type="int" name="NGX">   150</i>
   <i type="int" name="NGY">   150</i>
   <i type="int" name="NGZ">   150</i>
   <i type="int" name="NGXF">   300</i>
   <i type="int" name="NGYF">   300</i>
   <i type="int" name="NGZF">   300</i>
   <i type="logical" name="ADDGRID"> F  </i>
  </separator>
  <separator name="ionic" >
   <i type="int" name="NSW">     0</i>
   <i type="int" name="IBRION">    -1</i>
   <i type="int" name="MDALGO">     0</i>
   <i type="int" name="ISIF">     2</i>
   <i name="PSTRESS">      0.00000000</i>
   <i name="EDIFFG">     -0.05000000</i>
   <i type="int" name="NFREE">     1</i>
   <i name="POTIM">      0.50000000</i>
   <i name="SMASS">     -3.00000000</i>
   <i name="SCALEE">      1.00000000</i>
  </separator>
  <separator name="ionic md" >
   <i name="TEBEG">      0.00010000</i>
   <i name="TEEND">      0.00010000</i>
   <i type="int" name="NBLOCK">     1</i>
   <i type="int" name="KBLOCK">     1</i>
   <i type="int" name="NPACO">   256</i>
   <i name="APACO">     16.00000000</i>
  </separator>
  <separator name="symmetry" >
   <i type="int" name="ISYM">     2</i>
   <i name="SYMPREC">      0.00001000</i>
  </separator>
  <separator name="dos" >
   <i type="int" name="LORBIT">     0</i>
   <v name="RWIGS">     -1.00000000     -1.00000000     -1.00000000</v>
   <i type="int" name="NEDOS">   301</i>
   <i name="EMIN">     10.00000000</i>
   <i name="EMAX">    -10.00000000</i>
   <i name="EFERMI">      0.00000000</i>
  </separator>
  <separator name="writing" >
   <i type="int" name="NWRITE">     2</i>
   <i type="logical" name="LWAVE"> F  </i>
   <i type="logical" name="LDOWNSAMPLE"> F  </i>
   <i type="logical" name="LCHARG"> F  </i>
   <i type="logical" name="LPARD"> F  </i>
   <i type="logical" name="LVTOT"> F  </i>
   <i type="logical" name="LVHAR"> F  </i>
   <i type="logical" name="LELF"> F  </i>
   <i type="logical" name="LOPTICS"> F  </i>
   <v name="STM">      0.00000000      0.00000000      0.00000000      0.00000000      0.00000000      0.00000000      0.00000000</v>
  </separator>
  <separator name="performance" >
   <i type="int" name="NPAR">     1</i>
   <i type="int" name="NSIM">     4</i>
   <i type="int" name="NBLK">    -1</i>
   <i type="logical" name="LPLANE"> T  </i>
   <i type="logical" name="LSCALAPACK"> T  </i>
   <i type="logical" name="LSCAAWARE"> F  </i>
   <i type="logical" name="LSCALU"> F  </i>
   <i type="logical" name="LASYNC"> F  </i>
   <i type="logical" name="LORBITALREAL"> F  </i>
  </separator>
  <separator name="miscellaneous" >
   <i type="int" name="IDIOT">     3</i>
   <i type="int" name="ISPECIAL">     0</i>
   <i type="logical" name="LMUSIC"> F  </i>
   <v name="POMASS">    106.42000000     12.01100000     16.00000000</v>
   <v name="DARWINR">      0.00000000      0.00000000      0.00000000</v>
   <v name="DARWINV">      1.00000000      1.00000000      1.00000000</v>
   <i type="logical" name="LCORR"> T  </i>
  </separator>
  <i type="logical" name="GGA_COMPAT"> T  </i>
  <i type="logical" name="LBERRY"> F  </i>
  <i type="int" name="ICORELEVEL">     0</i>
  <i type="logical" name="LDAU"> F  </i>
  <i type="int" name="I_CONSTRAINED_M">     0</i>
  <separator name="electronic exchange-correlation" >
   <i type="string" name="GGA">RP</i>
   <i type="int" name="VOSKOWN">     0</i>
   <i type="logical" name="LHFCALC"> F  </i>
   <i type="string" name="PRECFOCK"></i>
   <i type="logical" name="LSYMGRAD"> F  </i>
   <i type="logical" name="LHFONE"> F  </i>
   <i type="logical" name="LRHFCALC"> F  </i>
   <i type="logical" name="LTHOMAS"> F  </i>
   <i type="logical" name="LMODELHF"> F  </i>
   <i name="ENCUT4O">     -1.00000000</i>
   <i type="int" name="EXXOEP">     0</i>
   <i type="int" name="FOURORBIT">     0</i>
   <i name="AEXX">      0.00000000</i>
   <i name="HFALPHA">      0.00000000</i>
   <i name="MCALPHA">      0.00000000</i>
   <i name="ALDAX">      1.00000000</i>
   <i name="AGGAX">      1.00000000</i>
   <i name="ALDAC">      1.00000000</i>
   <i name="AGGAC">      1.00000000</i>
   <i type="int" name="NKREDX">     1</i>
   <i type="int" name="NKREDY">     1</i>
   <i type="int" name="NKREDZ">     1</i>
   <i type="logical" name="SHIFTRED"> F  </i>
   <i type="logical" name="ODDONLY"> F  </i>
   <i type="logical" name="EVENONLY"> F  </i>
   <i type="int" name="LMAXFOCK">     0</i>
   <i type="int" name="NMAXFOCKAE">     0</i>
   <i type="logical" name="LFOCKAEDFT"> F  </i>
   <i name="HFSCREEN">      0.00000000</i>
   <i name="HFSCREENC">      0.00000000</i>
   <i type="int" name="NBANDSGWLOW">     0</i>
  </separator>
  <separator name="vdW DFT" >
   <i type="logical" name="LUSE_VDW"> F  </i>
   <i name="Zab_VDW">     -0.84910000</i>
   <i name="PARAM1">      0.12340000</i>
   <i name="PARAM2">      1.00000000</i>
   <i name="PARAM3">      0.00000000</i>
  </separator>
  <separator name="model GW" >
   <i type="int" name="MODEL_GW">     0</i>
   <i name="MODEL_EPS0">    284.21052632</i>
   <i name="MODEL_ALPHA">      1.00000000</i>
  </separator>
  <separator name="linear response parameters" >
   <i type="logical" name="LEPSILON"> F  </i>
   <i type="logical" name="LRPA"> F  </i>
   <i type="logical" name="LNABLA"> F  </i>
   <i type="logical" name="LVEL"> F  </i>
   <i type="int" name="KINTER">     0</i>
   <i name="CSHIFT">      0.10000000</i>
   <i name="OMEGAMAX">     -1.00000000</i>
   <i name="DEG_THRESHOLD">      0.00200000</i>
   <i name="RTIME">     -0.10000000</i>
   <i name="WPLASMAI">      0.00000000</i>
   <v name="DFIELD">      0.00000000      0.00000000      0.00000000</v>
   <v name="WPLASMA">      0.00000000      0.00000000      0.00000000      0.00000000      0.00000000      0.00000000      0.00000000      0.00000000      0.00000000</v>
  </separator>
  <separator name="orbital magnetization" >
   <i type="logical" name="NUCIND"> F  </i>
   <v name="MAGPOS">      0.00000000      0.00000000      0.00000000</v>
   <i type="logical" name="LNICSALL"> T  </i>
   <i type="logical" name="ORBITALMAG"> F  </i>
   <i type="logical" name="LMAGBLOCH"> F  </i>
   <i type="logical" name="LCHIMAG"> F  </i>
   <i type="logical" name="LGAUGE"> T  </i>
   <i type="int" name="MAGATOM">     0</i>
   <v name="MAGDIPOL">      0.00000000      0.00000000      0.00000000</v>
   <v name="AVECCONST">      0.00000000      0.00000000      0.00000000</v>
  </separator>
  <separator name="response functions" >
   <i type="logical" name="LADDER"> F  </i>
   <i type="logical" name="LRPAFORCE"> F  </i>
   <i type="logical" name="LFXC"> F  </i>
   <i type="logical" name="LHARTREE"> T  </i>
   <i type="int" name="IBSE">     0</i>
   <v type="int" name="KPOINT">    -1     0     0     0</v>
   <i type="logical" name="LTCTE"> F  </i>
   <i type="logical" name="LTETE"> F  </i>
   <i type="logical" name="LTRIPLET"> F  </i>
   <i type="logical" name="LFXCEPS"> F  </i>
   <i type="logical" name="LFXHEG"> F  </i>
   <i type="int" name="NATURALO">     2</i>
   <i type="logical" name="L2ORDER"> F  </i>
   <i type="logical" name="LMP2LT"> F  </i>
   <i type="logical" name="LUSEW"> F  </i>
   <i name="ENCUTGW">     -2.00000000</i>
   <i name="ENCUTGWSOFT">     -2.00000000</i>
   <i name="ENCUTLF">     -1.00000000</i>
   <i type="int" name="LMAXMP2">    -1</i>
   <i name="SCISSOR">      0.00000000</i>
   <i type="int" name="NOMEGA">     0</i>
   <i type="int" name="NOMEGAR">     0</i>
   <i type="int" name="NBANDSGW">    -1</i>
   <i type="int" name="NBANDSO">    -1</i>
   <i type="int" name="NBANDSV">    -1</i>
   <i type="int" name="NELM">   100</i>
   <i type="int" name="NELMHF">     1</i>
   <i type="int" name="DIM">     3</i>
   <i type="int" name="ANTIRES">     0</i>
   <i name="OMEGAMAX">    -30.00000000</i>
   <i name="OMEGAMIN">    -30.00000000</i>
   <i name="OMEGATL">   -200.00000000</i>
   <i type="int" name="OMEGAGRID">   140</i>
   <i name="CSHIFT">     -0.10000000</i>
   <i type="logical" name="SELFENERGY"> F  </i>
   <i type="logical" name="LSPECTRAL"> F  </i>
   <i type="logical" name="LSPECTRALGW"> F  </i>
   <i type="logical" name="LSINGLES"> F  </i>
   <i type="logical" name="LFERMIGW"> F  </i>
   <i type="logical" name="ODDONLYGW"> F  </i>
   <i type="logical" name="EVENONLYGW"> F  </i>
   <i type="int" name="NKREDLFX">     1</i>
   <i type="int" name="NKREDLFY">     1</i>
   <i type="int" name="NKREDLFZ">     1</i>
   <i type="int" name="MAXMEM"> 10000</i>
   <i type="int" name="TELESCOPE">     0</i>
   <i type="int" name="TAUPAR">     1</i>
   <i type="int" name="OMEGAPAR">    -1</i>
   <i name="LAMBDA">      1.00000000</i>
  </separator>
  <separator name="External order field" >
   <i name="OFIELD_KAPPA">      0.00000000</i>
   <v name="OFIELD_K">      0.00000000      0.00000000      0.00000000</v>
   <i name="OFIELD_Q6_NEAR">      0.00000000</i>
   <i name="OFIELD_Q6_FAR">      0.00000000</i>
   <i name="OFIELD_A">      0.00000000</i>
  </separator>
 </parameters>
 <atominfo>
  <atoms>      57 </atoms>
  <types>       3 </types>
  <array name="atoms" >
   <dimension dim="1">ion</dimension>
   <field type="string">element</field>
   <field type="int">atomtype</field>
   <set>
    <rc><c>Pd</c><c>   1</c></rc>
    <rc><c>Pd</c><c>   1</c></rc>
    <rc><c>Pd</c><c>   1</c></rc>
    <rc><c>Pd</c><c>   1</c></rc>
    <rc><c>Pd</c><c>   1</c></rc>
    <rc><c>Pd</c><c>   1</c></rc>
    <rc><c>Pd</c><c>   1</c></rc>
    <rc><c>Pd</c><c>   1</c></rc>
    <rc><c>Pd</c><c>   1</c></rc>
    <rc><c>Pd</c><c>   1</c></rc>
    <rc><c>Pd</c><c>   1</c></rc>
    <rc><c>Pd</c><c>   1</c></rc>
    <rc><c>Pd</c><c>   1</c></rc>
    <rc><c>Pd</c><c>   1</c></rc>
    <rc><c>Pd</c><c>   1</c></rc>
    <rc><c>Pd</c><c>   1</c></rc>
    <rc><c>Pd</c><c>   1</c></rc>
    <rc><c>Pd</c><c>   1</c></rc>
    <rc><c>Pd</c><c>   1</c></rc>
    <rc><c>Pd</c><c>   1</c></rc>
    <rc><c>Pd</c><c>   1</c></rc>
    <rc><c>Pd</c><c>   1</c></rc>
    <rc><c>Pd</c><c>   1</c></rc>
    <rc><c>Pd</c><c>   1</c></rc>
    <rc><c>Pd</c><c>   1</c></rc>
    <rc><c>Pd</c><c>   1</c></rc>
    <rc><c>Pd</c><c>   1</c></rc>
    <rc><c>Pd</c><c>   1</c></rc>
    <rc><c>Pd</c><c>   1</c></rc>
    <rc><c>Pd</c><c>   1</c></rc>
    <rc><c>Pd</c><c>   1</c></rc>
    <rc><c>Pd</c><c>   1</c></rc>
    <rc><c>Pd</c><c>   1</c></rc>
    <rc><c>Pd</c><c>   1</c></rc>
    <rc><c>Pd</c><c>   1</c></rc>
    <rc><c>Pd</c><c>   1</c></rc>
    <rc><c>Pd</c><c>   1</c></rc>
    <rc><c>Pd</c><c>   1</c></rc>
    <rc><c>Pd</c><c>   1</c></rc>
    <rc><c>Pd</c><c>   1</c></rc>
    <rc><c>Pd</c><c>   1</c></rc>
    <rc><c>Pd</c><c>   1</c></rc>
    <rc><c>Pd</c><c>   1</c></rc>
    <rc><c>Pd</c><c>   1</c></rc>
    <rc><c>Pd</c><c>   1</c></rc>
    <rc><c>Pd</c><c>   1</c></rc>
    <rc><c>Pd</c><c>   1</c></rc>
    <rc><c>Pd</c><c>   1</c></rc>
    <rc><c>Pd</c><c>   1</c></rc>
    <rc><c>Pd</c><c>   1</c></rc>
    <rc><c>Pd</c><c>   1</c></rc>
    <rc><c>Pd</c><c>   1</c></rc>
    <rc><c>Pd</c><c>   1</c></rc>
    <rc><c>Pd</c><c>   1</c></rc>
    <rc><c>Pd</c><c>   1</c></rc>
    <rc><c>C </c><c>   2</c></rc>
    <rc><c>O </c><c>   3</c></rc>
   </set>
  </array>
  <array name="atomtypes" >
   <dimension dim="1">type</dimension>
   <field type="int">atomspertype</field>
   <field type="string">element</field>
   <field>mass</field>
   <field>valence</field>
   <field type="string">pseudopotential</field>
   <set>
    <rc><c>  55</c><c>Pd</c><c>    106.42000000</c><c>     10.00000000</c><c>  PAW_PBE Pd 04Jan2005                  </c></rc>
    <rc><c>   1</c><c>C </c><c>     12.01100000</c><c>      4.00000000</c><c>  PAW_PBE C 08Apr2002                   </c></rc>
    <rc><c>   1</c><c>O </c><c>     16.00000000</c><c>      6.00000000</c><c>  PAW_PBE O 08Apr2002                   </c></rc>
   </set>
  </array>
 </atominfo>
 <structure name="initialpos" >
  <crystal>
   <varray name="basis" >
    <v>      30.00000000       0.00000000       0.00000000 </v>
    <v>       0.00000000      30.00000000       0.00000000 </v>
    <v>       0.00000000       0.00000000      30.00000000 </v>
   </varray>
   <i name="volume">  27000.00000000 </i>
   <varray name="rec_basis" >
    <v>       0.03333333       0.00000000       0.00000000 </v>
    <v>       0.00000000       0.03333333       0.00000000 </v>
    <v>       0.00000000       0.00000000       0.03333333 </v>
   </varray>
  </crystal>
  <varray name="positions" >
   <v>       0.44576020       0.32826710       0.41691983 </v>
   <v>       0.67173288       0.55423978       0.41691983 </v>
   <v>       0.55423980       0.32826710       0.41691983 </v>
   <v>       0.32826712       0.55423978       0.41691983 </v>
   <v>       0.50000000       0.38250690       0.34021317 </v>
   <v>       0.50000000       0.38250690       0.65978680 </v>
   <v>       0.50000000       0.27609440       0.50000000 </v>
   <v>       0.27609443       0.49999998       0.50000000 </v>
   <v>       0.72390557       0.49999998       0.50000000 </v>
   <v>       0.50000000       0.72390555       0.50000000 </v>
   <v>       0.61195280       0.38804720       0.34167483 </v>
   <v>       0.61195280       0.38804720       0.65832513 </v>
   <v>       0.38804722       0.61195278       0.34167483 </v>
   <v>       0.38804722       0.61195278       0.65832513 </v>
   <v>       0.38804720       0.38804720       0.34167483 </v>
   <v>       0.38804720       0.38804720       0.65832513 </v>
   <v>       0.61195278       0.61195278       0.34167483 </v>
   <v>       0.61195278       0.61195278       0.65832513 </v>
   <v>       0.44576020       0.32826710       0.58308023 </v>
   <v>       0.67173288       0.55423978       0.58308023 </v>
   <v>       0.55791699       0.44208301       0.41809300 </v>
   <v>       0.32826705       0.44576024       0.41691983 </v>
   <v>       0.55423973       0.67173293       0.41691983 </v>
   <v>       0.55423980       0.32826710       0.58308023 </v>
   <v>       0.32826712       0.55423978       0.58308023 </v>
   <v>       0.67173295       0.44576024       0.41691983 </v>
   <v>       0.44576027       0.67173293       0.41691983 </v>
   <v>       0.44208301       0.44208301       0.41809300 </v>
   <v>       0.50000000       0.38416601       0.50000000 </v>
   <v>       0.61749315       0.50000005       0.34021317 </v>
   <v>       0.61749315       0.50000005       0.65978680 </v>
   <v>       0.38250685       0.50000005       0.34021317 </v>
   <v>       0.38250685       0.50000005       0.65978680 </v>
   <v>       0.38317830       0.38317830       0.50000000 </v>
   <v>       0.61682172       0.61682172       0.50000000 </v>
   <v>       0.61682170       0.38317830       0.50000000 </v>
   <v>       0.38317828       0.61682172       0.50000000 </v>
   <v>       0.50000000       0.50000000       0.33478917 </v>
   <v>       0.50000000       0.50000000       0.66521087 </v>
   <v>       0.32826705       0.44576024       0.58308023 </v>
   <v>       0.55423973       0.67173293       0.58308023 </v>
   <v>       0.55791699       0.44208301       0.58190703 </v>
   <v>       0.44208298       0.55791702       0.41809300 </v>
   <v>       0.44208301       0.44208301       0.58190703 </v>
   <v>       0.67173295       0.44576024       0.58308023 </v>
   <v>       0.44576027       0.67173293       0.58308023 </v>
   <v>       0.55791702       0.55791702       0.41809300 </v>
   <v>       0.38416599       0.50000002       0.50000000 </v>
   <v>       0.61583401       0.50000002       0.50000000 </v>
   <v>       0.50000000       0.61749319       0.34021317 </v>
   <v>       0.50000000       0.61749319       0.65978680 </v>
   <v>       0.50000000       0.50000000       0.50000000 </v>
   <v>       0.44208298       0.55791702       0.58190703 </v>
   <v>       0.55791702       0.55791702       0.58190703 </v>
   <v>       0.50000000       0.61583404       0.50000000 </v>
   <v>       0.65553320       0.64383090       0.30685683 </v>
   <v>       0.67593280       0.66269563       0.28152433 </v>
  </varray>
  <varray name="selective"  type="logical" >
   <v type="logical" >  F  F  F </v>
   <v type="logical" >  F  F  F </v>
   <v type="logical" >  F  F  F </v>
   <v type="logical" >  F  F  F </v>
   <v type="logical" >  F  F  F </v>
   <v type="logical" >  F  F  F </v>
   <v type="logical" >  F  F  F </v>
   <v type="logical" >  F  F  F </v>
   <v type="logical" >  F  F  F </v>
   <v type="logical" >  F  F  F </v>
   <v type="logical" >  F  F  F </v>
   <v type="logical" >  F  F  F </v>
   <v type="logical" >  F  F  F </v>
   <v type="logical" >  F  F  F </v>
   <v type="logical" >  F  F  F </v>
   <v type="logical" >  F  F  F </v>
   <v type="logical" >  F  F  F </v>
   <v type="logical" >  F  F  F </v>
   <v type="logical" >  F  F  F </v>
   <v type="logical" >  F  F  F </v>
   <v type="logical" >  F  F  F </v>
   <v type="logical" >  F  F  F </v>
   <v type="logical" >  F  F  F </v>
   <v type="logical" >  F  F  F </v>
   <v type="logical" >  F  F  F </v>
   <v type="logical" >  F  F  F </v>
   <v type="logical" >  F  F  F </v>
   <v type="logical" >  F  F  F </v>
   <v type="logical" >  F  F  F </v>
   <v type="logical" >  F  F  F </v>
   <v type="logical" >  F  F  F </v>
   <v type="logical" >  F  F  F </v>
   <v type="logical" >  F  F  F </v>
   <v type="logical" >  F  F  F </v>
   <v type="logical" >  F  F  F </v>
   <v type="logical" >  F  F  F </v>
   <v type="logical" >  F  F  F </v>
   <v type="logical" >  F  F  F </v>
   <v type="logical" >  F  F  F </v>
   <v type="logical" >  F  F  F </v>
   <v type="logical" >  F  F  F </v>
   <v type="logical" >  F  F  F </v>
   <v type="logical" >  F  F  F </v>
   <v type="logical" >  F  F  F </v>
   <v type="logical" >  F  F  F </v>
   <v type="logical" >  F  F  F </v>
   <v type="logical" >  F  F  F </v>
   <v type="logical" >  F  F  F </v>
   <v type="logical" >  F  F  F </v>
   <v type="logical" >  F  F  F </v>
   <v type="logical" >  F  F  F </v>
   <v type="logical" >  F  F  F </v>
   <v type="logical" >  F  F  F </v>
   <v type="logical" >  F  F  F </v>
   <v type="logical" >  F  F  F </v>
   <v type="logical" >  F  F  F </v>
   <v type="logical" >  F  F  F </v>
  </varray>
  <nose>
   <v>      -3.00000000       0.00000000       0.00010000       0.00010000 </v>
  </nose>
 </structure>
 <calculation>
  <scstep>
   <time name="dav">  369.08  369.15</time>
   <time name="total">  383.63  383.70</time>
   <energy>
    <i name="alphaZ">     75.25431677 </i>
    <i name="ewald"> 137246.38332283 </i>
    <i name="hartreedc">-180607.13002910 </i>
    <i name="XCdc">  -1703.17060117 </i>
    <i name="pawpsdc">  44873.02882129 </i>
    <i name="pawaedc"> -41398.84523641 </i>
    <i name="eentropy">      0.04025095 </i>
    <i name="bandstr">    816.54333460 </i>
    <i name="atom">  45086.50549395 </i>
    <i name="e_fr_energy">   4388.60967372 </i>
    <i name="e_wo_entrp">   4388.56942277 </i>
    <i name="e_0_energy">   4388.59961098 </i>
   </energy>
  </scstep>
  <scstep>
   <time name="dav">  589.96  589.96</time>
   <time name="total">  589.96  589.97</time>
   <energy>
    <i name="e_fr_energy">   2026.72441387 </i>
    <i name="e_wo_entrp">   2026.68373247 </i>
    <i name="e_0_energy">   2026.71424352 </i>
   </energy>
  </scstep>
  <scstep>
   <time name="dav">  518.71  518.74</time>
   <time name="total">  518.71  518.74</time>
   <energy>
    <i name="e_fr_energy">    240.62099862 </i>
    <i name="e_wo_entrp">    240.58389140 </i>
    <i name="e_0_energy">    240.61172182 </i>
   </energy>
  </scstep>
  <scstep>
   <time name="dav">  441.85  441.88</time>
   <time name="total">  441.85  441.88</time>
   <energy>
    <i name="e_fr_energy">   -134.03649400 </i>
    <i name="e_wo_entrp">   -133.99714740 </i>
    <i name="e_0_energy">   -134.02665735 </i>
   </energy>
  </scstep>
  <scstep>
   <time name="dav">  539.85  539.89</time>
   <time name="total">  566.86  566.90</time>
   <energy>
    <i name="e_fr_energy">   -179.92631215 </i>
    <i name="e_wo_entrp">   -180.43518604 </i>
    <i name="e_0_energy">   -180.05353062 </i>
   </energy>
  </scstep>
  <scstep>
   <time name="diag">   71.28   71.28</time>
   <time name="diis">  204.92  204.94</time>
   <time name="orth">   13.60   13.60</time>
   <time name="total">  330.60  330.62</time>
   <energy>
    <i name="e_fr_energy">   -180.70792779 </i>
    <i name="e_wo_entrp">   -180.50651254 </i>
    <i name="e_0_energy">   -180.65757397 </i>
   </energy>
  </scstep>
  <scstep>
   <time name="diag">   72.23   72.23</time>
   <time name="diis">  235.31  235.31</time>
   <time name="orth">   13.76   13.76</time>
   <time name="total">  362.26  362.27</time>
   <energy>
    <i name="e_fr_energy">   -182.83759496 </i>
    <i name="e_wo_entrp">   -182.64840112 </i>
    <i name="e_0_energy">   -182.79029650 </i>
   </energy>
  </scstep>
  <scstep>
   <time name="diag">   72.53   72.53</time>
   <time name="diis">  216.07  216.07</time>
   <time name="orth">   13.79   13.79</time>
   <time name="total">  344.69  344.69</time>
   <energy>
    <i name="e_fr_energy">   -184.77266770 </i>
    <i name="e_wo_entrp">   -184.66542816 </i>
    <i name="e_0_energy">   -184.74585782 </i>
   </energy>
  </scstep>
  <scstep>
   <time name="diag">   72.38   72.38</time>
   <time name="diis">  200.63  200.62</time>
   <time name="orth">   14.03   14.03</time>
   <time name="total">  329.24  329.24</time>
   <energy>
    <i name="e_fr_energy">   -183.04545342 </i>
    <i name="e_wo_entrp">   -182.98262435 </i>
    <i name="e_0_energy">   -183.02974615 </i>
   </energy>
  </scstep>
  <scstep>
   <time name="diag">   72.43   72.43</time>
   <time name="diis">  201.17  201.17</time>
   <time name="orth">   14.14   14.14</time>
   <time name="total">  330.19  330.19</time>
   <energy>
    <i name="e_fr_energy">   -181.40404167 </i>
    <i name="e_wo_entrp">   -181.24888367 </i>
    <i name="e_0_energy">   -181.36525217 </i>
   </energy>
  </scstep>
  <scstep>
   <time name="diag">   72.88   72.88</time>
   <time name="diis">  201.63  201.63</time>
   <time name="orth">   14.25   14.25</time>
   <time name="total">  331.06  331.07</time>
   <energy>
    <i name="e_fr_energy">   -179.19557490 </i>
    <i name="e_wo_entrp">   -179.13846827 </i>
    <i name="e_0_energy">   -179.18129824 </i>
   </energy>
  </scstep>
  <scstep>
   <time name="diag">   72.31   72.31</time>
   <time name="diis">  200.05  200.05</time>
   <time name="orth">   14.11   14.11</time>
   <time name="total">  328.95  328.95</time>
   <energy>
    <i name="e_fr_energy">   -178.21605510 </i>
    <i name="e_wo_entrp">   -178.05104209 </i>
    <i name="e_0_energy">   -178.17480185 </i>
   </energy>
  </scstep>
  <scstep>
   <time name="diag">   72.56   72.56</time>
   <time name="diis">  196.41  196.41</time>
   <time name="orth">   14.14   14.14</time>
   <time name="total">  325.54  325.53</time>
   <energy>
    <i name="e_fr_energy">   -176.87102768 </i>
    <i name="e_wo_entrp">   -176.76510453 </i>
    <i name="e_0_energy">   -176.84454689 </i>
   </energy>
  </scstep>
  <scstep>
   <time name="diag">   72.48   72.47</time>
   <time name="diis">  193.12  193.12</time>
   <time name="orth">   14.18   14.18</time>
   <time name="total">  322.18  322.18</time>
   <energy>
    <i name="e_fr_energy">   -176.78452172 </i>
    <i name="e_wo_entrp">   -176.65723425 </i>
    <i name="e_0_energy">   -176.75269986 </i>
   </energy>
  </scstep>
  <scstep>
   <time name="diag">   71.24   71.24</time>
   <time name="diis">  197.70  197.69</time>
   <time name="orth">   13.90   13.90</time>
   <time name="total">  325.43  325.44</time>
   <energy>
    <i name="e_fr_energy">   -177.30123589 </i>
    <i name="e_wo_entrp">   -177.28217408 </i>
    <i name="e_0_energy">   -177.29647044 </i>
   </energy>
  </scstep>
  <scstep>
   <time name="diag">   70.96   70.95</time>
   <time name="diis">  200.47  200.48</time>
   <time name="orth">   13.86   13.86</time>
   <time name="total">  327.34  327.36</time>
   <energy>
    <i name="e_fr_energy">   -176.37798983 </i>
    <i name="e_wo_entrp">   -176.33322350 </i>
    <i name="e_0_energy">   -176.36679825 </i>
   </energy>
  </scstep>
  <scstep>
   <time name="diag">   71.20   71.21</time>
   <time name="diis">  193.20  193.21</time>
   <time name="orth">   14.07   14.07</time>
   <time name="total">  320.73  320.75</time>
   <energy>
    <i name="e_fr_energy">   -176.06232091 </i>
    <i name="e_wo_entrp">   -176.07731205 </i>
    <i name="e_0_energy">   -176.06606869 </i>
   </energy>
  </scstep>
  <scstep>
   <time name="diag">   71.87   71.87</time>
   <time name="diis">  194.91  194.91</time>
   <time name="orth">   14.13   14.13</time>
   <time name="total">  323.47  323.47</time>
   <energy>
    <i name="e_fr_energy">   -176.13162364 </i>
    <i name="e_wo_entrp">   -176.15775792 </i>
    <i name="e_0_energy">   -176.13815721 </i>
   </energy>
  </scstep>
  <scstep>
   <time name="diag">   71.35   71.35</time>
   <time name="diis">  196.36  196.36</time>
   <time name="orth">   15.30   15.32</time>
   <time name="total">  326.23  326.26</time>
   <energy>
    <i name="e_fr_energy">   -176.01371546 </i>
    <i name="e_wo_entrp">   -176.04788608 </i>
    <i name="e_0_energy">   -176.02225811 </i>
   </energy>
  </scstep>
  <scstep>
   <time name="diag">   71.25   71.25</time>
   <time name="diis">  193.88  193.88</time>
   <time name="orth">   14.09   14.09</time>
   <time name="total">  321.52  321.52</time>
   <energy>
    <i name="e_fr_energy">   -175.70751885 </i>
    <i name="e_wo_entrp">   -175.72785062 </i>
    <i name="e_0_energy">   -175.71260180 </i>
   </energy>
  </scstep>
  <scstep>
   <time name="diag">   71.74   71.74</time>
   <time name="diis">  192.18  192.17</time>
   <time name="orth">   14.31   14.31</time>
   <time name="total">  320.99  320.99</time>
   <energy>
    <i name="e_fr_energy">   -175.61659636 </i>
    <i name="e_wo_entrp">   -175.59547693 </i>
    <i name="e_0_energy">   -175.61131651 </i>
   </energy>
  </scstep>
  <scstep>
   <time name="diag">   71.95   71.95</time>
   <time name="diis">  191.02  191.02</time>
   <time name="orth">   14.26   14.26</time>
   <time name="total">  320.12  320.13</time>
   <energy>
    <i name="e_fr_energy">   -175.55507474 </i>
    <i name="e_wo_entrp">   -175.47451952 </i>
    <i name="e_0_energy">   -175.53493593 </i>
   </energy>
  </scstep>
  <scstep>
   <time name="diag">   71.77   71.77</time>
   <time name="diis">  193.09  193.09</time>
   <time name="orth">   14.24   14.24</time>
   <time name="total">  321.53  321.54</time>
   <energy>
    <i name="e_fr_energy">   -175.52407524 </i>
    <i name="e_wo_entrp">   -175.43743784 </i>
    <i name="e_0_energy">   -175.50241589 </i>
   </energy>
  </scstep>
  <scstep>
   <time name="diag">   71.02   71.02</time>
   <time name="diis">  193.08  193.08</time>
   <time name="orth">   14.04   14.04</time>
   <time name="total">  320.99  320.99</time>
   <energy>
    <i name="e_fr_energy">   -175.45036483 </i>
    <i name="e_wo_entrp">   -175.35063006 </i>
    <i name="e_0_energy">   -175.42543114 </i>
   </energy>
  </scstep>
  <scstep>
   <time name="diag">   71.42   71.42</time>
   <time name="diis">  190.04  190.04</time>
   <time name="orth">   14.17   14.17</time>
   <time name="total">  318.08  318.09</time>
   <energy>
    <i name="e_fr_energy">   -175.33200940 </i>
    <i name="e_wo_entrp">   -175.25167603 </i>
    <i name="e_0_energy">   -175.31192606 </i>
   </energy>
  </scstep>
  <scstep>
   <time name="diag">   71.01   71.02</time>
   <time name="diis">  191.36  191.36</time>
   <time name="orth">   13.87   13.87</time>
   <time name="total">  319.08  319.09</time>
   <energy>
    <i name="e_fr_energy">   -175.27628673 </i>
    <i name="e_wo_entrp">   -175.20446364 </i>
    <i name="e_0_energy">   -175.25833095 </i>
   </energy>
  </scstep>
  <scstep>
   <time name="diag">   71.63   71.63</time>
   <time name="diis">  189.41  189.41</time>
   <time name="orth">   14.06   14.06</time>
   <time name="total">  318.31  318.32</time>
   <energy>
    <i name="e_fr_energy">   -175.26372935 </i>
    <i name="e_wo_entrp">   -175.19053202 </i>
    <i name="e_0_energy">   -175.24543002 </i>
   </energy>
  </scstep>
  <scstep>
   <time name="diag">   71.18   71.18</time>
   <time name="diis">  189.38  189.38</time>
   <time name="orth">   13.95   13.95</time>
   <time name="total">  317.24  317.24</time>
   <energy>
    <i name="e_fr_energy">   -175.25347637 </i>
    <i name="e_wo_entrp">   -175.17350604 </i>
    <i name="e_0_energy">   -175.23348379 </i>
   </energy>
  </scstep>
  <scstep>
   <time name="diag">   70.22   70.22</time>
   <time name="diis">  182.90  182.90</time>
   <time name="orth">   13.51   13.51</time>
   <time name="total">  308.27  308.28</time>
   <energy>
    <i name="e_fr_energy">   -175.24615852 </i>
    <i name="e_wo_entrp">   -175.17132561 </i>
    <i name="e_0_energy">   -175.22745029 </i>
   </energy>
  </scstep>
  <scstep>
   <time name="diag">   69.06   69.06</time>
   <time name="diis">  188.11  188.12</time>
   <time name="orth">   14.01   14.01</time>
   <time name="total">  313.74  313.75</time>
   <energy>
    <i name="e_fr_energy">   -175.23427440 </i>
    <i name="e_wo_entrp">   -175.15905818 </i>
    <i name="e_0_energy">   -175.21547035 </i>
   </energy>
  </scstep>
  <scstep>
   <time name="diag">   71.33   71.33</time>
   <time name="diis">  190.12  190.11</time>
   <time name="orth">   14.04   14.04</time>
   <time name="total">  318.84  318.84</time>
   <energy>
    <i name="e_fr_energy">   -175.23037891 </i>
    <i name="e_wo_entrp">   -175.15337958 </i>
    <i name="e_0_energy">   -175.21112908 </i>
   </energy>
  </scstep>
  <scstep>
   <time name="diag">   71.21   71.20</time>
   <time name="diis">  189.38  189.38</time>
   <time name="orth">   13.93   13.93</time>
   <time name="total">  317.96  317.96</time>
   <energy>
    <i name="e_fr_energy">   -175.23062637 </i>
    <i name="e_wo_entrp">   -175.15395507 </i>
    <i name="e_0_energy">   -175.21145855 </i>
   </energy>
  </scstep>
  <scstep>
   <time name="diag">   71.47   71.47</time>
   <time name="diis">  189.30  189.30</time>
   <time name="orth">   13.96   13.96</time>
   <time name="total">  318.26  318.26</time>
   <energy>
    <i name="e_fr_energy">   -175.22758220 </i>
    <i name="e_wo_entrp">   -175.14912945 </i>
    <i name="e_0_energy">   -175.20796901 </i>
   </energy>
  </scstep>
  <scstep>
   <time name="diag">   70.76   70.76</time>
   <time name="diis">  188.96  188.96</time>
   <time name="orth">   13.84   13.84</time>
   <time name="total">  317.24  317.24</time>
   <energy>
    <i name="e_fr_energy">   -175.22550015 </i>
    <i name="e_wo_entrp">   -175.14425067 </i>
    <i name="e_0_energy">   -175.20518778 </i>
   </energy>
  </scstep>
  <scstep>
   <time name="diag">   70.43   70.43</time>
   <time name="diis">  188.89  188.89</time>
   <time name="orth">   14.22   14.22</time>
   <time name="total">  317.45  317.45</time>
   <energy>
    <i name="e_fr_energy">   -175.22705213 </i>
    <i name="e_wo_entrp">   -175.14460331 </i>
    <i name="e_0_energy">   -175.20643992 </i>
   </energy>
  </scstep>
  <scstep>
   <time name="diag">   70.48   70.48</time>
   <time name="diis">  189.62  189.61</time>
   <time name="orth">   14.00   14.00</time>
   <time name="total">  317.09  317.09</time>
   <energy>
    <i name="e_fr_energy">   -175.22695952 </i>
    <i name="e_wo_entrp">   -175.14842917 </i>
    <i name="e_0_energy">   -175.20732693 </i>
   </energy>
  </scstep>
  <scstep>
   <time name="diag">   69.22   69.22</time>
   <time name="diis">  190.02  190.02</time>
   <time name="orth">   13.49   13.49</time>
   <time name="total">  315.99  315.99</time>
   <energy>
    <i name="e_fr_energy">   -175.22846460 </i>
    <i name="e_wo_entrp">   -175.14842559 </i>
    <i name="e_0_energy">   -175.20845484 </i>
   </energy>
  </scstep>
  <scstep>
   <time name="diag">   69.69   69.69</time>
   <time name="diis">  165.37  165.37</time>
   <time name="orth">   13.41   13.40</time>
   <time name="total">  291.52  291.52</time>
   <energy>
    <i name="e_fr_energy">   -175.23001663 </i>
    <i name="e_wo_entrp">   -175.15029265 </i>
    <i name="e_0_energy">   -175.21008564 </i>
   </energy>
  </scstep>
  <scstep>
   <time name="diag">   71.47   71.48</time>
   <time name="diis">  138.65  138.65</time>
   <time name="orth">   13.81   13.81</time>
   <time name="total">  267.08  267.08</time>
   <energy>
    <i name="e_fr_energy">   -175.23146384 </i>
    <i name="e_wo_entrp">   -175.15118754 </i>
    <i name="e_0_energy">   -175.21139477 </i>
   </energy>
  </scstep>
  <scstep>
   <time name="diag">   71.22   71.22</time>
   <time name="diis">  184.69  184.69</time>
   <time name="orth">   13.49   13.49</time>
   <time name="total">  312.85  312.85</time>
   <energy>
    <i name="e_fr_energy">   -175.23628389 </i>
    <i name="e_wo_entrp">   -175.15572325 </i>
    <i name="e_0_energy">   -175.21614373 </i>
   </energy>
  </scstep>
  <scstep>
   <time name="diag">   70.44   70.44</time>
   <time name="diis">  148.74  148.73</time>
   <time name="orth">   13.98   13.98</time>
   <time name="total">  277.82  277.81</time>
   <energy>
    <i name="e_fr_energy">   -175.23834497 </i>
    <i name="e_wo_entrp">   -175.15924661 </i>
    <i name="e_0_energy">   -175.21857038 </i>
   </energy>
  </scstep>
  <scstep>
   <time name="diag">   71.99   71.99</time>
   <time name="diis">  128.67  128.67</time>
   <time name="orth">   14.15   14.15</time>
   <time name="total">  259.01  259.01</time>
   <energy>
    <i name="e_fr_energy">   -175.24060567 </i>
    <i name="e_wo_entrp">   -175.16070861 </i>
    <i name="e_0_energy">   -175.22063141 </i>
   </energy>
  </scstep>
  <scstep>
   <time name="diag">   72.35   72.35</time>
   <time name="diis">  155.28  155.29</time>
   <time name="orth">   13.67   13.67</time>
   <time name="total">  286.53  286.53</time>
   <energy>
    <i name="e_fr_energy">   -175.24432389 </i>
    <i name="e_wo_entrp">   -175.16365932 </i>
    <i name="e_0_energy">   -175.22415775 </i>
   </energy>
  </scstep>
  <scstep>
   <time name="diag">   71.63   71.63</time>
   <time name="diis">  123.62  123.62</time>
   <time name="orth">   13.54   13.54</time>
   <time name="total">  253.38  253.38</time>
   <energy>
    <i name="e_fr_energy">   -175.24524607 </i>
    <i name="e_wo_entrp">   -175.16570773 </i>
    <i name="e_0_energy">   -175.22536149 </i>
   </energy>
  </scstep>
  <scstep>
   <time name="diag">   71.93   71.93</time>
   <time name="diis">  126.08  126.08</time>
   <time name="orth">   13.47   13.47</time>
   <time name="total">  256.01  256.01</time>
   <energy>
    <i name="e_fr_energy">   -175.24734906 </i>
    <i name="e_wo_entrp">   -175.16776977 </i>
    <i name="e_0_energy">   -175.22745424 </i>
   </energy>
  </scstep>
  <scstep>
   <time name="diag">   70.34   70.34</time>
   <time name="diis">  119.85  119.85</time>
   <time name="orth">   14.00   14.00</time>
   <time name="total">  249.54  249.54</time>
   <energy>
    <i name="e_fr_energy">   -175.24828148 </i>
    <i name="e_wo_entrp">   -175.16845116 </i>
    <i name="e_0_energy">   -175.22832390 </i>
   </energy>
  </scstep>
  <scstep>
   <time name="diag">   70.37   70.37</time>
   <time name="diis">  117.90  117.90</time>
   <time name="orth">   13.67   13.67</time>
   <time name="total">  247.42  247.42</time>
   <energy>
    <i name="e_fr_energy">   -175.24956955 </i>
    <i name="e_wo_entrp">   -175.17014934 </i>
    <i name="e_0_energy">   -175.22971450 </i>
   </energy>
  </scstep>
  <scstep>
   <time name="diag">   71.09   71.09</time>
   <time name="diis">  117.24  117.24</time>
   <time name="orth">   13.24   13.24</time>
   <time name="total">  246.67  246.67</time>
   <energy>
    <i name="e_fr_energy">   -175.25044178 </i>
    <i name="e_wo_entrp">   -175.17087648 </i>
    <i name="e_0_energy">   -175.23055045 </i>
   </energy>
  </scstep>
  <scstep>
   <time name="diag">   70.71   70.71</time>
   <time name="diis">  117.91  117.91</time>
   <time name="orth">   13.33   13.33</time>
   <time name="total">  247.17  247.17</time>
   <energy>
    <i name="e_fr_energy">   -175.25093315 </i>
    <i name="e_wo_entrp">   -175.17128065 </i>
    <i name="e_0_energy">   -175.23102003 </i>
   </energy>
  </scstep>
  <scstep>
   <time name="diag">   70.47   70.47</time>
   <time name="diis">  117.79  117.79</time>
   <time name="orth">   13.53   13.53</time>
   <time name="total">  246.60  246.60</time>
   <energy>
    <i name="e_fr_energy">   -175.25174843 </i>
    <i name="e_wo_entrp">   -175.17210533 </i>
    <i name="e_0_energy">   -175.23183766 </i>
   </energy>
  </scstep>
  <scstep>
   <time name="diag">   70.11   70.12</time>
   <time name="diis">   99.81   99.81</time>
   <time name="orth">   13.83   13.83</time>
   <time name="total">  228.55  228.55</time>
   <energy>
    <i name="e_fr_energy">   -175.25192751 </i>
    <i name="e_wo_entrp">   -175.17226865 </i>
    <i name="e_0_energy">   -175.23201279 </i>
   </energy>
  </scstep>
  <scstep>
   <time name="diag">   70.56   70.56</time>
   <time name="diis">   98.58   98.58</time>
   <time name="orth">   13.49   13.49</time>
   <time name="total">  228.07  228.07</time>
   <energy>
    <i name="e_fr_energy">   -175.25251815 </i>
    <i name="e_wo_entrp">   -175.17297575 </i>
    <i name="e_0_energy">   -175.23263255 </i>
   </energy>
  </scstep>
  <scstep>
   <time name="diag">   70.77   70.77</time>
   <time name="diis">   89.46   89.46</time>
   <time name="orth">   13.54   13.54</time>
   <time name="total">  217.74  217.74</time>
   <energy>
    <i name="e_fr_energy">   -175.25279165 </i>
    <i name="e_wo_entrp">   -175.17316408 </i>
    <i name="e_0_energy">   -175.23288476 </i>
   </energy>
  </scstep>
  <scstep>
   <time name="diag">   69.77   69.77</time>
   <time name="diis">  101.23  101.23</time>
   <time name="orth">   13.67   13.67</time>
   <time name="total">  229.33  229.33</time>
   <energy>
    <i name="e_fr_energy">   -175.25319122 </i>
    <i name="e_wo_entrp">   -175.17347762 </i>
    <i name="e_0_energy">   -175.23326282 </i>
   </energy>
  </scstep>
  <scstep>
   <time name="diag">   69.49   69.49</time>
   <time name="diis">   87.48   87.48</time>
   <time name="orth">   13.22   13.22</time>
   <time name="total">  213.74  213.74</time>
   <energy>
    <i name="e_fr_energy">   -175.25349196 </i>
    <i name="e_wo_entrp">   -175.17394643 </i>
    <i name="e_0_energy">   -175.23360558 </i>
   </energy>
  </scstep>
  <scstep>
   <time name="diag">   67.19   67.19</time>
   <time name="diis">   87.88   87.88</time>
   <time name="orth">   13.56   13.56</time>
   <time name="total">  211.71  211.71</time>
   <energy>
    <i name="e_fr_energy">   -175.25367955 </i>
    <i name="e_wo_entrp">   -175.17407697 </i>
    <i name="e_0_energy">   -175.23377891 </i>
   </energy>
  </scstep>
  <scstep>
   <time name="diag">   68.84   68.84</time>
   <time name="diis">   83.63   83.63</time>
   <time name="orth">   14.03   14.03</time>
   <time name="total">  210.42  210.42</time>
   <energy>
    <i name="e_fr_energy">   -175.25380704 </i>
    <i name="e_wo_entrp">   -175.17414699 </i>
    <i name="e_0_energy">   -175.23389203 </i>
   </energy>
  </scstep>
  <scstep>
   <time name="diag">   67.39   67.39</time>
   <time name="diis">   74.71   74.71</time>
   <time name="orth">   12.96   12.96</time>
   <time name="total">  169.13  169.13</time>
   <energy>
    <i name="alphaZ">     75.25431677 </i>
    <i name="ewald"> 137246.38332283 </i>
    <i name="hartreedc">-181591.76769096 </i>
    <i name="XCdc">  -1692.52705739 </i>
    <i name="pawpsdc">  46193.63584827 </i>
    <i name="pawaedc"> -42665.02372742 </i>
    <i name="eentropy">     -0.07961212 </i>
    <i name="bandstr">  -2827.63478487 </i>
    <i name="atom">  45086.50549395 </i>
    <i name="e_fr_energy">   -175.25389093 </i>
    <i name="e_wo_entrp">   -175.17427881 </i>
    <i name="e_0_energy">   -175.23398790 </i>
   </energy>
  </scstep>
  <structure>
   <crystal>
    <varray name="basis" >
     <v>      30.00000000       0.00000000       0.00000000 </v>
     <v>       0.00000000      30.00000000       0.00000000 </v>
     <v>       0.00000000       0.00000000      30.00000000 </v>
    </varray>
    <i name="volume">  27000.00000000 </i>
    <varray name="rec_basis" >
     <v>       0.03333333       0.00000000       0.00000000 </v>
     <v>       0.00000000       0.03333333       0.00000000 </v>
     <v>       0.00000000       0.00000000       0.03333333 </v>
    </varray>
   </crystal>
   <varray name="positions" >
    <v>       0.44576020       0.32826710       0.41691983 </v>
    <v>       0.67173288       0.55423978       0.41691983 </v>
    <v>       0.55423980       0.32826710       0.41691983 </v>
    <v>       0.32826712       0.55423978       0.41691983 </v>
    <v>       0.50000000       0.38250690       0.34021317 </v>
    <v>       0.50000000       0.38250690       0.65978680 </v>
    <v>       0.50000000       0.27609440       0.50000000 </v>
    <v>       0.27609443       0.49999998       0.50000000 </v>
    <v>       0.72390557       0.49999998       0.50000000 </v>
    <v>       0.50000000       0.72390555       0.50000000 </v>
    <v>       0.61195280       0.38804720       0.34167483 </v>
    <v>       0.61195280       0.38804720       0.65832513 </v>
    <v>       0.38804722       0.61195278       0.34167483 </v>
    <v>       0.38804722       0.61195278       0.65832513 </v>
    <v>       0.38804720       0.38804720       0.34167483 </v>
    <v>       0.38804720       0.38804720       0.65832513 </v>
    <v>       0.61195278       0.61195278       0.34167483 </v>
    <v>       0.61195278       0.61195278       0.65832513 </v>
    <v>       0.44576020       0.32826710       0.58308023 </v>
    <v>       0.67173288       0.55423978       0.58308023 </v>
    <v>       0.55791699       0.44208301       0.41809300 </v>
    <v>       0.32826705       0.44576024       0.41691983 </v>
    <v>       0.55423973       0.67173293       0.41691983 </v>
    <v>       0.55423980       0.32826710       0.58308023 </v>
    <v>       0.32826712       0.55423978       0.58308023 </v>
    <v>       0.67173295       0.44576024       0.41691983 </v>
    <v>       0.44576027       0.67173293       0.41691983 </v>
    <v>       0.44208301       0.44208301       0.41809300 </v>
    <v>       0.50000000       0.38416601       0.50000000 </v>
    <v>       0.61749315       0.50000005       0.34021317 </v>
    <v>       0.61749315       0.50000005       0.65978680 </v>
    <v>       0.38250685       0.50000005       0.34021317 </v>
    <v>       0.38250685       0.50000005       0.65978680 </v>
    <v>       0.38317830       0.38317830       0.50000000 </v>
    <v>       0.61682172       0.61682172       0.50000000 </v>
    <v>       0.61682170       0.38317830       0.50000000 </v>
    <v>       0.38317828       0.61682172       0.50000000 </v>
    <v>       0.50000000       0.50000000       0.33478917 </v>
    <v>       0.50000000       0.50000000       0.66521087 </v>
    <v>       0.32826705       0.44576024       0.58308023 </v>
    <v>       0.55423973       0.67173293       0.58308023 </v>
    <v>       0.55791699       0.44208301       0.58190703 </v>
    <v>       0.44208298       0.55791702       0.41809300 </v>
    <v>       0.44208301       0.44208301       0.58190703 </v>
    <v>       0.67173295       0.44576024       0.58308023 </v>
    <v>       0.44576027       0.67173293       0.58308023 </v>
    <v>       0.55791702       0.55791702       0.41809300 </v>
    <v>       0.38416599       0.50000002       0.50000000 </v>
    <v>       0.61583401       0.50000002       0.50000000 </v>
    <v>       0.50000000       0.61749319       0.34021317 </v>
    <v>       0.50000000       0.61749319       0.65978680 </v>
    <v>       0.50000000       0.50000000       0.50000000 </v>
    <v>       0.44208298       0.55791702       0.58190703 </v>
    <v>       0.55791702       0.55791702       0.58190703 </v>
    <v>       0.50000000       0.61583404       0.50000000 </v>
    <v>       0.65553320       0.64383090       0.30685683 </v>
    <v>       0.67593280       0.66269563       0.28152433 </v>
   </varray>
  </structure>
  <varray name="forces" >
   <v>       0.70182090       1.10844996       0.29266110 </v>
   <v>      -1.06249136      -0.76873234       0.32856202 </v>
   <v>      -0.70741549       1.10555898       0.29453410 </v>
   <v>       1.10590378      -0.70998331       0.29343183 </v>
   <v>      -0.00135638       0.41175029       1.28328315 </v>
   <v>       0.00525287       0.41696546      -1.27862274 </v>
   <v>       0.00016578       1.51693115      -0.00021130 </v>
   <v>       1.51697812       0.00033340      -0.00078730 </v>
   <v>      -1.51755351       0.00780984      -0.00967015 </v>
   <v>       0.00049133      -1.51299148       0.00062287 </v>
   <v>      -0.75782563       0.76173729       1.06399204 </v>
   <v>      -0.75660604       0.75673516      -1.07185837 </v>
   <v>       0.74293447      -0.76057957       1.06722540 </v>
   <v>       0.75700111      -0.75612846      -1.07188503 </v>
   <v>       0.75576735       0.75542893       1.07217681 </v>
   <v>       0.75853554       0.75878966      -1.07425368 </v>
   <v>       0.22391264      -0.10332733       0.52031432 </v>
   <v>      -0.75549405      -0.75540433      -1.07163580 </v>
   <v>       0.70432042       1.10510585      -0.29704527 </v>
   <v>      -1.10909653      -0.70417915      -0.29085636 </v>
   <v>       0.11069301      -0.10108329      -0.15800981 </v>
   <v>       1.10842684       0.70271010       0.29205463 </v>
   <v>      -0.77777991      -1.07051405       0.32407847 </v>
   <v>      -0.70125195       1.10168052      -0.28947950 </v>
   <v>       1.10250164      -0.70035031      -0.29053712 </v>
   <v>      -1.11229973       0.70926419       0.29671035 </v>
   <v>       0.72035731      -1.10936775       0.28888598 </v>
   <v>      -0.10797213      -0.10739315      -0.15765799 </v>
   <v>      -0.00445607      -0.23363848       0.00236993 </v>
   <v>      -0.37826224      -0.10226234       1.29430945 </v>
   <v>      -0.41633487       0.00074578      -1.27928923 </v>
   <v>       0.41115486      -0.00188962       1.28343256 </v>
   <v>       0.41601447       0.00351514      -1.27909420 </v>
   <v>       0.82911540       0.82889939      -0.00285536 </v>
   <v>      -0.83847535      -0.83664976       0.01689224 </v>
   <v>      -0.82821584       0.83800207      -0.00406329 </v>
   <v>       0.83506994      -0.83174403       0.00065217 </v>
   <v>      -0.00210067      -0.00118017       1.19226325 </v>
   <v>       0.00160067       0.00169075      -1.17738819 </v>
   <v>       1.10566958       0.70400793      -0.29487371 </v>
   <v>      -0.70405754      -1.10943562      -0.29010250 </v>
   <v>       0.10966358      -0.11335698       0.16420592 </v>
   <v>      -0.09523945       0.11275060      -0.16150084 </v>
   <v>      -0.11342371      -0.11169684       0.15739025 </v>
   <v>      -1.10991168       0.70227951      -0.29126223 </v>
   <v>       0.70388347      -1.11099435      -0.28885934 </v>
   <v>       0.10042770       0.14112615      -0.22581059 </v>
   <v>      -0.23270511      -0.00387095       0.00098691 </v>
   <v>       0.22566022       0.00014742      -0.00156348 </v>
   <v>      -0.08019654      -0.38369774       1.30897689 </v>
   <v>       0.00072143      -0.41551970      -1.27945930 </v>
   <v>      -0.02722869      -0.02849586       0.04280919 </v>
   <v>      -0.11242566       0.11000463       0.16394721 </v>
   <v>       0.11289722       0.11335532       0.15030701 </v>
   <v>       0.00277321       0.22561428      -0.00472169 </v>
   <v>      -3.31583983      -2.68893553       3.15271618 </v>
   <v>       2.45630108       2.13201277      -2.70643783 </v>
  </varray>
  <varray name="stress" >
   <v>      -6.70332811       0.03121992      -0.07492667 </v>
   <v>       0.03121991      -6.69059135      -0.07193616 </v>
   <v>      -0.07492669      -0.07193620      -6.64915185 </v>
  </varray>
  <energy>
   <i name="e_fr_energy">   -175.25389093 </i>
   <i name="e_wo_entrp">   -175.23398790 </i>
   <i name="e_0_energy">     -0.07961212 </i>
  </energy>
  <time name="totalsc">18353.6118354.02</time>
  <eigenvalues>
   <array>
    <dimension dim="1">band</dimension>
    <dimension dim="2">kpoint</dimension>
    <dimension dim="3">spin</dimension>
    <field>eigene</field>
    <field>occ</field>
    <set>
     <set comment="spin 1">
      <set comment="kpoint 1">
       <r>  -28.5496    1.0000 </r>
       <r>  -13.3691    1.0000 </r>
       <r>  -11.0084    1.0000 </r>
       <r>  -10.9671    1.0000 </r>
       <r>  -10.6235    1.0000 </r>
       <r>   -6.6715    1.0000 </r>
       <r>   -6.1774    1.0000 </r>
       <r>   -6.1588    1.0000 </r>
       <r>   -6.1501    1.0000 </r>
       <r>   -6.1252    1.0000 </r>
       <r>   -6.0196    1.0000 </r>
       <r>   -5.8368    1.0000 </r>
       <r>   -5.8321    1.0000 </r>
       <r>   -5.8311    1.0000 </r>
       <r>   -5.7657    1.0000 </r>
       <r>   -5.7173    1.0000 </r>
       <r>   -5.7141    1.0000 </r>
       <r>   -5.7074    1.0000 </r>
       <r>   -5.6718    1.0000 </r>
       <r>   -5.6457    1.0000 </r>
       <r>   -5.6399    1.0000 </r>
       <r>   -5.6361    1.0000 </r>
       <r>   -5.6306    1.0000 </r>
       <r>   -5.6176    1.0000 </r>
       <r>   -5.5938    1.0000 </r>
       <r>   -5.5847    1.0000 </r>
       <r>   -5.5701    1.0000 </r>
       <r>   -5.5688    1.0000 </r>
       <r>   -5.5681    1.0000 </r>
       <r>   -5.5571    1.0000 </r>
       <r>   -5.5469    1.0000 </r>
       <r>   -5.5424    1.0000 </r>
       <r>   -5.5389    1.0000 </r>
       <r>   -5.5368    1.0000 </r>
       <r>   -5.5359    1.0000 </r>
       <r>   -5.5342    1.0000 </r>
       <r>   -5.5198    1.0000 </r>
       <r>   -5.5122    1.0000 </r>
       <r>   -5.4978    1.0000 </r>
       <r>   -5.4943    1.0000 </r>
       <r>   -5.4929    1.0000 </r>
       <r>   -5.4917    1.0000 </r>
       <r>   -5.4904    1.0000 </r>
       <r>   -5.4813    1.0000 </r>
       <r>   -5.4617    1.0000 </r>
       <r>   -5.4581    1.0000 </r>
       <r>   -5.4550    1.0000 </r>
       <r>   -5.4527    1.0000 </r>
       <r>   -5.4518    1.0000 </r>
       <r>   -5.4461    1.0000 </r>
       <r>   -5.4446    1.0000 </r>
       <r>   -5.4284    1.0000 </r>
       <r>   -5.4278    1.0000 </r>
       <r>   -5.4260    1.0000 </r>
       <r>   -5.4179    1.0000 </r>
       <r>   -5.4107    1.0000 </r>
       <r>   -5.3877    1.0000 </r>
       <r>   -5.3710    1.0000 </r>
       <r>   -5.3502    1.0000 </r>
       <r>   -5.3487    1.0000 </r>
       <r>   -5.3475    1.0000 </r>
       <r>   -5.3452    1.0000 </r>
       <r>   -5.3379    1.0000 </r>
       <r>   -5.3244    1.0000 </r>
       <r>   -5.3230    1.0000 </r>
       <r>   -5.3219    1.0000 </r>
       <r>   -5.3158    1.0000 </r>
       <r>   -5.3065    1.0000 </r>
       <r>   -5.2905    1.0000 </r>
       <r>   -5.2424    1.0000 </r>
       <r>   -5.2349    1.0000 </r>
       <r>   -5.2305    1.0000 </r>
       <r>   -5.2244    1.0000 </r>
       <r>   -5.2087    1.0000 </r>
       <r>   -5.2058    1.0000 </r>
       <r>   -5.1990    1.0000 </r>
       <r>   -5.1970    1.0000 </r>
       <r>   -5.1903    1.0000 </r>
       <r>   -5.1892    1.0000 </r>
       <r>   -5.1839    1.0000 </r>
       <r>   -5.1837    1.0000 </r>
       <r>   -5.1784    1.0000 </r>
       <r>   -5.1679    1.0000 </r>
       <r>   -5.1530    1.0000 </r>
       <r>   -5.1455    1.0000 </r>
       <r>   -5.1445    1.0000 </r>
       <r>   -5.1357    1.0000 </r>
       <r>   -5.1289    1.0000 </r>
       <r>   -5.1233    1.0000 </r>
       <r>   -5.1100    1.0000 </r>
       <r>   -5.0811    1.0000 </r>
       <r>   -5.0789    1.0000 </r>
       <r>   -5.0781    1.0000 </r>
       <r>   -5.0761    1.0000 </r>
       <r>   -5.0747    1.0000 </r>
       <r>   -5.0663    1.0000 </r>
       <r>   -5.0564    1.0000 </r>
       <r>   -5.0540    1.0000 </r>
       <r>   -5.0514    1.0000 </r>
       <r>   -5.0503    1.0000 </r>
       <r>   -5.0444    1.0000 </r>
       <r>   -5.0337    1.0000 </r>
       <r>   -5.0325    1.0000 </r>
       <r>   -5.0280    1.0000 </r>
       <r>   -5.0269    1.0000 </r>
       <r>   -5.0248    1.0000 </r>
       <r>   -5.0133    1.0000 </r>
       <r>   -5.0120    1.0000 </r>
       <r>   -5.0089    1.0000 </r>
       <r>   -5.0002    1.0000 </r>
       <r>   -4.9918    1.0000 </r>
       <r>   -4.9906    1.0000 </r>
       <r>   -4.9864    1.0000 </r>
       <r>   -4.9847    1.0000 </r>
       <r>   -4.9804    1.0000 </r>
       <r>   -4.9788    1.0000 </r>
       <r>   -4.9747    1.0000 </r>
       <r>   -4.9720    1.0000 </r>
       <r>   -4.9660    1.0000 </r>
       <r>   -4.9590    1.0000 </r>
       <r>   -4.9381    1.0000 </r>
       <r>   -4.9373    1.0000 </r>
       <r>   -4.9369    1.0000 </r>
       <r>   -4.9251    1.0000 </r>
       <r>   -4.9224    1.0000 </r>
       <r>   -4.9215    1.0000 </r>
       <r>   -4.9112    1.0000 </r>
       <r>   -4.9052    1.0000 </r>
       <r>   -4.8928    1.0000 </r>
       <r>   -4.8782    1.0000 </r>
       <r>   -4.8660    1.0000 </r>
       <r>   -4.8649    1.0000 </r>
       <r>   -4.8636    1.0000 </r>
       <r>   -4.8626    1.0000 </r>
       <r>   -4.8552    1.0000 </r>
       <r>   -4.8527    1.0000 </r>
       <r>   -4.8520    1.0000 </r>
       <r>   -4.8333    0.9999 </r>
       <r>   -4.8150    0.9999 </r>
       <r>   -4.8146    0.9999 </r>
       <r>   -4.8134    0.9999 </r>
       <r>   -4.8104    0.9999 </r>
       <r>   -4.7904    0.9998 </r>
       <r>   -4.7870    0.9998 </r>
       <r>   -4.7856    0.9998 </r>
       <r>   -4.7805    0.9998 </r>
       <r>   -4.7600    0.9996 </r>
       <r>   -4.7523    0.9995 </r>
       <r>   -4.7452    0.9995 </r>
       <r>   -4.7435    0.9994 </r>
       <r>   -4.7370    0.9994 </r>
       <r>   -4.7233    0.9992 </r>
       <r>   -4.7118    0.9990 </r>
       <r>   -4.7086    0.9989 </r>
       <r>   -4.7054    0.9988 </r>
       <r>   -4.7047    0.9988 </r>
       <r>   -4.7021    0.9988 </r>
       <r>   -4.6948    0.9986 </r>
       <r>   -4.6919    0.9985 </r>
       <r>   -4.6879    0.9984 </r>
       <r>   -4.6840    0.9983 </r>
       <r>   -4.6758    0.9981 </r>
       <r>   -4.6704    0.9979 </r>
       <r>   -4.6691    0.9979 </r>
       <r>   -4.6689    0.9979 </r>
       <r>   -4.6683    0.9978 </r>
       <r>   -4.6679    0.9978 </r>
       <r>   -4.6672    0.9978 </r>
       <r>   -4.6650    0.9977 </r>
       <r>   -4.6575    0.9975 </r>
       <r>   -4.6464    0.9971 </r>
       <r>   -4.6426    0.9969 </r>
       <r>   -4.6325    0.9966 </r>
       <r>   -4.6188    0.9960 </r>
       <r>   -4.6183    0.9960 </r>
       <r>   -4.6180    0.9960 </r>
       <r>   -4.6178    0.9960 </r>
       <r>   -4.6145    0.9959 </r>
       <r>   -4.6009    0.9955 </r>
       <r>   -4.5984    0.9954 </r>
       <r>   -4.5976    0.9954 </r>
       <r>   -4.5950    0.9953 </r>
       <r>   -4.5896    0.9952 </r>
       <r>   -4.5883    0.9952 </r>
       <r>   -4.5761    0.9951 </r>
       <r>   -4.5736    0.9951 </r>
       <r>   -4.5733    0.9951 </r>
       <r>   -4.5707    0.9951 </r>
       <r>   -4.5705    0.9951 </r>
       <r>   -4.5697    0.9951 </r>
       <r>   -4.5426    0.9961 </r>
       <r>   -4.5306    0.9972 </r>
       <r>   -4.5273    0.9976 </r>
       <r>   -4.5266    0.9976 </r>
       <r>   -4.5235    0.9980 </r>
       <r>   -4.5213    0.9984 </r>
       <r>   -4.5173    0.9989 </r>
       <r>   -4.5106    1.0001 </r>
       <r>   -4.5075    1.0007 </r>
       <r>   -4.4945    1.0037 </r>
       <r>   -4.4900    1.0049 </r>
       <r>   -4.4875    1.0056 </r>
       <r>   -4.4858    1.0060 </r>
       <r>   -4.4800    1.0079 </r>
       <r>   -4.4797    1.0079 </r>
       <r>   -4.4714    1.0108 </r>
       <r>   -4.4698    1.0114 </r>
       <r>   -4.4674    1.0123 </r>
       <r>   -4.4619    1.0144 </r>
       <r>   -4.4617    1.0145 </r>
       <r>   -4.4562    1.0167 </r>
       <r>   -4.4490    1.0199 </r>
       <r>   -4.4457    1.0213 </r>
       <r>   -4.4332    1.0272 </r>
       <r>   -4.4310    1.0283 </r>
       <r>   -4.4306    1.0284 </r>
       <r>   -4.4271    1.0301 </r>
       <r>   -4.4225    1.0324 </r>
       <r>   -4.4218    1.0327 </r>
       <r>   -4.4003    1.0425 </r>
       <r>   -4.3925    1.0455 </r>
       <r>   -4.3885    1.0469 </r>
       <r>   -4.3873    1.0473 </r>
       <r>   -4.3711    1.0511 </r>
       <r>   -4.3633    1.0516 </r>
       <r>   -4.3618    1.0516 </r>
       <r>   -4.3584    1.0515 </r>
       <r>   -4.3578    1.0514 </r>
       <r>   -4.3555    1.0512 </r>
       <r>   -4.3552    1.0511 </r>
       <r>   -4.3541    1.0509 </r>
       <r>   -4.3486    1.0498 </r>
       <r>   -4.3485    1.0497 </r>
       <r>   -4.3472    1.0493 </r>
       <r>   -4.3436    1.0481 </r>
       <r>   -4.3429    1.0478 </r>
       <r>   -4.3426    1.0477 </r>
       <r>   -4.3391    1.0461 </r>
       <r>   -4.3390    1.0460 </r>
       <r>   -4.3326    1.0423 </r>
       <r>   -4.3231    1.0347 </r>
       <r>   -4.3225    1.0341 </r>
       <r>   -4.3158    1.0269 </r>
       <r>   -4.3084    1.0173 </r>
       <r>   -4.3071    1.0155 </r>
       <r>   -4.3054    1.0129 </r>
       <r>   -4.3053    1.0128 </r>
       <r>   -4.3037    1.0103 </r>
       <r>   -4.2998    1.0039 </r>
       <r>   -4.2888    0.9826 </r>
       <r>   -4.2859    0.9764 </r>
       <r>   -4.2851    0.9744 </r>
       <r>   -4.2757    0.9514 </r>
       <r>   -4.2756    0.9513 </r>
       <r>   -4.2720    0.9413 </r>
       <r>   -4.2713    0.9394 </r>
       <r>   -4.2684    0.9313 </r>
       <r>   -4.2680    0.9300 </r>
       <r>   -4.2649    0.9208 </r>
       <r>   -4.2642    0.9185 </r>
       <r>   -4.2630    0.9149 </r>
       <r>   -4.2622    0.9123 </r>
       <r>   -4.2594    0.9035 </r>
       <r>   -4.2567    0.8945 </r>
       <r>   -4.2534    0.8832 </r>
       <r>   -4.2519    0.8780 </r>
       <r>   -4.2499    0.8707 </r>
       <r>   -4.2454    0.8541 </r>
       <r>   -4.2418    0.8403 </r>
       <r>   -4.2386    0.8277 </r>
       <r>   -4.2377    0.8241 </r>
       <r>   -4.2360    0.8170 </r>
       <r>   -4.2252    0.7708 </r>
       <r>   -4.2231    0.7612 </r>
       <r>   -4.2044    0.6728 </r>
       <r>   -4.2035    0.6682 </r>
       <r>   -4.1981    0.6413 </r>
       <r>   -4.1972    0.6366 </r>
       <r>   -4.1938    0.6191 </r>
       <r>   -4.1934    0.6170 </r>
       <r>   -4.1914    0.6070 </r>
       <r>   -4.1775    0.5342 </r>
       <r>   -4.1504    0.3916 </r>
       <r>   -4.1497    0.3880 </r>
       <r>   -4.1479    0.3787 </r>
       <r>   -4.1457    0.3676 </r>
       <r>   -4.1351    0.3146 </r>
       <r>   -4.1338    0.3084 </r>
       <r>   -4.1062    0.1834 </r>
       <r>   -3.9890   -0.0508 </r>
       <r>   -3.9268   -0.0358 </r>
       <r>   -3.8341   -0.0006 </r>
       <r>   -3.8337   -0.0005 </r>
       <r>   -3.7221    0.0039 </r>
       <r>   -3.5199    0.0001 </r>
       <r>   -3.5124    0.0001 </r>
       <r>   -3.4846    0.0000 </r>
       <r>   -3.0911    0.0000 </r>
       <r>   -3.0731    0.0000 </r>
       <r>   -3.0539    0.0000 </r>
       <r>   -3.0495    0.0000 </r>
       <r>   -3.0277    0.0000 </r>
       <r>   -2.9932    0.0000 </r>
       <r>   -2.9554    0.0000 </r>
       <r>   -2.7790    0.0000 </r>
       <r>   -2.5574    0.0000 </r>
       <r>   -2.5523    0.0000 </r>
       <r>   -2.5383    0.0000 </r>
       <r>   -2.3558    0.0000 </r>
       <r>   -2.1367    0.0000 </r>
       <r>   -2.1343    0.0000 </r>
       <r>   -2.0664    0.0000 </r>
       <r>   -2.0182    0.0000 </r>
       <r>   -1.9718    0.0000 </r>
       <r>   -1.9149    0.0000 </r>
       <r>   -1.8968    0.0000 </r>
       <r>   -1.8662    0.0000 </r>
       <r>   -1.7461    0.0000 </r>
       <r>   -1.7200    0.0000 </r>
       <r>   -1.6594    0.0000 </r>
       <r>   -1.5945    0.0000 </r>
       <r>   -1.5835    0.0000 </r>
       <r>   -1.4186    0.0000 </r>
       <r>   -1.3253    0.0000 </r>
       <r>   -1.2575    0.0000 </r>
       <r>   -1.2547    0.0000 </r>
       <r>   -1.1522    0.0000 </r>
       <r>   -1.1019    0.0000 </r>
       <r>   -1.0024    0.0000 </r>
       <r>   -0.9747    0.0000 </r>
       <r>   -0.9683    0.0000 </r>
       <r>   -0.9433    0.0000 </r>
       <r>   -0.9003    0.0000 </r>
       <r>   -0.8890    0.0000 </r>
       <r>   -0.8259    0.0000 </r>
       <r>   -0.6961    0.0000 </r>
      </set>
     </set>
    </set>
   </array>
  </eigenvalues>
  <separator name="orbital magnetization" >
   <v name="MAGDIPOLOUT">      0.00000000      0.00000000      0.00000000</v>
  </separator>
  <dos>
   <i name="efermi">     -4.17103521 </i>
   <total>
    <array>
     <dimension dim="1">gridpoints</dimension>
     <dimension dim="2">spin</dimension>
     <field>energy</field>
     <field>total</field>
     <field>integrated</field>
     <set>
      <set comment="spin 1">
       <r>   -30.5496     0.0000     0.0000 </r>
       <r>   -30.4434     0.0000     0.0000 </r>
       <r>   -30.3372     0.0000     0.0000 </r>
       <r>   -30.2310     0.0000     0.0000 </r>
       <r>   -30.1248     0.0000     0.0000 </r>
       <r>   -30.0187     0.0000     0.0000 </r>
       <r>   -29.9125     0.0000     0.0000 </r>
       <r>   -29.8063     0.0000     0.0000 </r>
       <r>   -29.7001     0.0000     0.0000 </r>
       <r>   -29.5940     0.0000     0.0000 </r>
       <r>   -29.4878     0.0000     0.0000 </r>
       <r>   -29.3816     0.0000     0.0000 </r>
       <r>   -29.2754     0.0002     0.0000 </r>
       <r>   -29.1692     0.0033     0.0004 </r>
       <r>   -29.0631     0.0281     0.0034 </r>
       <r>   -28.9569     0.0612     0.0099 </r>
       <r>   -28.8507    -0.2908    -0.0210 </r>
       <r>   -28.7445    -0.7727    -0.1031 </r>
       <r>   -28.6384     2.7645     0.1905 </r>
       <r>   -28.5322     9.3466     1.1829 </r>
       <r>   -28.4260     7.5902     1.9888 </r>
       <r>   -28.3198     0.9023     2.0846 </r>
       <r>   -28.2136    -0.7813     2.0016 </r>
       <r>   -28.1075    -0.0934     1.9917 </r>
       <r>   -28.0013     0.0612     1.9982 </r>
       <r>   -27.8951     0.0155     1.9998 </r>
       <r>   -27.7889     0.0014     2.0000 </r>
       <r>   -27.6827     0.0001     2.0000 </r>
       <r>   -27.5766     0.0000     2.0000 </r>
       <r>   -27.4704     0.0000     2.0000 </r>
       <r>   -27.3642     0.0000     2.0000 </r>
       <r>   -27.2580     0.0000     2.0000 </r>
       <r>   -27.1519     0.0000     2.0000 </r>
       <r>   -27.0457     0.0000     2.0000 </r>
       <r>   -26.9395     0.0000     2.0000 </r>
       <r>   -26.8333     0.0000     2.0000 </r>
       <r>   -26.7271     0.0000     2.0000 </r>
       <r>   -26.6210     0.0000     2.0000 </r>
       <r>   -26.5148     0.0000     2.0000 </r>
       <r>   -26.4086     0.0000     2.0000 </r>
       <r>   -26.3024     0.0000     2.0000 </r>
       <r>   -26.1963     0.0000     2.0000 </r>
       <r>   -26.0901     0.0000     2.0000 </r>
       <r>   -25.9839     0.0000     2.0000 </r>
       <r>   -25.8777     0.0000     2.0000 </r>
       <r>   -25.7715     0.0000     2.0000 </r>
       <r>   -25.6654     0.0000     2.0000 </r>
       <r>   -25.5592     0.0000     2.0000 </r>
       <r>   -25.4530     0.0000     2.0000 </r>
       <r>   -25.3468     0.0000     2.0000 </r>
       <r>   -25.2406     0.0000     2.0000 </r>
       <r>   -25.1345     0.0000     2.0000 </r>
       <r>   -25.0283     0.0000     2.0000 </r>
       <r>   -24.9221     0.0000     2.0000 </r>
       <r>   -24.8159     0.0000     2.0000 </r>
       <r>   -24.7098     0.0000     2.0000 </r>
       <r>   -24.6036     0.0000     2.0000 </r>
       <r>   -24.4974     0.0000     2.0000 </r>
       <r>   -24.3912     0.0000     2.0000 </r>
       <r>   -24.2850     0.0000     2.0000 </r>
       <r>   -24.1789     0.0000     2.0000 </r>
       <r>   -24.0727     0.0000     2.0000 </r>
       <r>   -23.9665     0.0000     2.0000 </r>
       <r>   -23.8603     0.0000     2.0000 </r>
       <r>   -23.7542     0.0000     2.0000 </r>
       <r>   -23.6480     0.0000     2.0000 </r>
       <r>   -23.5418     0.0000     2.0000 </r>
       <r>   -23.4356     0.0000     2.0000 </r>
       <r>   -23.3294     0.0000     2.0000 </r>
       <r>   -23.2233     0.0000     2.0000 </r>
       <r>   -23.1171     0.0000     2.0000 </r>
       <r>   -23.0109     0.0000     2.0000 </r>
       <r>   -22.9047     0.0000     2.0000 </r>
       <r>   -22.7985     0.0000     2.0000 </r>
       <r>   -22.6924     0.0000     2.0000 </r>
       <r>   -22.5862     0.0000     2.0000 </r>
       <r>   -22.4800     0.0000     2.0000 </r>
       <r>   -22.3738     0.0000     2.0000 </r>
       <r>   -22.2677     0.0000     2.0000 </r>
       <r>   -22.1615     0.0000     2.0000 </r>
       <r>   -22.0553     0.0000     2.0000 </r>
       <r>   -21.9491     0.0000     2.0000 </r>
       <r>   -21.8429     0.0000     2.0000 </r>
       <r>   -21.7368     0.0000     2.0000 </r>
       <r>   -21.6306     0.0000     2.0000 </r>
       <r>   -21.5244     0.0000     2.0000 </r>
       <r>   -21.4182     0.0000     2.0000 </r>
       <r>   -21.3121     0.0000     2.0000 </r>
       <r>   -21.2059     0.0000     2.0000 </r>
       <r>   -21.0997     0.0000     2.0000 </r>
       <r>   -20.9935     0.0000     2.0000 </r>
       <r>   -20.8873     0.0000     2.0000 </r>
       <r>   -20.7812     0.0000     2.0000 </r>
       <r>   -20.6750     0.0000     2.0000 </r>
       <r>   -20.5688     0.0000     2.0000 </r>
       <r>   -20.4626     0.0000     2.0000 </r>
       <r>   -20.3564     0.0000     2.0000 </r>
       <r>   -20.2503     0.0000     2.0000 </r>
       <r>   -20.1441     0.0000     2.0000 </r>
       <r>   -20.0379     0.0000     2.0000 </r>
       <r>   -19.9317     0.0000     2.0000 </r>
       <r>   -19.8256     0.0000     2.0000 </r>
       <r>   -19.7194     0.0000     2.0000 </r>
       <r>   -19.6132     0.0000     2.0000 </r>
       <r>   -19.5070     0.0000     2.0000 </r>
       <r>   -19.4008     0.0000     2.0000 </r>
       <r>   -19.2947     0.0000     2.0000 </r>
       <r>   -19.1885     0.0000     2.0000 </r>
       <r>   -19.0823     0.0000     2.0000 </r>
       <r>   -18.9761     0.0000     2.0000 </r>
       <r>   -18.8700     0.0000     2.0000 </r>
       <r>   -18.7638     0.0000     2.0000 </r>
       <r>   -18.6576     0.0000     2.0000 </r>
       <r>   -18.5514     0.0000     2.0000 </r>
       <r>   -18.4452     0.0000     2.0000 </r>
       <r>   -18.3391     0.0000     2.0000 </r>
       <r>   -18.2329     0.0000     2.0000 </r>
       <r>   -18.1267     0.0000     2.0000 </r>
       <r>   -18.0205     0.0000     2.0000 </r>
       <r>   -17.9143     0.0000     2.0000 </r>
       <r>   -17.8082     0.0000     2.0000 </r>
       <r>   -17.7020     0.0000     2.0000 </r>
       <r>   -17.5958     0.0000     2.0000 </r>
       <r>   -17.4896     0.0000     2.0000 </r>
       <r>   -17.3835     0.0000     2.0000 </r>
       <r>   -17.2773     0.0000     2.0000 </r>
       <r>   -17.1711     0.0000     2.0000 </r>
       <r>   -17.0649     0.0000     2.0000 </r>
       <r>   -16.9587     0.0000     2.0000 </r>
       <r>   -16.8526     0.0000     2.0000 </r>
       <r>   -16.7464     0.0000     2.0000 </r>
       <r>   -16.6402     0.0000     2.0000 </r>
       <r>   -16.5340     0.0000     2.0000 </r>
       <r>   -16.4279     0.0000     2.0000 </r>
       <r>   -16.3217     0.0000     2.0000 </r>
       <r>   -16.2155     0.0000     2.0000 </r>
       <r>   -16.1093     0.0000     2.0000 </r>
       <r>   -16.0031     0.0000     2.0000 </r>
       <r>   -15.8970     0.0000     2.0000 </r>
       <r>   -15.7908     0.0000     2.0000 </r>
       <r>   -15.6846     0.0000     2.0000 </r>
       <r>   -15.5784     0.0000     2.0000 </r>
       <r>   -15.4722     0.0000     2.0000 </r>
       <r>   -15.3661     0.0000     2.0000 </r>
       <r>   -15.2599     0.0000     2.0000 </r>
       <r>   -15.1537     0.0000     2.0000 </r>
       <r>   -15.0475     0.0000     2.0000 </r>
       <r>   -14.9414     0.0000     2.0000 </r>
       <r>   -14.8352     0.0000     2.0000 </r>
       <r>   -14.7290     0.0000     2.0000 </r>
       <r>   -14.6228     0.0000     2.0000 </r>
       <r>   -14.5166     0.0000     2.0000 </r>
       <r>   -14.4105     0.0000     2.0000 </r>
       <r>   -14.3043     0.0000     2.0000 </r>
       <r>   -14.1981     0.0000     2.0000 </r>
       <r>   -14.0919     0.0002     2.0000 </r>
       <r>   -13.9858     0.0036     2.0004 </r>
       <r>   -13.8796     0.0294     2.0035 </r>
       <r>   -13.7734     0.0598     2.0099 </r>
       <r>   -13.6672    -0.3119     1.9768 </r>
       <r>   -13.5610    -0.7535     1.8968 </r>
       <r>   -13.4549     2.9559     2.2106 </r>
       <r>   -13.3487     9.4542     3.2144 </r>
       <r>   -13.2425     7.3994     4.0001 </r>
       <r>   -13.1363     0.7713     4.0820 </r>
       <r>   -13.0301    -0.7680     4.0004 </r>
       <r>   -12.9240    -0.0802     3.9919 </r>
       <r>   -12.8178     0.0602     3.9983 </r>
       <r>   -12.7116     0.0146     3.9999 </r>
       <r>   -12.6054     0.0013     4.0000 </r>
       <r>   -12.4993     0.0001     4.0000 </r>
       <r>   -12.3931     0.0000     4.0000 </r>
       <r>   -12.2869     0.0000     4.0000 </r>
       <r>   -12.1807     0.0000     4.0000 </r>
       <r>   -12.0745     0.0000     4.0000 </r>
       <r>   -11.9684     0.0000     4.0000 </r>
       <r>   -11.8622     0.0000     4.0000 </r>
       <r>   -11.7560     0.0001     4.0000 </r>
       <r>   -11.6498     0.0026     4.0003 </r>
       <r>   -11.5436     0.0284     4.0033 </r>
       <r>   -11.4375     0.1132     4.0153 </r>
       <r>   -11.3313    -0.1535     3.9990 </r>
       <r>   -11.2251    -1.4233     3.8479 </r>
       <r>   -11.1189     1.4601     4.0029 </r>
       <r>   -11.0128    14.0903     5.4990 </r>
       <r>   -10.9066    18.3634     7.4488 </r>
       <r>   -10.8004     6.0468     8.0908 </r>
       <r>   -10.6942     2.6935     8.3768 </r>
       <r>   -10.5880     9.1455     9.3479 </r>
       <r>   -10.4819     6.5033    10.0384 </r>
       <r>   -10.3757     0.2715    10.0672 </r>
       <r>   -10.2695    -0.6741     9.9956 </r>
       <r>   -10.1633    -0.0246     9.9930 </r>
       <r>   -10.0572     0.0540     9.9987 </r>
       <r>    -9.9510     0.0109     9.9999 </r>
       <r>    -9.8448     0.0008    10.0000 </r>
       <r>    -9.7386     0.0000    10.0000 </r>
       <r>    -9.6324     0.0000    10.0000 </r>
       <r>    -9.5263     0.0000    10.0000 </r>
       <r>    -9.4201     0.0000    10.0000 </r>
       <r>    -9.3139     0.0000    10.0000 </r>
       <r>    -9.2077     0.0000    10.0000 </r>
       <r>    -9.1015     0.0000    10.0000 </r>
       <r>    -8.9954     0.0000    10.0000 </r>
       <r>    -8.8892     0.0000    10.0000 </r>
       <r>    -8.7830     0.0000    10.0000 </r>
       <r>    -8.6768     0.0000    10.0000 </r>
       <r>    -8.5707     0.0000    10.0000 </r>
       <r>    -8.4645     0.0000    10.0000 </r>
       <r>    -8.3583     0.0000    10.0000 </r>
       <r>    -8.2521     0.0000    10.0000 </r>
       <r>    -8.1459     0.0000    10.0000 </r>
       <r>    -8.0398     0.0000    10.0000 </r>
       <r>    -7.9336     0.0000    10.0000 </r>
       <r>    -7.8274     0.0000    10.0000 </r>
       <r>    -7.7212     0.0000    10.0000 </r>
       <r>    -7.6151     0.0000    10.0000 </r>
       <r>    -7.5089     0.0000    10.0000 </r>
       <r>    -7.4027     0.0001    10.0000 </r>
       <r>    -7.2965     0.0029    10.0003 </r>
       <r>    -7.1903     0.0258    10.0031 </r>
       <r>    -7.0842     0.0631    10.0098 </r>
       <r>    -6.9780    -0.2551     9.9827 </r>
       <r>    -6.8718    -0.7970     9.8981 </r>
       <r>    -6.7656     2.4545    10.1587 </r>
       <r>    -6.6594     9.2657    11.1425 </r>
       <r>    -6.5533     8.1395    12.0067 </r>
       <r>    -6.4471    -0.1666    11.9890 </r>
       <r>    -6.3409    -3.4573    11.6219 </r>
       <r>    -6.2347    12.4866    12.9477 </r>
       <r>    -6.1286    38.9027    17.0784 </r>
       <r>    -6.0224    34.3208    20.7225 </r>
       <r>    -5.9162    16.6009    22.4851 </r>
       <r>    -5.8100    29.2124    25.5869 </r>
       <r>    -5.7038    73.2720    33.3668 </r>
       <r>    -5.5977   170.1845    51.4367 </r>
       <r>    -5.4915   283.5525    81.5438 </r>
       <r>    -5.3853   291.6415   112.5098 </r>
       <r>    -5.2791   224.9313   136.3926 </r>
       <r>    -5.1730   229.1313   160.7214 </r>
       <r>    -5.0668   315.2256   194.1915 </r>
       <r>    -4.9606   367.5574   233.2181 </r>
       <r>    -4.8544   323.8665   267.6057 </r>
       <r>    -4.7482   305.7707   300.0719 </r>
       <r>    -4.6421   376.9402   340.0947 </r>
       <r>    -4.5359   412.7440   383.9192 </r>
       <r>    -4.4297   425.0948   429.0550 </r>
       <r>    -4.3235   522.7220   484.5567 </r>
       <r>    -4.2173   539.0940   541.7968 </r>
       <r>    -4.1112   306.8833   574.3811 </r>
       <r>    -4.0050    64.9435   581.2767 </r>
       <r>    -3.8988     7.8617   582.1115 </r>
       <r>    -3.7926    26.1495   584.8880 </r>
       <r>    -3.6865    21.5744   587.1787 </r>
       <r>    -3.5803    17.6642   589.0543 </r>
       <r>    -3.4741    28.3930   592.0690 </r>
       <r>    -3.3679    18.1241   593.9934 </r>
       <r>    -3.2617    -3.0540   593.6691 </r>
       <r>    -3.1556     8.9099   594.6151 </r>
       <r>    -3.0494    51.0766   600.0384 </r>
       <r>    -2.9432    58.6686   606.2677 </r>
       <r>    -2.8370    23.9897   608.8149 </r>
       <r>    -2.7309     5.2724   609.3747 </r>
       <r>    -2.6247    13.9084   610.8515 </r>
       <r>    -2.5185    29.0298   613.9338 </r>
       <r>    -2.4123    23.8733   616.4686 </r>
       <r>    -2.3061     9.1827   617.4436 </r>
       <r>    -2.2000    10.4855   618.5570 </r>
       <r>    -2.0938    29.0247   621.6388 </r>
       <r>    -1.9876    44.8186   626.3975 </r>
       <r>    -1.8814    44.9694   631.1723 </r>
       <r>    -1.7752    36.4384   635.0413 </r>
       <r>    -1.6691    35.9037   638.8534 </r>
       <r>    -1.5629    33.7009   642.4317 </r>
       <r>    -1.4567    20.3125   644.5885 </r>
       <r>    -1.3505    20.1612   646.7292 </r>
       <r>    -1.2444    31.1205   650.0335 </r>
       <r>    -1.1382    31.3543   653.3626 </r>
       <r>    -1.0320    37.6756   657.3630 </r>
       <r>    -0.9258    56.9225   663.4069 </r>
       <r>    -0.8196    50.2789   668.7454 </r>
       <r>    -0.7135    22.8234   671.1688 </r>
       <r>    -0.6073     7.2464   671.9382 </r>
       <r>    -0.5011     1.1934   672.0649 </r>
       <r>    -0.3949    -0.6179   671.9993 </r>
       <r>    -0.2888    -0.1202   671.9866 </r>
       <r>    -0.1826     0.0924   671.9964 </r>
       <r>    -0.0764     0.0306   671.9996 </r>
       <r>     0.0298     0.0034   672.0000 </r>
       <r>     0.1360     0.0002   672.0000 </r>
       <r>     0.2421     0.0000   672.0000 </r>
       <r>     0.3483     0.0000   672.0000 </r>
       <r>     0.4545     0.0000   672.0000 </r>
       <r>     0.5607     0.0000   672.0000 </r>
       <r>     0.6669     0.0000   672.0000 </r>
       <r>     0.7730     0.0000   672.0000 </r>
       <r>     0.8792     0.0000   672.0000 </r>
       <r>     0.9854     0.0000   672.0000 </r>
       <r>     1.0916     0.0000   672.0000 </r>
       <r>     1.1977     0.0000   672.0000 </r>
       <r>     1.3039     0.0000   672.0000 </r>
      </set>
     </set>
    </array>
   </total>
  </dos>
 </calculation>
 <structure name="finalpos" >
  <crystal>
   <varray name="basis" >
    <v>      30.00000000       0.00000000       0.00000000 </v>
    <v>       0.00000000      30.00000000       0.00000000 </v>
    <v>       0.00000000       0.00000000      30.00000000 </v>
   </varray>
   <i name="volume">  27000.00000000 </i>
   <varray name="rec_basis" >
    <v>       0.03333333       0.00000000       0.00000000 </v>
    <v>       0.00000000       0.03333333       0.00000000 </v>
    <v>       0.00000000       0.00000000       0.03333333 </v>
   </varray>
  </crystal>
  <varray name="positions" >
   <v>       0.44576020       0.32826710       0.41691983 </v>
   <v>       0.67173288       0.55423978       0.41691983 </v>
   <v>       0.55423980       0.32826710       0.41691983 </v>
   <v>       0.32826712       0.55423978       0.41691983 </v>
   <v>       0.50000000       0.38250690       0.34021317 </v>
   <v>       0.50000000       0.38250690       0.65978680 </v>
   <v>       0.50000000       0.27609440       0.50000000 </v>
   <v>       0.27609443       0.49999998       0.50000000 </v>
   <v>       0.72390557       0.49999998       0.50000000 </v>
   <v>       0.50000000       0.72390555       0.50000000 </v>
   <v>       0.61195280       0.38804720       0.34167483 </v>
   <v>       0.61195280       0.38804720       0.65832513 </v>
   <v>       0.38804722       0.61195278       0.34167483 </v>
   <v>       0.38804722       0.61195278       0.65832513 </v>
   <v>       0.38804720       0.38804720       0.34167483 </v>
   <v>       0.38804720       0.38804720       0.65832513 </v>
   <v>       0.61195278       0.61195278       0.34167483 </v>
   <v>       0.61195278       0.61195278       0.65832513 </v>
   <v>       0.44576020       0.32826710       0.58308023 </v>
   <v>       0.67173288       0.55423978       0.58308023 </v>
   <v>       0.55791699       0.44208301       0.41809300 </v>
   <v>       0.32826705       0.44576024       0.41691983 </v>
   <v>       0.55423973       0.67173293       0.41691983 </v>
   <v>       0.55423980       0.32826710       0.58308023 </v>
   <v>       0.32826712       0.55423978       0.58308023 </v>
   <v>       0.67173295       0.44576024       0.41691983 </v>
   <v>       0.44576027       0.67173293       0.41691983 </v>
   <v>       0.44208301       0.44208301       0.41809300 </v>
   <v>       0.50000000       0.38416601       0.50000000 </v>
   <v>       0.61749315       0.50000005       0.34021317 </v>
   <v>       0.61749315       0.50000005       0.65978680 </v>
   <v>       0.38250685       0.50000005       0.34021317 </v>
   <v>       0.38250685       0.50000005       0.65978680 </v>
   <v>       0.38317830       0.38317830       0.50000000 </v>
   <v>       0.61682172       0.61682172       0.50000000 </v>
   <v>       0.61682170       0.38317830       0.50000000 </v>
   <v>       0.38317828       0.61682172       0.50000000 </v>
   <v>       0.50000000       0.50000000       0.33478917 </v>
   <v>       0.50000000       0.50000000       0.66521087 </v>
   <v>       0.32826705       0.44576024       0.58308023 </v>
   <v>       0.55423973       0.67173293       0.58308023 </v>
   <v>       0.55791699       0.44208301       0.58190703 </v>
   <v>       0.44208298       0.55791702       0.41809300 </v>
   <v>       0.44208301       0.44208301       0.58190703 </v>
   <v>       0.67173295       0.44576024       0.58308023 </v>
   <v>       0.44576027       0.67173293       0.58308023 </v>
   <v>       0.55791702       0.55791702       0.41809300 </v>
   <v>       0.38416599       0.50000002       0.50000000 </v>
   <v>       0.61583401       0.50000002       0.50000000 </v>
   <v>       0.50000000       0.61749319       0.34021317 </v>
   <v>       0.50000000       0.61749319       0.65978680 </v>
   <v>       0.50000000       0.50000000       0.50000000 </v>
   <v>       0.44208298       0.55791702       0.58190703 </v>
   <v>       0.55791702       0.55791702       0.58190703 </v>
   <v>       0.50000000       0.61583404       0.50000000 </v>
   <v>       0.65553320       0.64383090       0.30685683 </v>
   <v>       0.67593280       0.66269563       0.28152433 </v>
  </varray>
  <varray name="selective"  type="logical" >
   <v type="logical" >  F  F  F </v>
   <v type="logical" >  F  F  F </v>
   <v type="logical" >  F  F  F </v>
   <v type="logical" >  F  F  F </v>
   <v type="logical" >  F  F  F </v>
   <v type="logical" >  F  F  F </v>
   <v type="logical" >  F  F  F </v>
   <v type="logical" >  F  F  F </v>
   <v type="logical" >  F  F  F </v>
   <v type="logical" >  F  F  F </v>
   <v type="logical" >  F  F  F </v>
   <v type="logical" >  F  F  F </v>
   <v type="logical" >  F  F  F </v>
   <v type="logical" >  F  F  F </v>
   <v type="logical" >  F  F  F </v>
   <v type="logical" >  F  F  F </v>
   <v type="logical" >  F  F  F </v>
   <v type="logical" >  F  F  F </v>
   <v type="logical" >  F  F  F </v>
   <v type="logical" >  F  F  F </v>
   <v type="logical" >  F  F  F </v>
   <v type="logical" >  F  F  F </v>
   <v type="logical" >  F  F  F </v>
   <v type="logical" >  F  F  F </v>
   <v type="logical" >  F  F  F </v>
   <v type="logical" >  F  F  F </v>
   <v type="logical" >  F  F  F </v>
   <v type="logical" >  F  F  F </v>
   <v type="logical" >  F  F  F </v>
   <v type="logical" >  F  F  F </v>
   <v type="logical" >  F  F  F </v>
   <v type="logical" >  F  F  F </v>
   <v type="logical" >  F  F  F </v>
   <v type="logical" >  F  F  F </v>
   <v type="logical" >  F  F  F </v>
   <v type="logical" >  F  F  F </v>
   <v type="logical" >  F  F  F </v>
   <v type="logical" >  F  F  F </v>
   <v type="logical" >  F  F  F </v>
   <v type="logical" >  F  F  F </v>
   <v type="logical" >  F  F  F </v>
   <v type="logical" >  F  F  F </v>
   <v type="logical" >  F  F  F </v>
   <v type="logical" >  F  F  F </v>
   <v type="logical" >  F  F  F </v>
   <v type="logical" >  F  F  F </v>
   <v type="logical" >  F  F  F </v>
   <v type="logical" >  F  F  F </v>
   <v type="logical" >  F  F  F </v>
   <v type="logical" >  F  F  F </v>
   <v type="logical" >  F  F  F </v>
   <v type="logical" >  F  F  F </v>
   <v type="logical" >  F  F  F </v>
   <v type="logical" >  F  F  F </v>
   <v type="logical" >  F  F  F </v>
   <v type="logical" >  F  F  F </v>
   <v type="logical" >  F  F  F </v>
  </varray>
  <nose>
   <v>      -3.00000000       0.00000000       0.00010000       0.00010000 </v>
  </nose>
 </structure>
</modeling>
