  57  57   0   0
  0.4736842E+03  0.3000000E-08  0.3000000E-08  0.3000000E-08  0.5000000E-15
  1.000000000000000E-004
  CAR 
 6_Pd100_top_free_z(O)                   
      1.32757972    -30.34088186  301     -4.14449322      1.00000000
    -30.341  0.0000E+00  0.0000E+00
    -30.235  0.0000E+00  0.0000E+00
    -30.130  0.0000E+00  0.0000E+00
    -30.024  0.2603E-27  0.2747E-28
    -29.919  0.1162E-23  0.1227E-24
    -29.813  0.2930E-20  0.3094E-21
    -29.708  0.4155E-17  0.4389E-18
    -29.602  0.3304E-14  0.3492E-15
    -29.496  0.1470E-11  0.1555E-12
    -29.391  0.3621E-09  0.3838E-10
    -29.285  0.4905E-07  0.5216E-08
    -29.180  0.3601E-05  0.3854E-06
    -29.074  0.1399E-03  0.1516E-04
    -28.969  0.2751E-02  0.3056E-03
    -28.863  0.2458E-01  0.2900E-02
    -28.757  0.6400E-01  0.9655E-02
    -28.652 -0.2279E+00 -0.1441E-01
    -28.546 -0.8139E+00 -0.1003E+00
    -28.441  0.2117E+01  0.1231E+00
    -28.335  0.8875E+01  0.1060E+01
    -28.230  0.8298E+01  0.1936E+01
    -28.124  0.1501E+01  0.2094E+01
    -28.019 -0.8183E+00  0.2008E+01
    -27.913 -0.1616E+00  0.1991E+01
    -27.807  0.6435E-01  0.1998E+01
    -27.702  0.2031E-01  0.2000E+01
    -27.596  0.2069E-02  0.2000E+01
    -27.491  0.9748E-04  0.2000E+01
    -27.385  0.2339E-05  0.2000E+01
    -27.280  0.2980E-07  0.2000E+01
    -27.174  0.2062E-09  0.2000E+01
    -27.068  0.7825E-12  0.2000E+01
    -26.963  0.2103E-14  0.2000E+01
    -26.857  0.0000E+00  0.2000E+01
    -26.752  0.0000E+00  0.2000E+01
    -26.646  0.0000E+00  0.2000E+01
    -26.541  0.0000E+00  0.2000E+01
    -26.435  0.0000E+00  0.2000E+01
    -26.330  0.0000E+00  0.2000E+01
    -26.224  0.0000E+00  0.2000E+01
    -26.118  0.0000E+00  0.2000E+01
    -26.013  0.0000E+00  0.2000E+01
    -25.907  0.0000E+00  0.2000E+01
    -25.802  0.0000E+00  0.2000E+01
    -25.696  0.0000E+00  0.2000E+01
    -25.591  0.0000E+00  0.2000E+01
    -25.485  0.0000E+00  0.2000E+01
    -25.379  0.0000E+00  0.2000E+01
    -25.274  0.0000E+00  0.2000E+01
    -25.168  0.0000E+00  0.2000E+01
    -25.063  0.0000E+00  0.2000E+01
    -24.957  0.0000E+00  0.2000E+01
    -24.852  0.0000E+00  0.2000E+01
    -24.746  0.0000E+00  0.2000E+01
    -24.641  0.0000E+00  0.2000E+01
    -24.535  0.0000E+00  0.2000E+01
    -24.429  0.0000E+00  0.2000E+01
    -24.324  0.0000E+00  0.2000E+01
    -24.218  0.0000E+00  0.2000E+01
    -24.113  0.0000E+00  0.2000E+01
    -24.007  0.0000E+00  0.2000E+01
    -23.902  0.0000E+00  0.2000E+01
    -23.796  0.0000E+00  0.2000E+01
    -23.691  0.0000E+00  0.2000E+01
    -23.585  0.0000E+00  0.2000E+01
    -23.479  0.0000E+00  0.2000E+01
    -23.374  0.0000E+00  0.2000E+01
    -23.268  0.0000E+00  0.2000E+01
    -23.163  0.0000E+00  0.2000E+01
    -23.057  0.0000E+00  0.2000E+01
    -22.952  0.0000E+00  0.2000E+01
    -22.846  0.0000E+00  0.2000E+01
    -22.740  0.0000E+00  0.2000E+01
    -22.635  0.0000E+00  0.2000E+01
    -22.529  0.0000E+00  0.2000E+01
    -22.424  0.0000E+00  0.2000E+01
    -22.318  0.0000E+00  0.2000E+01
    -22.213  0.0000E+00  0.2000E+01
    -22.107  0.0000E+00  0.2000E+01
    -22.002  0.0000E+00  0.2000E+01
    -21.896  0.0000E+00  0.2000E+01
    -21.790  0.0000E+00  0.2000E+01
    -21.685  0.0000E+00  0.2000E+01
    -21.579  0.0000E+00  0.2000E+01
    -21.474  0.0000E+00  0.2000E+01
    -21.368  0.0000E+00  0.2000E+01
    -21.263  0.0000E+00  0.2000E+01
    -21.157  0.0000E+00  0.2000E+01
    -21.051  0.0000E+00  0.2000E+01
    -20.946  0.0000E+00  0.2000E+01
    -20.840  0.0000E+00  0.2000E+01
    -20.735  0.0000E+00  0.2000E+01
    -20.629  0.0000E+00  0.2000E+01
    -20.524  0.0000E+00  0.2000E+01
    -20.418  0.0000E+00  0.2000E+01
    -20.313  0.0000E+00  0.2000E+01
    -20.207  0.0000E+00  0.2000E+01
    -20.101  0.0000E+00  0.2000E+01
    -19.996  0.0000E+00  0.2000E+01
    -19.890  0.0000E+00  0.2000E+01
    -19.785  0.0000E+00  0.2000E+01
    -19.679  0.0000E+00  0.2000E+01
    -19.574  0.0000E+00  0.2000E+01
    -19.468  0.0000E+00  0.2000E+01
    -19.362  0.0000E+00  0.2000E+01
    -19.257  0.0000E+00  0.2000E+01
    -19.151  0.0000E+00  0.2000E+01
    -19.046  0.0000E+00  0.2000E+01
    -18.940  0.0000E+00  0.2000E+01
    -18.835  0.0000E+00  0.2000E+01
    -18.729  0.0000E+00  0.2000E+01
    -18.624  0.0000E+00  0.2000E+01
    -18.518  0.0000E+00  0.2000E+01
    -18.412  0.0000E+00  0.2000E+01
    -18.307  0.0000E+00  0.2000E+01
    -18.201  0.0000E+00  0.2000E+01
    -18.096  0.0000E+00  0.2000E+01
    -17.990  0.0000E+00  0.2000E+01
    -17.885  0.0000E+00  0.2000E+01
    -17.779  0.0000E+00  0.2000E+01
    -17.673  0.0000E+00  0.2000E+01
    -17.568  0.0000E+00  0.2000E+01
    -17.462  0.0000E+00  0.2000E+01
    -17.357  0.0000E+00  0.2000E+01
    -17.251  0.0000E+00  0.2000E+01
    -17.146  0.0000E+00  0.2000E+01
    -17.040  0.0000E+00  0.2000E+01
    -16.935  0.0000E+00  0.2000E+01
    -16.829  0.0000E+00  0.2000E+01
    -16.723  0.0000E+00  0.2000E+01
    -16.618  0.0000E+00  0.2000E+01
    -16.512  0.0000E+00  0.2000E+01
    -16.407  0.0000E+00  0.2000E+01
    -16.301  0.0000E+00  0.2000E+01
    -16.196  0.0000E+00  0.2000E+01
    -16.090  0.0000E+00  0.2000E+01
    -15.985  0.0000E+00  0.2000E+01
    -15.879  0.0000E+00  0.2000E+01
    -15.773  0.0000E+00  0.2000E+01
    -15.668  0.0000E+00  0.2000E+01
    -15.562  0.0000E+00  0.2000E+01
    -15.457  0.0000E+00  0.2000E+01
    -15.351  0.0000E+00  0.2000E+01
    -15.246  0.0000E+00  0.2000E+01
    -15.140  0.0000E+00  0.2000E+01
    -15.034  0.7320E-26  0.2000E+01
    -14.929  0.2618E-22  0.2000E+01
    -14.823  0.5277E-19  0.2000E+01
    -14.718  0.5979E-16  0.2000E+01
    -14.612  0.3792E-13  0.2000E+01
    -14.507  0.1343E-10  0.2000E+01
    -14.401  0.2625E-08  0.2000E+01
    -14.296  0.2808E-06  0.2000E+01
    -14.190  0.1615E-04  0.2000E+01
    -14.084  0.4851E-03  0.2000E+01
    -13.979  0.7154E-02  0.2001E+01
    -13.873  0.4380E-01  0.2005E+01
    -13.768  0.2735E-01  0.2008E+01
    -13.662 -0.5245E+00  0.1953E+01
    -13.557 -0.3896E+00  0.1912E+01
    -13.451  0.4791E+01  0.2418E+01
    -13.345  0.1001E+02  0.3474E+01
    -13.240  0.5644E+01  0.4070E+01
    -13.134 -0.1058E+00  0.4059E+01
    -13.029 -0.6157E+00  0.3994E+01
    -12.923  0.1061E-02  0.3994E+01
    -12.818  0.4994E-01  0.3999E+01
    -12.712  0.9259E-02  0.4000E+01
    -12.607  0.6860E-03  0.4000E+01
    -12.501  0.2468E-04  0.4000E+01
    -12.395  0.4614E-06  0.4000E+01
    -12.290  0.4633E-08  0.4000E+01
    -12.184  0.1229E-08  0.4000E+01
    -12.079  0.1415E-06  0.4000E+01
    -11.973  0.8977E-05  0.4000E+01
    -11.868  0.2991E-03  0.4000E+01
    -11.762  0.4957E-02  0.4001E+01
    -11.656  0.3560E-01  0.4004E+01
    -11.551  0.5089E-01  0.4010E+01
    -11.445 -0.3910E+00  0.3968E+01
    -11.340 -0.6022E+00  0.3905E+01
    -11.234  0.3680E+01  0.4293E+01
    -11.129  0.9215E+01  0.5266E+01
    -11.023  0.6577E+01  0.5960E+01
    -10.918  0.5310E+01  0.6521E+01
    -10.812  0.8556E+01  0.7424E+01
    -10.706  0.8167E+01  0.8286E+01
    -10.601  0.9263E+01  0.9264E+01
    -10.495  0.6873E+01  0.9990E+01
    -10.390  0.8296E+00  0.1008E+02
    -10.284 -0.7295E+00  0.1000E+02
    -10.179 -0.8154E-01  0.9992E+01
    -10.073  0.6181E-01  0.9998E+01
     -9.968  0.1563E-01  0.1000E+02
     -9.862  0.1415E-02  0.1000E+02
     -9.756  0.6046E-04  0.1000E+02
     -9.651  0.1326E-05  0.1000E+02
     -9.545  0.1551E-07  0.1000E+02
     -9.440  0.9875E-10  0.1000E+02
     -9.334  0.3471E-12  0.1000E+02
     -9.229  0.0000E+00  0.1000E+02
     -9.123  0.0000E+00  0.1000E+02
     -9.017  0.0000E+00  0.1000E+02
     -8.912  0.0000E+00  0.1000E+02
     -8.806  0.0000E+00  0.1000E+02
     -8.701  0.0000E+00  0.1000E+02
     -8.595  0.0000E+00  0.1000E+02
     -8.490  0.0000E+00  0.1000E+02
     -8.384  0.0000E+00  0.1000E+02
     -8.279  0.4151E-25  0.1000E+02
     -8.173  0.1319E-21  0.1000E+02
     -8.067  0.2362E-18  0.1000E+02
     -7.962  0.2375E-15  0.1000E+02
     -7.856  0.1335E-12  0.1000E+02
     -7.751  0.4188E-10  0.1000E+02
     -7.645  0.7236E-08  0.1000E+02
     -7.540  0.6822E-06  0.1000E+02
     -7.434  0.3443E-04  0.1000E+02
     -7.328  0.8988E-03  0.1000E+02
     -7.223  0.1129E-01  0.1000E+02
     -7.117  0.5494E-01  0.1001E+02
     -7.012 -0.1992E-01  0.1000E+02
     -6.906 -0.6281E+00  0.9939E+01
     -6.801  0.3070E+00  0.9971E+01
     -6.695  0.5816E+01  0.1059E+02
     -6.590  0.8517E+01  0.1148E+02
     -6.484  0.8954E+01  0.1243E+02
     -6.378  0.1554E+02  0.1407E+02
     -6.273  0.1730E+02  0.1590E+02
     -6.167  0.2335E+02  0.1836E+02
     -6.062  0.2542E+02  0.2104E+02
     -5.956  0.8986E+01  0.2199E+02
     -5.851  0.1647E+02  0.2373E+02
     -5.745  0.5900E+02  0.2996E+02
     -5.639  0.1200E+03  0.4262E+02
     -5.534  0.2168E+03  0.6551E+02
     -5.428  0.2946E+03  0.9660E+02
     -5.323  0.2617E+03  0.1242E+03
     -5.217  0.2042E+03  0.1458E+03
     -5.112  0.2490E+03  0.1721E+03
     -5.006  0.3459E+03  0.2086E+03
     -4.901  0.3541E+03  0.2460E+03
     -4.795  0.2925E+03  0.2769E+03
     -4.689  0.3191E+03  0.3105E+03
     -4.584  0.4027E+03  0.3530E+03
     -4.478  0.4205E+03  0.3974E+03
     -4.373  0.4547E+03  0.4454E+03
     -4.267  0.5467E+03  0.5031E+03
     -4.162  0.4835E+03  0.5542E+03
     -4.056  0.2195E+03  0.5773E+03
     -3.950  0.3598E+02  0.5811E+03
     -3.845  0.2263E+02  0.5835E+03
     -3.739  0.3176E+02  0.5869E+03
     -3.634  0.1207E+02  0.5882E+03
     -3.528  0.1065E+02  0.5893E+03
     -3.423  0.2229E+02  0.5916E+03
     -3.317  0.1544E+02  0.5933E+03
     -3.212  0.2427E+01  0.5935E+03
     -3.106  0.2144E+02  0.5958E+03
     -3.000  0.6011E+02  0.6021E+03
     -2.895  0.5309E+02  0.6077E+03
     -2.789  0.1727E+02  0.6096E+03
     -2.684  0.3815E+01  0.6100E+03
     -2.578  0.1803E+02  0.6119E+03
     -2.473  0.2821E+02  0.6148E+03
     -2.367  0.1107E+02  0.6160E+03
     -2.262  0.4793E+01  0.6165E+03
     -2.156  0.2535E+02  0.6192E+03
     -2.050  0.3807E+02  0.6232E+03
     -1.945  0.3942E+02  0.6274E+03
     -1.839  0.4226E+02  0.6318E+03
     -1.734  0.4106E+02  0.6362E+03
     -1.628  0.4033E+02  0.6404E+03
     -1.523  0.3564E+02  0.6442E+03
     -1.417  0.2666E+02  0.6470E+03
     -1.311  0.1770E+02  0.6489E+03
     -1.206  0.5580E+01  0.6495E+03
     -1.100  0.1162E+02  0.6507E+03
     -0.995  0.5388E+02  0.6564E+03
     -0.889  0.7811E+02  0.6646E+03
     -0.784  0.4805E+02  0.6697E+03
     -0.678  0.1550E+02  0.6713E+03
     -0.573  0.5702E+01  0.6719E+03
     -0.467  0.1248E+01  0.6721E+03
     -0.361 -0.5488E+00  0.6720E+03
     -0.256 -0.9239E-01  0.6720E+03
     -0.150  0.8524E-01  0.6720E+03
     -0.045  0.2614E-01  0.6720E+03
      0.061  0.2811E-02  0.6720E+03
      0.166  0.1412E-03  0.6720E+03
      0.272  0.3615E-05  0.6720E+03
      0.378  0.4913E-07  0.6720E+03
      0.483  0.3624E-09  0.6720E+03
      0.589  0.1470E-11  0.6720E+03
      0.694  0.4207E-14  0.6720E+03
      0.800  0.0000E+00  0.6720E+03
      0.905  0.0000E+00  0.6720E+03
      1.011  0.0000E+00  0.6720E+03
      1.116  0.0000E+00  0.6720E+03
      1.222  0.0000E+00  0.6720E+03
      1.328  0.0000E+00  0.6720E+03
