  57  57   0   0
  0.4736842E+03  0.3000000E-08  0.3000000E-08  0.3000000E-08  0.5000000E-15
  1.000000000000000E-004
  CAR 
 6_Pd100_top_free_z(O)                   
      1.30902545    -30.69116175  301     -4.13718334      1.00000000
    -30.691  0.0000E+00  0.0000E+00
    -30.584  0.0000E+00  0.0000E+00
    -30.478  0.0000E+00  0.0000E+00
    -30.371  0.3383E-27  0.3609E-28
    -30.264  0.1616E-23  0.1724E-24
    -30.158  0.4301E-20  0.4590E-21
    -30.051  0.6364E-17  0.6793E-18
    -29.944  0.5215E-14  0.5570E-15
    -29.838  0.2361E-11  0.2524E-12
    -29.731  0.5842E-09  0.6257E-10
    -29.624  0.7840E-07  0.8426E-08
    -29.518  0.5620E-05  0.6078E-06
    -29.411  0.2096E-03  0.2296E-04
    -29.304  0.3865E-02  0.4352E-03
    -29.198  0.3102E-01  0.3744E-02
    -29.091  0.5719E-01  0.9844E-02
    -28.984 -0.3443E+00 -0.2688E-01
    -28.878 -0.7117E+00 -0.1028E+00
    -28.771  0.3312E+01  0.2505E+00
    -28.664  0.9636E+01  0.1278E+01
    -28.558  0.6978E+01  0.2023E+01
    -28.451  0.4951E+00  0.2076E+01
    -28.344 -0.7289E+00  0.1998E+01
    -28.238 -0.4938E-01  0.1993E+01
    -28.131  0.5691E-01  0.1999E+01
    -28.024  0.1233E-01  0.2000E+01
    -27.918  0.9871E-03  0.2000E+01
    -27.811  0.3729E-04  0.2000E+01
    -27.704  0.7182E-06  0.2000E+01
    -27.598  0.7304E-08  0.2000E+01
    -27.491  0.4001E-10  0.2000E+01
    -27.384  0.1187E-12  0.2000E+01
    -27.278  0.0000E+00  0.2000E+01
    -27.171  0.0000E+00  0.2000E+01
    -27.064  0.0000E+00  0.2000E+01
    -26.958  0.0000E+00  0.2000E+01
    -26.851  0.0000E+00  0.2000E+01
    -26.744  0.0000E+00  0.2000E+01
    -26.638  0.0000E+00  0.2000E+01
    -26.531  0.0000E+00  0.2000E+01
    -26.424  0.0000E+00  0.2000E+01
    -26.318  0.0000E+00  0.2000E+01
    -26.211  0.0000E+00  0.2000E+01
    -26.104  0.0000E+00  0.2000E+01
    -25.998  0.0000E+00  0.2000E+01
    -25.891  0.0000E+00  0.2000E+01
    -25.784  0.0000E+00  0.2000E+01
    -25.678  0.0000E+00  0.2000E+01
    -25.571  0.0000E+00  0.2000E+01
    -25.464  0.0000E+00  0.2000E+01
    -25.358  0.0000E+00  0.2000E+01
    -25.251  0.0000E+00  0.2000E+01
    -25.144  0.0000E+00  0.2000E+01
    -25.038  0.0000E+00  0.2000E+01
    -24.931  0.0000E+00  0.2000E+01
    -24.824  0.0000E+00  0.2000E+01
    -24.718  0.0000E+00  0.2000E+01
    -24.611  0.0000E+00  0.2000E+01
    -24.504  0.0000E+00  0.2000E+01
    -24.398  0.0000E+00  0.2000E+01
    -24.291  0.0000E+00  0.2000E+01
    -24.184  0.0000E+00  0.2000E+01
    -24.078  0.0000E+00  0.2000E+01
    -23.971  0.0000E+00  0.2000E+01
    -23.864  0.0000E+00  0.2000E+01
    -23.758  0.0000E+00  0.2000E+01
    -23.651  0.0000E+00  0.2000E+01
    -23.544  0.0000E+00  0.2000E+01
    -23.438  0.0000E+00  0.2000E+01
    -23.331  0.0000E+00  0.2000E+01
    -23.224  0.0000E+00  0.2000E+01
    -23.118  0.0000E+00  0.2000E+01
    -23.011  0.0000E+00  0.2000E+01
    -22.904  0.0000E+00  0.2000E+01
    -22.798  0.0000E+00  0.2000E+01
    -22.691  0.0000E+00  0.2000E+01
    -22.584  0.0000E+00  0.2000E+01
    -22.478  0.0000E+00  0.2000E+01
    -22.371  0.0000E+00  0.2000E+01
    -22.264  0.0000E+00  0.2000E+01
    -22.158  0.0000E+00  0.2000E+01
    -22.051  0.0000E+00  0.2000E+01
    -21.944  0.0000E+00  0.2000E+01
    -21.838  0.0000E+00  0.2000E+01
    -21.731  0.0000E+00  0.2000E+01
    -21.624  0.0000E+00  0.2000E+01
    -21.518  0.0000E+00  0.2000E+01
    -21.411  0.0000E+00  0.2000E+01
    -21.304  0.0000E+00  0.2000E+01
    -21.198  0.0000E+00  0.2000E+01
    -21.091  0.0000E+00  0.2000E+01
    -20.984  0.0000E+00  0.2000E+01
    -20.878  0.0000E+00  0.2000E+01
    -20.771  0.0000E+00  0.2000E+01
    -20.664  0.0000E+00  0.2000E+01
    -20.558  0.0000E+00  0.2000E+01
    -20.451  0.0000E+00  0.2000E+01
    -20.344  0.0000E+00  0.2000E+01
    -20.238  0.0000E+00  0.2000E+01
    -20.131  0.0000E+00  0.2000E+01
    -20.024  0.0000E+00  0.2000E+01
    -19.918  0.0000E+00  0.2000E+01
    -19.811  0.0000E+00  0.2000E+01
    -19.704  0.0000E+00  0.2000E+01
    -19.598  0.0000E+00  0.2000E+01
    -19.491  0.0000E+00  0.2000E+01
    -19.384  0.0000E+00  0.2000E+01
    -19.278  0.0000E+00  0.2000E+01
    -19.171  0.0000E+00  0.2000E+01
    -19.064  0.0000E+00  0.2000E+01
    -18.958  0.0000E+00  0.2000E+01
    -18.851  0.0000E+00  0.2000E+01
    -18.744  0.0000E+00  0.2000E+01
    -18.638  0.0000E+00  0.2000E+01
    -18.531  0.0000E+00  0.2000E+01
    -18.424  0.0000E+00  0.2000E+01
    -18.318  0.0000E+00  0.2000E+01
    -18.211  0.0000E+00  0.2000E+01
    -18.104  0.0000E+00  0.2000E+01
    -17.998  0.0000E+00  0.2000E+01
    -17.891  0.0000E+00  0.2000E+01
    -17.784  0.0000E+00  0.2000E+01
    -17.678  0.0000E+00  0.2000E+01
    -17.571  0.0000E+00  0.2000E+01
    -17.464  0.0000E+00  0.2000E+01
    -17.358  0.0000E+00  0.2000E+01
    -17.251  0.0000E+00  0.2000E+01
    -17.144  0.0000E+00  0.2000E+01
    -17.038  0.0000E+00  0.2000E+01
    -16.931  0.0000E+00  0.2000E+01
    -16.824  0.0000E+00  0.2000E+01
    -16.718  0.0000E+00  0.2000E+01
    -16.611  0.0000E+00  0.2000E+01
    -16.504  0.0000E+00  0.2000E+01
    -16.398  0.0000E+00  0.2000E+01
    -16.291  0.0000E+00  0.2000E+01
    -16.184  0.0000E+00  0.2000E+01
    -16.078  0.0000E+00  0.2000E+01
    -15.971  0.0000E+00  0.2000E+01
    -15.864  0.0000E+00  0.2000E+01
    -15.758  0.0000E+00  0.2000E+01
    -15.651  0.0000E+00  0.2000E+01
    -15.544  0.0000E+00  0.2000E+01
    -15.438  0.0000E+00  0.2000E+01
    -15.331  0.0000E+00  0.2000E+01
    -15.224  0.0000E+00  0.2000E+01
    -15.118  0.0000E+00  0.2000E+01
    -15.011  0.1234E-26  0.2000E+01
    -14.904  0.5405E-23  0.2000E+01
    -14.798  0.1319E-19  0.2000E+01
    -14.691  0.1788E-16  0.2000E+01
    -14.584  0.1342E-13  0.2000E+01
    -14.478  0.5557E-11  0.2000E+01
    -14.371  0.1257E-08  0.2000E+01
    -14.264  0.1539E-06  0.2000E+01
    -14.158  0.1003E-04  0.2000E+01
    -14.051  0.3383E-03  0.2000E+01
    -13.944  0.5577E-02  0.2001E+01
    -13.838  0.3861E-01  0.2005E+01
    -13.731  0.4138E-01  0.2009E+01
    -13.624 -0.4625E+00  0.1960E+01
    -13.518 -0.5117E+00  0.1905E+01
    -13.411  0.4383E+01  0.2373E+01
    -13.304  0.9952E+01  0.3434E+01
    -13.198  0.5900E+01  0.4064E+01
    -13.091 -0.2909E-01  0.4060E+01
    -12.984 -0.6257E+00  0.3994E+01
    -12.878 -0.4593E-03  0.3994E+01
    -12.771  0.4955E-01  0.3999E+01
    -12.664  0.8936E-02  0.4000E+01
    -12.558  0.6348E-03  0.4000E+01
    -12.451  0.2163E-04  0.4000E+01
    -12.344  0.3782E-06  0.4000E+01
    -12.238  0.3529E-08  0.4000E+01
    -12.131  0.4577E-08  0.4000E+01
    -12.024  0.4894E-06  0.4000E+01
    -11.918  0.2809E-04  0.4000E+01
    -11.811  0.8381E-03  0.4000E+01
    -11.704  0.1227E-01  0.4001E+01
    -11.598  0.7494E-01  0.4009E+01
    -11.491  0.5145E-01  0.4015E+01
    -11.384 -0.8771E+00  0.3921E+01
    -11.278 -0.7067E+00  0.3846E+01
    -11.171  0.8379E+01  0.4740E+01
    -11.064  0.1884E+02  0.6749E+01
    -10.958  0.1220E+02  0.8050E+01
    -10.851  0.7211E+00  0.8127E+01
    -10.744 -0.1235E+01  0.7996E+01
    -10.638 -0.8235E-01  0.7987E+01
    -10.531  0.1015E+00  0.7998E+01
    -10.424  0.4324E-01  0.8002E+01
    -10.318  0.6623E-01  0.8009E+01
    -10.211 -0.1800E+00  0.7990E+01
    -10.104 -0.8183E+00  0.7903E+01
     -9.998  0.1791E+01  0.8094E+01
     -9.891  0.8633E+01  0.9015E+01
     -9.784  0.8490E+01  0.9920E+01
     -9.678  0.1642E+01  0.1010E+02
     -9.571 -0.8173E+00  0.1001E+02
     -9.464 -0.1645E+00  0.9991E+01
     -9.358  0.6411E-01  0.9998E+01
     -9.251  0.1972E-01  0.1000E+02
     -9.144  0.1931E-02  0.1000E+02
     -9.038  0.8633E-04  0.1000E+02
     -8.931  0.1942E-05  0.1000E+02
     -8.824  0.2293E-07  0.1000E+02
     -8.718  0.1453E-09  0.1000E+02
     -8.611  0.4996E-12  0.1000E+02
     -8.504  0.0000E+00  0.1000E+02
     -8.398  0.0000E+00  0.1000E+02
     -8.291  0.2357E-26  0.1000E+02
     -8.184  0.9883E-23  0.1000E+02
     -8.078  0.2308E-19  0.1000E+02
     -7.971  0.2994E-16  0.1000E+02
     -7.864  0.2149E-13  0.1000E+02
     -7.758  0.8511E-11  0.1000E+02
     -7.651  0.1839E-08  0.1000E+02
     -7.544  0.2150E-06  0.1000E+02
     -7.438  0.1335E-04  0.1000E+02
     -7.331  0.4281E-03  0.1000E+02
     -7.224  0.6662E-02  0.1000E+02
     -7.118  0.4263E-01  0.1001E+02
     -7.011  0.2899E-01  0.1001E+02
     -6.904 -0.5236E+00  0.9953E+01
     -6.798 -0.3617E+00  0.9914E+01
     -6.691  0.4969E+01  0.1044E+02
     -6.584  0.1017E+02  0.1153E+02
     -6.478  0.5303E+01  0.1209E+02
     -6.371 -0.2154E+01  0.1186E+02
     -6.264  0.9379E-02  0.1187E+02
     -6.158  0.1882E+02  0.1387E+02
     -6.051  0.2805E+02  0.1686E+02
     -5.944  0.1131E+02  0.1807E+02
     -5.838  0.1437E+02  0.1960E+02
     -5.731  0.5229E+02  0.2518E+02
     -5.624  0.1245E+03  0.3846E+02
     -5.518  0.2394E+03  0.6400E+02
     -5.411  0.3052E+03  0.9655E+02
     -5.304  0.2516E+03  0.1234E+03
     -5.198  0.2040E+03  0.1451E+03
     -5.091  0.2670E+03  0.1736E+03
     -4.984  0.3600E+03  0.2120E+03
     -4.878  0.3495E+03  0.2493E+03
     -4.771  0.2914E+03  0.2804E+03
     -4.664  0.3381E+03  0.3165E+03
     -4.558  0.4155E+03  0.3608E+03
     -4.451  0.4214E+03  0.4057E+03
     -4.344  0.4710E+03  0.4560E+03
     -4.238  0.5552E+03  0.5152E+03
     -4.131  0.4381E+03  0.5619E+03
     -4.024  0.1637E+03  0.5794E+03
     -3.918  0.2104E+02  0.5816E+03
     -3.811  0.2579E+02  0.5844E+03
     -3.704  0.2789E+02  0.5873E+03
     -3.598  0.9133E+01  0.5883E+03
     -3.491  0.1524E+02  0.5899E+03
     -3.384  0.2431E+02  0.5925E+03
     -3.278  0.1008E+02  0.5936E+03
     -3.171  0.1637E+01  0.5938E+03
     -3.064  0.3449E+02  0.5975E+03
     -2.958  0.6591E+02  0.6045E+03
     -2.851  0.4271E+02  0.6090E+03
     -2.744  0.8325E+01  0.6099E+03
     -2.638  0.6146E+01  0.6106E+03
     -2.531  0.2435E+02  0.6132E+03
     -2.424  0.2250E+02  0.6156E+03
     -2.318  0.5281E+01  0.6161E+03
     -2.211  0.1220E+02  0.6175E+03
     -2.104  0.3558E+02  0.6212E+03
     -1.998  0.4393E+02  0.6259E+03
     -1.891  0.3942E+02  0.6301E+03
     -1.784  0.3747E+02  0.6341E+03
     -1.678  0.4015E+02  0.6384E+03
     -1.571  0.4133E+02  0.6428E+03
     -1.464  0.3510E+02  0.6466E+03
     -1.358  0.2272E+02  0.6490E+03
     -1.251  0.7155E+01  0.6498E+03
     -1.144  0.6036E+01  0.6504E+03
     -1.038  0.3679E+02  0.6543E+03
     -0.931  0.7260E+02  0.6621E+03
     -0.824  0.6228E+02  0.6687E+03
     -0.718  0.2379E+02  0.6713E+03
     -0.611  0.5932E+01  0.6719E+03
     -0.504  0.1538E+01  0.6720E+03
     -0.398 -0.4147E+00  0.6720E+03
     -0.291 -0.1507E+00  0.6720E+03
     -0.184  0.8663E-01  0.6720E+03
     -0.078  0.3304E-01  0.6720E+03
      0.029  0.3935E-02  0.6720E+03
      0.136  0.2109E-03  0.6720E+03
      0.242  0.5632E-05  0.6720E+03
      0.349  0.7847E-07  0.6720E+03
      0.456  0.5844E-09  0.6720E+03
      0.562  0.2359E-11  0.6720E+03
      0.669  0.6245E-14  0.6720E+03
      0.776  0.0000E+00  0.6720E+03
      0.882  0.0000E+00  0.6720E+03
      0.989  0.0000E+00  0.6720E+03
      1.096  0.0000E+00  0.6720E+03
      1.202  0.0000E+00  0.6720E+03
      1.309  0.0000E+00  0.6720E+03
