   57   57    1    1
  0.4736842E+03  0.3000000E-08  0.3000000E-08  0.3000000E-08  0.5000000E-15
  1.000000000000000E-004
  CAR 
 6_Pd100_top_free_z(O)                   
    560      1    336
 
  0.0000000E+00  0.0000000E+00  0.0000000E+00  0.1000000E+01
    1      -29.161348   1.000000
    2      -13.693150   1.000000
    3      -11.463755   1.000000
    4      -11.463240   1.000000
    5       -9.551457   1.000000
    6       -6.623303   1.000000
    7       -6.106445   1.000000
    8       -6.106127   1.000000
    9       -6.098982   1.000000
   10       -5.792528   1.000000
   11       -5.792326   1.000000
   12       -5.789845   1.000000
   13       -5.723180   1.000000
   14       -5.671317   1.000000
   15       -5.662790   1.000000
   16       -5.662758   1.000000
   17       -5.662463   1.000000
   18       -5.601403   1.000000
   19       -5.599465   1.000000
   20       -5.584843   1.000000
   21       -5.574981   1.000000
   22       -5.574856   1.000000
   23       -5.573743   1.000000
   24       -5.535661   1.000000
   25       -5.533019   1.000000
   26       -5.531047   1.000000
   27       -5.526615   1.000000
   28       -5.499428   1.000000
   29       -5.499320   1.000000
   30       -5.498820   1.000000
   31       -5.494985   1.000000
   32       -5.493097   1.000000
   33       -5.492886   1.000000
   34       -5.492196   1.000000
   35       -5.489653   1.000000
   36       -5.456628   1.000000
   37       -5.455752   1.000000
   38       -5.451154   1.000000
   39       -5.450353   1.000000
   40       -5.446193   1.000000
   41       -5.445035   1.000000
   42       -5.444832   1.000000
   43       -5.444730   1.000000
   44       -5.415756   1.000000
   45       -5.414295   1.000000
   46       -5.407125   1.000000
   47       -5.406419   1.000000
   48       -5.405879   1.000000
   49       -5.404872   1.000000
   50       -5.404595   1.000000
   51       -5.401043   1.000000
   52       -5.387035   1.000000
   53       -5.384402   1.000000
   54       -5.384300   1.000000
   55       -5.369624   1.000000
   56       -5.310798   1.000000
   57       -5.310037   1.000000
   58       -5.308960   1.000000
   59       -5.305810   1.000000
   60       -5.294095   1.000000
   61       -5.293690   1.000000
   62       -5.293632   1.000000
   63       -5.282238   1.000000
   64       -5.281355   1.000000
   65       -5.279110   1.000000
   66       -5.271079   1.000000
   67       -5.266548   1.000000
   68       -5.197595   1.000000
   69       -5.195782   1.000000
   70       -5.190423   1.000000
   71       -5.187509   1.000000
   72       -5.158454   1.000000
   73       -5.157305   1.000000
   74       -5.156629   1.000000
   75       -5.154569   1.000000
   76       -5.151600   1.000000
   77       -5.144130   1.000000
   78       -5.142210   1.000000
   79       -5.141738   1.000000
   80       -5.124746   1.000000
   81       -5.105999   1.000000
   82       -5.101494   1.000000
   83       -5.101113   1.000000
   84       -5.094108   1.000000
   85       -5.082731   1.000000
   86       -5.082403   1.000000
   87       -5.079765   1.000000
   88       -5.044836   1.000000
   89       -5.041930   1.000000
   90       -5.037489   1.000000
   91       -5.035849   1.000000
   92       -5.033110   1.000000
   93       -5.032497   1.000000
   94       -5.026324   1.000000
   95       -5.025453   1.000000
   96       -5.025320   1.000000
   97       -5.024750   1.000000
   98       -5.004536   1.000000
   99       -4.995484   1.000000
  100       -4.995219   1.000000
  101       -4.983279   1.000000
  102       -4.982588   1.000000
  103       -4.982513   1.000000
  104       -4.975322   1.000000
  105       -4.974956   1.000000
  106       -4.968144   1.000000
  107       -4.957974   1.000000
  108       -4.957052   1.000000
  109       -4.956951   1.000000
  110       -4.951709   1.000000
  111       -4.948355   1.000000
  112       -4.945774   1.000000
  113       -4.941850   1.000000
  114       -4.934329   0.999999
  115       -4.930876   0.999999
  116       -4.930664   0.999999
  117       -4.919301   0.999999
  118       -4.897998   0.999998
  119       -4.895121   0.999998
  120       -4.894336   0.999998
  121       -4.893911   0.999998
  122       -4.892612   0.999998
  123       -4.885328   0.999997
  124       -4.882632   0.999997
  125       -4.879033   0.999996
  126       -4.878941   0.999996
  127       -4.836293   0.999985
  128       -4.833682   0.999984
  129       -4.828200   0.999981
  130       -4.823046   0.999978
  131       -4.820211   0.999976
  132       -4.818196   0.999974
  133       -4.808757   0.999966
  134       -4.808647   0.999966
  135       -4.807332   0.999965
  136       -4.787296   0.999939
  137       -4.777954   0.999921
  138       -4.771822   0.999907
  139       -4.768529   0.999899
  140       -4.765939   0.999891
  141       -4.759056   0.999870
  142       -4.737373   0.999778
  143       -4.714667   0.999624
  144       -4.714567   0.999623
  145       -4.713679   0.999615
  146       -4.710891   0.999591
  147       -4.706218   0.999546
  148       -4.689372   0.999351
  149       -4.687157   0.999320
  150       -4.682991   0.999261
  151       -4.670511   0.999055
  152       -4.659615   0.998841
  153       -4.656661   0.998777
  154       -4.653043   0.998696
  155       -4.652841   0.998691
  156       -4.650585   0.998638
  157       -4.649499   0.998612
  158       -4.649457   0.998611
  159       -4.640613   0.998385
  160       -4.632411   0.998155
  161       -4.628404   0.998035
  162       -4.627577   0.998009
  163       -4.627069   0.997994
  164       -4.626560   0.997978
  165       -4.622450   0.997848
  166       -4.622335   0.997845
  167       -4.619691   0.997759
  168       -4.617461   0.997685
  169       -4.606872   0.997318
  170       -4.604890   0.997247
  171       -4.596349   0.996933
  172       -4.591888   0.996766
  173       -4.581000   0.996357
  174       -4.574227   0.996108
  175       -4.574146   0.996105
  176       -4.570933   0.995990
  177       -4.570374   0.995970
  178       -4.564265   0.995762
  179       -4.562552   0.995706
  180       -4.562364   0.995700
  181       -4.550057   0.995349
  182       -4.533245   0.995079
  183       -4.530103   0.995066
  184       -4.529690   0.995065
  185       -4.528889   0.995065
  186       -4.527974   0.995066
  187       -4.527898   0.995066
  188       -4.527855   0.995066
  189       -4.525698   0.995073
  190       -4.525447   0.995074
  191       -4.487114   0.996895
  192       -4.484005   0.997222
  193       -4.483561   0.997272
  194       -4.480698   0.997608
  195       -4.480263   0.997661
  196       -4.467770   0.999504
  197       -4.457964   1.001391
  198       -4.457680   1.001452
  199       -4.454181   1.002230
  200       -4.445352   1.004436
  201       -4.444661   1.004624
  202       -4.437611   1.006662
  203       -4.433598   1.007924
  204       -4.433322   1.008014
  205       -4.425800   1.010583
  206       -4.424626   1.011007
  207       -4.424444   1.011073
  208       -4.423381   1.011462
  209       -4.423237   1.011516
  210       -4.416079   1.014265
  211       -4.402441   1.020041
  212       -4.388819   1.026344
  213       -4.385503   1.027928
  214       -4.385227   1.028060
  215       -4.384509   1.028405
  216       -4.379769   1.030686
  217       -4.377786   1.031641
  218       -4.377341   1.031855
  219       -4.375641   1.032672
  220       -4.354789   1.042203
  221       -4.353160   1.042876
  222       -4.338355   1.048150
  223       -4.324036   1.051172
  224       -4.321976   1.051384
  225       -4.316206   1.051624
  226       -4.315051   1.051605
  227       -4.314069   1.051571
  228       -4.313057   1.051518
  229       -4.312921   1.051509
  230       -4.309606   1.051193
  231       -4.305710   1.050548
  232       -4.305334   1.050469
  233       -4.300974   1.049336
  234       -4.299508   1.048860
  235       -4.298168   1.048383
  236       -4.297430   1.048102
  237       -4.297043   1.047949
  238       -4.296320   1.047655
  239       -4.293340   1.046307
  240       -4.293283   1.046280
  241       -4.280334   1.037708
  242       -4.276476   1.034236
  243       -4.269242   1.026494
  244       -4.268811   1.025979
  245       -4.262044   1.017104
  246       -4.260194   1.014406
  247       -4.259985   1.014095
  248       -4.259440   1.013273
  249       -4.254239   1.004911
  250       -4.249162   0.995808
  251       -4.239294   0.975381
  252       -4.232770   0.959840
  253       -4.232600   0.959413
  254       -4.232125   0.958213
  255       -4.225863   0.941596
  256       -4.225598   0.940860
  257       -4.225343   0.940146
  258       -4.222110   0.930905
  259       -4.219534   0.923255
  260       -4.219513   0.923189
  261       -4.213820   0.905368
  262       -4.212562   0.901261
  263       -4.212496   0.901044
  264       -4.212212   0.900107
  265       -4.209419   0.890741
  266       -4.197513   0.847569
  267       -4.194901   0.837421
  268       -4.194326   0.835153
  269       -4.193984   0.833800
  270       -4.191111   0.822271
  271       -4.190183   0.818489
  272       -4.187754   0.808454
  273       -4.169340   0.726518
  274       -4.167850   0.719481
  275       -4.167686   0.718705
  276       -4.158003   0.671682
  277       -4.157739   0.670371
  278       -4.152258   0.642894
  279       -4.145109   0.606324
  280       -4.144762   0.604533
  281       -4.144279   0.602038
  282       -4.130587   0.530344
  283       -4.106412   0.403140
  284       -4.105522   0.398528
  285       -4.105156   0.396633
  286       -4.100971   0.375109
  287       -4.090451   0.322194
  288       -4.086337   0.302073
  289       -4.066391   0.210438
  290       -3.943765  -0.050592
  291       -3.875092  -0.033171
  292       -3.795978  -0.002338
  293       -3.795522  -0.002232
  294       -3.793897  -0.001864
  295       -3.468937   0.000073
  296       -3.468594   0.000073
  297       -3.409964   0.000013
  298       -3.033845   0.000000
  299       -3.033326   0.000000
  300       -2.998061   0.000000
  301       -2.991291   0.000000
  302       -2.989918   0.000000
  303       -2.989473   0.000000
  304       -2.906786   0.000000
  305       -2.848874   0.000000
  306       -2.538951   0.000000
  307       -2.533391   0.000000
  308       -2.495480   0.000000
  309       -2.253577   0.000000
  310       -2.102871   0.000000
  311       -2.100963   0.000000
  312       -2.094379   0.000000
  313       -1.935103   0.000000
  314       -1.929352   0.000000
  315       -1.871665   0.000000
  316       -1.848106   0.000000
  317       -1.826202   0.000000
  318       -1.765999   0.000000
  319       -1.758240   0.000000
  320       -1.700727   0.000000
  321       -1.620418   0.000000
  322       -1.528630   0.000000
  323       -1.501285   0.000000
  324       -1.477786   0.000000
  325       -1.469919   0.000000
  326       -1.141227   0.000000
  327       -1.136251   0.000000
  328       -1.043314   0.000000
  329       -0.965817   0.000000
  330       -0.958109   0.000000
  331       -0.948723   0.000000
  332       -0.919739   0.000000
  333       -0.909423   0.000000
  334       -0.811903   0.000000
  335       -0.777698   0.000000
  336       -0.715426   0.000000
