  57  57   0   0
  0.4736842E+03  0.3000000E-08  0.3000000E-08  0.3000000E-08  0.5000000E-15
  1.000000000000000E-004
  CAR 
 6_Pd100_top_free_z(O)                   
      1.27044847    -30.15183950  301     -4.17068143      1.00000000
    -30.152  0.0000E+00  0.0000E+00
    -30.047  0.0000E+00  0.0000E+00
    -29.942  0.0000E+00  0.0000E+00
    -29.838  0.2141E-27  0.2243E-28
    -29.733  0.9099E-24  0.9533E-25
    -29.628  0.2201E-20  0.2306E-21
    -29.523  0.3023E-17  0.3169E-18
    -29.419  0.2350E-14  0.2465E-15
    -29.314  0.1031E-11  0.1083E-12
    -29.209  0.2531E-09  0.2661E-10
    -29.104  0.3448E-07  0.3638E-08
    -29.000  0.2575E-05  0.2733E-06
    -28.895  0.1030E-03  0.1106E-04
    -28.790  0.2118E-02  0.2329E-03
    -28.685  0.2037E-01  0.2366E-02
    -28.581  0.6442E-01  0.9114E-02
    -28.476 -0.1535E+00 -0.6968E-02
    -28.371 -0.8168E+00 -0.9252E-01
    -28.267  0.1344E+01  0.4827E-01
    -28.162  0.8086E+01  0.8952E+00
    -28.057  0.9090E+01  0.1847E+01
    -27.952  0.2434E+01  0.2102E+01
    -27.848 -0.7966E+00  0.2019E+01
    -27.743 -0.2735E+00  0.1990E+01
    -27.638  0.6202E-01  0.1997E+01
    -27.533  0.2820E-01  0.2000E+01
    -27.429  0.3464E-02  0.2000E+01
    -27.324  0.1926E-03  0.2000E+01
    -27.219  0.5438E-05  0.2000E+01
    -27.114  0.8180E-07  0.2000E+01
    -27.010  0.6720E-09  0.2000E+01
    -26.905  0.3057E-11  0.2000E+01
    -26.800  0.8480E-14  0.2000E+01
    -26.695  0.0000E+00  0.2000E+01
    -26.591  0.0000E+00  0.2000E+01
    -26.486  0.0000E+00  0.2000E+01
    -26.381  0.0000E+00  0.2000E+01
    -26.276  0.0000E+00  0.2000E+01
    -26.172  0.0000E+00  0.2000E+01
    -26.067  0.0000E+00  0.2000E+01
    -25.962  0.0000E+00  0.2000E+01
    -25.857  0.0000E+00  0.2000E+01
    -25.753  0.0000E+00  0.2000E+01
    -25.648  0.0000E+00  0.2000E+01
    -25.543  0.0000E+00  0.2000E+01
    -25.438  0.0000E+00  0.2000E+01
    -25.334  0.0000E+00  0.2000E+01
    -25.229  0.0000E+00  0.2000E+01
    -25.124  0.0000E+00  0.2000E+01
    -25.020  0.0000E+00  0.2000E+01
    -24.915  0.0000E+00  0.2000E+01
    -24.810  0.0000E+00  0.2000E+01
    -24.705  0.0000E+00  0.2000E+01
    -24.601  0.0000E+00  0.2000E+01
    -24.496  0.0000E+00  0.2000E+01
    -24.391  0.0000E+00  0.2000E+01
    -24.286  0.0000E+00  0.2000E+01
    -24.182  0.0000E+00  0.2000E+01
    -24.077  0.0000E+00  0.2000E+01
    -23.972  0.0000E+00  0.2000E+01
    -23.867  0.0000E+00  0.2000E+01
    -23.763  0.0000E+00  0.2000E+01
    -23.658  0.0000E+00  0.2000E+01
    -23.553  0.0000E+00  0.2000E+01
    -23.448  0.0000E+00  0.2000E+01
    -23.344  0.0000E+00  0.2000E+01
    -23.239  0.0000E+00  0.2000E+01
    -23.134  0.0000E+00  0.2000E+01
    -23.029  0.0000E+00  0.2000E+01
    -22.925  0.0000E+00  0.2000E+01
    -22.820  0.0000E+00  0.2000E+01
    -22.715  0.0000E+00  0.2000E+01
    -22.610  0.0000E+00  0.2000E+01
    -22.506  0.0000E+00  0.2000E+01
    -22.401  0.0000E+00  0.2000E+01
    -22.296  0.0000E+00  0.2000E+01
    -22.192  0.0000E+00  0.2000E+01
    -22.087  0.0000E+00  0.2000E+01
    -21.982  0.0000E+00  0.2000E+01
    -21.877  0.0000E+00  0.2000E+01
    -21.773  0.0000E+00  0.2000E+01
    -21.668  0.0000E+00  0.2000E+01
    -21.563  0.0000E+00  0.2000E+01
    -21.458  0.0000E+00  0.2000E+01
    -21.354  0.0000E+00  0.2000E+01
    -21.249  0.0000E+00  0.2000E+01
    -21.144  0.0000E+00  0.2000E+01
    -21.039  0.0000E+00  0.2000E+01
    -20.935  0.0000E+00  0.2000E+01
    -20.830  0.0000E+00  0.2000E+01
    -20.725  0.0000E+00  0.2000E+01
    -20.620  0.0000E+00  0.2000E+01
    -20.516  0.0000E+00  0.2000E+01
    -20.411  0.0000E+00  0.2000E+01
    -20.306  0.0000E+00  0.2000E+01
    -20.201  0.0000E+00  0.2000E+01
    -20.097  0.0000E+00  0.2000E+01
    -19.992  0.0000E+00  0.2000E+01
    -19.887  0.0000E+00  0.2000E+01
    -19.782  0.0000E+00  0.2000E+01
    -19.678  0.0000E+00  0.2000E+01
    -19.573  0.0000E+00  0.2000E+01
    -19.468  0.0000E+00  0.2000E+01
    -19.364  0.0000E+00  0.2000E+01
    -19.259  0.0000E+00  0.2000E+01
    -19.154  0.0000E+00  0.2000E+01
    -19.049  0.0000E+00  0.2000E+01
    -18.945  0.0000E+00  0.2000E+01
    -18.840  0.0000E+00  0.2000E+01
    -18.735  0.0000E+00  0.2000E+01
    -18.630  0.0000E+00  0.2000E+01
    -18.526  0.0000E+00  0.2000E+01
    -18.421  0.0000E+00  0.2000E+01
    -18.316  0.0000E+00  0.2000E+01
    -18.211  0.0000E+00  0.2000E+01
    -18.107  0.0000E+00  0.2000E+01
    -18.002  0.0000E+00  0.2000E+01
    -17.897  0.0000E+00  0.2000E+01
    -17.792  0.0000E+00  0.2000E+01
    -17.688  0.0000E+00  0.2000E+01
    -17.583  0.0000E+00  0.2000E+01
    -17.478  0.0000E+00  0.2000E+01
    -17.373  0.0000E+00  0.2000E+01
    -17.269  0.0000E+00  0.2000E+01
    -17.164  0.0000E+00  0.2000E+01
    -17.059  0.0000E+00  0.2000E+01
    -16.954  0.0000E+00  0.2000E+01
    -16.850  0.0000E+00  0.2000E+01
    -16.745  0.0000E+00  0.2000E+01
    -16.640  0.0000E+00  0.2000E+01
    -16.536  0.0000E+00  0.2000E+01
    -16.431  0.0000E+00  0.2000E+01
    -16.326  0.0000E+00  0.2000E+01
    -16.221  0.0000E+00  0.2000E+01
    -16.117  0.0000E+00  0.2000E+01
    -16.012  0.0000E+00  0.2000E+01
    -15.907  0.0000E+00  0.2000E+01
    -15.802  0.0000E+00  0.2000E+01
    -15.698  0.0000E+00  0.2000E+01
    -15.593  0.0000E+00  0.2000E+01
    -15.488  0.0000E+00  0.2000E+01
    -15.383  0.0000E+00  0.2000E+01
    -15.279  0.0000E+00  0.2000E+01
    -15.174  0.3607E-26  0.2000E+01
    -15.069  0.1272E-22  0.2000E+01
    -14.964  0.2553E-19  0.2000E+01
    -14.860  0.2907E-16  0.2000E+01
    -14.755  0.1870E-13  0.2000E+01
    -14.650  0.6781E-11  0.2000E+01
    -14.545  0.1372E-08  0.2000E+01
    -14.441  0.1535E-06  0.2000E+01
    -14.336  0.9352E-05  0.2000E+01
    -14.231  0.3021E-03  0.2000E+01
    -14.126  0.4907E-02  0.2001E+01
    -14.022  0.3501E-01  0.2004E+01
    -13.917  0.5250E-01  0.2010E+01
    -13.812 -0.3783E+00  0.1970E+01
    -13.708 -0.6920E+00  0.1898E+01
    -13.603  0.3366E+01  0.2250E+01
    -13.498  0.9624E+01  0.3258E+01
    -13.393  0.7177E+01  0.4010E+01
    -13.289  0.6758E+00  0.4081E+01
    -13.184 -0.7668E+00  0.4000E+01
    -13.079 -0.8248E-01  0.3992E+01
    -12.974  0.6108E-01  0.3998E+01
    -12.870  0.1561E-01  0.4000E+01
    -12.765  0.1443E-02  0.4000E+01
    -12.660  0.6364E-04  0.4000E+01
    -12.555  0.1454E-05  0.4000E+01
    -12.451  0.1788E-07  0.4000E+01
    -12.346  0.1683E-08  0.4000E+01
    -12.241  0.1721E-06  0.4000E+01
    -12.136  0.1032E-04  0.4000E+01
    -12.032  0.3278E-03  0.4000E+01
    -11.927  0.5224E-02  0.4001E+01
    -11.822  0.3634E-01  0.4004E+01
    -11.717  0.4982E-01  0.4010E+01
    -11.613 -0.3986E+00  0.3968E+01
    -11.508 -0.6616E+00  0.3899E+01
    -11.403  0.3559E+01  0.4271E+01
    -11.298  0.9757E+01  0.5293E+01
    -11.194  0.6961E+01  0.6022E+01
    -11.089 -0.1136E+00  0.6011E+01
    -10.984 -0.4169E+00  0.5967E+01
    -10.880  0.6134E+01  0.6609E+01
    -10.775  0.9132E+01  0.7566E+01
    -10.670  0.6373E+01  0.8233E+01
    -10.565  0.8412E+01  0.9115E+01
    -10.461  0.7784E+01  0.9930E+01
    -10.356  0.1524E+01  0.1009E+02
    -10.251 -0.7804E+00  0.1001E+02
    -10.146 -0.1624E+00  0.9991E+01
    -10.042  0.6505E-01  0.9998E+01
     -9.937  0.2138E-01  0.1000E+02
     -9.832  0.2273E-02  0.1000E+02
     -9.727  0.1126E-03  0.1000E+02
     -9.623  0.2862E-05  0.1000E+02
     -9.518  0.3896E-07  0.1000E+02
     -9.413  0.2904E-09  0.1000E+02
     -9.308  0.1202E-11  0.1000E+02
     -9.204  0.2120E-14  0.1000E+02
     -9.099  0.0000E+00  0.1000E+02
     -8.994  0.0000E+00  0.1000E+02
     -8.889  0.0000E+00  0.1000E+02
     -8.785  0.0000E+00  0.1000E+02
     -8.680  0.0000E+00  0.1000E+02
     -8.575  0.0000E+00  0.1000E+02
     -8.470  0.0000E+00  0.1000E+02
     -8.366  0.1697E-25  0.1000E+02
     -8.261  0.5456E-22  0.1000E+02
     -8.156  0.1000E-18  0.1000E+02
     -8.051  0.1043E-15  0.1000E+02
     -7.947  0.6172E-13  0.1000E+02
     -7.842  0.2069E-10  0.1000E+02
     -7.737  0.3895E-08  0.1000E+02
     -7.633  0.4091E-06  0.1000E+02
     -7.528  0.2366E-04  0.1000E+02
     -7.423  0.7359E-03  0.1000E+02
     -7.318  0.1174E-01  0.1000E+02
     -7.214  0.8510E-01  0.1001E+02
     -7.109  0.1541E+00  0.1003E+02
     -7.004 -0.8280E+00  0.9940E+01
     -6.899 -0.2028E+01  0.9727E+01
     -6.795  0.7337E+01  0.1050E+02
     -6.690  0.2614E+02  0.1323E+02
     -6.585  0.2420E+02  0.1577E+02
     -6.480  0.4186E+01  0.1621E+02
     -6.376 -0.3839E+01  0.1580E+02
     -6.271  0.6879E+01  0.1653E+02
     -6.166  0.2465E+02  0.1911E+02
     -6.061  0.2417E+02  0.2164E+02
     -5.957  0.1630E+02  0.2335E+02
     -5.852  0.3116E+02  0.2661E+02
     -5.747  0.6239E+02  0.3314E+02
     -5.642  0.1224E+03  0.4597E+02
     -5.538  0.2319E+03  0.7025E+02
     -5.433  0.3001E+03  0.1017E+03
     -5.328  0.2542E+03  0.1283E+03
     -5.223  0.2086E+03  0.1502E+03
     -5.119  0.2608E+03  0.1775E+03
     -5.014  0.3494E+03  0.2141E+03
     -4.909  0.3544E+03  0.2512E+03
     -4.805  0.3009E+03  0.2827E+03
     -4.700  0.3286E+03  0.3171E+03
     -4.595  0.4012E+03  0.3592E+03
     -4.490  0.4132E+03  0.4024E+03
     -4.386  0.4578E+03  0.4504E+03
     -4.281  0.5570E+03  0.5087E+03
     -4.176  0.4723E+03  0.5582E+03
     -4.071  0.1975E+03  0.5789E+03
     -3.967  0.2392E+02  0.5814E+03
     -3.862  0.1347E+02  0.5828E+03
     -3.757  0.2651E+02  0.5856E+03
     -3.652  0.1822E+02  0.5875E+03
     -3.548  0.2134E+02  0.5897E+03
     -3.443  0.2837E+02  0.5927E+03
     -3.338  0.1209E+02  0.5940E+03
     -3.233 -0.2971E+01  0.5936E+03
     -3.129  0.2037E+02  0.5958E+03
     -3.024  0.5837E+02  0.6019E+03
     -2.919  0.5012E+02  0.6071E+03
     -2.814  0.1535E+02  0.6088E+03
     -2.710  0.5277E+01  0.6093E+03
     -2.605  0.1580E+02  0.6110E+03
     -2.500  0.2806E+02  0.6139E+03
     -2.395  0.2393E+02  0.6164E+03
     -2.291  0.1207E+02  0.6177E+03
     -2.186  0.1633E+02  0.6194E+03
     -2.081  0.3202E+02  0.6227E+03
     -1.977  0.4007E+02  0.6269E+03
     -1.872  0.4113E+02  0.6312E+03
     -1.767  0.3946E+02  0.6354E+03
     -1.662  0.3876E+02  0.6394E+03
     -1.558  0.3228E+02  0.6428E+03
     -1.453  0.1768E+02  0.6447E+03
     -1.348  0.1763E+02  0.6465E+03
     -1.243  0.3045E+02  0.6497E+03
     -1.139  0.3036E+02  0.6529E+03
     -1.034  0.3795E+02  0.6569E+03
     -0.929  0.6067E+02  0.6632E+03
     -0.824  0.5371E+02  0.6688E+03
     -0.720  0.2487E+02  0.6714E+03
     -0.615  0.6259E+01  0.6721E+03
     -0.510 -0.3404E+00  0.6721E+03
     -0.405 -0.7154E+00  0.6720E+03
     -0.301  0.3463E-01  0.6720E+03
     -0.196  0.1041E+00  0.6720E+03
     -0.091  0.2400E-01  0.6720E+03
      0.014  0.2286E-02  0.6720E+03
      0.118  0.1071E-03  0.6720E+03
      0.223  0.2631E-05  0.6720E+03
      0.328  0.3490E-07  0.6720E+03
      0.433  0.2548E-09  0.6720E+03
      0.537  0.1037E-11  0.6720E+03
      0.642  0.2120E-14  0.6720E+03
      0.747  0.0000E+00  0.6720E+03
      0.851  0.0000E+00  0.6720E+03
      0.956  0.0000E+00  0.6720E+03
      1.061  0.0000E+00  0.6720E+03
      1.166  0.0000E+00  0.6720E+03
      1.270  0.0000E+00  0.6720E+03
