 vasp.5.4.4.18Apr17-6-g9f103f2a35 (build Sep 03 2018 23:53:05) complex          
  
 executed on             LinuxIFC date 2021.12.01  23:58:24
 running on    1 total cores
 distrk:  each k-point on    1 cores,    1 groups
 distr:  one band on NCORES_PER_BAND=   1 cores,    1 groups


--------------------------------------------------------------------------------------------------------


 INCAR:
 POTCAR:    PAW_PBE Pd 04Jan2005                  
 POTCAR:    PAW_PBE C 08Apr2002                   
 POTCAR:    PAW_PBE O 08Apr2002                   
 POTCAR:    PAW_PBE Pd 04Jan2005                  
   VRHFIN =Pd : s1 d9                                                           
   LEXCH  = PE                                                                  
   EATOM  =   809.7530 eV,   59.5152 Ry                                         
                                                                                
   TITEL  = PAW_PBE Pd 04Jan2005                                                
   LULTRA =        F    use ultrasoft PP ?                                      
   IUNSCR =        1    unscreen: 0-lin 1-nonlin 2-no                           
   RPACOR =    2.000    partial core radius                                     
   POMASS =  106.420; ZVAL   =   10.000    mass and valenz                      
   RCORE  =    2.600    outmost cutoff radius                                   
   RWIGS  =    2.710; RWIGS  =    1.434    wigner-seitz radius (au A)           
   ENMAX  =  250.925; ENMIN  =  188.194 eV                                      
   ICORE  =        3    local potential                                         
   LCOR   =        T    correct aug charges                                     
   LPAW   =        T    paw PP                                                  
   EAUG   =  416.230                                                            
   DEXC   =    0.000                                                            
   RMAX   =    2.653    core radius for proj-oper                               
   RAUG   =    1.300    factor for augmentation sphere                          
   RDEP   =    2.734    radius for radial grids                                 
   RDEPT  =    2.103    core radius for aug-charge                              
                                                                                
   Atomic configuration                                                         
   12 entries                                                                   
     n  l   j            E        occ.                                          
     1  0  0.50    -24164.6631   2.0000                                         
     2  0  0.50     -3530.9218   2.0000                                         
     2  1  1.50     -3165.6822   6.0000                                         
     3  0  0.50      -639.4577   2.0000                                         
     3  1  1.50      -519.4532   6.0000                                         
     3  2  2.50      -328.9757  10.0000                                         
     4  0  0.50       -88.7014   2.0000                                         
     4  1  1.50       -54.4540   6.0000                                         
     4  2  2.50        -6.6878   9.0000                                         
     5  0  0.50        -4.3543   1.0000                                         
     5  1  0.50        -1.3606   0.0000                                         
     4  3  2.50        -1.3606   0.0000                                         
   Description                                                                  
     l       E           TYP  RCUT    TYP  RCUT                                 
     2     -6.6878251     23  2.400                                             
     2     -8.0484077     23  2.400                                             
     0     -4.3542939     23  2.400                                             
     0      4.3406793     23  2.400                                             
     1     -4.0817478     23  2.600                                             
     1     15.8380318     23  2.600                                             
     3     -4.0817478     23  2.400                                             
  local pseudopotential read in
  partial core-charges read in
  partial kinetic energy density read in
  atomic valenz-charges read in
  non local Contribution for L=           2  read in
    real space projection operators read in
  non local Contribution for L=           2  read in
    real space projection operators read in
  non local Contribution for L=           0  read in
    real space projection operators read in
  non local Contribution for L=           0  read in
    real space projection operators read in
  non local Contribution for L=           1  read in
    real space projection operators read in
  non local Contribution for L=           1  read in
    real space projection operators read in
    PAW grid and wavefunctions read in
 
   number of l-projection  operators is LMAX  =           6
   number of lm-projection operators is LMMAX =          18
 
 POTCAR:    PAW_PBE C 08Apr2002                   
   VRHFIN =C: s2p2                                                              
   LEXCH  = PE                                                                  
   EATOM  =   147.1560 eV,   10.8157 Ry                                         
                                                                                
   TITEL  = PAW_PBE C 08Apr2002                                                 
   LULTRA =        F    use ultrasoft PP ?                                      
   IUNSCR =        1    unscreen: 0-lin 1-nonlin 2-no                           
   RPACOR =    1.200    partial core radius                                     
   POMASS =   12.011; ZVAL   =    4.000    mass and valenz                      
   RCORE  =    1.500    outmost cutoff radius                                   
   RWIGS  =    1.630; RWIGS  =    0.863    wigner-seitz radius (au A)           
   ENMAX  =  400.000; ENMIN  =  300.000 eV                                      
   ICORE  =        2    local potential                                         
   LCOR   =        T    correct aug charges                                     
   LPAW   =        T    paw PP                                                  
   EAUG   =  644.873                                                            
   DEXC   =    0.000                                                            
   RMAX   =    1.529    core radius for proj-oper                               
   RAUG   =    1.300    factor for augmentation sphere                          
   RDEP   =    1.501    radius for radial grids                                 
   RDEPT  =    1.300    core radius for aug-charge                              
                                                                                
   Atomic configuration                                                         
    4 entries                                                                   
     n  l   j            E        occ.                                          
     1  0  0.50      -273.3789   2.0000                                         
     2  0  0.50       -13.7508   2.0000                                         
     2  1  0.50        -5.2854   2.0000                                         
     3  2  1.50        -5.4423   0.0000                                         
   Description                                                                  
     l       E           TYP  RCUT    TYP  RCUT                                 
     0    -13.7508458     23  1.200                                             
     0     -8.2022199     23  1.200                                             
     1     -5.2854383     23  1.500                                             
     1     34.0145650     23  1.500                                             
     2     -5.4423304      7  1.500                                             
  local pseudopotential read in
  partial core-charges read in
  partial kinetic energy density read in
  atomic valenz-charges read in
  non local Contribution for L=           0  read in
    real space projection operators read in
  non local Contribution for L=           0  read in
    real space projection operators read in
  non local Contribution for L=           1  read in
    real space projection operators read in
  non local Contribution for L=           1  read in
    real space projection operators read in
    PAW grid and wavefunctions read in
 
   number of l-projection  operators is LMAX  =           4
   number of lm-projection operators is LMMAX =           8
 
 POTCAR:    PAW_PBE O 08Apr2002                   
   VRHFIN =O: s2p4                                                              
   LEXCH  = PE                                                                  
   EATOM  =   432.3788 eV,   31.7789 Ry                                         
                                                                                
   TITEL  = PAW_PBE O 08Apr2002                                                 
   LULTRA =        F    use ultrasoft PP ?                                      
   IUNSCR =        1    unscreen: 0-lin 1-nonlin 2-no                           
   RPACOR =    1.200    partial core radius                                     
   POMASS =   16.000; ZVAL   =    6.000    mass and valenz                      
   RCORE  =    1.520    outmost cutoff radius                                   
   RWIGS  =    1.550; RWIGS  =    0.820    wigner-seitz radius (au A)           
   ENMAX  =  400.000; ENMIN  =  300.000 eV                                      
   ICORE  =        2    local potential                                         
   LCOR   =        T    correct aug charges                                     
   LPAW   =        T    paw PP                                                  
   EAUG   =  605.392                                                            
   DEXC   =    0.000                                                            
   RMAX   =    1.553    core radius for proj-oper                               
   RAUG   =    1.300    factor for augmentation sphere                          
   RDEP   =    1.550    radius for radial grids                                 
   RDEPT  =    1.329    core radius for aug-charge                              
                                                                                
   Atomic configuration                                                         
    4 entries                                                                   
     n  l   j            E        occ.                                          
     1  0  0.50      -514.6923   2.0000                                         
     2  0  0.50       -23.9615   2.0000                                         
     2  1  0.50        -9.0305   4.0000                                         
     3  2  1.50        -9.5241   0.0000                                         
   Description                                                                  
     l       E           TYP  RCUT    TYP  RCUT                                 
     0    -23.9615318     23  1.200                                             
     0     -9.5240782     23  1.200                                             
     1     -9.0304911     23  1.520                                             
     1      8.1634956     23  1.520                                             
     2     -9.5240782      7  1.500                                             
  local pseudopotential read in
  partial core-charges read in
  partial kinetic energy density read in
  kinetic energy density of atom read in
  atomic valenz-charges read in
  non local Contribution for L=           0  read in
    real space projection operators read in
  non local Contribution for L=           0  read in
    real space projection operators read in
  non local Contribution for L=           1  read in
    real space projection operators read in
  non local Contribution for L=           1  read in
    real space projection operators read in
    PAW grid and wavefunctions read in
 
   number of l-projection  operators is LMAX  =           4
   number of lm-projection operators is LMMAX =           8
 
 Optimization of the real space projectors (new method)

 maximal supplied QI-value         = 14.36
 optimisation between [QCUT,QGAM] = [ 10.20, 20.39] = [ 29.12,116.47] Ry 
 Optimized for a Real-space Cutoff    1.51 Angstroem

   l    n(q)    QCUT    max X(q) W(low)/X(q) W(high)/X(q)  e(spline) 
   2      8    10.197    59.108    0.26E-03    0.14E-03    0.96E-07
   2      8    10.197    58.101    0.27E-03    0.14E-03    0.98E-07
   0      9    10.197   102.235    0.54E-04    0.60E-05    0.72E-07
   0      9    10.197    58.388    0.52E-04    0.60E-05    0.68E-07
   1      9    10.197    22.191    0.18E-03    0.25E-03    0.79E-07
   1      9    10.197    15.590    0.15E-03    0.21E-03    0.69E-07
 Optimization of the real space projectors (new method)

 maximal supplied QI-value         = 25.13
 optimisation between [QCUT,QGAM] = [ 10.05, 20.36] = [ 28.30,116.06] Ry 
 Optimized for a Real-space Cutoff    1.30 Angstroem

   l    n(q)    QCUT    max X(q) W(low)/X(q) W(high)/X(q)  e(spline) 
   0      8    10.053   115.676    0.49E-03    0.72E-03    0.18E-06
   0      8    10.053    87.132    0.49E-03    0.71E-03    0.18E-06
   1      7    10.053     4.429    0.32E-03    0.31E-03    0.18E-06
   1      7    10.053     2.733    0.23E-03    0.19E-03    0.20E-06
 Optimization of the real space projectors (new method)

 maximal supplied QI-value         = 24.76
 optimisation between [QCUT,QGAM] = [ 10.15, 20.30] = [ 28.85,115.39] Ry 
 Optimized for a Real-space Cutoff    1.38 Angstroem

   l    n(q)    QCUT    max X(q) W(low)/X(q) W(high)/X(q)  e(spline) 
   0      8    10.150    20.381    0.22E-03    0.32E-03    0.29E-06
   0      8    10.150    15.268    0.23E-03    0.35E-03    0.30E-06
   1      8    10.150     5.964    0.46E-03    0.53E-03    0.21E-06
   1      8    10.150     5.382    0.38E-03    0.45E-03    0.19E-06

 ----------------------------------------------------------------------------- 
|                                                                             |
|  ADVICE TO THIS USER RUNNING 'VASP/VAMP'   (HEAR YOUR MASTER'S VOICE ...):  |
|                                                                             |
|      You enforced a specific xc-type in the INCAR file,                     |
|      a different type was found on the POTCAR file                          |
|          I HOPE YOU KNOW, WHAT YOU ARE  DOING                               |
|                                                                             |
 ----------------------------------------------------------------------------- 

  PAW_PBE Pd 04Jan2005                  :
 energy of atom  1       EATOM= -809.7530
 kinetic energy error for atom=    0.0091 (will be added to EATOM!!)
  PAW_PBE C 08Apr2002                   :
 energy of atom  2       EATOM= -147.1560
 kinetic energy error for atom=    0.0288 (will be added to EATOM!!)
  PAW_PBE O 08Apr2002                   :
 energy of atom  3       EATOM= -432.3788
 kinetic energy error for atom=    0.1156 (will be added to EATOM!!)
 
 
 POSCAR: Pd55PES                                 
  positions in cartesian coordinates
  No initial velocities read in
 exchange correlation table for  LEXCH =        9
   RHO(1)=    0.500       N(1)  =     2000
   RHO(2)=  100.500       N(2)  =     4000
 


--------------------------------------------------------------------------------------------------------


 ion  position               nearest neighbor table
   1  0.446  0.328  0.417-   3 3.25   5 3.25   7 3.36  15 3.36  29 3.42  28 3.42
   2  0.672  0.554  0.417-  26 3.25  30 3.25  17 3.36   9 3.36  47 3.42  49 3.42
   3  0.554  0.328  0.417-   1 3.25   5 3.25   7 3.36  11 3.36  29 3.42  21 3.42
   4  0.328  0.554  0.417-  32 3.25  22 3.25  13 3.36   8 3.36  43 3.42  48 3.42
   5  0.500  0.383  0.340-   1 3.25   3 3.25  11 3.36  15 3.36  21 3.42  28 3.42
   6  0.500  0.383  0.660-  24 3.25  19 3.25  16 3.36  12 3.36  42 3.42  44 3.42
   7  0.500  0.276  0.500-  56 1.71  57 2.68  29 3.24   3 3.36   1 3.36  19 3.36  24 3.36
   8  0.276  0.500  0.500-  48 3.24  22 3.36  40 3.36   4 3.36  25 3.36
   9  0.724  0.500  0.500-  49 3.24  26 3.36  45 3.36   2 3.36  20 3.36
  10  0.500  0.724  0.500-  55 3.24  27 3.36  23 3.36  46 3.36  41 3.36
  11  0.612  0.388  0.342-  21 3.24   5 3.36   3 3.36  30 3.36  26 3.36
  12  0.612  0.388  0.658-  42 3.24  24 3.36  45 3.36   6 3.36  31 3.36
  13  0.388  0.612  0.342-  43 3.24  32 3.36  50 3.36   4 3.36  27 3.36
  14  0.388  0.612  0.658-  53 3.24  25 3.36  33 3.36  51 3.36  46 3.36
  15  0.388  0.388  0.342-  28 3.24   5 3.36   1 3.36  32 3.36  22 3.36
  16  0.388  0.388  0.658-  44 3.24  19 3.36  40 3.36   6 3.36  33 3.36
  17  0.612  0.612  0.342-  47 3.24  30 3.36  50 3.36   2 3.36  23 3.36
  18  0.612  0.612  0.658-  54 3.24  31 3.36  20 3.36  51 3.36  41 3.36
  19  0.446  0.328  0.583-   6 3.25  24 3.25  16 3.36   7 3.36  44 3.42  29 3.42
  20  0.672  0.554  0.583-  31 3.25  45 3.25  18 3.36   9 3.36  54 3.42  49 3.42
  21  0.558  0.442  0.418-  11 3.24   5 3.42   3 3.42  30 3.42  26 3.42
  22  0.328  0.446  0.417-   4 3.25  32 3.25   8 3.36  15 3.36  48 3.42  28 3.42
  23  0.554  0.672  0.417-  27 3.25  50 3.25  10 3.36  17 3.36  55 3.42  47 3.42
  24  0.554  0.328  0.583-   6 3.25  19 3.25  12 3.36   7 3.36  42 3.42  29 3.42
  25  0.328  0.554  0.583-  33 3.25  40 3.25  14 3.36   8 3.36  53 3.42  48 3.42
  26  0.672  0.446  0.417-   2 3.25  30 3.25   9 3.36  11 3.36  49 3.42  21 3.42
  27  0.446  0.672  0.417-  23 3.25  50 3.25  10 3.36  13 3.36  55 3.42  43 3.42
  28  0.442  0.442  0.418-  15 3.24   5 3.42   1 3.42  32 3.42  22 3.42
  29  0.500  0.384  0.500-   7 3.24   3 3.42   1 3.42  24 3.42  19 3.42
  30  0.617  0.500  0.340-   2 3.25  26 3.25  17 3.36  11 3.36  47 3.42  21 3.42
  31  0.617  0.500  0.660-  20 3.25  45 3.25  18 3.36  12 3.36  54 3.42  42 3.42
  32  0.383  0.500  0.340-   4 3.25  22 3.25  13 3.36  15 3.36  43 3.42  28 3.42
  33  0.383  0.500  0.660-  25 3.25  40 3.25  14 3.36  16 3.36  53 3.42  44 3.42
  34  0.383  0.383  0.500-
  35  0.617  0.617  0.500-
  36  0.617  0.383  0.500-
  37  0.383  0.617  0.500-
  38  0.500  0.500  0.335-
  39  0.500  0.500  0.665-
  40  0.328  0.446  0.583-  33 3.25  25 3.25  16 3.36   8 3.36  44 3.42  48 3.42
  41  0.554  0.672  0.583-  46 3.25  51 3.25  10 3.36  18 3.36  54 3.42  55 3.42
  42  0.558  0.442  0.582-  12 3.24   6 3.42  24 3.42  31 3.42  45 3.42
  43  0.442  0.558  0.418-  13 3.24   4 3.42  32 3.42  27 3.42  50 3.42
  44  0.442  0.442  0.582-  16 3.24   6 3.42  19 3.42  33 3.42  40 3.42
  45  0.672  0.446  0.583-  20 3.25  31 3.25   9 3.36  12 3.36  49 3.42  42 3.42
  46  0.446  0.672  0.583-  41 3.25  51 3.25  10 3.36  14 3.36  53 3.42  55 3.42
  47  0.558  0.558  0.418-  17 3.24   2 3.42  30 3.42  23 3.42  50 3.42
  48  0.384  0.500  0.500-   8 3.24   4 3.42  22 3.42  25 3.42  40 3.42
  49  0.616  0.500  0.500-   9 3.24   2 3.42  26 3.42  20 3.42  45 3.42
  50  0.500  0.617  0.340-  27 3.25  23 3.25  13 3.36  17 3.36  43 3.42  47 3.42
  51  0.500  0.617  0.660-  41 3.25  46 3.25  14 3.36  18 3.36  53 3.42  54 3.42
  52  0.500  0.500  0.500-
  53  0.442  0.558  0.582-  14 3.24  25 3.42  33 3.42  51 3.42  46 3.42
  54  0.558  0.558  0.582-  18 3.24  31 3.42  20 3.42  51 3.42  41 3.42
  55  0.500  0.616  0.500-  10 3.24  23 3.42  27 3.42  41 3.42  46 3.42
  56  0.478  0.238  0.537-  57 1.13   7 1.71
  57  0.475  0.201  0.542-  56 1.13   7 2.68
 
  LATTYP: Found a simple cubic cell.
 ALAT       =    30.0000000000
  
  Lattice vectors:
  
 A1 = (  30.0000000000,   0.0000000000,   0.0000000000)
 A2 = (   0.0000000000,  30.0000000000,   0.0000000000)
 A3 = (   0.0000000000,   0.0000000000,  30.0000000000)


Analysis of symmetry for initial positions (statically):
=====================================================================
 Subroutine PRICEL returns:
 Original cell was already a primitive cell.
 

 Routine SETGRP: Setting up the symmetry group for a 
 simple cubic supercell.


 Subroutine GETGRP returns: Found  1 space group operations
 (whereof  1 operations were pure point group operations)
 out of a pool of 48 trial point group operations.


The static configuration has the point symmetry C_1 .


Analysis of symmetry for dynamics (positions and initial velocities):
=====================================================================
 Subroutine PRICEL returns:
 Original cell was already a primitive cell.
 

 Routine SETGRP: Setting up the symmetry group for a 
 simple cubic supercell.


 Subroutine GETGRP returns: Found  1 space group operations
 (whereof  1 operations were pure point group operations)
 out of a pool of 48 trial point group operations.


The dynamic configuration has the point symmetry C_1 .


Analysis of constrained symmetry for selective dynamics:
=====================================================================
 Subroutine PRICEL returns:
 Original cell was already a primitive cell.
 

 Routine SETGRP: Setting up the symmetry group for a 
 simple cubic supercell.


 Subroutine GETGRP returns: Found  1 space group operations
 (whereof  1 operations were pure point group operations)
 out of a pool of 48 trial point group operations.


The constrained configuration has the point symmetry C_1 .


 Subroutine INISYM returns: Found  1 space group operations
 (whereof  1 operations are pure point group operations),
 and found     1 'primitive' translations

 
 
 KPOINTS: K-points                                

Automatic generation of k-mesh.
Space group operators:
 irot       det(A)        alpha          n_x          n_y          n_z        tau_x        tau_y        tau_z
    1     1.000000     0.000000     1.000000     0.000000     0.000000     0.000000     0.000000     0.000000
 
 Subroutine IBZKPT returns following result:
 ===========================================
 
 Found      1 irreducible k-points:
 
 Following reciprocal coordinates:
            Coordinates               Weight
  0.000000  0.000000  0.000000      1.000000
 
 Following cartesian coordinates:
            Coordinates               Weight
  0.000000  0.000000  0.000000      1.000000
 


--------------------------------------------------------------------------------------------------------




 Dimension of arrays:
   k-points           NKPTS =      1   k-points in BZ     NKDIM =      1   number of bands    NBANDS=    336
   number of dos      NEDOS =    301   number of ions     NIONS =     57
   non local maximal  LDIM  =      6   non local SUM 2l+1 LMDIM =     18
   total plane-waves  NPLWV = ******
   max r-space proj   IRMAX =   1847   max aug-charges    IRDMAX=   6262
   dimension x,y,z NGX =   150 NGY =  150 NGZ =  150
   dimension x,y,z NGXF=   300 NGYF=  300 NGZF=  300
   support grid    NGXF=   300 NGYF=  300 NGZF=  300
   ions per type =              55   1   1
   NGX,Y,Z   is equivalent  to a cutoff of   8.31,  8.31,  8.31 a.u.
   NGXF,Y,Z  is equivalent  to a cutoff of  16.62, 16.62, 16.62 a.u.

 SYSTEM =  6_Pd100_top_free_z(O)                   
 POSCAR =  Pd55PES                                 

 Startparameter for this run:
   NWRITE =      2    write-flag & timer
   PREC   = normal    normal or accurate (medium, high low for compatibility)
   ISTART =      0    job   : 0-new  1-cont  2-samecut
   ICHARG =      2    charge: 1-file 2-atom 10-const
   ISPIN  =      1    spin polarized calculation?
   LNONCOLLINEAR =      F non collinear calculations
   LSORBIT =      F    spin-orbit coupling
   INIWAV =      1    electr: 0-lowe 1-rand  2-diag
   LASPH  =      F    aspherical Exc in radial PAW
   METAGGA=      F    non-selfconsistent MetaGGA calc.

 Electronic Relaxation 1
   ENCUT  =  400.0 eV  29.40 Ry    5.42 a.u.  48.92 48.92 48.92*2*pi/ulx,y,z
   ENINI  =  400.0     initial cutoff
   ENAUG  =  644.9 eV  augmentation charge cutoff
   NELM   =    100;   NELMIN=  6; NELMDL= -5     # of ELM steps 
   EDIFF  = 0.1E-03   stopping-criterion for ELM
   LREAL  =      T    real-space projection
   NLSPLINE    = F    spline interpolate recip. space projectors
   LCOMPAT=      F    compatible to vasp.4.4
   GGA_COMPAT  = T    GGA compatible to vasp.4.4-vasp.4.6
   LMAXPAW     = -100 max onsite density
   LMAXMIX     =    2 max onsite mixed and CHGCAR
   VOSKOWN=      0    Vosko Wilk Nusair interpolation
   ROPT   =   -0.00050  -0.00050  -0.00050
 Ionic relaxation
   EDIFFG = -.5E-01   stopping-criterion for IOM
   NSW    =      0    number of steps for IOM
   NBLOCK =      1;   KBLOCK =      1    inner block; outer block 
   IBRION =     -1    ionic relax: 0-MD 1-quasi-New 2-CG
   NFREE  =      1    steps in history (QN), initial steepest desc. (CG)
   ISIF   =      2    stress and relaxation
   IWAVPR =     10    prediction:  0-non 1-charg 2-wave 3-comb
   ISYM   =      2    0-nonsym 1-usesym 2-fastsym
   LCORR  =      T    Harris-Foulkes like correction to forces

   POTIM  = 0.5000    time-step for ionic-motion
   TEIN   =    0.0    initial temperature
   TEBEG  =    0.0;   TEEND  =   0.0 temperature during run
   SMASS  =  -3.00    Nose mass-parameter (am)
   estimated Nose-frequenzy (Omega)   =  0.10E-29 period in steps =****** mass=  -0.206E-25a.u.
   SCALEE = 1.0000    scale energy and forces
   NPACO  =    256;   APACO  = 16.0  distance and # of slots for P.C.
   PSTRESS=    0.0 pullay stress

  Mass of Ions in am
   POMASS = 106.42 12.01 16.00
  Ionic Valenz
   ZVAL   =  10.00  4.00  6.00
  Atomic Wigner-Seitz radii
   RWIGS  =  -1.00 -1.00 -1.00
  virtual crystal weights 
   VCA    =   1.00  1.00  1.00
   NELECT =     560.0000    total number of electrons
   NUPDOWN=      -1.0000    fix difference up-down

 DOS related values:
   EMIN   =  10.00;   EMAX   =-10.00  energy-range for DOS
   EFERMI =   0.00
   ISMEAR =     2;   SIGMA  =   0.20  broadening in eV -4-tet -1-fermi 0-gaus

 Electronic relaxation 2 (details)
   IALGO  =     68    algorithm
   LDIAG  =      T    sub-space diagonalisation (order eigenvalues)
   LSUBROT=      F    optimize rotation matrix (better conditioning)
   TURBO    =      0    0=normal 1=particle mesh
   IRESTART =      0    0=no restart 2=restart with 2 vectors
   NREBOOT  =      0    no. of reboots
   NMIN     =      0    reboot dimension
   EREF     =   0.00    reference energy to select bands
   IMIX   =      4    mixing-type and parameters
     AMIX     =   0.40;   BMIX     =  1.00
     AMIX_MAG =   1.60;   BMIX_MAG =  1.00
     AMIN     =   0.10
     WC   =   100.;   INIMIX=   1;  MIXPRE=   1;  MAXMIX= -45

 Intra band minimization:
   WEIMIN = 0.0000     energy-eigenvalue tresh-hold
   EBREAK =  0.74E-07  absolut break condition
   DEPER  =   0.30     relativ break condition  

   TIME   =   0.40     timestep for ELM

  volume/ion in A,a.u.               =     473.68      3196.58
  Fermi-wavevector in a.u.,A,eV,Ry     =   0.449797  0.849992  2.752691  0.202317
  Thomas-Fermi vector in A             =   1.430086
 
 Write flags
   LWAVE        =      F    write WAVECAR
   LDOWNSAMPLE  =      F    k-point downsampling of WAVECAR
   LCHARG       =      F    write CHGCAR
   LVTOT        =      F    write LOCPOT, total local potential
   LVHAR        =      F    write LOCPOT, Hartree potential only
   LELF         =      F    write electronic localiz. function (ELF)
   LORBIT       =      0    0 simple, 1 ext, 2 COOP (PROOUT), +10 PAW based schemes


 Dipole corrections
   LMONO  =      F    monopole corrections only (constant potential shift)
   LDIPOL =      F    correct potential (dipole corrections)
   IDIPOL =      0    1-x, 2-y, 3-z, 4-all directions 
   EPSILON=  1.0000000 bulk dielectric constant

 Exchange correlation treatment:
   GGA     =    RP    GGA type
   LEXCH   =     9    internal setting for exchange type
   VOSKOWN=      0    Vosko Wilk Nusair interpolation
   LHFCALC =     F    Hartree Fock is set to
   LHFONE  =     F    Hartree Fock one center treatment
   AEXX    =    0.0000 exact exchange contribution

 Linear response parameters
   LEPSILON=     F    determine dielectric tensor
   LRPA    =     F    only Hartree local field effects (RPA)
   LNABLA  =     F    use nabla operator in PAW spheres
   LVEL    =     F    velocity operator in full k-point grid
   LINTERFAST=   F  fast interpolation
   KINTER  =     0    interpolate to denser k-point grid
   CSHIFT  =0.1000    complex shift for real part using Kramers Kronig
   OMEGAMAX=  -1.0    maximum frequency
   DEG_THRESHOLD= 0.2000000E-02 threshold for treating states as degnerate
   RTIME   =   -0.100 relaxation time in fs
  (WPLASMAI=    0.000 imaginary part of plasma frequency in eV, 0.658/RTIME)
   DFIELD  = 0.0000000 0.0000000 0.0000000 field for delta impulse in time
 
 Orbital magnetization related:
   ORBITALMAG=     F  switch on orbital magnetization
   LCHIMAG   =     F  perturbation theory with respect to B field
   DQ        =  0.001000  dq finite difference perturbation B field
   LLRAUG    =     F  two centre corrections for induced B field



--------------------------------------------------------------------------------------------------------


 Static calculation
 charge density and potential will be updated during run
 non-spin polarized calculation
 RMM-DIIS sequential band-by-band and
  variant of blocked Davidson during initial phase
 perform sub-space diagonalisation
    before iterative eigenvector-optimisation
 modified Broyden-mixing scheme, WC =      100.0
 initial mixing is a Kerker type mixing with AMIX =  0.4000 and BMIX =      1.0000
 Hartree-type preconditioning will be used
 using additional bands           56
 real space projection scheme for non local part
 use partial core corrections
 calculate Harris-corrections to forces 
   (improved forces if not selfconsistent)
 use gradient corrections 
 use of overlap-Matrix (Vanderbilt PP)
 Methfessel and Paxton  Order N= 2 SIGMA  =   0.20


--------------------------------------------------------------------------------------------------------


  energy-cutoff  :      400.00
  volume of cell :    27000.00
      direct lattice vectors                 reciprocal lattice vectors
    30.000000000  0.000000000  0.000000000     0.033333333  0.000000000  0.000000000
     0.000000000 30.000000000  0.000000000     0.000000000  0.033333333  0.000000000
     0.000000000  0.000000000 30.000000000     0.000000000  0.000000000  0.033333333

  length of vectors
    30.000000000 30.000000000 30.000000000     0.033333333  0.033333333  0.033333333


 
 k-points in units of 2pi/SCALE and weight: K-points                                
   0.00000000  0.00000000  0.00000000       1.000
 
 k-points in reciprocal lattice and weights: K-points                                
   0.00000000  0.00000000  0.00000000       1.000
 
 position of ions in fractional coordinates (direct lattice) 
   0.44576020  0.32826710  0.41691983
   0.67173288  0.55423978  0.41691983
   0.55423980  0.32826710  0.41691983
   0.32826712  0.55423978  0.41691983
   0.50000000  0.38250690  0.34021317
   0.50000000  0.38250690  0.65978680
   0.50000000  0.27609440  0.50000000
   0.27609443  0.49999998  0.50000000
   0.72390557  0.49999998  0.50000000
   0.50000000  0.72390555  0.50000000
   0.61195280  0.38804720  0.34167483
   0.61195280  0.38804720  0.65832513
   0.38804722  0.61195278  0.34167483
   0.38804722  0.61195278  0.65832513
   0.38804720  0.38804720  0.34167483
   0.38804720  0.38804720  0.65832513
   0.61195278  0.61195278  0.34167483
   0.61195278  0.61195278  0.65832513
   0.44576020  0.32826710  0.58308023
   0.67173288  0.55423978  0.58308023
   0.55791699  0.44208301  0.41809300
   0.32826705  0.44576024  0.41691983
   0.55423973  0.67173293  0.41691983
   0.55423980  0.32826710  0.58308023
   0.32826712  0.55423978  0.58308023
   0.67173295  0.44576024  0.41691983
   0.44576027  0.67173293  0.41691983
   0.44208301  0.44208301  0.41809300
   0.50000000  0.38416601  0.50000000
   0.61749315  0.50000005  0.34021317
   0.61749315  0.50000005  0.65978680
   0.38250685  0.50000005  0.34021317
   0.38250685  0.50000005  0.65978680
   0.38317830  0.38317830  0.50000000
   0.61682172  0.61682172  0.50000000
   0.61682170  0.38317830  0.50000000
   0.38317828  0.61682172  0.50000000
   0.50000000  0.50000000  0.33478917
   0.50000000  0.50000000  0.66521087
   0.32826705  0.44576024  0.58308023
   0.55423973  0.67173293  0.58308023
   0.55791699  0.44208301  0.58190703
   0.44208298  0.55791702  0.41809300
   0.44208301  0.44208301  0.58190703
   0.67173295  0.44576024  0.58308023
   0.44576027  0.67173293  0.58308023
   0.55791702  0.55791702  0.41809300
   0.38416599  0.50000002  0.50000000
   0.61583401  0.50000002  0.50000000
   0.50000000  0.61749319  0.34021317
   0.50000000  0.61749319  0.65978680
   0.50000000  0.50000000  0.50000000
   0.44208298  0.55791702  0.58190703
   0.55791702  0.55791702  0.58190703
   0.50000000  0.61583404  0.50000000
   0.47799640  0.23846750  0.53652237
   0.47487420  0.20135743  0.54170470
 
 position of ions in cartesian coordinates  (Angst):
  13.37280588  9.84801292 12.50759500
  20.15198637 16.62719342 12.50759500
  16.62719412  9.84801292 12.50759500
   9.84801363 16.62719342 12.50759500
  15.00000000 11.47520705 10.20639500
  15.00000000 11.47520705 19.79360400
  15.00000000  8.28283206 15.00000000
   8.28283277 14.99999929 15.00000000
  21.71716723 14.99999929 15.00000000
  15.00000000 21.71716652 14.99999999
  18.35858397 11.64141603 10.25024500
  18.35858397 11.64141603 19.74975399
  11.64141674 18.35858326 10.25024500
  11.64141674 18.35858326 19.74975400
  11.64141603 11.64141603 10.25024500
  11.64141603 11.64141603 19.74975400
  18.35858326 18.35858326 10.25024500
  18.35858326 18.35858326 19.74975400
  13.37280588  9.84801291 17.49240700
  20.15198638 16.62719341 17.49240700
  16.73750985 13.26249015 12.54279000
   9.84801151 13.37280729 12.50759500
  16.62719200 20.15198779 12.50759500
  16.62719412  9.84801292 17.49240700
   9.84801363 16.62719342 17.49240700
  20.15198849 13.37280729 12.50759500
  13.37280800 20.15198779 12.50759500
  13.26249015 13.26249015 12.54279000
  15.00000000 11.52498029 15.00000000
  18.52479437 15.00000140 10.20639500
  18.52479437 15.00000141 19.79360400
  11.47520562 15.00000141 10.20639501
  11.47520563 15.00000141 19.79360400
  11.49534898 11.49534898 15.00000000
  18.50465172 18.50465172 15.00000000
  18.50465102 11.49534898 15.00000000
  11.49534828 18.50465172 15.00000000
  15.00000000 15.00000000 10.04367500
  15.00000000 15.00000000 19.95632599
   9.84801151 13.37280729 17.49240700
  16.62719200 20.15198779 17.49240700
  16.73750985 13.26249015 17.45721100
  13.26248944 16.73751056 12.54279001
  13.26249015 13.26249015 17.45721100
  20.15198849 13.37280729 17.49240699
  13.37280800 20.15198779 17.49240700
  16.73751056 16.73751056 12.54279000
  11.52497959 15.00000071 15.00000000
  18.47502041 15.00000071 15.00000000
  14.99999999 18.52479579 10.20639500
  15.00000000 18.52479578 19.79360400
  15.00000000 15.00000000 15.00000000
  13.26248944 16.73751057 17.45721101
  16.73751056 16.73751057 17.45721100
  15.00000000 18.47502112 15.00000000
  14.33989200  7.15402500 16.09567100
  14.24622600  6.04072300 16.25114100
 


--------------------------------------------------------------------------------------------------------


 k-point  1 :   0.0000 0.0000 0.0000  plane waves:  490521

 maximum and minimum number of plane-waves per node :    490521   490521

 maximum number of plane-waves:    490521
 maximum index in each direction: 
   IXMAX=   48   IYMAX=   48   IZMAX=   48
   IXMIN=  -48   IYMIN=  -48   IZMIN=  -48


 serial   3D FFT for wavefunctions
 parallel 3D FFT for charge:
    minimum data exchange during FFTs selected (reduces bandwidth)


 total amount of memory used by VASP MPI-rank0  5486941. kBytes
=======================================================================

   base      :      30000. kBytes
   nonlr-proj:      17126. kBytes
   fftplans  :     924480. kBytes
   grid      :    1872000. kBytes
   one-center:        886. kBytes
   wavefun   :    2642449. kBytes
 
     INWAV:  cpu time    0.0001: real time    0.0005
 Broyden mixing: mesh for mixing (old mesh)
   NGX = 97   NGY = 97   NGZ = 97
  (NGX  =300   NGY  =300   NGZ  =300)
  gives a total of 912673 points

 initial charge density was supplied:
 charge density of overlapping atoms calculated
 number of electron     560.0000000 magnetization 
 keeping initial charge density in first step


--------------------------------------------------------------------------------------------------------


 Maximum index for non-local projection operator         1763
 Maximum index for augmentation-charges         5898 (set IRDMAX)


--------------------------------------------------------------------------------------------------------


 First call to EWALD:  gamma=   0.059
 Maximum number of real-space cells 3x 3x 3
 Maximum number of reciprocal cells 3x 3x 3

    FEWALD:  cpu time    0.0152: real time    0.0152


--------------------------------------- Iteration      1(   1)  ---------------------------------------


    POTLOK:  cpu time   14.3234: real time   14.3272
    SETDIJ:  cpu time    0.1209: real time    0.1209
     EDDAV:  cpu time  362.9251: real time  362.9949
       DOS:  cpu time    0.0014: real time    0.0014
    --------------------------------------------
      LOOP:  cpu time  377.3708: real time  377.4444

 eigenvalue-minimisations  :   688
 total energy-change (2. order) : 0.4394592E+04  (-0.1005381E+05)
 number of electron     560.0000000 magnetization 
 augmentation part      560.0000000 magnetization 

 Free energy of the ion-electron system (eV)
  ---------------------------------------------------
  alpha Z        PSCENC =        75.25431677
  Ewald energy   TEWEN  =    137939.22567177
  -Hartree energ DENC   =   -181292.13097197
  -exchange      EXHF   =         0.00000000
  -V(xc)+E(xc)   XCENC  =     -1702.54596184
  PAW double counting   =     44873.02882129   -41398.84523641
  entropy T*S    EENTRO =        -0.00135524
  eigenvalues    EBANDS =       814.10111375
  atomic energy  EATOM  =     45086.50549395
  Solvation  Ediel_sol  =         0.00000000
  ---------------------------------------------------
  free energy    TOTEN  =      4394.59189208 eV

  energy without entropy =     4394.59324732  energy(sigma->0) =     4394.59223089


--------------------------------------------------------------------------------------------------------




--------------------------------------- Iteration      1(   2)  ---------------------------------------


     EDDAV:  cpu time  580.6543: real time  580.6565
       DOS:  cpu time    0.0014: real time    0.0014
    --------------------------------------------
      LOOP:  cpu time  580.6557: real time  580.6579

 eigenvalue-minimisations  :  1224
 total energy-change (2. order) :-0.2384561E+04  (-0.2145652E+04)
 number of electron     560.0000000 magnetization 
 augmentation part      560.0000000 magnetization 

 Free energy of the ion-electron system (eV)
  ---------------------------------------------------
  alpha Z        PSCENC =        75.25431677
  Ewald energy   TEWEN  =    137939.22567177
  -Hartree energ DENC   =   -181292.13097197
  -exchange      EXHF   =         0.00000000
  -V(xc)+E(xc)   XCENC  =     -1702.54596184
  PAW double counting   =     44873.02882129   -41398.84523641
  entropy T*S    EENTRO =        -0.03552460
  eigenvalues    EBANDS =     -1570.42618656
  atomic energy  EATOM  =     45086.50549395
  Solvation  Ediel_sol  =         0.00000000
  ---------------------------------------------------
  free energy    TOTEN  =      2010.03042240 eV

  energy without entropy =     2010.06594700  energy(sigma->0) =     2010.03930355


--------------------------------------------------------------------------------------------------------




--------------------------------------- Iteration      1(   3)  ---------------------------------------


     EDDAV:  cpu time  483.5680: real time  483.5668
       DOS:  cpu time    0.0012: real time    0.0012
    --------------------------------------------
      LOOP:  cpu time  483.5691: real time  483.5680

 eigenvalue-minimisations  :   992
 total energy-change (2. order) :-0.1779777E+04  (-0.1677094E+04)
 number of electron     560.0000000 magnetization 
 augmentation part      560.0000000 magnetization 

 Free energy of the ion-electron system (eV)
  ---------------------------------------------------
  alpha Z        PSCENC =        75.25431677
  Ewald energy   TEWEN  =    137939.22567177
  -Hartree energ DENC   =   -181292.13097197
  -exchange      EXHF   =         0.00000000
  -V(xc)+E(xc)   XCENC  =     -1702.54596184
  PAW double counting   =     44873.02882129   -41398.84523641
  entropy T*S    EENTRO =         0.01987717
  eigenvalues    EBANDS =     -3350.25857980
  atomic energy  EATOM  =     45086.50549395
  Solvation  Ediel_sol  =         0.00000000
  ---------------------------------------------------
  free energy    TOTEN  =       230.25343094 eV

  energy without entropy =      230.23355377  energy(sigma->0) =      230.24846164


--------------------------------------------------------------------------------------------------------




--------------------------------------- Iteration      1(   4)  ---------------------------------------


     EDDAV:  cpu time  417.7021: real time  417.7018
       DOS:  cpu time    0.0012: real time    0.0012
    --------------------------------------------
      LOOP:  cpu time  417.7033: real time  417.7030

 eigenvalue-minimisations  :   832
 total energy-change (2. order) :-0.3657661E+03  (-0.3088323E+03)
 number of electron     560.0000000 magnetization 
 augmentation part      560.0000000 magnetization 

 Free energy of the ion-electron system (eV)
  ---------------------------------------------------
  alpha Z        PSCENC =        75.25431677
  Ewald energy   TEWEN  =    137939.22567177
  -Hartree energ DENC   =   -181292.13097197
  -exchange      EXHF   =         0.00000000
  -V(xc)+E(xc)   XCENC  =     -1702.54596184
  PAW double counting   =     44873.02882129   -41398.84523641
  entropy T*S    EENTRO =        -0.04281396
  eigenvalues    EBANDS =     -3715.96196200
  atomic energy  EATOM  =     45086.50549395
  Solvation  Ediel_sol  =         0.00000000
  ---------------------------------------------------
  free energy    TOTEN  =      -135.51264240 eV

  energy without entropy =     -135.46982844  energy(sigma->0) =     -135.50193891


--------------------------------------------------------------------------------------------------------




--------------------------------------- Iteration      1(   5)  ---------------------------------------


     EDDAV:  cpu time  501.6519: real time  501.6652
       DOS:  cpu time    0.0015: real time    0.0015
    CHARGE:  cpu time   24.9582: real time   24.9578
    MIXING:  cpu time    0.4325: real time    0.4325
    --------------------------------------------
      LOOP:  cpu time  527.0441: real time  527.0570

 eigenvalue-minimisations  :  1040
 total energy-change (2. order) :-0.4463196E+02  (-0.3694431E+02)
 number of electron     559.9999799 magnetization 
 augmentation part      244.9563704 magnetization 

 Broyden mixing:
  rms(total) = 0.18615E+01    rms(broyden)= 0.18609E+01
  rms(prec ) = 0.19541E+01
  weight for this iteration     100.00

 Free energy of the ion-electron system (eV)
  ---------------------------------------------------
  alpha Z        PSCENC =        75.25431677
  Ewald energy   TEWEN  =    137939.22567177
  -Hartree energ DENC   =   -181292.13097197
  -exchange      EXHF   =         0.00000000
  -V(xc)+E(xc)   XCENC  =     -1702.54596184
  PAW double counting   =     44873.02882129   -41398.84523641
  entropy T*S    EENTRO =         0.51563383
  eigenvalues    EBANDS =     -3761.15237150
  atomic energy  EATOM  =     45086.50549395
  Solvation  Ediel_sol  =         0.00000000
  ---------------------------------------------------
  free energy    TOTEN  =      -180.14460411 eV

  energy without entropy =     -180.66023793  energy(sigma->0) =     -180.27351256


--------------------------------------------------------------------------------------------------------




--------------------------------------- Iteration      1(   6)  ---------------------------------------


    POTLOK:  cpu time   13.1380: real time   13.1406
    SETDIJ:  cpu time    0.1211: real time    0.1211
    EDDIAG:  cpu time   68.3065: real time   68.3075
  RMM-DIIS:  cpu time  185.4421: real time  185.4424
    ORTHCH:  cpu time   13.4672: real time   13.4670
       DOS:  cpu time    0.0017: real time    0.0016
    CHARGE:  cpu time   25.7924: real time   25.7921
    MIXING:  cpu time    0.4537: real time    0.4537
    --------------------------------------------
      LOOP:  cpu time  306.7228: real time  306.7260

 eigenvalue-minimisations  :   731
 total energy-change (2. order) : 0.7921736E+00  (-0.6351351E+01)
 number of electron     559.9999852 magnetization 
 augmentation part      240.5875816 magnetization 

 Broyden mixing:
  rms(total) = 0.23110E+01    rms(broyden)= 0.23107E+01
  rms(prec ) = 0.26600E+01
  weight for this iteration     100.00

 eigenvalues of (default mixing * dielectric matrix)
  average eigenvalue GAMMA=   0.4067
  0.4067

 Free energy of the ion-electron system (eV)
  ---------------------------------------------------
  alpha Z        PSCENC =        75.25431677
  Ewald energy   TEWEN  =    137939.22567177
  -Hartree energ DENC   =   -181697.19353885
  -exchange      EXHF   =         0.00000000
  -V(xc)+E(xc)   XCENC  =     -1696.12301297
  PAW double counting   =     45704.77137986   -42204.77011086
  entropy T*S    EENTRO =        -0.14129548
  eigenvalues    EBANDS =     -3386.88133471
  atomic energy  EATOM  =     45086.50549395
  Solvation  Ediel_sol  =         0.00000000
  ---------------------------------------------------
  free energy    TOTEN  =      -179.35243054 eV

  energy without entropy =     -179.21113505  energy(sigma->0) =     -179.31710667


--------------------------------------------------------------------------------------------------------




--------------------------------------- Iteration      1(   7)  ---------------------------------------


    POTLOK:  cpu time   13.4779: real time   13.4799
    SETDIJ:  cpu time    0.1235: real time    0.1235
    EDDIAG:  cpu time   67.2988: real time   67.3015
  RMM-DIIS:  cpu time  214.7649: real time  214.7640
    ORTHCH:  cpu time   13.0990: real time   13.0989
       DOS:  cpu time    0.0015: real time    0.0015
    CHARGE:  cpu time   24.8325: real time   24.8322
    MIXING:  cpu time    0.4801: real time    0.4801
    --------------------------------------------
      LOOP:  cpu time  334.0780: real time  334.0816

 eigenvalue-minimisations  :   845
 total energy-change (2. order) :-0.5868154E+01  (-0.2304384E+01)
 number of electron     559.9999823 magnetization 
 augmentation part      239.7637561 magnetization 

 Broyden mixing:
  rms(total) = 0.27334E+01    rms(broyden)= 0.27331E+01
  rms(prec ) = 0.33530E+01
  weight for this iteration     100.00

 eigenvalues of (default mixing * dielectric matrix)
  average eigenvalue GAMMA=   0.3800
  0.6005  0.1594

 Free energy of the ion-electron system (eV)
  ---------------------------------------------------
  alpha Z        PSCENC =        75.25431677
  Ewald energy   TEWEN  =    137939.22567177
  -Hartree energ DENC   =   -181795.07314107
  -exchange      EXHF   =         0.00000000
  -V(xc)+E(xc)   XCENC  =     -1696.35276760
  PAW double counting   =     45803.51599505   -42300.57325865
  entropy T*S    EENTRO =        -0.15741806
  eigenvalues    EBANDS =     -3297.56547646
  atomic energy  EATOM  =     45086.50549395
  Solvation  Ediel_sol  =         0.00000000
  ---------------------------------------------------
  free energy    TOTEN  =      -185.22058430 eV

  energy without entropy =     -185.06316624  energy(sigma->0) =     -185.18122978


--------------------------------------------------------------------------------------------------------




--------------------------------------- Iteration      1(   8)  ---------------------------------------


    POTLOK:  cpu time   13.1472: real time   13.1479
    SETDIJ:  cpu time    0.1249: real time    0.1249
    EDDIAG:  cpu time   67.1268: real time   67.1265
  RMM-DIIS:  cpu time  197.3434: real time  197.3448
    ORTHCH:  cpu time   13.3393: real time   13.3392
       DOS:  cpu time    0.0016: real time    0.0016
    CHARGE:  cpu time   24.9010: real time   24.9008
    MIXING:  cpu time    0.5487: real time    0.5487
    --------------------------------------------
      LOOP:  cpu time  316.5330: real time  316.5343

 eigenvalue-minimisations  :   780
 total energy-change (2. order) :-0.1982546E+01  (-0.1029044E+01)
 number of electron     559.9999784 magnetization 
 augmentation part      239.5885795 magnetization 

 Broyden mixing:
  rms(total) = 0.29730E+01    rms(broyden)= 0.29727E+01
  rms(prec ) = 0.34489E+01
  weight for this iteration     100.00

 eigenvalues of (default mixing * dielectric matrix)
  average eigenvalue GAMMA=   0.3735
  0.8189  0.1508  0.1508

 Free energy of the ion-electron system (eV)
  ---------------------------------------------------
  alpha Z        PSCENC =        75.25431677
  Ewald energy   TEWEN  =    137939.22567177
  -Hartree energ DENC   =   -181834.08728125
  -exchange      EXHF   =         0.00000000
  -V(xc)+E(xc)   XCENC  =     -1696.52384725
  PAW double counting   =     45883.09376191   -42378.00175206
  entropy T*S    EENTRO =        -0.15943919
  eigenvalues    EBANDS =     -3262.51005486
  atomic energy  EATOM  =     45086.50549395
  Solvation  Ediel_sol  =         0.00000000
  ---------------------------------------------------
  free energy    TOTEN  =      -187.20313022 eV

  energy without entropy =     -187.04369103  energy(sigma->0) =     -187.16327042


--------------------------------------------------------------------------------------------------------




--------------------------------------- Iteration      1(   9)  ---------------------------------------


    POTLOK:  cpu time   13.4802: real time   13.4821
    SETDIJ:  cpu time    0.1277: real time    0.1277
    EDDIAG:  cpu time   67.3232: real time   67.3231
  RMM-DIIS:  cpu time  183.6086: real time  183.6118
    ORTHCH:  cpu time   13.4512: real time   13.4511
       DOS:  cpu time    0.0016: real time    0.0016
    CHARGE:  cpu time   24.6899: real time   24.6897
    MIXING:  cpu time    0.5271: real time    0.5271
    --------------------------------------------
      LOOP:  cpu time  303.2096: real time  303.2142

 eigenvalue-minimisations  :   723
 total energy-change (2. order) : 0.2648035E+01  (-0.8919921E+00)
 number of electron     559.9999787 magnetization 
 augmentation part      240.8614525 magnetization 

 Broyden mixing:
  rms(total) = 0.27923E+01    rms(broyden)= 0.27919E+01
  rms(prec ) = 0.31900E+01
  weight for this iteration     100.00

 eigenvalues of (default mixing * dielectric matrix)
  average eigenvalue GAMMA=   0.3534
  0.9497  0.1758  0.1758  0.1126

 Free energy of the ion-electron system (eV)
  ---------------------------------------------------
  alpha Z        PSCENC =        75.25431677
  Ewald energy   TEWEN  =    137939.22567177
  -Hartree energ DENC   =   -181835.32770675
  -exchange      EXHF   =         0.00000000
  -V(xc)+E(xc)   XCENC  =     -1696.60182924
  PAW double counting   =     45965.98952192   -42458.80635048
  entropy T*S    EENTRO =        -0.06860727
  eigenvalues    EBANDS =     -3260.72560614
  atomic energy  EATOM  =     45086.50549395
  Solvation  Ediel_sol  =         0.00000000
  ---------------------------------------------------
  free energy    TOTEN  =      -184.55509546 eV

  energy without entropy =     -184.48648819  energy(sigma->0) =     -184.53794364


--------------------------------------------------------------------------------------------------------




--------------------------------------- Iteration      1(  10)  ---------------------------------------


    POTLOK:  cpu time   12.9450: real time   12.9477
    SETDIJ:  cpu time    0.1220: real time    0.1220
    EDDIAG:  cpu time   67.3078: real time   67.3084
  RMM-DIIS:  cpu time  185.2524: real time  185.2535
    ORTHCH:  cpu time   13.9412: real time   13.9413
       DOS:  cpu time    0.0016: real time    0.0016
    CHARGE:  cpu time   25.4328: real time   25.4328
    MIXING:  cpu time    0.5727: real time    0.5727
    --------------------------------------------
      LOOP:  cpu time  305.5754: real time  305.5800

 eigenvalue-minimisations  :   730
 total energy-change (2. order) : 0.3343391E+01  (-0.5211268E+00)
 number of electron     559.9999784 magnetization 
 augmentation part      241.5373003 magnetization 

 Broyden mixing:
  rms(total) = 0.23697E+01    rms(broyden)= 0.23693E+01
  rms(prec ) = 0.27186E+01
  weight for this iteration     100.00

 eigenvalues of (default mixing * dielectric matrix)
  average eigenvalue GAMMA=   0.3379
  1.0654  0.1767  0.1767  0.1780  0.0925

 Free energy of the ion-electron system (eV)
  ---------------------------------------------------
  alpha Z        PSCENC =        75.25431677
  Ewald energy   TEWEN  =    137939.22567177
  -Hartree energ DENC   =   -181870.56491963
  -exchange      EXHF   =         0.00000000
  -V(xc)+E(xc)   XCENC  =     -1696.49345825
  PAW double counting   =     46027.88200164   -42519.03744575
  entropy T*S    EENTRO =        -0.12271398
  eigenvalues    EBANDS =     -3223.86065136
  atomic energy  EATOM  =     45086.50549395
  Solvation  Ediel_sol  =         0.00000000
  ---------------------------------------------------
  free energy    TOTEN  =      -181.21170484 eV

  energy without entropy =     -181.08899087  energy(sigma->0) =     -181.18102635


--------------------------------------------------------------------------------------------------------




--------------------------------------- Iteration      1(  11)  ---------------------------------------


    POTLOK:  cpu time   13.3241: real time   13.3247
    SETDIJ:  cpu time    0.1261: real time    0.1261
    EDDIAG:  cpu time   66.2328: real time   66.2389
  RMM-DIIS:  cpu time  183.0703: real time  183.0823
    ORTHCH:  cpu time   13.0573: real time   13.0593
       DOS:  cpu time    0.0016: real time    0.0016
    CHARGE:  cpu time   24.5016: real time   24.5021
    MIXING:  cpu time    0.5948: real time    0.5948
    --------------------------------------------
      LOOP:  cpu time  300.9086: real time  300.9299

 eigenvalue-minimisations  :   719
 total energy-change (2. order) : 0.1938148E+01  (-0.3850171E+00)
 number of electron     559.9999811 magnetization 
 augmentation part      241.5386748 magnetization 

 Broyden mixing:
  rms(total) = 0.20768E+01    rms(broyden)= 0.20765E+01
  rms(prec ) = 0.24459E+01
  weight for this iteration     100.00

 eigenvalues of (default mixing * dielectric matrix)
  average eigenvalue GAMMA=   0.3175
  1.1353  0.2031  0.2031  0.1405  0.1405  0.0829

 Free energy of the ion-electron system (eV)
  ---------------------------------------------------
  alpha Z        PSCENC =        75.25431677
  Ewald energy   TEWEN  =    137939.22567177
  -Hartree energ DENC   =   -181900.37204580
  -exchange      EXHF   =         0.00000000
  -V(xc)+E(xc)   XCENC  =     -1696.25782091
  PAW double counting   =     46084.35853308   -42573.67130241
  entropy T*S    EENTRO =        -0.08321288
  eigenvalues    EBANDS =     -3194.23319010
  atomic energy  EATOM  =     45086.50549395
  Solvation  Ediel_sol  =         0.00000000
  ---------------------------------------------------
  free energy    TOTEN  =      -179.27355654 eV

  energy without entropy =     -179.19034366  energy(sigma->0) =     -179.25275332


--------------------------------------------------------------------------------------------------------




--------------------------------------- Iteration      1(  12)  ---------------------------------------


    POTLOK:  cpu time   12.6694: real time   12.6713
    SETDIJ:  cpu time    0.1193: real time    0.1193
    EDDIAG:  cpu time   65.3664: real time   65.3712
  RMM-DIIS:  cpu time  181.2807: real time  181.2874
    ORTHCH:  cpu time   13.1661: real time   13.1663
       DOS:  cpu time    0.0016: real time    0.0016
    CHARGE:  cpu time   24.3271: real time   24.3275
    MIXING:  cpu time    0.6200: real time    0.6200
    --------------------------------------------
      LOOP:  cpu time  297.5505: real time  297.5645

 eigenvalue-minimisations  :   723
 total energy-change (2. order) : 0.9194995E+00  (-0.1924665E+00)
 number of electron     559.9999804 magnetization 
 augmentation part      241.6411455 magnetization 

 Broyden mixing:
  rms(total) = 0.21065E+01    rms(broyden)= 0.21062E+01
  rms(prec ) = 0.25508E+01
  weight for this iteration     100.00

 eigenvalues of (default mixing * dielectric matrix)
  average eigenvalue GAMMA=   0.3057
  1.2132  0.2379  0.2379  0.1465  0.1465  0.0814  0.0764

 Free energy of the ion-electron system (eV)
  ---------------------------------------------------
  alpha Z        PSCENC =        75.25431677
  Ewald energy   TEWEN  =    137939.22567177
  -Hartree energ DENC   =   -181916.55008744
  -exchange      EXHF   =         0.00000000
  -V(xc)+E(xc)   XCENC  =     -1696.04158946
  PAW double counting   =     46117.38927738   -42605.50259448
  entropy T*S    EENTRO =        -0.06094118
  eigenvalues    EBANDS =     -3178.57360438
  atomic energy  EATOM  =     45086.50549395
  Solvation  Ediel_sol  =         0.00000000
  ---------------------------------------------------
  free energy    TOTEN  =      -178.35405707 eV

  energy without entropy =     -178.29311589  energy(sigma->0) =     -178.33882178


--------------------------------------------------------------------------------------------------------




--------------------------------------- Iteration      1(  13)  ---------------------------------------


    POTLOK:  cpu time   12.4675: real time   12.4682
    SETDIJ:  cpu time    0.1162: real time    0.1162
    EDDIAG:  cpu time   64.9332: real time   64.9343
  RMM-DIIS:  cpu time  181.4805: real time  181.4801
    ORTHCH:  cpu time   13.2046: real time   13.2044
       DOS:  cpu time    0.0016: real time    0.0016
    CHARGE:  cpu time   24.4778: real time   24.4776
    MIXING:  cpu time    0.6482: real time    0.6482
    --------------------------------------------
      LOOP:  cpu time  297.3294: real time  297.3306

 eigenvalue-minimisations  :   724
 total energy-change (2. order) : 0.4579964E+00  (-0.1683507E+00)
 number of electron     559.9999795 magnetization 
 augmentation part      241.7399485 magnetization 

 Broyden mixing:
  rms(total) = 0.23215E+01    rms(broyden)= 0.23213E+01
  rms(prec ) = 0.27736E+01
  weight for this iteration     100.00

 eigenvalues of (default mixing * dielectric matrix)
  average eigenvalue GAMMA=   0.3037
  1.3100  0.2980  0.2980  0.1368  0.1368  0.0974  0.0974  0.0553

 Free energy of the ion-electron system (eV)
  ---------------------------------------------------
  alpha Z        PSCENC =        75.25431677
  Ewald energy   TEWEN  =    137939.22567177
  -Hartree energ DENC   =   -181929.24204358
  -exchange      EXHF   =         0.00000000
  -V(xc)+E(xc)   XCENC  =     -1695.77513962
  PAW double counting   =     46152.53626196   -42639.27884726
  entropy T*S    EENTRO =         0.11636221
  eigenvalues    EBANDS =     -3167.23813687
  atomic energy  EATOM  =     45086.50549395
  Solvation  Ediel_sol  =         0.00000000
  ---------------------------------------------------
  free energy    TOTEN  =      -177.89606068 eV

  energy without entropy =     -178.01242288  energy(sigma->0) =     -177.92515123


--------------------------------------------------------------------------------------------------------




--------------------------------------- Iteration      1(  14)  ---------------------------------------


    POTLOK:  cpu time   12.6324: real time   12.6332
    SETDIJ:  cpu time    0.1204: real time    0.1204
    EDDIAG:  cpu time   65.4524: real time   65.4547
  RMM-DIIS:  cpu time  183.1575: real time  183.1605
    ORTHCH:  cpu time   13.6072: real time   13.6090
       DOS:  cpu time    0.0016: real time    0.0016
    CHARGE:  cpu time   24.9200: real time   24.9198
    MIXING:  cpu time    0.7035: real time    0.7034
    --------------------------------------------
      LOOP:  cpu time  300.5949: real time  300.6028

 eigenvalue-minimisations  :   723
 total energy-change (2. order) :-0.1484445E+01  (-0.1567172E+00)
 number of electron     559.9999801 magnetization 
 augmentation part      241.6827389 magnetization 

 Broyden mixing:
  rms(total) = 0.35935E+01    rms(broyden)= 0.35933E+01
  rms(prec ) = 0.42356E+01
  weight for this iteration     100.00

 eigenvalues of (default mixing * dielectric matrix)
  average eigenvalue GAMMA=   0.3047
  1.4336  0.3582  0.3582  0.1397  0.1397  0.1021  0.1021  0.0653  0.0436

 Free energy of the ion-electron system (eV)
  ---------------------------------------------------
  alpha Z        PSCENC =        75.25431677
  Ewald energy   TEWEN  =    137939.22567177
  -Hartree energ DENC   =   -181953.11766988
  -exchange      EXHF   =         0.00000000
  -V(xc)+E(xc)   XCENC  =     -1695.38897337
  PAW double counting   =     46196.47571688   -42681.46936987
  entropy T*S    EENTRO =         0.41684007
  eigenvalues    EBANDS =     -3147.28253155
  atomic energy  EATOM  =     45086.50549395
  Solvation  Ediel_sol  =         0.00000000
  ---------------------------------------------------
  free energy    TOTEN  =      -179.38050523 eV

  energy without entropy =     -179.79734530  energy(sigma->0) =     -179.48471525


--------------------------------------------------------------------------------------------------------




--------------------------------------- Iteration      1(  15)  ---------------------------------------


    POTLOK:  cpu time   12.7000: real time   12.7006
    SETDIJ:  cpu time    0.1193: real time    0.1193
    EDDIAG:  cpu time   65.4860: real time   65.4858
  RMM-DIIS:  cpu time  179.8285: real time  179.8322
    ORTHCH:  cpu time   12.9984: real time   12.9983
       DOS:  cpu time    0.0017: real time    0.0017
    CHARGE:  cpu time   24.4335: real time   24.4332
    MIXING:  cpu time    0.7438: real time    0.7438
    --------------------------------------------
      LOOP:  cpu time  296.3112: real time  296.3147

 eigenvalue-minimisations  :   719
 total energy-change (2. order) : 0.2066048E+01  (-0.1747836E+00)
 number of electron     559.9999794 magnetization 
 augmentation part      241.3383806 magnetization 

 Broyden mixing:
  rms(total) = 0.19535E+01    rms(broyden)= 0.19533E+01
  rms(prec ) = 0.22620E+01
  weight for this iteration     100.00

 eigenvalues of (default mixing * dielectric matrix)
  average eigenvalue GAMMA=   0.2985
  1.5167  0.3743  0.3743  0.1600  0.1600  0.0950  0.0950  0.1026  0.0648  0.0424

 Free energy of the ion-electron system (eV)
  ---------------------------------------------------
  alpha Z        PSCENC =        75.25431677
  Ewald energy   TEWEN  =    137939.22567177
  -Hartree energ DENC   =   -181990.76120324
  -exchange      EXHF   =         0.00000000
  -V(xc)+E(xc)   XCENC  =     -1694.87511882
  PAW double counting   =     46254.80617974   -42737.42064812
  entropy T*S    EENTRO =        -0.03745352
  eigenvalues    EBANDS =     -3110.01169544
  atomic energy  EATOM  =     45086.50549395
  Solvation  Ediel_sol  =         0.00000000
  ---------------------------------------------------
  free energy    TOTEN  =      -177.31445691 eV

  energy without entropy =     -177.27700339  energy(sigma->0) =     -177.30509353


--------------------------------------------------------------------------------------------------------




--------------------------------------- Iteration      1(  16)  ---------------------------------------


    POTLOK:  cpu time   12.8680: real time   12.8705
    SETDIJ:  cpu time    0.1209: real time    0.1209
    EDDIAG:  cpu time   67.2636: real time   67.2637
  RMM-DIIS:  cpu time  179.1284: real time  179.1290
    ORTHCH:  cpu time   13.0748: real time   13.0746
       DOS:  cpu time    0.0016: real time    0.0016
    CHARGE:  cpu time   24.4965: real time   24.4964
    MIXING:  cpu time    0.7954: real time    0.7953
    --------------------------------------------
      LOOP:  cpu time  297.7493: real time  297.7520

 eigenvalue-minimisations  :   712
 total energy-change (2. order) : 0.6966902E+00  (-0.1241282E+00)
 number of electron     559.9999817 magnetization 
 augmentation part      241.1279667 magnetization 

 Broyden mixing:
  rms(total) = 0.16362E+01    rms(broyden)= 0.16359E+01
  rms(prec ) = 0.19220E+01
  weight for this iteration     100.00

 eigenvalues of (default mixing * dielectric matrix)
  average eigenvalue GAMMA=   0.2975
  1.5958  0.4821  0.2975  0.2028  0.2028  0.1199  0.0954  0.0954  0.0795  0.0589
  0.0425

 Free energy of the ion-electron system (eV)
  ---------------------------------------------------
  alpha Z        PSCENC =        75.25431677
  Ewald energy   TEWEN  =    137939.22567177
  -Hartree energ DENC   =   -182015.44283422
  -exchange      EXHF   =         0.00000000
  -V(xc)+E(xc)   XCENC  =     -1694.51690957
  PAW double counting   =     46293.47475756   -42774.51890695
  entropy T*S    EENTRO =        -0.04980853
  eigenvalues    EBANDS =     -3086.54954748
  atomic energy  EATOM  =     45086.50549395
  Solvation  Ediel_sol  =         0.00000000
  ---------------------------------------------------
  free energy    TOTEN  =      -176.61776670 eV

  energy without entropy =     -176.56795817  energy(sigma->0) =     -176.60531457


--------------------------------------------------------------------------------------------------------




--------------------------------------- Iteration      1(  17)  ---------------------------------------


    POTLOK:  cpu time   12.7252: real time   12.7273
    SETDIJ:  cpu time    0.1188: real time    0.1188
    EDDIAG:  cpu time   65.7796: real time   65.7795
  RMM-DIIS:  cpu time  178.9547: real time  178.9550
    ORTHCH:  cpu time   13.3613: real time   13.3612
       DOS:  cpu time    0.0016: real time    0.0016
    CHARGE:  cpu time   24.6319: real time   24.6325
    MIXING:  cpu time    0.8423: real time    0.8423
    --------------------------------------------
      LOOP:  cpu time  296.4154: real time  296.4182

 eigenvalue-minimisations  :   707
 total energy-change (2. order) : 0.5354744E+00  (-0.9504173E-01)
 number of electron     559.9999852 magnetization 
 augmentation part      241.0850569 magnetization 

 Broyden mixing:
  rms(total) = 0.14920E+01    rms(broyden)= 0.14917E+01
  rms(prec ) = 0.17587E+01
  weight for this iteration     100.00

 eigenvalues of (default mixing * dielectric matrix)
  average eigenvalue GAMMA=   0.2903
  1.6468  0.5544  0.2378  0.2378  0.2134  0.1391  0.0971  0.0971  0.0802  0.0802
  0.0572  0.0420

 Free energy of the ion-electron system (eV)
  ---------------------------------------------------
  alpha Z        PSCENC =        75.25431677
  Ewald energy   TEWEN  =    137939.22567177
  -Hartree energ DENC   =   -182034.57952638
  -exchange      EXHF   =         0.00000000
  -V(xc)+E(xc)   XCENC  =     -1694.19027176
  PAW double counting   =     46325.87240172   -42805.45789951
  entropy T*S    EENTRO =        -0.03207020
  eigenvalues    EBANDS =     -3068.68040862
  atomic energy  EATOM  =     45086.50549395
  Solvation  Ediel_sol  =         0.00000000
  ---------------------------------------------------
  free energy    TOTEN  =      -176.08229226 eV

  energy without entropy =     -176.05022206  energy(sigma->0) =     -176.07427471


--------------------------------------------------------------------------------------------------------




--------------------------------------- Iteration      1(  18)  ---------------------------------------


    POTLOK:  cpu time   12.7271: real time   12.7302
    SETDIJ:  cpu time    0.1196: real time    0.1196
    EDDIAG:  cpu time   65.7922: real time   65.7923
  RMM-DIIS:  cpu time  176.3793: real time  176.3789
    ORTHCH:  cpu time   13.2288: real time   13.2286
       DOS:  cpu time    0.0016: real time    0.0016
    CHARGE:  cpu time   24.4628: real time   24.4624
    MIXING:  cpu time    0.8709: real time    0.8709
    --------------------------------------------
      LOOP:  cpu time  293.5822: real time  293.5845

 eigenvalue-minimisations  :   708
 total energy-change (2. order) : 0.5837585E+00  (-0.5583914E-01)
 number of electron     559.9999822 magnetization 
 augmentation part      241.2000892 magnetization 

 Broyden mixing:
  rms(total) = 0.10824E+01    rms(broyden)= 0.10821E+01
  rms(prec ) = 0.12606E+01
  weight for this iteration     100.00

 eigenvalues of (default mixing * dielectric matrix)
  average eigenvalue GAMMA=   0.2939
  1.6959  0.6409  0.3075  0.3075  0.1560  0.1560  0.0979  0.0979  0.1002  0.1002
  0.0682  0.0515  0.0416

 Free energy of the ion-electron system (eV)
  ---------------------------------------------------
  alpha Z        PSCENC =        75.25431677
  Ewald energy   TEWEN  =    137939.22567177
  -Hartree energ DENC   =   -182043.88303350
  -exchange      EXHF   =         0.00000000
  -V(xc)+E(xc)   XCENC  =     -1694.00484412
  PAW double counting   =     46341.61962035   -42820.41269455
  entropy T*S    EENTRO =         0.00773555
  eigenvalues    EBANDS =     -3059.81079995
  atomic energy  EATOM  =     45086.50549395
  Solvation  Ediel_sol  =         0.00000000
  ---------------------------------------------------
  free energy    TOTEN  =      -175.49853372 eV

  energy without entropy =     -175.50626928  energy(sigma->0) =     -175.50046761


--------------------------------------------------------------------------------------------------------




--------------------------------------- Iteration      1(  19)  ---------------------------------------


    POTLOK:  cpu time   12.7253: real time   12.7283
    SETDIJ:  cpu time    0.1197: real time    0.1196
    EDDIAG:  cpu time   65.5971: real time   65.5966
  RMM-DIIS:  cpu time  178.9917: real time  178.9967
    ORTHCH:  cpu time   13.0337: real time   13.0336
       DOS:  cpu time    0.0017: real time    0.0017
    CHARGE:  cpu time   24.4688: real time   24.4685
    MIXING:  cpu time    0.9183: real time    0.9183
    --------------------------------------------
      LOOP:  cpu time  295.8562: real time  295.8633

 eigenvalue-minimisations  :   700
 total energy-change (2. order) : 0.1015175E+00  (-0.4499523E-01)
 number of electron     559.9999810 magnetization 
 augmentation part      241.1501916 magnetization 

 Broyden mixing:
  rms(total) = 0.10367E+01    rms(broyden)= 0.10364E+01
  rms(prec ) = 0.12169E+01
  weight for this iteration     100.00

 eigenvalues of (default mixing * dielectric matrix)
  average eigenvalue GAMMA=   0.3046
  1.7260  0.7688  0.3874  0.3874  0.1736  0.1736  0.0967  0.0967  0.1045  0.1045
  0.0906  0.0631  0.0500  0.0413

 Free energy of the ion-electron system (eV)
  ---------------------------------------------------
  alpha Z        PSCENC =        75.25431677
  Ewald energy   TEWEN  =    137939.22567177
  -Hartree energ DENC   =   -182058.82947655
  -exchange      EXHF   =         0.00000000
  -V(xc)+E(xc)   XCENC  =     -1693.80478381
  PAW double counting   =     46357.30642007   -42835.12800650
  entropy T*S    EENTRO =         0.03310329
  eigenvalues    EBANDS =     -3045.95975517
  atomic energy  EATOM  =     45086.50549395
  Solvation  Ediel_sol  =         0.00000000
  ---------------------------------------------------
  free energy    TOTEN  =      -175.39701618 eV

  energy without entropy =     -175.43011947  energy(sigma->0) =     -175.40529200


--------------------------------------------------------------------------------------------------------




--------------------------------------- Iteration      1(  20)  ---------------------------------------


    POTLOK:  cpu time   12.6246: real time   12.6252
    SETDIJ:  cpu time    0.1201: real time    0.1201
    EDDIAG:  cpu time   65.7629: real time   65.7625
  RMM-DIIS:  cpu time  173.7409: real time  173.7494
    ORTHCH:  cpu time   13.0629: real time   13.0627
       DOS:  cpu time    0.0016: real time    0.0016
    CHARGE:  cpu time   24.7879: real time   24.7876
    MIXING:  cpu time    1.1042: real time    1.1042
    --------------------------------------------
      LOOP:  cpu time  291.2051: real time  291.2134

 eigenvalue-minimisations  :   694
 total energy-change (2. order) : 0.6195275E-01  (-0.3259730E-01)
 number of electron     559.9999816 magnetization 
 augmentation part      241.1733546 magnetization 

 Broyden mixing:
  rms(total) = 0.95855E+00    rms(broyden)= 0.95837E+00
  rms(prec ) = 0.11054E+01
  weight for this iteration     100.00

 eigenvalues of (default mixing * dielectric matrix)
  average eigenvalue GAMMA=   0.3088
  1.7623  0.9217  0.4135  0.4135  0.1861  0.1861  0.0971  0.0971  0.1089  0.1089
  0.0933  0.0933  0.0607  0.0412  0.0487

 Free energy of the ion-electron system (eV)
  ---------------------------------------------------
  alpha Z        PSCENC =        75.25431677
  Ewald energy   TEWEN  =    137939.22567177
  -Hartree energ DENC   =   -182072.52660639
  -exchange      EXHF   =         0.00000000
  -V(xc)+E(xc)   XCENC  =     -1693.63646581
  PAW double counting   =     46365.31334489   -42842.24488613
  entropy T*S    EENTRO =        -0.01804347
  eigenvalues    EBANDS =     -3033.20788901
  atomic energy  EATOM  =     45086.50549395
  Solvation  Ediel_sol  =         0.00000000
  ---------------------------------------------------
  free energy    TOTEN  =      -175.33506343 eV

  energy without entropy =     -175.31701996  energy(sigma->0) =     -175.33055256


--------------------------------------------------------------------------------------------------------




--------------------------------------- Iteration      1(  21)  ---------------------------------------


    POTLOK:  cpu time   12.8190: real time   12.8213
    SETDIJ:  cpu time    0.1206: real time    0.1206
    EDDIAG:  cpu time   66.4186: real time   66.4185
  RMM-DIIS:  cpu time  178.9608: real time  178.9633
    ORTHCH:  cpu time   13.7768: real time   13.7767
       DOS:  cpu time    0.0017: real time    0.0017
    CHARGE:  cpu time   25.8041: real time   25.8039
    MIXING:  cpu time    1.0745: real time    1.0745
    --------------------------------------------
      LOOP:  cpu time  298.9762: real time  298.9804

 eigenvalue-minimisations  :   700
 total energy-change (2. order) : 0.2077428E+00  (-0.2515792E-01)
 number of electron     559.9999815 magnetization 
 augmentation part      241.1997766 magnetization 

 Broyden mixing:
  rms(total) = 0.94096E+00    rms(broyden)= 0.94080E+00
  rms(prec ) = 0.11164E+01
  weight for this iteration     100.00

 eigenvalues of (default mixing * dielectric matrix)
  average eigenvalue GAMMA=   0.3017
  1.8025  0.9195  0.4239  0.4239  0.1989  0.1989  0.1244  0.1244  0.0978  0.0978
  0.0971  0.0971  0.0698  0.0606  0.0487  0.0412

 Free energy of the ion-electron system (eV)
  ---------------------------------------------------
  alpha Z        PSCENC =        75.25431677
  Ewald energy   TEWEN  =    137939.22567177
  -Hartree energ DENC   =   -182088.72075094
  -exchange      EXHF   =         0.00000000
  -V(xc)+E(xc)   XCENC  =     -1693.43146422
  PAW double counting   =     46373.33478353   -42849.29943479
  entropy T*S    EENTRO =        -0.01242793
  eigenvalues    EBANDS =     -3017.98350876
  atomic energy  EATOM  =     45086.50549395
  Solvation  Ediel_sol  =         0.00000000
  ---------------------------------------------------
  free energy    TOTEN  =      -175.12732061 eV

  energy without entropy =     -175.11489268  energy(sigma->0) =     -175.12421363


--------------------------------------------------------------------------------------------------------




--------------------------------------- Iteration      1(  22)  ---------------------------------------


    POTLOK:  cpu time   13.1088: real time   13.1096
    SETDIJ:  cpu time    0.1210: real time    0.1210
    EDDIAG:  cpu time   67.0430: real time   67.0430
  RMM-DIIS:  cpu time  176.4109: real time  176.4123
    ORTHCH:  cpu time   13.3688: real time   13.3687
       DOS:  cpu time    0.0016: real time    0.0016
    CHARGE:  cpu time   25.0029: real time   25.0028
    MIXING:  cpu time    1.1064: real time    1.1064
    --------------------------------------------
      LOOP:  cpu time  296.1634: real time  296.1655

 eigenvalue-minimisations  :   694
 total energy-change (2. order) : 0.1263188E+00  (-0.1669325E-01)
 number of electron     559.9999820 magnetization 
 augmentation part      241.2039715 magnetization 

 Broyden mixing:
  rms(total) = 0.72894E+00    rms(broyden)= 0.72877E+00
  rms(prec ) = 0.84989E+00
  weight for this iteration     100.00

 eigenvalues of (default mixing * dielectric matrix)
  average eigenvalue GAMMA=   0.3064
  1.8549  0.9497  0.4253  0.4253  0.3641  0.1873  0.1873  0.0971  0.0971  0.1164
  0.1041  0.1041  0.0914  0.0622  0.0412  0.0489  0.0524

 Free energy of the ion-electron system (eV)
  ---------------------------------------------------
  alpha Z        PSCENC =        75.25431677
  Ewald energy   TEWEN  =    137939.22567177
  -Hartree energ DENC   =   -182095.39494185
  -exchange      EXHF   =         0.00000000
  -V(xc)+E(xc)   XCENC  =     -1693.33578842
  PAW double counting   =     46377.65843526   -42853.18900846
  entropy T*S    EENTRO =        -0.03716265
  eigenvalues    EBANDS =     -3011.68801816
  atomic energy  EATOM  =     45086.50549395
  Solvation  Ediel_sol  =         0.00000000
  ---------------------------------------------------
  free energy    TOTEN  =      -175.00100178 eV

  energy without entropy =     -174.96383913  energy(sigma->0) =     -174.99171112


--------------------------------------------------------------------------------------------------------




--------------------------------------- Iteration      1(  23)  ---------------------------------------


    POTLOK:  cpu time   12.7807: real time   12.7814
    SETDIJ:  cpu time    0.1203: real time    0.1203
    EDDIAG:  cpu time   66.5513: real time   66.5517
  RMM-DIIS:  cpu time  178.0345: real time  178.0396
    ORTHCH:  cpu time   13.5450: real time   13.5472
       DOS:  cpu time    0.0017: real time    0.0017
    CHARGE:  cpu time   25.9081: real time   25.9080
    MIXING:  cpu time    1.2790: real time    1.2790
    --------------------------------------------
      LOOP:  cpu time  298.2207: real time  298.2290

 eigenvalue-minimisations  :   696
 total energy-change (2. order) : 0.5202495E-01  (-0.1978508E-01)
 number of electron     559.9999819 magnetization 
 augmentation part      241.1375517 magnetization 

 Broyden mixing:
  rms(total) = 0.63404E+00    rms(broyden)= 0.63387E+00
  rms(prec ) = 0.73304E+00
  weight for this iteration     100.00

 eigenvalues of (default mixing * dielectric matrix)
  average eigenvalue GAMMA=   0.3254
[...]
 -0.005  -0.007   0.000   0.003   0.008  -0.005  -0.007   0.000
 -0.008  -0.012   0.000   0.005   0.014  -0.008  -0.011   0.000
 -0.014  -0.002   0.014   0.000   0.024  -0.013  -0.002   0.013
  0.000  -0.025  -0.002  -0.014  -0.000   0.000  -0.024  -0.002
 -0.024   0.000   0.008  -0.002  -0.015  -0.024   0.000   0.008
 -0.016  -0.002   0.016   0.000   0.029  -0.016  -0.002   0.016
  0.000  -0.030  -0.003  -0.017  -0.000   0.000  -0.030  -0.003
 -0.030   0.000   0.010  -0.002  -0.018  -0.029   0.000   0.010
 total augmentation occupancy for first ion, spin component:           1
  1.481  -0.024  -0.027   0.037   0.054   0.099  -0.004   0.006   0.025  -0.017   0.049  -0.019   0.018  -0.001  -0.004  -0.019
 -0.024   1.401  -0.005   0.036   0.013  -0.003   0.080   0.019  -0.007  -0.010   0.161  -0.043   0.016   0.006  -0.002  -0.004
 -0.027  -0.005   1.496   0.026  -0.010   0.005   0.020   0.096  -0.015   0.024  -0.006   0.000   0.001  -0.008  -0.004   0.016
  0.037   0.036   0.026   1.280  -0.008   0.024  -0.007  -0.015   0.112  -0.008  -0.051   0.014  -0.002  -0.005   0.002  -0.000
  0.054   0.013  -0.010  -0.008   1.398  -0.017  -0.010   0.022  -0.008   0.079  -0.103   0.039  -0.009  -0.005  -0.007   0.028
  0.099  -0.003   0.005   0.024  -0.017   0.219   0.021  -0.003  -0.047   0.005  -0.049   0.003   0.015  -0.009   0.036  -0.004
 -0.004   0.080   0.020  -0.007  -0.010   0.021   0.277  -0.028  -0.011   0.010  -0.105   0.011  -0.002   0.053  -0.008  -0.000
  0.006   0.019   0.096  -0.015   0.022  -0.003  -0.028   0.222   0.017  -0.022   0.023  -0.004  -0.013   0.007  -0.019   0.004
  0.025  -0.007  -0.015   0.112  -0.008  -0.047  -0.011   0.017   0.271   0.007   0.049  -0.006  -0.009   0.036   0.004   0.001
 -0.017  -0.010   0.024  -0.008   0.079   0.005   0.010  -0.022   0.007   0.267   0.053  -0.001  -0.038   0.003   0.052   0.008
  0.049   0.161  -0.006  -0.051  -0.103  -0.049  -0.105   0.023   0.049   0.053   0.941  -0.138   0.088   0.009   0.065  -0.012
 -0.019  -0.043   0.000   0.014   0.039   0.003   0.011  -0.004  -0.006  -0.001  -0.138   0.022  -0.014  -0.002  -0.009   0.003
  0.018   0.016   0.001  -0.002  -0.009   0.015  -0.002  -0.013  -0.009  -0.038   0.088  -0.014   0.028  -0.007  -0.003  -0.003
 -0.001   0.006  -0.008  -0.005  -0.005  -0.009   0.053   0.007   0.036   0.003   0.009  -0.002  -0.007   0.034   0.004   0.000
 -0.004  -0.002  -0.004   0.002  -0.007   0.036  -0.008  -0.019   0.004   0.052   0.065  -0.009  -0.003   0.004   0.035  -0.000
 -0.019  -0.004   0.016  -0.000   0.028  -0.004  -0.000   0.004   0.001   0.008  -0.012   0.003  -0.003   0.000  -0.000   0.001
  0.000  -0.030  -0.003  -0.017   0.000   0.001  -0.009  -0.001  -0.006  -0.000  -0.003   0.001   0.000  -0.003  -0.000   0.000
 -0.030   0.001   0.012  -0.003  -0.020  -0.007   0.001   0.003  -0.001  -0.007  -0.007   0.001  -0.000  -0.000  -0.003   0.000


------------------------ aborting loop because EDIFF is reached ----------------------------------------


    CHARGE:  cpu time   24.7570: real time   24.7567
    FORLOC:  cpu time    6.7400: real time    6.7399
    FORNL :  cpu time   64.1124: real time   64.1120
    STRESS:  cpu time  192.8784: real time  192.8760
    FORCOR:  cpu time   21.1865: real time   21.1863
    FORHAR:  cpu time    9.4405: real time    9.4404
    MIXING:  cpu time    3.5977: real time    3.5977
    OFIELD:  cpu time    0.0000: real time    0.0000

  FORCE on cell =-STRESS in cart. coord.  units (eV):
  Direction    XX          YY          ZZ          XY          YZ          ZX
  --------------------------------------------------------------------------------------
  Alpha Z    75.25432    75.25432    75.25432
  Ewald   43659.46470 50228.19285 44051.46242   489.81582  -699.21116  -169.29681
  Hartree 58597.51789 64766.28994 58915.83706   409.57424  -579.34836  -112.89980
  E(xc)   -2906.17545 -2904.58905 -2906.05753     0.46691    -0.64276    -0.40604
  Local  ************************************  -889.09717  1263.37506   273.54428
  n-local  -877.16951  -880.28720  -876.55554     2.16972    -4.82008    -1.28451
  augment  4103.88466  4102.12751  4103.53349    -2.80731     4.36595     2.40804
  Kinetic  7816.29737  7792.38628  7813.05421    -7.11404    11.08813     6.23242
  Fock        0.00000     0.00000     0.00000     0.00000     0.00000     0.00000
  -------------------------------------------------------------------------------------
  Total    -112.54222  -102.77372  -110.12516     3.00819    -5.19321    -1.70243
  in kB      -6.67824    -6.09858    -6.53482     0.17851    -0.30816    -0.10102
  external pressure =       -6.44 kB  Pullay stress =        0.00 kB


 VOLUME and BASIS-vectors are now :
 -----------------------------------------------------------------------------
  energy-cutoff  :      400.00
  volume of cell :    27000.00
      direct lattice vectors                 reciprocal lattice vectors
    30.000000000  0.000000000  0.000000000     0.033333333  0.000000000  0.000000000
     0.000000000 30.000000000  0.000000000     0.000000000  0.033333333  0.000000000
     0.000000000  0.000000000 30.000000000     0.000000000  0.000000000  0.033333333

  length of vectors
    30.000000000 30.000000000 30.000000000     0.033333333  0.033333333  0.033333333


 FORCES acting on ions
    electron-ion (+dipol)            ewald-force                    non-local-force                 convergence-correction
 -----------------------------------------------------------------------------------------------
   0.404E+03 0.934E+03 0.456E+03   -.402E+03 -.931E+03 -.456E+03   -.164E+01 -.196E+01 -.164E+00   0.234E-02 -.214E-02 -.225E-02
   -.974E+03 -.399E+03 0.418E+03   0.971E+03 0.397E+03 -.418E+03   0.182E+01 0.151E+01 -.212E+00   -.548E-02 0.878E-03 0.412E-03
   -.414E+03 0.942E+03 0.448E+03   0.411E+03 -.939E+03 -.447E+03   0.179E+01 -.175E+01 -.616E+00   0.918E-02 0.354E-02 -.278E-02
   0.974E+03 -.400E+03 0.419E+03   -.971E+03 0.398E+03 -.418E+03   -.182E+01 0.151E+01 -.216E+00   0.254E-02 0.439E-02 -.529E-02
   -.211E+01 0.571E+03 0.980E+03   0.205E+01 -.571E+03 -.977E+03   0.373E-01 -.263E+00 -.241E+01   0.871E-02 0.767E-02 -.335E-02
   -.426E+01 0.557E+03 -.985E+03   0.423E+01 -.556E+03 0.981E+03   0.156E-01 -.388E+00 0.233E+01   0.438E-02 0.121E-02 0.485E-02
   -.114E+03 0.894E+03 0.189E+03   0.110E+03 -.896E+03 -.183E+03   0.512E+01 0.629E+01 -.845E+01   0.333E-02 -.454E-02 -.208E-02
   0.114E+04 -.865E+01 0.135E+01   -.113E+04 0.866E+01 -.135E+01   -.311E+01 -.462E-02 0.344E-02   -.563E-02 0.385E-02 -.496E-02
   -.114E+04 -.656E+01 0.105E+01   0.113E+04 0.656E+01 -.105E+01   0.311E+01 -.317E-02 -.156E-02   -.313E-02 0.495E-02 -.429E-02
   -.424E+00 -.113E+04 0.685E+00   0.413E+00 0.113E+04 -.685E+00   0.286E-02 0.312E+01 0.166E-02   0.556E-02 -.732E-02 -.647E-03
   -.585E+03 0.568E+03 0.823E+03   0.583E+03 -.565E+03 -.819E+03   0.152E+01 -.159E+01 -.215E+01   0.609E-02 0.982E-02 0.463E-03
   -.591E+03 0.561E+03 -.823E+03   0.588E+03 -.559E+03 0.820E+03   0.158E+01 -.151E+01 0.225E+01   0.828E-02 0.490E-02 0.189E-02
   0.579E+03 -.581E+03 0.815E+03   -.577E+03 0.579E+03 -.811E+03   -.156E+01 0.156E+01 -.220E+01   0.509E-02 0.663E-04 -.484E-04
   0.579E+03 -.582E+03 -.814E+03   -.577E+03 0.580E+03 0.811E+03   -.156E+01 0.156E+01 0.220E+01   0.668E-02 0.900E-02 0.481E-03
   0.584E+03 0.565E+03 0.825E+03   -.581E+03 -.563E+03 -.822E+03   -.156E+01 -.155E+01 -.217E+01   -.110E-02 0.409E-02 -.654E-02
   0.589E+03 0.555E+03 -.827E+03   -.587E+03 -.553E+03 0.824E+03   -.160E+01 -.153E+01 0.226E+01   -.156E-02 -.421E-02 0.681E-02
   -.579E+03 -.581E+03 0.814E+03   0.577E+03 0.578E+03 -.811E+03   0.156E+01 0.156E+01 -.220E+01   0.460E-03 -.471E-02 0.774E-02
   -.580E+03 -.582E+03 -.814E+03   0.578E+03 0.579E+03 0.810E+03   0.156E+01 0.156E+01 0.220E+01   -.899E-04 0.127E-02 -.619E-02
   0.421E+03 0.875E+03 -.455E+03   -.419E+03 -.872E+03 0.455E+03   -.115E+01 -.195E+01 -.696E-01   -.409E-04 -.521E-02 -.412E-03
   -.975E+03 -.400E+03 -.417E+03   0.972E+03 0.398E+03 0.416E+03   0.182E+01 0.149E+01 0.230E+00   -.222E-02 0.403E-02 -.585E-02
   -.327E+03 0.303E+03 0.462E+03   0.327E+03 -.304E+03 -.463E+03   -.331E+00 0.424E+00 0.479E+00   0.113E-01 0.123E-01 -.578E-02
   0.978E+03 0.381E+03 0.422E+03   -.975E+03 -.379E+03 -.422E+03   -.183E+01 -.150E+01 -.232E+00   -.319E-03 0.375E-02 -.704E-02
   -.395E+03 -.972E+03 0.418E+03   0.393E+03 0.969E+03 -.417E+03   0.151E+01 0.184E+01 -.217E+00   0.376E-02 -.606E-02 0.538E-02
   -.437E+03 0.910E+03 -.440E+03   0.435E+03 -.907E+03 0.440E+03   0.118E+01 -.207E+01 0.607E-01   0.669E-02 -.130E-02 -.206E-02
   0.974E+03 -.401E+03 -.417E+03   -.971E+03 0.399E+03 0.416E+03   -.182E+01 0.149E+01 0.230E+00   0.129E-02 0.102E-01 -.190E-03
   -.978E+03 0.384E+03 0.421E+03   0.975E+03 -.382E+03 -.420E+03   0.182E+01 -.150E+01 -.220E+00   -.138E-02 0.992E-02 -.281E-02
   0.394E+03 -.972E+03 0.418E+03   -.392E+03 0.969E+03 -.417E+03   -.151E+01 0.183E+01 -.223E+00   0.109E-01 0.573E-03 0.418E-02
   0.323E+03 0.301E+03 0.463E+03   -.324E+03 -.301E+03 -.464E+03   0.341E+00 0.418E+00 0.487E+00   0.794E-02 0.101E-01 -.590E-02
   -.734E+01 0.587E+03 0.121E+02   0.745E+01 -.587E+03 -.124E+02   -.100E+00 0.507E+00 0.195E+00   0.820E-02 0.493E-02 -.539E-02
   -.589E+03 -.680E+01 0.969E+03   0.589E+03 0.681E+01 -.965E+03   0.287E+00 -.433E-02 -.235E+01   0.123E-02 0.516E-02 0.528E-02
   -.591E+03 -.960E+01 -.968E+03   0.590E+03 0.961E+01 0.964E+03   0.297E+00 -.136E-01 0.234E+01   0.469E-02 0.832E-02 -.246E-02
   0.588E+03 -.786E+01 0.969E+03   -.588E+03 0.787E+01 -.966E+03   -.284E+00 -.113E-01 -.234E+01   0.476E-02 0.430E-02 -.519E-02
   0.590E+03 -.115E+02 -.969E+03   -.589E+03 0.115E+02 0.965E+03   -.304E+00 -.240E-02 0.234E+01   0.379E-02 0.709E-02 0.600E-02
   0.780E+03 0.724E+03 0.843E+01   -.778E+03 -.722E+03 -.846E+01   -.113E+01 -.122E+01 0.270E-01   0.135E-03 -.214E-02 -.340E-02
   -.762E+03 -.764E+03 0.800E+00   0.760E+03 0.762E+03 -.783E+00   0.115E+01 0.115E+01 -.120E-01   -.241E-02 0.471E-03 -.419E-02
   -.780E+03 0.736E+03 0.563E+01   0.778E+03 -.734E+03 -.566E+01   0.119E+01 -.114E+01 0.199E-01   0.752E-02 0.726E-02 -.645E-02
   0.761E+03 -.765E+03 0.877E+00   -.759E+03 0.763E+03 -.866E+00   -.115E+01 0.115E+01 -.928E-02   0.104E-01 0.797E-02 -.205E-02
   -.819E+00 -.856E+01 0.107E+04   0.806E+00 0.857E+01 -.107E+04   -.471E-03 -.159E-01 -.162E+01   0.951E-02 0.698E-02 0.775E-03
   -.119E+01 -.130E+02 -.107E+04   0.118E+01 0.129E+02 0.107E+04   0.373E-02 0.436E-01 0.161E+01   0.887E-02 0.105E-01 0.412E-03
   0.981E+03 0.378E+03 -.419E+03   -.978E+03 -.376E+03 0.418E+03   -.183E+01 -.149E+01 0.230E+00   -.366E-02 -.990E-03 0.174E-03
   -.395E+03 -.972E+03 -.416E+03   0.393E+03 0.969E+03 0.416E+03   0.150E+01 0.185E+01 0.214E+00   0.170E-02 -.360E-02 -.668E-02
   -.329E+03 0.297E+03 -.457E+03   0.330E+03 -.297E+03 0.458E+03   -.350E+00 0.421E+00 -.519E+00   0.976E-02 0.106E-01 -.345E-02
   0.321E+03 -.329E+03 0.456E+03   -.322E+03 0.329E+03 -.457E+03   0.368E+00 -.377E+00 0.528E+00   0.120E-01 0.604E-02 -.221E-02
   0.325E+03 0.293E+03 -.458E+03   -.325E+03 -.293E+03 0.458E+03   0.362E+00 0.435E+00 -.553E+00   0.731E-02 0.588E-02 -.255E-02
   -.980E+03 0.382E+03 -.418E+03   0.977E+03 -.380E+03 0.417E+03   0.182E+01 -.149E+01 0.230E+00   0.447E-02 0.816E-02 -.411E-02
   0.394E+03 -.973E+03 -.416E+03   -.392E+03 0.970E+03 0.416E+03   -.150E+01 0.185E+01 0.218E+00   0.960E-02 0.141E-02 -.368E-02
   -.323E+03 -.328E+03 0.456E+03   0.323E+03 0.329E+03 -.457E+03   -.369E+00 -.371E+00 0.534E+00   0.913E-02 0.602E-02 -.791E-03
   0.643E+03 -.145E+02 0.219E+01   -.644E+03 0.145E+02 -.219E+01   0.731E+00 0.276E-02 0.174E-03   0.720E-02 0.839E-02 -.620E-02
   -.644E+03 -.119E+02 0.183E+01   0.645E+03 0.119E+02 -.182E+01   -.734E+00 -.641E-02 -.467E-02   0.655E-02 0.113E-01 -.779E-02
   -.410E+00 -.589E+03 0.967E+03   0.403E+00 0.589E+03 -.963E+03   -.173E-02 0.317E+00 -.236E+01   0.975E-02 -.868E-03 0.576E-02
   -.501E+00 -.590E+03 -.966E+03   0.498E+00 0.590E+03 0.962E+03   -.349E-02 0.301E+00 0.237E+01   0.633E-02 0.552E-02 -.584E-02
   -.154E+01 -.170E+02 0.254E+01   0.153E+01 0.170E+02 -.254E+01   -.642E-02 -.185E-01 0.720E-02   0.115E-01 0.132E-01 -.641E-02
   0.322E+03 -.331E+03 -.454E+03   -.322E+03 0.331E+03 0.455E+03   0.373E+00 -.405E+00 -.514E+00   0.125E-01 0.136E-01 -.353E-02
   -.323E+03 -.330E+03 -.454E+03   0.324E+03 0.330E+03 0.455E+03   -.372E+00 -.396E+00 -.516E+00   0.690E-02 0.122E-01 -.561E-02
   -.585E+00 -.643E+03 0.938E+00   0.568E+00 0.644E+03 -.942E+00   0.652E-02 -.706E+00 0.445E-03   0.119E-01 0.629E-02 -.241E-02
   0.821E+02 0.253E+03 -.114E+03   -.817E+02 -.235E+03 0.114E+03   -.934E+00 -.159E+02 0.154E+01   0.455E-03 -.221E-02 -.396E-03
   0.879E+02 0.727E+03 -.130E+03   -.932E+02 -.792E+03 0.138E+03   0.425E+01 0.592E+02 -.717E+01   0.595E-03 -.252E-02 -.383E-03
 -----------------------------------------------------------------------------------------------
   -.884E+01 -.525E+02 0.147E+02   0.853E-13 -.909E-12 -.290E-11   0.857E+01 0.523E+02 -.146E+02   0.264E+00 0.230E+00 -.109E+00
 
 
 POSITION                                       TOTAL-FORCE (eV/Angst)
 -----------------------------------------------------------------------------------
     13.37281      9.84801     12.50759         0.719224      1.164460      0.175115
     20.15199     16.62719     12.50759        -1.105808     -0.708094      0.290740
     16.62719      9.84801     12.50759        -0.737659      1.101679      0.259214
      9.84801     16.62719     12.50759         1.106820     -0.706063      0.292571
     15.00000     11.47521     10.20639        -0.019641      0.380612      1.302318
     15.00000     11.47521     19.79360        -0.005176      0.444823     -1.276666
     15.00000      8.28283     15.00000         1.551199      4.777971     -2.608313
      8.28283     15.00000     15.00000         1.517202      0.000528     -0.001695
     21.71717     15.00000     15.00000        -1.518608      0.001153     -0.001380
     15.00000     21.71717     15.00000        -0.002009     -1.514548      0.001204
     18.35858     11.64142     10.25025        -0.723877      0.785380      1.048210
     18.35858     11.64142     19.74975        -0.762474      0.729397     -1.096144
     11.64142     18.35858     10.25025         0.754233     -0.757294      1.071577
     11.64142     18.35858     19.74975         0.757780     -0.753744     -1.073838
     11.64142     11.64142     10.25025         0.749909      0.764398      1.059444
     11.64142     11.64142     19.74975         0.768418      0.741746     -1.091161
     18.35858     18.35858     10.25025        -0.754683     -0.758845      1.072076
     18.35858     18.35858     19.74975        -0.756594     -0.755400     -1.072303
     13.37281      9.84801     17.49241         0.707818      0.927878     -0.248395
     20.15199     16.62719     17.49241        -1.107220     -0.702295     -0.294200
     16.73751     13.26249     12.54279         0.105260     -0.117274     -0.143228
      9.84801     13.37281     12.50759         1.106625      0.708737      0.291792
     16.62719     20.15199     12.50759        -0.701111     -1.111974      0.285728
     16.62719      9.84801     17.49241        -0.637711      1.161018     -0.155721
      9.84801     16.62719     17.49241         1.107098     -0.701432     -0.295572
     20.15199     13.37281     12.50759        -1.108186      0.708773      0.289902
     13.37281     20.15199     12.50759         0.700261     -1.112058      0.287919
     13.26249     13.26249     12.54279        -0.104338     -0.110597     -0.154125
     15.00000     11.52498     15.00000         0.019994     -0.059401     -0.066792
     18.52479     15.00000     10.20639        -0.405256      0.004145      1.285942
     18.52479     15.00000     19.79360        -0.413538      0.005037     -1.279157
     11.47521     15.00000     10.20640         0.407940      0.005871      1.286834
     11.47521     15.00000     19.79360         0.418059     -0.003226     -1.279756
     11.49535     11.49535     15.00000         0.805451      0.859364     -0.009706
     18.50465     18.50465     15.00000        -0.826505     -0.829901      0.000679
     18.50465     11.49535     15.00000        -0.825727      0.836501     -0.010051
     11.49535     18.50465     15.00000         0.826317     -0.828995     -0.000414
     15.00000     15.00000     10.04368        -0.003130      0.008500      1.182129
     15.00000     15.00000     19.95633        -0.001989     -0.019404     -1.180149
      9.84801     13.37281     17.49241         1.109132      0.704857     -0.291352
     16.62719     20.15199     17.49241        -0.694898     -1.117538     -0.283095
     16.73751     13.26249     17.45721         0.107323     -0.106940      0.154644
     13.26249     16.73751     12.54279        -0.114837      0.117836     -0.151320
     13.26249     13.26249     17.45721        -0.108710     -0.099612      0.153864
     20.15199     13.37281     17.49241        -1.107330      0.706742     -0.291107
     13.37281     20.15199     17.49241         0.694251     -1.118215     -0.284530
     16.73751     16.73751     12.54279         0.112757      0.112479     -0.152643
     11.52498     15.00000     15.00000        -0.227318     -0.006433     -0.000768
     18.47502     15.00000     15.00000         0.228044     -0.005317     -0.001955
     15.00000     18.52480     10.20639         0.000169     -0.409976      1.277371
     15.00000     18.52480     19.79360        -0.000009     -0.402613     -1.278252
     15.00000     15.00000     15.00000        -0.000730      0.016852      0.004805
     13.26249     16.73751     17.45721        -0.113437      0.130720      0.157543
     16.73751     16.73751     17.45721         0.112470      0.123987      0.154436
     15.00000     18.47502     15.00000         0.002265      0.227336     -0.006367
     14.33989      7.15402     16.09567        -0.584079      2.272943      1.042978
     14.24623      6.04072     16.25114        -1.023429     -5.714531      1.651118
 -----------------------------------------------------------------------------------
    total drift:                               -0.004132      0.001585     -0.004306


--------------------------------------------------------------------------------------------------------



  FREE ENERGIE OF THE ION-ELECTRON SYSTEM (eV)
  ---------------------------------------------------
  free  energy   TOTEN  =      -174.67855099 eV

  energy  without entropy=     -174.60008115  energy(sigma->0) =     -174.65893353
 


--------------------------------------------------------------------------------------------------------


    POTLOK:  cpu time   13.1828: real time   13.1826


--------------------------------------------------------------------------------------------------------


     LOOP+:  cpu time18043.2118: real time18043.6960
    4ORBIT:  cpu time    0.0000: real time    0.0000

 total amount of memory used by VASP MPI-rank0  5486941. kBytes
=======================================================================

   base      :      30000. kBytes
   nonlr-proj:      17126. kBytes
   fftplans  :     924480. kBytes
   grid      :    1872000. kBytes
   one-center:        886. kBytes
   wavefun   :    2642449. kBytes
 
  
  
 General timing and accounting informations for this job:
 ========================================================
  
                  Total CPU time used (sec):    18117.773
                            User time (sec):    17128.045
                          System time (sec):      989.728
                         Elapsed time (sec):    18118.304
  
                   Maximum memory used (kb):     7179076.
                   Average memory used (kb):           0.
  
                          Minor page faults:    838415164
                          Major page faults:            0
                 Voluntary context switches:          574
