 running on    1 total cores
 distrk:  each k-point on    1 cores,    1 groups
 distr:  one band on    1 cores,    1 groups
 using from now: INCAR     
 vasp.5.4.4.18Apr17-6-g9f103f2a35 (build Sep 03 2018 23:53:05) complex          
  
 POSCAR found type information on POSCAR  Pd C  O 
 POSCAR found :  3 types and      57 ions
 scaLAPACK will be used

 ----------------------------------------------------------------------------- 
|                                                                             |
|  ADVICE TO THIS USER RUNNING 'VASP/VAMP'   (HEAR YOUR MASTER'S VOICE ...):  |
|                                                                             |
|      You enforced a specific xc-type in the INCAR file,                     |
|      a different type was found on the POTCAR file                          |
|          I HOPE YOU KNOW, WHAT YOU ARE  DOING                               |
|                                                                             |
 ----------------------------------------------------------------------------- 

 LDA part: xc-table for Pade appr. of Perdew
 POSCAR, INCAR and KPOINTS ok, starting setup
 FFT: planning ...
 WAVECAR not read
 entering main loop
       N       E                     dE             d eps       ncg     rms          rms(c)
DAV:   1     0.439459189208E+04    0.43946E+04   -0.10054E+05   688   0.815E+02
DAV:   2     0.201003042240E+04   -0.23846E+04   -0.21457E+04  1224   0.106E+02
DAV:   3     0.230253430938E+03   -0.17798E+04   -0.16771E+04   992   0.917E+01
DAV:   4    -0.135512642404E+03   -0.36577E+03   -0.30883E+03   832   0.437E+01
DAV:   5    -0.180144604107E+03   -0.44632E+02   -0.36944E+02  1040   0.146E+01    0.186E+01
RMM:   6    -0.179352430537E+03    0.79217E+00   -0.63514E+01   731   0.906E+00    0.231E+01
RMM:   7    -0.185220584299E+03   -0.58682E+01   -0.23044E+01   845   0.519E+00    0.273E+01
RMM:   8    -0.187203130221E+03   -0.19825E+01   -0.10290E+01   780   0.407E+00    0.297E+01
RMM:   9    -0.184555095462E+03    0.26480E+01   -0.89199E+00   723   0.413E+00    0.279E+01
RMM:  10    -0.181211704843E+03    0.33434E+01   -0.52113E+00   730   0.327E+00    0.237E+01
RMM:  11    -0.179273556535E+03    0.19381E+01   -0.38502E+00   719   0.286E+00    0.208E+01
RMM:  12    -0.178354057073E+03    0.91950E+00   -0.19247E+00   723   0.202E+00    0.211E+01
RMM:  13    -0.177896060678E+03    0.45800E+00   -0.16835E+00   724   0.188E+00    0.232E+01
RMM:  14    -0.179380505233E+03   -0.14844E+01   -0.15672E+00   723   0.181E+00    0.359E+01
RMM:  15    -0.177314456908E+03    0.20660E+01   -0.17478E+00   719   0.193E+00    0.195E+01
RMM:  16    -0.176617766699E+03    0.69669E+00   -0.12413E+00   712   0.165E+00    0.164E+01
RMM:  17    -0.176082292265E+03    0.53547E+00   -0.95042E-01   707   0.146E+00    0.149E+01
RMM:  18    -0.175498533724E+03    0.58376E+00   -0.55839E-01   708   0.112E+00    0.108E+01
RMM:  19    -0.175397016180E+03    0.10152E+00   -0.44995E-01   700   0.102E+00    0.104E+01
RMM:  20    -0.175335063428E+03    0.61953E-01   -0.32597E-01   694   0.874E-01    0.959E+00
RMM:  21    -0.175127320610E+03    0.20774E+00   -0.25158E-01   700   0.781E-01    0.941E+00
RMM:  22    -0.175001001781E+03    0.12632E+00   -0.16693E-01   694   0.638E-01    0.729E+00
RMM:  23    -0.174948976832E+03    0.52025E-01   -0.19785E-01   696   0.672E-01    0.634E+00
RMM:  24    -0.174915026812E+03    0.33950E-01   -0.20655E-01   693   0.680E-01    0.585E+00
RMM:  25    -0.174927415823E+03   -0.12389E-01   -0.14628E-01   694   0.582E-01    0.696E+00
RMM:  26    -0.174796780090E+03    0.13064E+00   -0.10092E-01   694   0.502E-01    0.463E+00
RMM:  27    -0.174766126939E+03    0.30653E-01   -0.94060E-02   690   0.476E-01    0.389E+00
RMM:  28    -0.174758636477E+03    0.74905E-02   -0.64092E-02   693   0.403E-01    0.423E+00
RMM:  29    -0.174704299873E+03    0.54337E-01   -0.31031E-02   690   0.299E-01    0.300E+00
RMM:  30    -0.174670681974E+03    0.33618E-01   -0.17353E-02   687   0.226E-01    0.164E+00
RMM:  31    -0.174671590883E+03   -0.90891E-03   -0.13629E-02   691   0.179E-01    0.189E+00
RMM:  32    -0.174655648069E+03    0.15943E-01   -0.78109E-03   694   0.142E-01    0.968E-01
RMM:  33    -0.174654272376E+03    0.13757E-02   -0.53304E-03   689   0.115E-01    0.959E-01
RMM:  34    -0.174651664045E+03    0.26083E-02   -0.52382E-03   691   0.115E-01    0.747E-01
RMM:  35    -0.174650418836E+03    0.12452E-02   -0.36184E-03   688   0.980E-02    0.735E-01
RMM:  36    -0.174650437495E+03   -0.18660E-04   -0.22484E-03   688   0.764E-02    0.622E-01
RMM:  37    -0.174650443893E+03   -0.63974E-05   -0.19388E-03   687   0.729E-02    0.464E-01
RMM:  38    -0.174652281783E+03   -0.18379E-02   -0.12938E-03   684   0.583E-02    0.555E-01
RMM:  39    -0.174654091542E+03   -0.18098E-02   -0.10583E-03   685   0.520E-02    0.326E-01
RMM:  40    -0.174655271503E+03   -0.11800E-02   -0.56967E-04   608   0.396E-02    0.219E-01
RMM:  41    -0.174658773548E+03   -0.35020E-02   -0.69853E-04   663   0.395E-02    0.281E-01
RMM:  42    -0.174661567388E+03   -0.27938E-02   -0.60249E-04   592   0.355E-02    0.153E-01
RMM:  43    -0.174663146811E+03   -0.15794E-02   -0.26520E-04   425   0.251E-02    0.156E-01
RMM:  44    -0.174667455929E+03   -0.43091E-02   -0.68961E-04   585   0.321E-02    0.187E-01
RMM:  45    -0.174668659278E+03   -0.12033E-02   -0.25146E-04   437   0.213E-02    0.122E-01
RMM:  46    -0.174670597208E+03   -0.19379E-02   -0.24078E-04   426   0.192E-02    0.121E-01
RMM:  47    -0.174671912321E+03   -0.13151E-02   -0.18743E-04   412   0.177E-02    0.830E-02
RMM:  48    -0.174672906149E+03   -0.99383E-03   -0.12590E-04   412   0.140E-02    0.705E-02
RMM:  49    -0.174673916924E+03   -0.10108E-02   -0.99636E-05   411   0.120E-02    0.546E-02
RMM:  50    -0.174674593422E+03   -0.67650E-03   -0.58874E-05   409   0.917E-03    0.506E-02
RMM:  51    -0.174675510210E+03   -0.91679E-03   -0.49103E-05   403   0.833E-03    0.347E-02
RMM:  52    -0.174675894317E+03   -0.38411E-03   -0.24811E-05   359   0.590E-03    0.300E-02
RMM:  53    -0.174676550684E+03   -0.65637E-03   -0.23825E-05   372   0.575E-03    0.296E-02
RMM:  54    -0.174676825727E+03   -0.27504E-03   -0.75141E-06   197   0.422E-03    0.149E-02
RMM:  55    -0.174677238634E+03   -0.41291E-03   -0.10795E-05   257   0.467E-03    0.203E-02
RMM:  56    -0.174677570545E+03   -0.33191E-03   -0.82940E-06   204   0.428E-03    0.153E-02
RMM:  57    -0.174677796682E+03   -0.22614E-03   -0.90046E-06   214   0.414E-03    0.132E-02
RMM:  58    -0.174678136526E+03   -0.33984E-03   -0.14256E-05   221   0.440E-03    0.102E-02
RMM:  59    -0.174678258094E+03   -0.12157E-03   -0.46279E-06   136   0.370E-03    0.525E-03
RMM:  60    -0.174678394677E+03   -0.13658E-03   -0.93303E-06   186   0.399E-03    0.763E-03
RMM:  61    -0.174678511162E+03   -0.11648E-03   -0.70523E-06   157   0.375E-03    0.534E-03
RMM:  62    -0.174678550986E+03   -0.39824E-04   -0.34748E-06   124   0.347E-03
   1 F= -.17467855E+03 E0= -.17465893E+03  d E =-.784698E-01
================================= SLURM INFO ===================================
Command: run-cluster -n 1 -m 10000 -j 000243_vasp --same-node /opt/VASP/vasp
Exit code: 0
Job name: 000243_vasp
Job time: 0 days 5h:1m:59s
MPI task count: 1
Working dir: /home/pashkov/pyFitIt/pyfitit/data/adaptive_pd_co_new_2/sample/000243
Job was running on nodes: h5
Task per node: 1
       JobID     MaxRSS  MaxDiskRead MaxDiskWrite    Elapsed    JobName 
------------ ---------- ------------ ------------ ---------- ---------- 
106768                                              05:01:59 000243_va+ 
106768.batch                                        05:01:59      batch 
