       N       E                     dE             d eps       ncg     rms          rms(c)
DAV:   1     0.439034162448E+04    0.43903E+04   -0.10055E+05   688   0.815E+02
DAV:   2     0.200992016561E+04   -0.23804E+04   -0.21414E+04  1224   0.106E+02
DAV:   3     0.238731699760E+03   -0.17712E+04   -0.16665E+04   984   0.919E+01
DAV:   4    -0.134588724909E+03   -0.37332E+03   -0.31889E+03   832   0.437E+01
DAV:   5    -0.180459822340E+03   -0.45871E+02   -0.37743E+02  1056   0.147E+01    0.162E+01
RMM:   6    -0.180629851782E+03   -0.17003E+00   -0.63576E+01   725   0.929E+00    0.248E+01
RMM:   7    -0.183266286104E+03   -0.26364E+01   -0.21259E+01   853   0.455E+00    0.255E+01
RMM:   8    -0.184766529948E+03   -0.15002E+01   -0.79093E+00   789   0.355E+00    0.250E+01
RMM:   9    -0.183401240955E+03    0.13653E+01   -0.63011E+00   729   0.352E+00    0.243E+01
RMM:  10    -0.180917822968E+03    0.24834E+01   -0.39853E+00   726   0.292E+00    0.207E+01
RMM:  11    -0.179045684818E+03    0.18721E+01   -0.23082E+00   733   0.226E+00    0.200E+01
RMM:  12    -0.178015553302E+03    0.10301E+01   -0.20544E+00   714   0.210E+00    0.175E+01
RMM:  13    -0.177659611627E+03    0.35594E+00   -0.16253E+00   715   0.189E+00    0.179E+01
RMM:  14    -0.178090091937E+03   -0.43048E+00   -0.18681E+00   708   0.204E+00    0.221E+01
RMM:  15    -0.176940978815E+03    0.11491E+01   -0.10646E+00   719   0.156E+00    0.157E+01
RMM:  16    -0.176302596165E+03    0.63838E+00   -0.67820E-01   713   0.125E+00    0.139E+01
RMM:  17    -0.176014398754E+03    0.28820E+00   -0.52162E-01   711   0.109E+00    0.116E+01
RMM:  18    -0.175831420622E+03    0.18298E+00   -0.43587E-01   705   0.987E-01    0.964E+00
RMM:  19    -0.175752903034E+03    0.78518E-01   -0.39844E-01   698   0.956E-01    0.962E+00
RMM:  20    -0.175667216886E+03    0.85686E-01   -0.19370E-01   714   0.687E-01    0.106E+01
RMM:  21    -0.175538917203E+03    0.12830E+00   -0.22835E-01   697   0.729E-01    0.700E+00
RMM:  22    -0.175398320740E+03    0.14060E+00   -0.24864E-01   696   0.749E-01    0.538E+00
RMM:  23    -0.175485299128E+03   -0.86978E-01   -0.21376E-01   697   0.714E-01    0.775E+00
RMM:  24    -0.175333697476E+03    0.15160E+00   -0.14189E-01   696   0.589E-01    0.526E+00
RMM:  25    -0.175212035671E+03    0.12166E+00   -0.86457E-02   694   0.474E-01    0.320E+00
RMM:  26    -0.175190266414E+03    0.21769E-01   -0.56230E-02   694   0.370E-01    0.291E+00
RMM:  27    -0.175174496829E+03    0.15770E-01   -0.37582E-02   694   0.309E-01    0.244E+00
RMM:  28    -0.175169495250E+03    0.50016E-02   -0.27081E-02   697   0.274E-01    0.250E+00
RMM:  29    -0.175147870125E+03    0.21625E-01   -0.21788E-02   693   0.244E-01    0.177E+00
RMM:  30    -0.175139027184E+03    0.88429E-02   -0.12309E-02   692   0.181E-01    0.128E+00
RMM:  31    -0.175130900071E+03    0.81271E-02   -0.79338E-03   693   0.146E-01    0.860E-01
RMM:  32    -0.175128835671E+03    0.20644E-02   -0.49827E-03   690   0.115E-01    0.818E-01
RMM:  33    -0.175128398936E+03    0.43674E-03   -0.36083E-03   693   0.100E-01    0.818E-01
RMM:  34    -0.175126418532E+03    0.19804E-02   -0.26463E-03   692   0.882E-02    0.486E-01
RMM:  35    -0.175127386217E+03   -0.96768E-03   -0.18406E-03   689   0.704E-02    0.507E-01
RMM:  36    -0.175129055102E+03   -0.16689E-02   -0.14377E-03   688   0.611E-02    0.495E-01
RMM:  37    -0.175130028285E+03   -0.97318E-03   -0.10694E-03   689   0.525E-02    0.325E-01
RMM:  38    -0.175132576426E+03   -0.25481E-02   -0.90118E-04   687   0.462E-02    0.404E-01
RMM:  39    -0.175134705340E+03   -0.21289E-02   -0.70293E-04   658   0.407E-02    0.292E-01
RMM:  40    -0.175136489049E+03   -0.17837E-02   -0.48763E-04   550   0.341E-02    0.279E-01
RMM:  41    -0.175138289144E+03   -0.18001E-02   -0.36920E-04   457   0.298E-02    0.219E-01
RMM:  42    -0.175140552530E+03   -0.22634E-02   -0.35965E-04   468   0.291E-02    0.189E-01
RMM:  43    -0.175142019576E+03   -0.14670E-02   -0.23750E-04   416   0.234E-02    0.177E-01
RMM:  44    -0.175143786788E+03   -0.17672E-02   -0.21749E-04   415   0.215E-02    0.136E-01
RMM:  45    -0.175146146493E+03   -0.23597E-02   -0.30651E-04   452   0.230E-02    0.114E-01
RMM:  46    -0.175147628375E+03   -0.14819E-02   -0.20102E-04   416   0.184E-02    0.126E-01
RMM:  47    -0.175149744673E+03   -0.21163E-02   -0.32166E-04   462   0.197E-02    0.763E-02
RMM:  48    -0.175150316315E+03   -0.57164E-03   -0.11020E-04   413   0.130E-02    0.449E-02
RMM:  49    -0.175151209643E+03   -0.89333E-03   -0.83222E-05   411   0.105E-02    0.526E-02
RMM:  50    -0.175151753382E+03   -0.54374E-03   -0.51720E-05   400   0.853E-03    0.325E-02
RMM:  51    -0.175152243077E+03   -0.48969E-03   -0.29749E-05   388   0.652E-03    0.349E-02
RMM:  52    -0.175153042472E+03   -0.79940E-03   -0.27158E-05   387   0.627E-03    0.272E-02
RMM:  53    -0.175153462094E+03   -0.41962E-03   -0.15728E-05   295   0.509E-03    0.228E-02
RMM:  54    -0.175153955751E+03   -0.49366E-03   -0.14527E-05   279   0.484E-03    0.148E-02
RMM:  55    -0.175154158969E+03   -0.20322E-03   -0.42552E-06   163   0.389E-03    0.124E-02
RMM:  56    -0.175154551597E+03   -0.39263E-03   -0.13234E-05   251   0.444E-03    0.129E-02
RMM:  57    -0.175154705468E+03   -0.15387E-03   -0.31059E-06   129   0.351E-03    0.824E-03
RMM:  58    -0.175155038240E+03   -0.33277E-03   -0.21617E-05   281   0.471E-03    0.991E-03
RMM:  59    -0.175155181780E+03   -0.14354E-03   -0.42149E-06   134   0.361E-03    0.623E-03
RMM:  60    -0.175155299321E+03   -0.11754E-03   -0.84183E-06   167   0.392E-03    0.690E-03
RMM:  61    -0.175155302486E+03   -0.31650E-05    0.54641E-09    60   0.327E-03
   1 F= -.17515530E+03 E0= -.17512516E+03  d E =-.120558E+00
