   57   57    1    1
  0.4736842E+03  0.3000000E-08  0.3000000E-08  0.3000000E-08  0.5000000E-15
  1.000000000000000E-004
  CAR 
 6_Pd100_top_free_z(O)                   
    560      1    336
 
  0.0000000E+00  0.0000000E+00  0.0000000E+00  0.1000000E+01
    1      -29.157154   1.000000
    2      -14.032200   1.000000
    3      -12.423513   1.000000
    4      -12.143080   1.000000
    5      -10.818087   1.000000
    6       -6.740893   1.000000
    7       -6.596355   1.000000
    8       -6.427346   1.000000
    9       -6.136356   1.000000
   10       -6.109809   1.000000
   11       -6.105406   1.000000
   12       -5.999782   1.000000
   13       -5.889143   1.000000
   14       -5.837712   1.000000
   15       -5.806486   1.000000
   16       -5.774715   1.000000
   17       -5.746427   1.000000
   18       -5.695005   1.000000
   19       -5.661218   1.000000
   20       -5.658877   1.000000
   21       -5.650006   1.000000
   22       -5.642154   1.000000
   23       -5.612709   1.000000
   24       -5.607421   1.000000
   25       -5.590617   1.000000
   26       -5.569394   1.000000
   27       -5.559567   1.000000
   28       -5.553240   1.000000
   29       -5.545205   1.000000
   30       -5.529867   1.000000
   31       -5.521794   1.000000
   32       -5.512916   1.000000
   33       -5.505871   1.000000
   34       -5.502971   1.000000
   35       -5.498099   1.000000
   36       -5.493912   1.000000
   37       -5.483726   1.000000
   38       -5.479064   1.000000
   39       -5.472302   1.000000
   40       -5.464798   1.000000
   41       -5.460655   1.000000
   42       -5.456536   1.000000
   43       -5.447493   1.000000
   44       -5.442741   1.000000
   45       -5.438208   1.000000
   46       -5.437363   1.000000
   47       -5.430994   1.000000
   48       -5.428671   1.000000
   49       -5.414541   1.000000
   50       -5.408378   1.000000
   51       -5.400763   1.000000
   52       -5.395343   1.000000
   53       -5.381820   1.000000
   54       -5.381067   1.000000
   55       -5.367603   1.000000
   56       -5.361188   1.000000
   57       -5.353062   1.000000
   58       -5.342756   1.000000
   59       -5.337686   1.000000
   60       -5.320009   1.000000
   61       -5.315890   1.000000
   62       -5.301465   1.000000
   63       -5.294569   1.000000
   64       -5.287770   1.000000
   65       -5.287692   1.000000
   66       -5.280503   1.000000
   67       -5.275711   1.000000
   68       -5.270839   1.000000
   69       -5.258914   1.000000
   70       -5.244113   1.000000
   71       -5.231908   1.000000
   72       -5.214923   1.000000
   73       -5.199096   1.000000
   74       -5.184210   1.000000
   75       -5.167283   1.000000
   76       -5.161259   1.000000
   77       -5.158094   1.000000
   78       -5.153577   1.000000
   79       -5.149735   1.000000
   80       -5.145756   1.000000
   81       -5.142217   1.000000
   82       -5.125767   1.000000
   83       -5.121713   1.000000
   84       -5.108256   1.000000
   85       -5.099309   1.000000
   86       -5.097350   1.000000
   87       -5.087966   1.000000
   88       -5.087427   1.000000
   89       -5.078128   1.000000
   90       -5.072663   1.000000
   91       -5.064823   1.000000
   92       -5.058277   1.000000
   93       -5.044253   1.000000
   94       -5.042558   1.000000
   95       -5.037850   1.000000
   96       -5.035717   1.000000
   97       -5.021901   1.000000
   98       -5.018915   1.000000
   99       -5.013302   1.000000
  100       -5.008060   1.000000
  101       -4.996710   1.000000
  102       -4.989870   1.000000
  103       -4.984767   1.000000
  104       -4.979893   1.000000
  105       -4.979215   1.000000
  106       -4.977928   1.000000
  107       -4.973818   1.000000
  108       -4.972425   1.000000
  109       -4.962001   1.000000
  110       -4.955379   1.000000
  111       -4.954284   1.000000
  112       -4.951923   1.000000
  113       -4.947125   1.000000
  114       -4.941259   1.000000
  115       -4.934164   1.000000
  116       -4.925911   0.999999
  117       -4.924251   0.999999
  118       -4.921019   0.999999
  119       -4.918793   0.999999
  120       -4.903629   0.999999
  121       -4.896970   0.999998
  122       -4.888199   0.999998
  123       -4.886958   0.999998
  124       -4.883709   0.999998
  125       -4.874707   0.999997
  126       -4.872444   0.999996
  127       -4.866221   0.999996
  128       -4.856207   0.999994
  129       -4.849692   0.999992
  130       -4.842228   0.999990
  131       -4.836912   0.999989
  132       -4.831729   0.999987
  133       -4.822673   0.999983
  134       -4.814594   0.999978
  135       -4.806083   0.999972
  136       -4.801608   0.999968
  137       -4.797049   0.999963
  138       -4.795057   0.999961
  139       -4.783314   0.999946
  140       -4.773279   0.999929
  141       -4.760863   0.999901
  142       -4.757984   0.999893
  143       -4.742694   0.999842
  144       -4.731169   0.999791
  145       -4.723563   0.999749
  146       -4.713330   0.999681
  147       -4.708017   0.999640
  148       -4.706679   0.999629
  149       -4.695574   0.999525
  150       -4.690984   0.999476
  151       -4.681372   0.999359
  152       -4.672783   0.999236
  153       -4.668154   0.999163
  154       -4.661644   0.999050
  155       -4.653501   0.998893
  156       -4.651198   0.998845
  157       -4.649139   0.998801
  158       -4.644459   0.998696
  159       -4.641230   0.998620
  160       -4.636817   0.998510
  161       -4.633222   0.998417
  162       -4.629066   0.998304
  163       -4.626426   0.998230
  164       -4.624785   0.998183
  165       -4.620613   0.998059
  166       -4.618059   0.997981
  167       -4.613723   0.997844
  168       -4.609363   0.997701
  169       -4.606471   0.997604
  170       -4.600806   0.997408
  171       -4.599192   0.997350
  172       -4.591460   0.997070
  173       -4.585259   0.996839
  174       -4.578472   0.996584
  175       -4.572392   0.996356
  176       -4.567916   0.996191
  177       -4.564602   0.996070
  178       -4.563428   0.996028
  179       -4.552885   0.995671
  180       -4.552388   0.995656
  181       -4.551535   0.995629
  182       -4.546651   0.995485
  183       -4.540214   0.995319
  184       -4.526782   0.995095
  185       -4.526649   0.995094
  186       -4.524806   0.995080
  187       -4.520979   0.995065
  188       -4.520724   0.995065
  189       -4.516466   0.995076
  190       -4.509269   0.995166
  191       -4.497316   0.995548
  192       -4.493361   0.995748
  193       -4.486919   0.996166
  194       -4.475944   0.997164
  195       -4.475090   0.997258
  196       -4.470326   0.997831
  197       -4.466208   0.998393
  198       -4.462646   0.998931
  199       -4.454613   1.000332
  200       -4.452907   1.000664
  201       -4.448354   1.001611
  202       -4.444183   1.002558
  203       -4.443514   1.002717
  204       -4.434210   1.005139
  205       -4.428540   1.006809
  206       -4.426356   1.007491
  207       -4.423552   1.008399
  208       -4.419683   1.009710
  209       -4.413471   1.011952
  210       -4.410334   1.013146
  211       -4.406556   1.014638
  212       -4.402824   1.016166
  213       -4.393038   1.020404
  214       -4.385629   1.023797
  215       -4.379292   1.026789
  216       -4.377081   1.027846
  217       -4.375040   1.028826
  218       -4.370576   1.030975
  219       -4.368159   1.032138
  220       -4.364972   1.033667
  221       -4.360113   1.035971
  222       -4.349916   1.040612
  223       -4.343965   1.043122
  224       -4.335945   1.046160
  225       -4.318561   1.050735
  226       -4.316675   1.051015
  227       -4.314513   1.051275
  228       -4.311448   1.051524
  229       -4.307371   1.051622
  230       -4.306170   1.051597
  231       -4.304134   1.051496
  232       -4.299429   1.050967
  233       -4.297076   1.050539
  234       -4.295641   1.050221
  235       -4.295431   1.050171
  236       -4.294768   1.050007
  237       -4.291878   1.049178
  238       -4.287137   1.047405
  239       -4.283931   1.045900
  240       -4.280579   1.044048
  241       -4.277198   1.041878
  242       -4.271786   1.037746
  243       -4.270562   1.036694
  244       -4.266609   1.032991
  245       -4.265076   1.031427
  246       -4.260858   1.026741
  247       -4.253502   1.017175
  248       -4.251533   1.014304
  249       -4.245818   1.005201
  250       -4.243177   1.000601
  251       -4.238687   0.992193
  252       -4.235424   0.985613
  253       -4.234249   0.983147
  254       -4.225443   0.962981
  255       -4.223526   0.958198
  256       -4.219054   0.946484
  257       -4.216363   0.939059
  258       -4.213664   0.931333
  259       -4.212757   0.928673
  260       -4.211210   0.924063
  261       -4.208275   0.915063
  262       -4.205854   0.907389
  263       -4.205604   0.906583
  264       -4.202092   0.895022
  265       -4.200901   0.890994
  266       -4.195693   0.872762
  267       -4.192841   0.862357
  268       -4.186651   0.838766
  269       -4.185658   0.834853
  270       -4.183952   0.828060
  271       -4.180502   0.814016
  272       -4.175457   0.792779
  273       -4.169692   0.767545
  274       -4.159765   0.721886
  275       -4.155345   0.700749
  276       -4.151780   0.683375
  277       -4.147103   0.660189
  278       -4.142117   0.635037
  279       -4.138340   0.615722
  280       -4.134673   0.596787
  281       -4.125554   0.549108
  282       -4.124996   0.546173
  283       -4.112980   0.482691
  284       -4.103387   0.432165
  285       -4.097131   0.399573
  286       -4.091084   0.368498
  287       -4.085362   0.339601
  288       -4.079265   0.309465
  289       -3.962976  -0.035773
  290       -3.879911  -0.039427
  291       -3.870773  -0.035207
  292       -3.787350  -0.002330
  293       -3.785925  -0.002003
  294       -3.641653   0.002952
  295       -3.473697   0.000104
  296       -3.446676   0.000050
  297       -3.192350   0.000000
  298       -3.036910   0.000000
  299       -3.027063   0.000000
  300       -3.015289   0.000000
  301       -2.992937   0.000000
  302       -2.982421   0.000000
  303       -2.958865   0.000000
  304       -2.882180   0.000000
  305       -2.750284   0.000000
  306       -2.493990   0.000000
  307       -2.467661   0.000000
  308       -2.395224   0.000000
  309       -2.328722   0.000000
  310       -2.171123   0.000000
  311       -2.090809   0.000000
  312       -2.002436   0.000000
  313       -1.934260   0.000000
  314       -1.916635   0.000000
  315       -1.839224   0.000000
  316       -1.825602   0.000000
  317       -1.792145   0.000000
  318       -1.748415   0.000000
  319       -1.647877   0.000000
  320       -1.610354   0.000000
  321       -1.555869   0.000000
  322       -1.513520   0.000000
  323       -1.376499   0.000000
  324       -1.356339   0.000000
  325       -1.264333   0.000000
  326       -1.210365   0.000000
  327       -1.176235   0.000000
  328       -1.050825   0.000000
  329       -0.960889   0.000000
  330       -0.954969   0.000000
  331       -0.907579   0.000000
  332       -0.891858   0.000000
  333       -0.836571   0.000000
  334       -0.787359   0.000000
  335       -0.760754   0.000000
  336       -0.705950   0.000000
