  57  57   0   0
  0.4736842E+03  0.3000000E-08  0.3000000E-08  0.3000000E-08  0.5000000E-15
  1.000000000000000E-004
  CAR 
 6_Pd100_top_free_z(O)                   
      1.40234425    -30.21289351  301     -4.14893596      1.00000000
    -30.213  0.0000E+00  0.0000E+00
    -30.108  0.0000E+00  0.0000E+00
    -30.002  0.0000E+00  0.0000E+00
    -29.897  0.2495E-27  0.2630E-28
    -29.791  0.1103E-23  0.1162E-24
    -29.686  0.2754E-20  0.2904E-21
    -29.581  0.3879E-17  0.4091E-18
    -29.475  0.3070E-14  0.3239E-15
    -29.370  0.1362E-11  0.1438E-12
    -29.264  0.3352E-09  0.3547E-10
    -29.159  0.4547E-07  0.4827E-08
    -29.054  0.3350E-05  0.3579E-06
    -28.948  0.1310E-03  0.1417E-04
    -28.843  0.2602E-02  0.2883E-03
    -28.738  0.2362E-01  0.2778E-02
    -28.632  0.6437E-01  0.9562E-02
    -28.527 -0.2109E+00 -0.1267E-01
    -28.421 -0.8191E+00 -0.9899E-01
    -28.316  0.1940E+01  0.1055E+00
    -28.211  0.8719E+01  0.1024E+01
    -28.105  0.8485E+01  0.1918E+01
    -28.000  0.1690E+01  0.2097E+01
    -27.894 -0.8214E+00  0.2010E+01
    -27.789 -0.1838E+00  0.1991E+01
    -27.684  0.6458E-01  0.1997E+01
    -27.578  0.2187E-01  0.2000E+01
    -27.473  0.2319E-02  0.2000E+01
    -27.368  0.1132E-03  0.2000E+01
    -27.262  0.2814E-05  0.2000E+01
    -27.157  0.3717E-07  0.2000E+01
    -27.051  0.2669E-09  0.2000E+01
    -26.946  0.1058E-11  0.2000E+01
    -26.841  0.2107E-14  0.2000E+01
    -26.735  0.0000E+00  0.2000E+01
    -26.630  0.0000E+00  0.2000E+01
    -26.524  0.0000E+00  0.2000E+01
    -26.419  0.0000E+00  0.2000E+01
    -26.314  0.0000E+00  0.2000E+01
    -26.208  0.0000E+00  0.2000E+01
    -26.103  0.0000E+00  0.2000E+01
    -25.998  0.0000E+00  0.2000E+01
    -25.892  0.0000E+00  0.2000E+01
    -25.787  0.0000E+00  0.2000E+01
    -25.681  0.0000E+00  0.2000E+01
    -25.576  0.0000E+00  0.2000E+01
    -25.471  0.0000E+00  0.2000E+01
    -25.365  0.0000E+00  0.2000E+01
    -25.260  0.0000E+00  0.2000E+01
    -25.154  0.0000E+00  0.2000E+01
    -25.049  0.0000E+00  0.2000E+01
    -24.944  0.0000E+00  0.2000E+01
    -24.838  0.0000E+00  0.2000E+01
    -24.733  0.0000E+00  0.2000E+01
    -24.628  0.0000E+00  0.2000E+01
    -24.522  0.0000E+00  0.2000E+01
    -24.417  0.0000E+00  0.2000E+01
    -24.311  0.0000E+00  0.2000E+01
    -24.206  0.0000E+00  0.2000E+01
    -24.101  0.0000E+00  0.2000E+01
    -23.995  0.0000E+00  0.2000E+01
    -23.890  0.0000E+00  0.2000E+01
    -23.784  0.0000E+00  0.2000E+01
    -23.679  0.0000E+00  0.2000E+01
    -23.574  0.0000E+00  0.2000E+01
    -23.468  0.0000E+00  0.2000E+01
    -23.363  0.0000E+00  0.2000E+01
    -23.258  0.0000E+00  0.2000E+01
    -23.152  0.0000E+00  0.2000E+01
    -23.047  0.0000E+00  0.2000E+01
    -22.941  0.0000E+00  0.2000E+01
    -22.836  0.0000E+00  0.2000E+01
    -22.731  0.0000E+00  0.2000E+01
    -22.625  0.0000E+00  0.2000E+01
    -22.520  0.0000E+00  0.2000E+01
    -22.414  0.0000E+00  0.2000E+01
    -22.309  0.0000E+00  0.2000E+01
    -22.204  0.0000E+00  0.2000E+01
    -22.098  0.0000E+00  0.2000E+01
    -21.993  0.0000E+00  0.2000E+01
    -21.888  0.0000E+00  0.2000E+01
    -21.782  0.0000E+00  0.2000E+01
    -21.677  0.0000E+00  0.2000E+01
    -21.571  0.0000E+00  0.2000E+01
    -21.466  0.0000E+00  0.2000E+01
    -21.361  0.0000E+00  0.2000E+01
    -21.255  0.0000E+00  0.2000E+01
    -21.150  0.0000E+00  0.2000E+01
    -21.044  0.0000E+00  0.2000E+01
    -20.939  0.0000E+00  0.2000E+01
    -20.834  0.0000E+00  0.2000E+01
    -20.728  0.0000E+00  0.2000E+01
    -20.623  0.0000E+00  0.2000E+01
    -20.518  0.0000E+00  0.2000E+01
    -20.412  0.0000E+00  0.2000E+01
    -20.307  0.0000E+00  0.2000E+01
    -20.201  0.0000E+00  0.2000E+01
    -20.096  0.0000E+00  0.2000E+01
    -19.991  0.0000E+00  0.2000E+01
    -19.885  0.0000E+00  0.2000E+01
    -19.780  0.0000E+00  0.2000E+01
    -19.674  0.0000E+00  0.2000E+01
    -19.569  0.0000E+00  0.2000E+01
    -19.464  0.0000E+00  0.2000E+01
    -19.358  0.0000E+00  0.2000E+01
    -19.253  0.0000E+00  0.2000E+01
    -19.148  0.0000E+00  0.2000E+01
    -19.042  0.0000E+00  0.2000E+01
    -18.937  0.0000E+00  0.2000E+01
    -18.831  0.0000E+00  0.2000E+01
    -18.726  0.0000E+00  0.2000E+01
    -18.621  0.0000E+00  0.2000E+01
    -18.515  0.0000E+00  0.2000E+01
    -18.410  0.0000E+00  0.2000E+01
    -18.304  0.0000E+00  0.2000E+01
    -18.199  0.0000E+00  0.2000E+01
    -18.094  0.0000E+00  0.2000E+01
    -17.988  0.0000E+00  0.2000E+01
    -17.883  0.0000E+00  0.2000E+01
    -17.778  0.0000E+00  0.2000E+01
    -17.672  0.0000E+00  0.2000E+01
    -17.567  0.0000E+00  0.2000E+01
    -17.461  0.0000E+00  0.2000E+01
    -17.356  0.0000E+00  0.2000E+01
    -17.251  0.0000E+00  0.2000E+01
    -17.145  0.0000E+00  0.2000E+01
    -17.040  0.0000E+00  0.2000E+01
    -16.934  0.0000E+00  0.2000E+01
    -16.829  0.0000E+00  0.2000E+01
    -16.724  0.0000E+00  0.2000E+01
    -16.618  0.0000E+00  0.2000E+01
    -16.513  0.0000E+00  0.2000E+01
    -16.408  0.0000E+00  0.2000E+01
    -16.302  0.0000E+00  0.2000E+01
    -16.197  0.0000E+00  0.2000E+01
    -16.091  0.0000E+00  0.2000E+01
    -15.986  0.0000E+00  0.2000E+01
    -15.881  0.0000E+00  0.2000E+01
    -15.775  0.0000E+00  0.2000E+01
    -15.670  0.0000E+00  0.2000E+01
    -15.565  0.0000E+00  0.2000E+01
    -15.459  0.0000E+00  0.2000E+01
    -15.354  0.0000E+00  0.2000E+01
    -15.248  0.0000E+00  0.2000E+01
    -15.143  0.0000E+00  0.2000E+01
    -15.038  0.1060E-26  0.2000E+01
    -14.932  0.4257E-23  0.2000E+01
    -14.827  0.9663E-20  0.2000E+01
    -14.721  0.1236E-16  0.2000E+01
    -14.616  0.8876E-14  0.2000E+01
    -14.511  0.3570E-11  0.2000E+01
    -14.405  0.7959E-09  0.2000E+01
    -14.300  0.9758E-07  0.2000E+01
    -14.195  0.6479E-05  0.2000E+01
    -14.089  0.2271E-03  0.2000E+01
    -13.984  0.3995E-02  0.2000E+01
    -13.878  0.3113E-01  0.2004E+01
    -13.773  0.5821E-01  0.2010E+01
    -13.668 -0.3277E+00  0.1975E+01
    -13.562 -0.7455E+00  0.1897E+01
    -13.457  0.2998E+01  0.2213E+01
    -13.351  0.9459E+01  0.3210E+01
    -13.246  0.7458E+01  0.3995E+01
    -13.141  0.8378E+00  0.4084E+01
    -13.035 -0.7800E+00  0.4002E+01
    -12.930 -0.9376E-01  0.3992E+01
    -12.825  0.6160E-01  0.3998E+01
    -12.719  0.1599E-01  0.4000E+01
    -12.614  0.1470E-02  0.4000E+01
    -12.508  0.6378E-04  0.4000E+01
    -12.403  0.1423E-05  0.4000E+01
    -12.298  0.1825E-07  0.4000E+01
    -12.192  0.1510E-06  0.4000E+01
    -12.087  0.9427E-05  0.4000E+01
    -11.981  0.3098E-03  0.4000E+01
    -11.876  0.5073E-02  0.4001E+01
    -11.771  0.3601E-01  0.4004E+01
    -11.665  0.4998E-01  0.4010E+01
    -11.560 -0.3979E+00  0.3968E+01
    -11.455 -0.6102E+00  0.3903E+01
    -11.349  0.3721E+01  0.4296E+01
    -11.244  0.9354E+01  0.5281E+01
    -11.138  0.6143E+01  0.5929E+01
    -11.033  0.4096E+01  0.6360E+01
    -10.928  0.9028E+01  0.7312E+01
    -10.822  0.6752E+01  0.8023E+01
    -10.717  0.5434E+00  0.8081E+01
    -10.611 -0.7579E+00  0.8001E+01
    -10.506 -0.7638E+00  0.7920E+01
    -10.401  0.3912E+00  0.7961E+01
    -10.295  0.6627E+01  0.8660E+01
    -10.190  0.9817E+01  0.9694E+01
    -10.085  0.3847E+01  0.1010E+02
     -9.979 -0.6134E+00  0.1004E+02
     -9.874 -0.4226E+00  0.9991E+01
     -9.768  0.4681E-01  0.9995E+01
     -9.663  0.3728E-01  0.9999E+01
     -9.558  0.5384E-02  0.1000E+02
     -9.452  0.3349E-03  0.1000E+02
     -9.347  0.1036E-04  0.1000E+02
     -9.241  0.1684E-06  0.1000E+02
     -9.136  0.1479E-08  0.1000E+02
     -9.031  0.7132E-11  0.1000E+02
     -8.925  0.1896E-13  0.1000E+02
     -8.820  0.0000E+00  0.1000E+02
     -8.715  0.0000E+00  0.1000E+02
     -8.609  0.0000E+00  0.1000E+02
     -8.504  0.0000E+00  0.1000E+02
     -8.398  0.0000E+00  0.1000E+02
     -8.293  0.1754E-25  0.1000E+02
     -8.188  0.5834E-22  0.1000E+02
     -8.082  0.1096E-18  0.1000E+02
     -7.977  0.1159E-15  0.1000E+02
     -7.871  0.6869E-13  0.1000E+02
     -7.766  0.2277E-10  0.1000E+02
     -7.661  0.4171E-08  0.1000E+02
     -7.555  0.4184E-06  0.1000E+02
     -7.450  0.2258E-04  0.1000E+02
     -7.345  0.6352E-03  0.1000E+02
     -7.239  0.8740E-02  0.1000E+02
     -7.134  0.4921E-01  0.1001E+02
     -7.028  0.1958E-01  0.1001E+02
     -6.923 -0.5343E+00  0.9952E+01
     -6.818 -0.1804E+00  0.9933E+01
     -6.712  0.4812E+01  0.1044E+02
     -6.607  0.9875E+01  0.1148E+02
     -6.501  0.1032E+02  0.1257E+02
     -6.396  0.1094E+02  0.1372E+02
     -6.291  0.1260E+02  0.1505E+02
     -6.185  0.2176E+02  0.1734E+02
     -6.080  0.2840E+02  0.2034E+02
     -5.975  0.1502E+02  0.2192E+02
     -5.869  0.1616E+02  0.2362E+02
     -5.764  0.5053E+02  0.2895E+02
     -5.658  0.1047E+03  0.3998E+02
     -5.553  0.1973E+03  0.6077E+02
     -5.448  0.2847E+03  0.9078E+02
     -5.342  0.2706E+03  0.1193E+03
     -5.237  0.2143E+03  0.1419E+03
     -5.131  0.2416E+03  0.1673E+03
     -5.026  0.3303E+03  0.2021E+03
     -4.921  0.3547E+03  0.2395E+03
     -4.815  0.3058E+03  0.2718E+03
     -4.710  0.3217E+03  0.3057E+03
     -4.605  0.4025E+03  0.3481E+03
     -4.499  0.4190E+03  0.3922E+03
     -4.394  0.4312E+03  0.4377E+03
     -4.288  0.5292E+03  0.4934E+03
     -4.183  0.5130E+03  0.5475E+03
     -4.078  0.2669E+03  0.5756E+03
     -3.972  0.5168E+02  0.5811E+03
     -3.867  0.1310E+02  0.5825E+03
     -3.761  0.2800E+02  0.5854E+03
     -3.656  0.1953E+02  0.5875E+03
     -3.551  0.1461E+02  0.5890E+03
     -3.445  0.2319E+02  0.5914E+03
     -3.340  0.1811E+02  0.5934E+03
     -3.235  0.2113E+01  0.5936E+03
     -3.129  0.1438E+02  0.5951E+03
     -3.024  0.5423E+02  0.6008E+03
     -2.918  0.5821E+02  0.6069E+03
     -2.813  0.2466E+02  0.6095E+03
     -2.708  0.3594E+01  0.6099E+03
     -2.602  0.7282E+01  0.6107E+03
     -2.497  0.2014E+02  0.6128E+03
     -2.391  0.2118E+02  0.6150E+03
     -2.286  0.1619E+02  0.6167E+03
     -2.181  0.2154E+02  0.6190E+03
     -2.075  0.3570E+02  0.6228E+03
     -1.970  0.4241E+02  0.6272E+03
     -1.865  0.3963E+02  0.6314E+03
     -1.759  0.3545E+02  0.6352E+03
     -1.654  0.3682E+02  0.6390E+03
     -1.548  0.3452E+02  0.6427E+03
     -1.443  0.2374E+02  0.6452E+03
     -1.338  0.1970E+02  0.6473E+03
     -1.232  0.1900E+02  0.6493E+03
     -1.127  0.2103E+02  0.6515E+03
     -1.021  0.4483E+02  0.6562E+03
     -0.916  0.6849E+02  0.6634E+03
     -0.811  0.5065E+02  0.6688E+03
     -0.705  0.1598E+02  0.6704E+03
     -0.600  0.6256E+01  0.6711E+03
     -0.495  0.7167E+01  0.6719E+03
     -0.389  0.2099E+01  0.6721E+03
     -0.284 -0.6388E+00  0.6720E+03
     -0.178 -0.1765E+00  0.6720E+03
     -0.073  0.6727E-01  0.6720E+03
      0.032  0.2375E-01  0.6720E+03
      0.138  0.2604E-02  0.6720E+03
      0.243  0.1311E-03  0.6720E+03
      0.349  0.3351E-05  0.6720E+03
      0.454  0.4547E-07  0.6720E+03
      0.559  0.3352E-09  0.6720E+03
      0.665  0.1363E-11  0.6720E+03
      0.770  0.2107E-14  0.6720E+03
      0.875  0.0000E+00  0.6720E+03
      0.981  0.0000E+00  0.6720E+03
      1.086  0.0000E+00  0.6720E+03
      1.192  0.0000E+00  0.6720E+03
      1.297  0.0000E+00  0.6720E+03
      1.402  0.0000E+00  0.6720E+03
