   57   57    1    1
  0.4736842E+03  0.3000000E-08  0.3000000E-08  0.3000000E-08  0.5000000E-15
  1.000000000000000E-004
  CAR 
 6_Pd100_top_free_z(O)                   
    560      1    336
 
  0.0000000E+00  0.0000000E+00  0.0000000E+00  0.1000000E+01
    1      -29.228404   1.000000
    2      -13.741546   1.000000
    3      -11.527375   1.000000
    4      -11.526928   1.000000
    5       -9.157211   1.000000
    6       -6.619867   1.000000
    7       -6.102258   1.000000
    8       -6.101985   1.000000
    9       -6.095327   1.000000
   10       -5.787779   1.000000
   11       -5.787534   1.000000
   12       -5.786494   1.000000
   13       -5.719847   1.000000
   14       -5.667836   1.000000
   15       -5.659457   1.000000
   16       -5.659349   1.000000
   17       -5.659171   1.000000
   18       -5.596632   1.000000
   19       -5.595564   1.000000
   20       -5.582323   1.000000
   21       -5.570857   1.000000
   22       -5.570804   1.000000
   23       -5.570143   1.000000
   24       -5.525630   1.000000
   25       -5.524140   1.000000
   26       -5.523029   1.000000
   27       -5.521647   1.000000
   28       -5.495249   1.000000
   29       -5.494987   1.000000
   30       -5.493946   1.000000
   31       -5.488590   1.000000
   32       -5.488506   1.000000
   33       -5.488269   1.000000
   34       -5.487444   1.000000
   35       -5.486622   1.000000
   36       -5.452609   1.000000
   37       -5.452538   1.000000
   38       -5.444027   1.000000
   39       -5.443707   1.000000
   40       -5.442499   1.000000
   41       -5.441743   1.000000
   42       -5.441617   1.000000
   43       -5.441415   1.000000
   44       -5.404849   1.000000
   45       -5.403941   1.000000
   46       -5.403601   1.000000
   47       -5.403466   1.000000
   48       -5.401376   1.000000
   49       -5.397431   1.000000
   50       -5.396526   1.000000
   51       -5.395969   1.000000
   52       -5.382064   1.000000
   53       -5.380423   1.000000
   54       -5.380196   1.000000
   55       -5.365369   1.000000
   56       -5.303581   1.000000
   57       -5.302215   1.000000
   58       -5.301537   1.000000
   59       -5.301104   1.000000
   60       -5.290850   1.000000
   61       -5.290652   1.000000
   62       -5.290492   1.000000
   63       -5.276343   1.000000
   64       -5.275515   1.000000
   65       -5.273996   1.000000
   66       -5.261918   1.000000
   67       -5.261447   1.000000
   68       -5.190535   1.000000
   69       -5.181730   1.000000
   70       -5.180067   1.000000
   71       -5.179142   1.000000
   72       -5.155018   1.000000
   73       -5.154468   1.000000
   74       -5.153821   1.000000
   75       -5.152135   1.000000
   76       -5.149127   1.000000
   77       -5.137149   1.000000
   78       -5.136741   1.000000
   79       -5.135879   1.000000
   80       -5.121587   1.000000
   81       -5.099925   1.000000
   82       -5.098260   1.000000
   83       -5.098026   1.000000
   84       -5.087546   1.000000
   85       -5.077621   1.000000
   86       -5.077229   1.000000
   87       -5.076778   1.000000
   88       -5.034416   1.000000
   89       -5.032925   1.000000
   90       -5.029665   1.000000
   91       -5.029334   1.000000
   92       -5.029006   1.000000
   93       -5.025650   1.000000
   94       -5.022611   1.000000
   95       -5.022499   1.000000
   96       -5.010001   1.000000
   97       -5.007989   1.000000
   98       -5.002261   1.000000
   99       -4.992375   1.000000
  100       -4.991719   1.000000
  101       -4.979392   1.000000
  102       -4.979325   1.000000
  103       -4.979139   1.000000
  104       -4.967187   1.000000
  105       -4.966496   1.000000
  106       -4.965238   1.000000
  107       -4.954093   1.000000
  108       -4.953996   1.000000
  109       -4.953816   1.000000
  110       -4.944450   1.000000
  111       -4.942740   1.000000
  112       -4.935602   1.000000
  113       -4.933922   0.999999
  114       -4.928585   0.999999
  115       -4.926903   0.999999
  116       -4.926628   0.999999
  117       -4.913236   0.999999
  118       -4.892059   0.999998
  119       -4.891642   0.999998
  120       -4.891392   0.999998
  121       -4.879891   0.999997
  122       -4.878147   0.999996
  123       -4.877480   0.999996
  124       -4.875870   0.999996
  125       -4.875621   0.999996
  126       -4.875261   0.999996
  127       -4.822438   0.999979
  128       -4.818539   0.999977
  129       -4.817459   0.999976
  130       -4.816633   0.999975
  131       -4.815668   0.999975
  132       -4.815349   0.999975
  133       -4.804924   0.999966
  134       -4.804770   0.999965
  135       -4.804055   0.999965
  136       -4.771283   0.999913
  137       -4.767707   0.999904
  138       -4.765401   0.999898
  139       -4.765278   0.999898
  140       -4.749398   0.999847
  141       -4.744765   0.999828
  142       -4.736093   0.999787
  143       -4.711349   0.999621
  144       -4.711286   0.999621
  145       -4.711071   0.999619
  146       -4.701206   0.999526
  147       -4.698932   0.999502
  148       -4.680756   0.999272
  149       -4.668177   0.999067
  150       -4.665921   0.999026
  151       -4.663026   0.998971
  152       -4.656798   0.998845
  153       -4.649180   0.998676
  154       -4.647900   0.998646
  155       -4.647249   0.998630
  156       -4.647094   0.998626
  157       -4.646406   0.998610
  158       -4.646353   0.998609
  159       -4.632877   0.998255
  160       -4.625288   0.998032
  161       -4.624837   0.998018
  162       -4.623625   0.997980
  163       -4.621455   0.997913
  164       -4.620864   0.997894
  165       -4.619552   0.997852
  166       -4.619461   0.997849
  167       -4.616342   0.997747
  168       -4.614930   0.997701
  169       -4.603943   0.997321
  170       -4.602016   0.997251
  171       -4.579706   0.996421
  172       -4.574457   0.996226
  173       -4.571413   0.996115
  174       -4.571304   0.996111
  175       -4.569647   0.996051
  176       -4.567665   0.995981
  177       -4.567384   0.995971
  178       -4.562755   0.995811
  179       -4.556661   0.995615
  180       -4.555482   0.995579
  181       -4.547399   0.995357
  182       -4.526621   0.995065
  183       -4.526082   0.995065
  184       -4.525893   0.995065
  185       -4.525496   0.995065
  186       -4.525312   0.995065
  187       -4.525148   0.995065
  188       -4.524698   0.995066
  189       -4.522477   0.995074
  190       -4.522410   0.995074
  191       -4.481254   0.997194
  192       -4.479161   0.997431
  193       -4.478380   0.997524
  194       -4.478050   0.997564
  195       -4.477284   0.997657
  196       -4.464996   0.999463
  197       -4.454776   1.001429
  198       -4.454532   1.001482
  199       -4.452210   1.001993
  200       -4.442252   1.004460
  201       -4.441700   1.004610
  202       -4.432474   1.007322
  203       -4.430336   1.008006
  204       -4.430167   1.008061
  205       -4.421659   1.010991
  206       -4.421270   1.011133
  207       -4.421054   1.011212
  208       -4.418017   1.012342
  209       -4.417468   1.012551
  210       -4.413523   1.014085
  211       -4.398401   1.020503
  212       -4.383586   1.027405
  213       -4.382874   1.027746
  214       -4.382455   1.027946
  215       -4.381952   1.028188
  216       -4.378362   1.029914
  217       -4.374970   1.031548
  218       -4.374518   1.031765
  219       -4.373749   1.032135
  220       -4.344736   1.044999
  221       -4.342943   1.045658
  222       -4.336830   1.047705
  223       -4.314032   1.051623
  224       -4.313012   1.051622
  225       -4.311538   1.051590
  226       -4.311191   1.051577
  227       -4.310421   1.051540
  228       -4.309507   1.051482
  229       -4.309038   1.051446
  230       -4.307179   1.051264
  231       -4.303105   1.050629
  232       -4.301602   1.050309
  233       -4.298049   1.049362
  234       -4.297127   1.049070
  235       -4.294966   1.048310
  236       -4.294792   1.048245
  237       -4.294665   1.048196
  238       -4.291925   1.047055
  239       -4.290502   1.046391
  240       -4.290371   1.046327
  241       -4.275882   1.036462
  242       -4.273475   1.034244
  243       -4.261897   1.021045
  244       -4.261142   1.020032
  245       -4.257312   1.014596
  246       -4.257201   1.014430
  247       -4.257070   1.014235
  248       -4.256549   1.013452
  249       -4.250997   1.004515
  250       -4.242365   0.988401
  251       -4.236048   0.974846
  252       -4.229574   0.959371
  253       -4.228133   0.955708
  254       -4.227336   0.953646
  255       -4.222637   0.940994
  256       -4.221803   0.938659
  257       -4.221516   0.937849
  258       -4.217493   0.926162
  259       -4.216482   0.923125
  260       -4.216452   0.923036
  261       -4.210817   0.905389
  262       -4.209842   0.902211
  263       -4.209710   0.901777
  264       -4.209503   0.901099
  265       -4.206369   0.890603
  266       -4.194957   0.849309
  267       -4.194595   0.847921
  268       -4.190940   0.833661
  269       -4.190676   0.832614
  270       -4.190021   0.830004
  271       -4.188110   0.822307
  272       -4.187560   0.820067
  273       -4.165272   0.721525
  274       -4.164308   0.716952
  275       -4.163721   0.714158
  276       -4.152906   0.661292
  277       -4.152605   0.659787
  278       -4.149200   0.642647
  279       -4.142236   0.607031
  280       -4.141950   0.605554
  281       -4.141518   0.603319
  282       -4.127817   0.531613
  283       -4.101304   0.392283
  284       -4.101200   0.391749
  285       -4.100555   0.388422
  286       -4.097792   0.374242
  287       -4.085088   0.310640
  288       -4.083262   0.301753
  289       -4.078101   0.277056
  290       -3.943115  -0.050059
  291       -3.870913  -0.032610
  292       -3.792265  -0.002176
  293       -3.791036  -0.001897
  294       -3.789625  -0.001586
  295       -3.465060   0.000072
  296       -3.464141   0.000070
  297       -3.424063   0.000022
  298       -3.028427   0.000000
  299       -3.028030   0.000000
  300       -3.000825   0.000000
  301       -2.988096   0.000000
  302       -2.986911   0.000000
  303       -2.985737   0.000000
  304       -2.904103   0.000000
  305       -2.869642   0.000000
  306       -2.528615   0.000000
  307       -2.519757   0.000000
  308       -2.491960   0.000000
  309       -2.278429   0.000000
  310       -2.094062   0.000000
  311       -2.093590   0.000000
  312       -2.091858   0.000000
  313       -1.932628   0.000000
  314       -1.923176   0.000000
  315       -1.896251   0.000000
  316       -1.856458   0.000000
  317       -1.823138   0.000000
  318       -1.764136   0.000000
  319       -1.750137   0.000000
  320       -1.703875   0.000000
  321       -1.617922   0.000000
  322       -1.536957   0.000000
  323       -1.524009   0.000000
  324       -1.508641   0.000000
  325       -1.486184   0.000000
  326       -1.161978   0.000000
  327       -1.156879   0.000000
  328       -1.088873   0.000000
  329       -0.964667   0.000000
  330       -0.960630   0.000000
  331       -0.950296   0.000000
  332       -0.914557   0.000000
  333       -0.905924   0.000000
  334       -0.822529   0.000000
  335       -0.787522   0.000000
  336       -0.724353   0.000000
