<?xml version="1.0" encoding="ISO-8859-1"?>
<modeling>
 <generator>
  <i name="program" type="string">vasp </i>
  <i name="version" type="string">5.4.4.18Apr17-6-g9f103f2a35  </i>
  <i name="subversion" type="string">(build Sep 03 2018 23:53:05) complex            parallel </i>
  <i name="platform" type="string">LinuxIFC </i>
  <i name="date" type="string">2021 12 02 </i>
  <i name="time" type="string">11:54:55 </i>
 </generator>
 <incar>
  <i type="string" name="SYSTEM"> 6_Pd100_top_free_z(O)</i>
  <i type="int" name="ISTART">     0</i>
  <i type="string" name="PREC">normal   			! encut=max(enmax), ngx,y,z</i>
  <i type="string" name="ALGO"> Fast     			! Mix RMM-DIIS and Dav</i>
  <i type="logical" name="ADDGRID"> F  </i>
  <i type="int" name="ISPIN">     1</i>
  <i type="int" name="ICHARG">     2</i>
  <i type="int" name="NELM">   100</i>
  <i type="int" name="NELMIN">     6</i>
  <i type="int" name="IBRION">     2</i>
  <i name="EDIFF">      0.00010000</i>
  <i name="EDIFFG">     -0.05000000</i>
  <i type="int" name="NSW">     0</i>
  <i type="int" name="ISIF">     2</i>
  <i type="int" name="ISYM">     2</i>
  <i name="ENCUT">    400.00000000</i>
  <i type="string" name="LREAL"> Auto     			! Auto or A projection done</i>
  <i type="int" name="ISMEAR">     2</i>
  <i name="SIGMA">      0.20000000</i>
  <i type="logical" name="LWAVE"> F  </i>
  <i type="logical" name="LCHARG"> F  </i>
  <v type="int" name="KPOINT_BSE">    -1     0     0     0</v>
  <i type="int" name="MAXMEM"> 10000</i>
  <i type="int" name="NELM">   100</i>
  <i type="string" name="GGA"> RP         			! Revised PBE</i>
 </incar>
 <structure name="primitive_cell" >
  <crystal>
   <varray name="basis" >
    <v>      30.00000000       0.00000000       0.00000000 </v>
    <v>       0.00000000      30.00000000       0.00000000 </v>
    <v>       0.00000000       0.00000000      30.00000000 </v>
   </varray>
   <i name="volume">  27000.00000000 </i>
   <varray name="rec_basis" >
    <v>       0.03333333       0.00000000       0.00000000 </v>
    <v>       0.00000000       0.03333333       0.00000000 </v>
    <v>       0.00000000       0.00000000       0.03333333 </v>
   </varray>
  </crystal>
  <varray name="positions" >
   <v>       0.44576020       0.32826710       0.41691983 </v>
   <v>      -0.44576020       0.32826710       0.41691983 </v>
   <v>      -0.50000000       0.38250690       0.34021317 </v>
   <v>      -0.50000000       0.27609440      -0.50000000 </v>
   <v>       0.38804720       0.38804720       0.34167483 </v>
   <v>      -0.50000000       0.38416601      -0.50000000 </v>
   <v>       0.44208300       0.44208300       0.41809300 </v>
   <v>       0.38317830       0.38317830      -0.50000000 </v>
   <v>      -0.44208300       0.44208300       0.41809300 </v>
   <v>       0.44576020       0.32826710      -0.41691977 </v>
   <v>       0.32826705       0.44576024       0.41691983 </v>
   <v>      -0.38804720       0.38804720       0.34167483 </v>
   <v>      -0.38317830       0.38317830      -0.50000000 </v>
   <v>      -0.50000000      -0.50000000       0.33478917 </v>
   <v>      -0.50000000      -0.50000000      -0.50000000 </v>
   <v>      -0.44576020       0.32826710      -0.41691977 </v>
   <v>       0.38250685      -0.49999995       0.34021317 </v>
   <v>       0.44208300       0.44208300      -0.41809297 </v>
   <v>       0.38416599      -0.49999998      -0.50000000 </v>
   <v>      -0.44208300       0.44208300      -0.41809297 </v>
   <v>       0.44208298      -0.44208298       0.41809300 </v>
   <v>       0.32826705       0.44576024      -0.41691977 </v>
   <v>      -0.50000000       0.38250690      -0.34021320 </v>
   <v>       0.32826712      -0.44576022       0.41691983 </v>
   <v>      -0.38250685      -0.49999995       0.34021317 </v>
   <v>      -0.32826705       0.44576024       0.41691983 </v>
   <v>       0.27609443       0.49999998      -0.50000000 </v>
   <v>       0.38804720       0.38804720      -0.34167487 </v>
   <v>      -0.38416599      -0.49999998      -0.50000000 </v>
   <v>      -0.44208298      -0.44208298       0.41809300 </v>
   <v>       0.44208298      -0.44208298      -0.41809297 </v>
   <v>      -0.38804720       0.38804720      -0.34167487 </v>
   <v>       0.38804722      -0.38804722       0.34167483 </v>
   <v>       0.38250685      -0.49999995      -0.34021320 </v>
   <v>       0.32826712      -0.44576022      -0.41691977 </v>
   <v>      -0.32826705       0.44576024      -0.41691977 </v>
   <v>       0.50000000      -0.38250681       0.34021317 </v>
   <v>      -0.50000000      -0.38416596      -0.50000000 </v>
   <v>      -0.44208298      -0.44208298      -0.41809297 </v>
   <v>      -0.50000000      -0.50000000      -0.33478913 </v>
   <v>       0.38317828      -0.38317828      -0.50000000 </v>
   <v>      -0.32826712      -0.44576022       0.41691983 </v>
   <v>      -0.27609443       0.49999998      -0.50000000 </v>
   <v>      -0.38804722      -0.38804722       0.34167483 </v>
   <v>      -0.38250685      -0.49999995      -0.34021320 </v>
   <v>       0.44576027      -0.32826707       0.41691983 </v>
   <v>      -0.38317828      -0.38317828      -0.50000000 </v>
   <v>      -0.32826712      -0.44576022      -0.41691977 </v>
   <v>      -0.44576027      -0.32826707       0.41691983 </v>
   <v>       0.38804722      -0.38804722      -0.34167487 </v>
   <v>      -0.50000000      -0.38250681      -0.34021320 </v>
   <v>       0.44576027      -0.32826707      -0.41691977 </v>
   <v>      -0.44576027      -0.32826707      -0.41691977 </v>
   <v>      -0.35507797       0.49673413      -0.27854567 </v>
   <v>      -0.50000000      -0.27609445       0.50000000 </v>
   <v>      -0.38804722      -0.38804722      -0.34167487 </v>
   <v>      -0.33449050       0.49627017      -0.24708617 </v>
  </varray>
 </structure>
 <varray name="primitive_index" >
  <v type="int" >        1 </v>
  <v type="int" >        3 </v>
  <v type="int" >        5 </v>
  <v type="int" >        7 </v>
  <v type="int" >       15 </v>
  <v type="int" >       29 </v>
  <v type="int" >       28 </v>
  <v type="int" >       34 </v>
  <v type="int" >       21 </v>
  <v type="int" >       19 </v>
  <v type="int" >       22 </v>
  <v type="int" >       11 </v>
  <v type="int" >       36 </v>
  <v type="int" >       38 </v>
  <v type="int" >       52 </v>
  <v type="int" >       24 </v>
  <v type="int" >       32 </v>
  <v type="int" >       44 </v>
  <v type="int" >       48 </v>
  <v type="int" >       42 </v>
  <v type="int" >       43 </v>
  <v type="int" >       40 </v>
  <v type="int" >        6 </v>
  <v type="int" >        4 </v>
  <v type="int" >       30 </v>
  <v type="int" >       26 </v>
  <v type="int" >        8 </v>
  <v type="int" >       16 </v>
  <v type="int" >       49 </v>
  <v type="int" >       47 </v>
  <v type="int" >       53 </v>
  <v type="int" >       12 </v>
  <v type="int" >       13 </v>
  <v type="int" >       33 </v>
  <v type="int" >       25 </v>
  <v type="int" >       45 </v>
  <v type="int" >       50 </v>
  <v type="int" >       55 </v>
  <v type="int" >       54 </v>
  <v type="int" >       39 </v>
  <v type="int" >       37 </v>
  <v type="int" >        2 </v>
  <v type="int" >        9 </v>
  <v type="int" >       17 </v>
  <v type="int" >       31 </v>
  <v type="int" >       27 </v>
  <v type="int" >       35 </v>
  <v type="int" >       20 </v>
  <v type="int" >       23 </v>
  <v type="int" >       14 </v>
  <v type="int" >       51 </v>
  <v type="int" >       46 </v>
  <v type="int" >       41 </v>
  <v type="int" >       56 </v>
  <v type="int" >       10 </v>
  <v type="int" >       18 </v>
  <v type="int" >       57 </v>
 </varray>
 <kpoints>
  <generation param="Monkhorst-Pack">
   <v type="int" name="divisions">       1        1        1 </v>
   <v name="usershift">      0.00000000       0.00000000       0.00000000 </v>
   <v name="genvec1">      1.00000000       0.00000000       0.00000000 </v>
   <v name="genvec2">      0.00000000       1.00000000       0.00000000 </v>
   <v name="genvec3">      0.00000000       0.00000000       1.00000000 </v>
   <v name="shift">      0.00000000       0.00000000       0.00000000 </v>
  </generation>
  <varray name="kpointlist" >
   <v>       0.00000000       0.00000000       0.00000000 </v>
  </varray>
  <varray name="weights" >
   <v>       1.00000000 </v>
  </varray>
 </kpoints>
 <parameters>
  <separator name="general" >
   <i type="string" name="SYSTEM">6_Pd100_top_free_z(O)</i>
   <i type="logical" name="LCOMPAT"> F  </i>
  </separator>
  <separator name="electronic" >
   <i type="string" name="PREC">normal</i>
   <i name="ENMAX">    400.00000000</i>
   <i name="ENAUG">    644.87300000</i>
   <i name="EDIFF">      0.00010000</i>
   <i type="int" name="IALGO">    68</i>
   <i type="int" name="IWAVPR">    10</i>
   <i type="int" name="NBANDS">   336</i>
   <i name="NELECT">    560.00000000</i>
   <i type="int" name="TURBO">     0</i>
   <i type="int" name="IRESTART">     0</i>
   <i type="int" name="NREBOOT">     0</i>
   <i type="int" name="NMIN">     0</i>
   <i name="EREF">      0.00000000</i>
   <separator name="electronic smearing" >
    <i type="int" name="ISMEAR">     2</i>
    <i name="SIGMA">      0.20000000</i>
    <i name="KSPACING">      0.50000000</i>
    <i type="logical" name="KGAMMA"> T  </i>
   </separator>
   <separator name="electronic projectors" >
    <i type="logical" name="LREAL"> T  </i>
    <v name="ROPT">     -0.00050000     -0.00050000     -0.00050000</v>
    <i type="int" name="LMAXPAW">  -100</i>
    <i type="int" name="LMAXMIX">     2</i>
    <i type="logical" name="NLSPLINE"> F  </i>
   </separator>
   <separator name="electronic startup" >
    <i type="int" name="ISTART">     0</i>
    <i type="int" name="ICHARG">     2</i>
    <i type="int" name="INIWAV">     1</i>
   </separator>
   <separator name="electronic spin" >
    <i type="int" name="ISPIN">     1</i>
    <i type="logical" name="LNONCOLLINEAR"> F  </i>
    <v name="MAGMOM">      1.00000000      1.00000000      1.00000000      1.00000000      1.00000000      1.00000000      1.00000000      1.00000000      1.00000000      1.00000000      1.00000000      1.00000000      1.00000000      1.00000000      1.00000000      1.00000000      1.00000000      1.00000000      1.00000000      1.00000000
      1.00000000      1.00000000      1.00000000      1.00000000      1.00000000      1.00000000      1.00000000      1.00000000      1.00000000      1.00000000      1.00000000      1.00000000      1.00000000      1.00000000      1.00000000      1.00000000      1.00000000      1.00000000      1.00000000      1.00000000
      1.00000000      1.00000000      1.00000000      1.00000000      1.00000000      1.00000000      1.00000000      1.00000000      1.00000000      1.00000000      1.00000000      1.00000000      1.00000000      1.00000000      1.00000000      1.00000000      1.00000000</v>
    <i name="NUPDOWN">     -1.00000000</i>
    <i type="logical" name="LSORBIT"> F  </i>
    <v name="SAXIS">      0.00000000      0.00000000      1.00000000</v>
    <i type="logical" name="LSPIRAL"> F  </i>
    <v name="QSPIRAL">      0.00000000      0.00000000      0.00000000</v>
    <i type="logical" name="LZEROZ"> F  </i>
   </separator>
   <separator name="electronic exchange-correlation" >
    <i type="logical" name="LASPH"> F  </i>
    <i type="logical" name="LMETAGGA"> F  </i>
   </separator>
   <separator name="electronic convergence" >
    <i type="int" name="NELM">   100</i>
    <i type="int" name="NELMDL">    -5</i>
    <i type="int" name="NELMIN">     6</i>
    <i name="ENINI">    400.00000000</i>
    <separator name="electronic convergence detail" >
     <i type="logical" name="LDIAG"> T  </i>
     <i type="logical" name="LSUBROT"> F  </i>
     <i name="WEIMIN">      0.00000000</i>
     <i name="EBREAK">      0.00000007</i>
     <i name="DEPER">      0.30000000</i>
     <i type="int" name="NRMM">     4</i>
     <i name="TIME">      0.40000000</i>
    </separator>
   </separator>
   <separator name="electronic mixer" >
    <i name="AMIX">      0.40000000</i>
    <i name="BMIX">      1.00000000</i>
    <i name="AMIN">      0.10000000</i>
    <i name="AMIX_MAG">      1.60000000</i>
    <i name="BMIX_MAG">      1.00000000</i>
    <separator name="electronic mixer details" >
     <i type="int" name="IMIX">     4</i>
     <i type="logical" name="MIXFIRST"> F  </i>
     <i type="int" name="MAXMIX">   -45</i>
     <i name="WC">    100.00000000</i>
     <i type="int" name="INIMIX">     1</i>
     <i type="int" name="MIXPRE">     1</i>
     <i type="int" name="MREMOVE">     5</i>
    </separator>
   </separator>
   <separator name="electronic dipolcorrection" >
    <i type="logical" name="LDIPOL"> F  </i>
    <i type="logical" name="LMONO"> F  </i>
    <i type="int" name="IDIPOL">     0</i>
    <i name="EPSILON">      1.00000000</i>
    <v name="DIPOL">   -100.00000000   -100.00000000   -100.00000000</v>
    <i name="EFIELD">      0.00000000</i>
   </separator>
  </separator>
  <separator name="grids" >
   <i type="int" name="NGX">   150</i>
   <i type="int" name="NGY">   150</i>
   <i type="int" name="NGZ">   150</i>
   <i type="int" name="NGXF">   300</i>
   <i type="int" name="NGYF">   300</i>
   <i type="int" name="NGZF">   300</i>
   <i type="logical" name="ADDGRID"> F  </i>
  </separator>
  <separator name="ionic" >
   <i type="int" name="NSW">     0</i>
   <i type="int" name="IBRION">    -1</i>
   <i type="int" name="MDALGO">     0</i>
   <i type="int" name="ISIF">     2</i>
   <i name="PSTRESS">      0.00000000</i>
   <i name="EDIFFG">     -0.05000000</i>
   <i type="int" name="NFREE">     1</i>
   <i name="POTIM">      0.50000000</i>
   <i name="SMASS">     -3.00000000</i>
   <i name="SCALEE">      1.00000000</i>
  </separator>
  <separator name="ionic md" >
   <i name="TEBEG">      0.00010000</i>
   <i name="TEEND">      0.00010000</i>
   <i type="int" name="NBLOCK">     1</i>
   <i type="int" name="KBLOCK">     1</i>
   <i type="int" name="NPACO">   256</i>
   <i name="APACO">     16.00000000</i>
  </separator>
  <separator name="symmetry" >
   <i type="int" name="ISYM">     2</i>
   <i name="SYMPREC">      0.00001000</i>
  </separator>
  <separator name="dos" >
   <i type="int" name="LORBIT">     0</i>
   <v name="RWIGS">     -1.00000000     -1.00000000     -1.00000000</v>
   <i type="int" name="NEDOS">   301</i>
   <i name="EMIN">     10.00000000</i>
   <i name="EMAX">    -10.00000000</i>
   <i name="EFERMI">      0.00000000</i>
  </separator>
  <separator name="writing" >
   <i type="int" name="NWRITE">     2</i>
   <i type="logical" name="LWAVE"> F  </i>
   <i type="logical" name="LDOWNSAMPLE"> F  </i>
   <i type="logical" name="LCHARG"> F  </i>
   <i type="logical" name="LPARD"> F  </i>
   <i type="logical" name="LVTOT"> F  </i>
   <i type="logical" name="LVHAR"> F  </i>
   <i type="logical" name="LELF"> F  </i>
   <i type="logical" name="LOPTICS"> F  </i>
   <v name="STM">      0.00000000      0.00000000      0.00000000      0.00000000      0.00000000      0.00000000      0.00000000</v>
  </separator>
  <separator name="performance" >
   <i type="int" name="NPAR">     1</i>
   <i type="int" name="NSIM">     4</i>
   <i type="int" name="NBLK">    -1</i>
   <i type="logical" name="LPLANE"> T  </i>
   <i type="logical" name="LSCALAPACK"> T  </i>
   <i type="logical" name="LSCAAWARE"> F  </i>
   <i type="logical" name="LSCALU"> F  </i>
   <i type="logical" name="LASYNC"> F  </i>
   <i type="logical" name="LORBITALREAL"> F  </i>
  </separator>
  <separator name="miscellaneous" >
   <i type="int" name="IDIOT">     3</i>
   <i type="int" name="ISPECIAL">     0</i>
   <i type="logical" name="LMUSIC"> F  </i>
   <v name="POMASS">    106.42000000     12.01100000     16.00000000</v>
   <v name="DARWINR">      0.00000000      0.00000000      0.00000000</v>
   <v name="DARWINV">      1.00000000      1.00000000      1.00000000</v>
   <i type="logical" name="LCORR"> T  </i>
  </separator>
  <i type="logical" name="GGA_COMPAT"> T  </i>
  <i type="logical" name="LBERRY"> F  </i>
  <i type="int" name="ICORELEVEL">     0</i>
  <i type="logical" name="LDAU"> F  </i>
  <i type="int" name="I_CONSTRAINED_M">     0</i>
  <separator name="electronic exchange-correlation" >
   <i type="string" name="GGA">RP</i>
   <i type="int" name="VOSKOWN">     0</i>
   <i type="logical" name="LHFCALC"> F  </i>
   <i type="string" name="PRECFOCK"></i>
   <i type="logical" name="LSYMGRAD"> F  </i>
   <i type="logical" name="LHFONE"> F  </i>
   <i type="logical" name="LRHFCALC"> F  </i>
   <i type="logical" name="LTHOMAS"> F  </i>
   <i type="logical" name="LMODELHF"> F  </i>
   <i name="ENCUT4O">     -1.00000000</i>
   <i type="int" name="EXXOEP">     0</i>
   <i type="int" name="FOURORBIT">     0</i>
   <i name="AEXX">      0.00000000</i>
   <i name="HFALPHA">      0.00000000</i>
   <i name="MCALPHA">      0.00000000</i>
   <i name="ALDAX">      1.00000000</i>
   <i name="AGGAX">      1.00000000</i>
   <i name="ALDAC">      1.00000000</i>
   <i name="AGGAC">      1.00000000</i>
   <i type="int" name="NKREDX">     1</i>
   <i type="int" name="NKREDY">     1</i>
   <i type="int" name="NKREDZ">     1</i>
   <i type="logical" name="SHIFTRED"> F  </i>
   <i type="logical" name="ODDONLY"> F  </i>
   <i type="logical" name="EVENONLY"> F  </i>
   <i type="int" name="LMAXFOCK">     0</i>
   <i type="int" name="NMAXFOCKAE">     0</i>
   <i type="logical" name="LFOCKAEDFT"> F  </i>
   <i name="HFSCREEN">      0.00000000</i>
   <i name="HFSCREENC">      0.00000000</i>
   <i type="int" name="NBANDSGWLOW">     0</i>
  </separator>
  <separator name="vdW DFT" >
   <i type="logical" name="LUSE_VDW"> F  </i>
   <i name="Zab_VDW">     -0.84910000</i>
   <i name="PARAM1">      0.12340000</i>
   <i name="PARAM2">      1.00000000</i>
   <i name="PARAM3">      0.00000000</i>
  </separator>
  <separator name="model GW" >
   <i type="int" name="MODEL_GW">     0</i>
   <i name="MODEL_EPS0">    284.21052632</i>
   <i name="MODEL_ALPHA">      1.00000000</i>
  </separator>
  <separator name="linear response parameters" >
   <i type="logical" name="LEPSILON"> F  </i>
   <i type="logical" name="LRPA"> F  </i>
   <i type="logical" name="LNABLA"> F  </i>
   <i type="logical" name="LVEL"> F  </i>
   <i type="int" name="KINTER">     0</i>
   <i name="CSHIFT">      0.10000000</i>
   <i name="OMEGAMAX">     -1.00000000</i>
   <i name="DEG_THRESHOLD">      0.00200000</i>
   <i name="RTIME">     -0.10000000</i>
   <i name="WPLASMAI">      0.00000000</i>
   <v name="DFIELD">      0.00000000      0.00000000      0.00000000</v>
   <v name="WPLASMA">      0.00000000      0.00000000      0.00000000      0.00000000      0.00000000      0.00000000      0.00000000      0.00000000      0.00000000</v>
  </separator>
  <separator name="orbital magnetization" >
   <i type="logical" name="NUCIND"> F  </i>
   <v name="MAGPOS">      0.00000000      0.00000000      0.00000000</v>
   <i type="logical" name="LNICSALL"> T  </i>
   <i type="logical" name="ORBITALMAG"> F  </i>
   <i type="logical" name="LMAGBLOCH"> F  </i>
   <i type="logical" name="LCHIMAG"> F  </i>
   <i type="logical" name="LGAUGE"> T  </i>
   <i type="int" name="MAGATOM">     0</i>
   <v name="MAGDIPOL">      0.00000000      0.00000000      0.00000000</v>
   <v name="AVECCONST">      0.00000000      0.00000000      0.00000000</v>
  </separator>
  <separator name="response functions" >
   <i type="logical" name="LADDER"> F  </i>
   <i type="logical" name="LRPAFORCE"> F  </i>
   <i type="logical" name="LFXC"> F  </i>
   <i type="logical" name="LHARTREE"> T  </i>
   <i type="int" name="IBSE">     0</i>
   <v type="int" name="KPOINT">    -1     0     0     0</v>
   <i type="logical" name="LTCTE"> F  </i>
   <i type="logical" name="LTETE"> F  </i>
   <i type="logical" name="LTRIPLET"> F  </i>
   <i type="logical" name="LFXCEPS"> F  </i>
   <i type="logical" name="LFXHEG"> F  </i>
   <i type="int" name="NATURALO">     2</i>
   <i type="logical" name="L2ORDER"> F  </i>
   <i type="logical" name="LMP2LT"> F  </i>
   <i type="logical" name="LUSEW"> F  </i>
   <i name="ENCUTGW">     -2.00000000</i>
   <i name="ENCUTGWSOFT">     -2.00000000</i>
   <i name="ENCUTLF">     -1.00000000</i>
   <i type="int" name="LMAXMP2">    -1</i>
   <i name="SCISSOR">      0.00000000</i>
   <i type="int" name="NOMEGA">     0</i>
   <i type="int" name="NOMEGAR">     0</i>
   <i type="int" name="NBANDSGW">    -1</i>
   <i type="int" name="NBANDSO">    -1</i>
   <i type="int" name="NBANDSV">    -1</i>
   <i type="int" name="NELM">   100</i>
   <i type="int" name="NELMHF">     1</i>
   <i type="int" name="DIM">     3</i>
   <i type="int" name="ANTIRES">     0</i>
   <i name="OMEGAMAX">    -30.00000000</i>
   <i name="OMEGAMIN">    -30.00000000</i>
   <i name="OMEGATL">   -200.00000000</i>
   <i type="int" name="OMEGAGRID">   140</i>
   <i name="CSHIFT">     -0.10000000</i>
   <i type="logical" name="SELFENERGY"> F  </i>
   <i type="logical" name="LSPECTRAL"> F  </i>
   <i type="logical" name="LSPECTRALGW"> F  </i>
   <i type="logical" name="LSINGLES"> F  </i>
   <i type="logical" name="LFERMIGW"> F  </i>
   <i type="logical" name="ODDONLYGW"> F  </i>
   <i type="logical" name="EVENONLYGW"> F  </i>
   <i type="int" name="NKREDLFX">     1</i>
   <i type="int" name="NKREDLFY">     1</i>
   <i type="int" name="NKREDLFZ">     1</i>
   <i type="int" name="MAXMEM"> 10000</i>
   <i type="int" name="TELESCOPE">     0</i>
   <i type="int" name="TAUPAR">     1</i>
   <i type="int" name="OMEGAPAR">    -1</i>
   <i name="LAMBDA">      1.00000000</i>
  </separator>
  <separator name="External order field" >
   <i name="OFIELD_KAPPA">      0.00000000</i>
   <v name="OFIELD_K">      0.00000000      0.00000000      0.00000000</v>
   <i name="OFIELD_Q6_NEAR">      0.00000000</i>
   <i name="OFIELD_Q6_FAR">      0.00000000</i>
   <i name="OFIELD_A">      0.00000000</i>
  </separator>
 </parameters>
 <atominfo>
  <atoms>      57 </atoms>
  <types>       3 </types>
  <array name="atoms" >
   <dimension dim="1">ion</dimension>
   <field type="string">element</field>
   <field type="int">atomtype</field>
   <set>
    <rc><c>Pd</c><c>   1</c></rc>
    <rc><c>Pd</c><c>   1</c></rc>
    <rc><c>Pd</c><c>   1</c></rc>
    <rc><c>Pd</c><c>   1</c></rc>
    <rc><c>Pd</c><c>   1</c></rc>
    <rc><c>Pd</c><c>   1</c></rc>
    <rc><c>Pd</c><c>   1</c></rc>
    <rc><c>Pd</c><c>   1</c></rc>
    <rc><c>Pd</c><c>   1</c></rc>
    <rc><c>Pd</c><c>   1</c></rc>
    <rc><c>Pd</c><c>   1</c></rc>
    <rc><c>Pd</c><c>   1</c></rc>
    <rc><c>Pd</c><c>   1</c></rc>
    <rc><c>Pd</c><c>   1</c></rc>
    <rc><c>Pd</c><c>   1</c></rc>
    <rc><c>Pd</c><c>   1</c></rc>
    <rc><c>Pd</c><c>   1</c></rc>
    <rc><c>Pd</c><c>   1</c></rc>
    <rc><c>Pd</c><c>   1</c></rc>
    <rc><c>Pd</c><c>   1</c></rc>
    <rc><c>Pd</c><c>   1</c></rc>
    <rc><c>Pd</c><c>   1</c></rc>
    <rc><c>Pd</c><c>   1</c></rc>
    <rc><c>Pd</c><c>   1</c></rc>
    <rc><c>Pd</c><c>   1</c></rc>
    <rc><c>Pd</c><c>   1</c></rc>
    <rc><c>Pd</c><c>   1</c></rc>
    <rc><c>Pd</c><c>   1</c></rc>
    <rc><c>Pd</c><c>   1</c></rc>
    <rc><c>Pd</c><c>   1</c></rc>
    <rc><c>Pd</c><c>   1</c></rc>
    <rc><c>Pd</c><c>   1</c></rc>
    <rc><c>Pd</c><c>   1</c></rc>
    <rc><c>Pd</c><c>   1</c></rc>
    <rc><c>Pd</c><c>   1</c></rc>
    <rc><c>Pd</c><c>   1</c></rc>
    <rc><c>Pd</c><c>   1</c></rc>
    <rc><c>Pd</c><c>   1</c></rc>
    <rc><c>Pd</c><c>   1</c></rc>
    <rc><c>Pd</c><c>   1</c></rc>
    <rc><c>Pd</c><c>   1</c></rc>
    <rc><c>Pd</c><c>   1</c></rc>
    <rc><c>Pd</c><c>   1</c></rc>
    <rc><c>Pd</c><c>   1</c></rc>
    <rc><c>Pd</c><c>   1</c></rc>
    <rc><c>Pd</c><c>   1</c></rc>
    <rc><c>Pd</c><c>   1</c></rc>
    <rc><c>Pd</c><c>   1</c></rc>
    <rc><c>Pd</c><c>   1</c></rc>
    <rc><c>Pd</c><c>   1</c></rc>
    <rc><c>Pd</c><c>   1</c></rc>
    <rc><c>Pd</c><c>   1</c></rc>
    <rc><c>Pd</c><c>   1</c></rc>
    <rc><c>Pd</c><c>   1</c></rc>
    <rc><c>Pd</c><c>   1</c></rc>
    <rc><c>C </c><c>   2</c></rc>
    <rc><c>O </c><c>   3</c></rc>
   </set>
  </array>
  <array name="atomtypes" >
   <dimension dim="1">type</dimension>
   <field type="int">atomspertype</field>
   <field type="string">element</field>
   <field>mass</field>
   <field>valence</field>
   <field type="string">pseudopotential</field>
   <set>
    <rc><c>  55</c><c>Pd</c><c>    106.42000000</c><c>     10.00000000</c><c>  PAW_PBE Pd 04Jan2005                  </c></rc>
    <rc><c>   1</c><c>C </c><c>     12.01100000</c><c>      4.00000000</c><c>  PAW_PBE C 08Apr2002                   </c></rc>
    <rc><c>   1</c><c>O </c><c>     16.00000000</c><c>      6.00000000</c><c>  PAW_PBE O 08Apr2002                   </c></rc>
   </set>
  </array>
 </atominfo>
 <structure name="initialpos" >
  <crystal>
   <varray name="basis" >
    <v>      30.00000000       0.00000000       0.00000000 </v>
    <v>       0.00000000      30.00000000       0.00000000 </v>
    <v>       0.00000000       0.00000000      30.00000000 </v>
   </varray>
   <i name="volume">  27000.00000000 </i>
   <varray name="rec_basis" >
    <v>       0.03333333       0.00000000       0.00000000 </v>
    <v>       0.00000000       0.03333333       0.00000000 </v>
    <v>       0.00000000       0.00000000       0.03333333 </v>
   </varray>
  </crystal>
  <varray name="positions" >
   <v>       0.44576020       0.32826710       0.41691983 </v>
   <v>       0.67173288       0.55423978       0.41691983 </v>
   <v>       0.55423980       0.32826710       0.41691983 </v>
   <v>       0.32826712       0.55423978       0.41691983 </v>
   <v>       0.50000000       0.38250690       0.34021317 </v>
   <v>       0.50000000       0.38250690       0.65978680 </v>
   <v>       0.50000000       0.27609440       0.50000000 </v>
   <v>       0.27609443       0.49999998       0.50000000 </v>
   <v>       0.72390557       0.49999998       0.50000000 </v>
   <v>       0.50000000       0.72390555       0.50000000 </v>
   <v>       0.61195280       0.38804720       0.34167483 </v>
   <v>       0.61195280       0.38804720       0.65832513 </v>
   <v>       0.38804722       0.61195278       0.34167483 </v>
   <v>       0.38804722       0.61195278       0.65832513 </v>
   <v>       0.38804720       0.38804720       0.34167483 </v>
   <v>       0.38804720       0.38804720       0.65832513 </v>
   <v>       0.61195278       0.61195278       0.34167483 </v>
   <v>       0.61195278       0.61195278       0.65832513 </v>
   <v>       0.44576020       0.32826710       0.58308023 </v>
   <v>       0.67173288       0.55423978       0.58308023 </v>
   <v>       0.55791699       0.44208301       0.41809300 </v>
   <v>       0.32826705       0.44576024       0.41691983 </v>
   <v>       0.55423973       0.67173293       0.41691983 </v>
   <v>       0.55423980       0.32826710       0.58308023 </v>
   <v>       0.32826712       0.55423978       0.58308023 </v>
   <v>       0.67173295       0.44576024       0.41691983 </v>
   <v>       0.44576027       0.67173293       0.41691983 </v>
   <v>       0.44208301       0.44208301       0.41809300 </v>
   <v>       0.50000000       0.38416601       0.50000000 </v>
   <v>       0.61749315       0.50000005       0.34021317 </v>
   <v>       0.61749315       0.50000005       0.65978680 </v>
   <v>       0.38250685       0.50000005       0.34021317 </v>
   <v>       0.38250685       0.50000005       0.65978680 </v>
   <v>       0.38317830       0.38317830       0.50000000 </v>
   <v>       0.61682172       0.61682172       0.50000000 </v>
   <v>       0.61682170       0.38317830       0.50000000 </v>
   <v>       0.38317828       0.61682172       0.50000000 </v>
   <v>       0.50000000       0.50000000       0.33478917 </v>
   <v>       0.50000000       0.50000000       0.66521087 </v>
   <v>       0.32826705       0.44576024       0.58308023 </v>
   <v>       0.55423973       0.67173293       0.58308023 </v>
   <v>       0.55791699       0.44208301       0.58190703 </v>
   <v>       0.44208298       0.55791702       0.41809300 </v>
   <v>       0.44208301       0.44208301       0.58190703 </v>
   <v>       0.67173295       0.44576024       0.58308023 </v>
   <v>       0.44576027       0.67173293       0.58308023 </v>
   <v>       0.55791702       0.55791702       0.41809300 </v>
   <v>       0.38416599       0.50000002       0.50000000 </v>
   <v>       0.61583401       0.50000002       0.50000000 </v>
   <v>       0.50000000       0.61749319       0.34021317 </v>
   <v>       0.50000000       0.61749319       0.65978680 </v>
   <v>       0.50000000       0.50000000       0.50000000 </v>
   <v>       0.44208298       0.55791702       0.58190703 </v>
   <v>       0.55791702       0.55791702       0.58190703 </v>
   <v>       0.50000000       0.61583404       0.50000000 </v>
   <v>       0.64492203       0.49673413       0.72145433 </v>
   <v>       0.66550950       0.49627017       0.75291383 </v>
  </varray>
  <varray name="selective"  type="logical" >
   <v type="logical" >  F  F  F </v>
   <v type="logical" >  F  F  F </v>
   <v type="logical" >  F  F  F </v>
   <v type="logical" >  F  F  F </v>
   <v type="logical" >  F  F  F </v>
   <v type="logical" >  F  F  F </v>
   <v type="logical" >  F  F  F </v>
   <v type="logical" >  F  F  F </v>
   <v type="logical" >  F  F  F </v>
   <v type="logical" >  F  F  F </v>
   <v type="logical" >  F  F  F </v>
   <v type="logical" >  F  F  F </v>
   <v type="logical" >  F  F  F </v>
   <v type="logical" >  F  F  F </v>
   <v type="logical" >  F  F  F </v>
   <v type="logical" >  F  F  F </v>
   <v type="logical" >  F  F  F </v>
   <v type="logical" >  F  F  F </v>
   <v type="logical" >  F  F  F </v>
   <v type="logical" >  F  F  F </v>
   <v type="logical" >  F  F  F </v>
   <v type="logical" >  F  F  F </v>
   <v type="logical" >  F  F  F </v>
   <v type="logical" >  F  F  F </v>
   <v type="logical" >  F  F  F </v>
   <v type="logical" >  F  F  F </v>
   <v type="logical" >  F  F  F </v>
   <v type="logical" >  F  F  F </v>
   <v type="logical" >  F  F  F </v>
   <v type="logical" >  F  F  F </v>
   <v type="logical" >  F  F  F </v>
   <v type="logical" >  F  F  F </v>
   <v type="logical" >  F  F  F </v>
   <v type="logical" >  F  F  F </v>
   <v type="logical" >  F  F  F </v>
   <v type="logical" >  F  F  F </v>
   <v type="logical" >  F  F  F </v>
   <v type="logical" >  F  F  F </v>
   <v type="logical" >  F  F  F </v>
   <v type="logical" >  F  F  F </v>
   <v type="logical" >  F  F  F </v>
   <v type="logical" >  F  F  F </v>
   <v type="logical" >  F  F  F </v>
   <v type="logical" >  F  F  F </v>
   <v type="logical" >  F  F  F </v>
   <v type="logical" >  F  F  F </v>
   <v type="logical" >  F  F  F </v>
   <v type="logical" >  F  F  F </v>
   <v type="logical" >  F  F  F </v>
   <v type="logical" >  F  F  F </v>
   <v type="logical" >  F  F  F </v>
   <v type="logical" >  F  F  F </v>
   <v type="logical" >  F  F  F </v>
   <v type="logical" >  F  F  F </v>
   <v type="logical" >  F  F  F </v>
   <v type="logical" >  F  F  F </v>
   <v type="logical" >  F  F  F </v>
  </varray>
  <nose>
   <v>      -3.00000000       0.00000000       0.00010000       0.00010000 </v>
  </nose>
 </structure>
 <calculation>
  <scstep>
   <time name="dav">  367.61  367.68</time>
   <time name="total">  381.97  382.05</time>
   <energy>
    <i name="alphaZ">     75.25431677 </i>
    <i name="ewald"> 137764.18264908 </i>
    <i name="hartreedc">-181126.86938915 </i>
    <i name="XCdc">  -1703.32079246 </i>
    <i name="pawpsdc">  44873.02882129 </i>
    <i name="pawaedc"> -41398.84523641 </i>
    <i name="eentropy">      0.02426308 </i>
    <i name="bandstr">    816.97989119 </i>
    <i name="atom">  45086.50549395 </i>
    <i name="e_fr_energy">   4386.94001734 </i>
    <i name="e_wo_entrp">   4386.91575426 </i>
    <i name="e_0_energy">   4386.93395157 </i>
   </energy>
  </scstep>
  <scstep>
   <time name="dav">  588.88  588.88</time>
   <time name="total">  588.88  588.88</time>
   <energy>
    <i name="e_fr_energy">   2031.12829893 </i>
    <i name="e_wo_entrp">   2031.22523901 </i>
    <i name="e_0_energy">   2031.15253395 </i>
   </energy>
  </scstep>
  <scstep>
   <time name="dav">  498.32  498.34</time>
   <time name="total">  498.32  498.34</time>
   <energy>
    <i name="e_fr_energy">    241.48014413 </i>
    <i name="e_wo_entrp">    241.45567118 </i>
    <i name="e_0_energy">    241.47402589 </i>
   </energy>
  </scstep>
  <scstep>
   <time name="dav">  429.49  429.51</time>
   <time name="total">  429.50  429.51</time>
   <energy>
    <i name="e_fr_energy">   -133.95826823 </i>
    <i name="e_wo_entrp">   -133.92824239 </i>
    <i name="e_0_energy">   -133.95076177 </i>
   </energy>
  </scstep>
  <scstep>
   <time name="dav">  522.19  522.20</time>
   <time name="total">  548.01  548.03</time>
   <energy>
    <i name="e_fr_energy">   -179.97409066 </i>
    <i name="e_wo_entrp">   -180.49395257 </i>
    <i name="e_0_energy">   -180.10405613 </i>
   </energy>
  </scstep>
  <scstep>
   <time name="diag">   63.53   63.53</time>
   <time name="diis">  196.19  196.21</time>
   <time name="orth">   12.69   12.69</time>
   <time name="total">  310.73  310.75</time>
   <energy>
    <i name="e_fr_energy">   -180.97295461 </i>
    <i name="e_wo_entrp">   -180.70952367 </i>
    <i name="e_0_energy">   -180.90709688 </i>
   </energy>
  </scstep>
  <scstep>
   <time name="diag">   65.17   65.17</time>
   <time name="diis">  224.94  224.94</time>
   <time name="orth">   12.26   12.26</time>
   <time name="total">  340.45  340.46</time>
   <energy>
    <i name="e_fr_energy">   -181.64995505 </i>
    <i name="e_wo_entrp">   -181.59353436 </i>
    <i name="e_0_energy">   -181.63584988 </i>
   </energy>
  </scstep>
  <scstep>
   <time name="diag">   64.25   64.26</time>
   <time name="diis">  206.66  206.67</time>
   <time name="orth">   12.52   12.52</time>
   <time name="total">  321.48  321.50</time>
   <energy>
    <i name="e_fr_energy">   -184.62721774 </i>
    <i name="e_wo_entrp">   -184.49836336 </i>
    <i name="e_0_energy">   -184.59500415 </i>
   </energy>
  </scstep>
  <scstep>
   <time name="diag">   65.95   65.95</time>
   <time name="diis">  200.21  200.22</time>
   <time name="orth">   12.16   12.16</time>
   <time name="total">  315.59  315.60</time>
   <energy>
    <i name="e_fr_energy">   -182.22802422 </i>
    <i name="e_wo_entrp">   -182.06541591 </i>
    <i name="e_0_energy">   -182.18737214 </i>
   </energy>
  </scstep>
  <scstep>
   <time name="diag">   66.36   66.36</time>
   <time name="diis">  191.34  191.34</time>
   <time name="orth">   11.83   11.83</time>
   <time name="total">  305.81  305.81</time>
   <energy>
    <i name="e_fr_energy">   -180.34948849 </i>
    <i name="e_wo_entrp">   -180.32041918 </i>
    <i name="e_0_energy">   -180.34222116 </i>
   </energy>
  </scstep>
  <scstep>
   <time name="diag">   65.93   65.93</time>
   <time name="diis">  191.88  191.90</time>
   <time name="orth">   12.36   12.36</time>
   <time name="total">  308.02  308.05</time>
   <energy>
    <i name="e_fr_energy">   -179.16471642 </i>
    <i name="e_wo_entrp">   -179.12734120 </i>
    <i name="e_0_energy">   -179.15537261 </i>
   </energy>
  </scstep>
  <scstep>
   <time name="diag">   67.26   67.26</time>
   <time name="diis">  184.56  184.57</time>
   <time name="orth">   12.37   12.37</time>
   <time name="total">  302.92  302.93</time>
   <energy>
    <i name="e_fr_energy">   -177.80194869 </i>
    <i name="e_wo_entrp">   -177.72135591 </i>
    <i name="e_0_energy">   -177.78180049 </i>
   </energy>
  </scstep>
  <scstep>
   <time name="diag">   66.32   66.32</time>
   <time name="diis">  185.49  185.49</time>
   <time name="orth">   12.46   12.46</time>
   <time name="total">  303.02  303.02</time>
   <energy>
    <i name="e_fr_energy">   -176.66262772 </i>
    <i name="e_wo_entrp">   -176.57184281 </i>
    <i name="e_0_energy">   -176.63993150 </i>
   </energy>
  </scstep>
  <scstep>
   <time name="diag">   66.16   66.16</time>
   <time name="diis">  185.62  185.62</time>
   <time name="orth">   12.40   12.40</time>
   <time name="total">  302.98  302.98</time>
   <energy>
    <i name="e_fr_energy">   -176.65625850 </i>
    <i name="e_wo_entrp">   -176.61761212 </i>
    <i name="e_0_energy">   -176.64659691 </i>
   </energy>
  </scstep>
  <scstep>
   <time name="diag">   66.61   66.61</time>
   <time name="diis">  185.68  185.68</time>
   <time name="orth">   12.53   12.53</time>
   <time name="total">  303.69  303.69</time>
   <energy>
    <i name="e_fr_energy">   -177.00153114 </i>
    <i name="e_wo_entrp">   -177.02362436 </i>
    <i name="e_0_energy">   -177.00705445 </i>
   </energy>
  </scstep>
  <scstep>
   <time name="diag">   65.87   65.87</time>
   <time name="diis">  186.81  186.81</time>
   <time name="orth">   12.60   12.60</time>
   <time name="total">  304.30  304.30</time>
   <energy>
    <i name="e_fr_energy">   -176.38318718 </i>
    <i name="e_wo_entrp">   -176.33533387 </i>
    <i name="e_0_energy">   -176.37122385 </i>
   </energy>
  </scstep>
  <scstep>
   <time name="diag">   65.75   65.74</time>
   <time name="diis">  180.29  180.28</time>
   <time name="orth">   12.82   12.82</time>
   <time name="total">  297.68  297.68</time>
   <energy>
    <i name="e_fr_energy">   -175.85166668 </i>
    <i name="e_wo_entrp">   -175.79810410 </i>
    <i name="e_0_energy">   -175.83827604 </i>
   </energy>
  </scstep>
  <scstep>
   <time name="diag">   65.43   65.43</time>
   <time name="diis">  181.53  181.53</time>
   <time name="orth">   12.55   12.55</time>
   <time name="total">  297.95  297.95</time>
   <energy>
    <i name="e_fr_energy">   -175.82657135 </i>
    <i name="e_wo_entrp">   -175.78824321 </i>
    <i name="e_0_energy">   -175.81698931 </i>
   </energy>
  </scstep>
  <scstep>
   <time name="diag">   64.76   64.76</time>
   <time name="diis">  181.41  181.41</time>
   <time name="orth">   12.50   12.50</time>
   <time name="total">  298.42  298.42</time>
   <energy>
    <i name="e_fr_energy">   -175.72793283 </i>
    <i name="e_wo_entrp">   -175.72782300 </i>
    <i name="e_0_energy">   -175.72790538 </i>
   </energy>
  </scstep>
  <scstep>
   <time name="diag">   65.75   65.75</time>
   <time name="diis">  184.04  184.04</time>
   <time name="orth">   12.59   12.59</time>
   <time name="total">  301.88  301.88</time>
   <energy>
    <i name="e_fr_energy">   -175.63104039 </i>
    <i name="e_wo_entrp">   -175.63243429 </i>
    <i name="e_0_energy">   -175.63138887 </i>
   </energy>
  </scstep>
  <scstep>
   <time name="diag">   67.67   67.67</time>
   <time name="diis">  183.61  183.61</time>
   <time name="orth">   12.72   12.71</time>
   <time name="total">  303.63  303.63</time>
   <energy>
    <i name="e_fr_energy">   -175.48426144 </i>
    <i name="e_wo_entrp">   -175.41014132 </i>
    <i name="e_0_energy">   -175.46573141 </i>
   </energy>
  </scstep>
  <scstep>
   <time name="diag">   68.42   68.42</time>
   <time name="diis">  185.09  185.09</time>
   <time name="orth">   12.97   12.97</time>
   <time name="total">  306.93  306.93</time>
   <energy>
    <i name="e_fr_energy">   -175.42658127 </i>
    <i name="e_wo_entrp">   -175.33596629 </i>
    <i name="e_0_energy">   -175.40392753 </i>
   </energy>
  </scstep>
  <scstep>
   <time name="diag">   65.56   65.56</time>
   <time name="diis">  185.31  185.31</time>
   <time name="orth">   12.48   12.48</time>
   <time name="total">  302.34  302.34</time>
   <energy>
    <i name="e_fr_energy">   -175.30958618 </i>
    <i name="e_wo_entrp">   -175.22815989 </i>
    <i name="e_0_energy">   -175.28922961 </i>
   </energy>
  </scstep>
  <scstep>
   <time name="diag">   66.05   66.05</time>
   <time name="diis">  184.17  184.18</time>
   <time name="orth">   12.95   12.95</time>
   <time name="total">  303.06  303.07</time>
   <energy>
    <i name="e_fr_energy">   -175.15513985 </i>
    <i name="e_wo_entrp">   -175.03472455 </i>
    <i name="e_0_energy">   -175.12503602 </i>
   </energy>
  </scstep>
  <scstep>
   <time name="diag">   66.61   66.61</time>
   <time name="diis">  182.45  182.45</time>
   <time name="orth">   12.66   12.66</time>
   <time name="total">  301.50  301.50</time>
   <energy>
    <i name="e_fr_energy">   -175.12721133 </i>
    <i name="e_wo_entrp">   -175.02107057 </i>
    <i name="e_0_energy">   -175.10067614 </i>
   </energy>
  </scstep>
  <scstep>
   <time name="diag">   63.92   63.92</time>
   <time name="diis">  173.97  173.97</time>
   <time name="orth">   12.08   12.08</time>
   <time name="total">  288.07  288.08</time>
   <energy>
    <i name="e_fr_energy">   -175.07210327 </i>
    <i name="e_wo_entrp">   -174.97011613 </i>
    <i name="e_0_energy">   -175.04660648 </i>
   </energy>
  </scstep>
  <scstep>
   <time name="diag">   63.49   63.49</time>
   <time name="diis">  171.02  171.02</time>
   <time name="orth">   12.17   12.17</time>
   <time name="total">  285.28  285.28</time>
   <energy>
    <i name="e_fr_energy">   -175.04536558 </i>
    <i name="e_wo_entrp">   -174.94026365 </i>
    <i name="e_0_energy">   -175.01909010 </i>
   </energy>
  </scstep>
  <scstep>
   <time name="diag">   63.07   63.06</time>
   <time name="diis">  171.71  171.71</time>
   <time name="orth">   12.00   12.00</time>
   <time name="total">  284.56  284.57</time>
   <energy>
    <i name="e_fr_energy">   -175.03679229 </i>
    <i name="e_wo_entrp">   -174.92206516 </i>
    <i name="e_0_energy">   -175.00811051 </i>
   </energy>
  </scstep>
  <scstep>
   <time name="diag">   62.23   62.23</time>
   <time name="diis">  163.97  163.97</time>
   <time name="orth">   11.70   11.70</time>
   <time name="total">  274.71  274.71</time>
   <energy>
    <i name="e_fr_energy">   -175.02925811 </i>
    <i name="e_wo_entrp">   -174.93659812 </i>
    <i name="e_0_energy">   -175.00609311 </i>
   </energy>
  </scstep>
  <scstep>
   <time name="diag">   60.83   60.83</time>
   <time name="diis">  163.18  163.18</time>
   <time name="orth">   11.70   11.70</time>
   <time name="total">  272.40  272.40</time>
   <energy>
    <i name="e_fr_energy">   -175.01266347 </i>
    <i name="e_wo_entrp">   -174.91176223 </i>
    <i name="e_0_energy">   -174.98743816 </i>
   </energy>
  </scstep>
  <scstep>
   <time name="diag">   60.77   60.77</time>
   <time name="diis">  159.78  159.78</time>
   <time name="orth">   11.77   11.77</time>
   <time name="total">  269.11  269.11</time>
   <energy>
    <i name="e_fr_energy">   -175.00264105 </i>
    <i name="e_wo_entrp">   -174.89893945 </i>
    <i name="e_0_energy">   -174.97671565 </i>
   </energy>
  </scstep>
  <scstep>
   <time name="diag">   61.12   61.12</time>
   <time name="diis">  163.17  163.17</time>
   <time name="orth">   11.75   11.75</time>
   <time name="total">  272.79  272.80</time>
   <energy>
    <i name="e_fr_energy">   -174.99896374 </i>
    <i name="e_wo_entrp">   -174.89640916 </i>
    <i name="e_0_energy">   -174.97332510 </i>
   </energy>
  </scstep>
  <scstep>
   <time name="diag">   60.59   60.59</time>
   <time name="diis">  164.34  164.34</time>
   <time name="orth">   11.75   11.75</time>
   <time name="total">  273.50  273.50</time>
   <energy>
    <i name="e_fr_energy">   -174.99341463 </i>
    <i name="e_wo_entrp">   -174.88988664 </i>
    <i name="e_0_energy">   -174.96753263 </i>
   </energy>
  </scstep>
  <scstep>
   <time name="diag">   61.06   61.06</time>
   <time name="diis">  162.91  162.91</time>
   <time name="orth">   11.76   11.76</time>
   <time name="total">  272.52  272.52</time>
   <energy>
    <i name="e_fr_energy">   -174.99253018 </i>
    <i name="e_wo_entrp">   -174.88862827 </i>
    <i name="e_0_energy">   -174.96655471 </i>
   </energy>
  </scstep>
  <scstep>
   <time name="diag">   60.79   60.79</time>
   <time name="diis">  163.28  163.28</time>
   <time name="orth">   11.73   11.73</time>
   <time name="total">  272.34  272.35</time>
   <energy>
    <i name="e_fr_energy">   -174.99179392 </i>
    <i name="e_wo_entrp">   -174.88373119 </i>
    <i name="e_0_energy">   -174.96477824 </i>
   </energy>
  </scstep>
  <scstep>
   <time name="diag">   60.48   60.48</time>
   <time name="diis">  165.58  165.58</time>
   <time name="orth">   12.06   12.06</time>
   <time name="total">  276.20  276.20</time>
   <energy>
    <i name="e_fr_energy">   -174.99098911 </i>
    <i name="e_wo_entrp">   -174.88250241 </i>
    <i name="e_0_energy">   -174.96386744 </i>
   </energy>
  </scstep>
  <scstep>
   <time name="diag">   62.32   62.32</time>
   <time name="diis">  169.66  169.67</time>
   <time name="orth">   12.02   12.02</time>
   <time name="total">  282.49  282.50</time>
   <energy>
    <i name="e_fr_energy">   -174.99241648 </i>
    <i name="e_wo_entrp">   -174.88461373 </i>
    <i name="e_0_energy">   -174.96546579 </i>
   </energy>
  </scstep>
  <scstep>
   <time name="diag">   61.99   61.99</time>
   <time name="diis">  177.85  177.85</time>
   <time name="orth">   12.52   12.52</time>
   <time name="total">  292.38  292.39</time>
   <energy>
    <i name="e_fr_energy">   -174.99488121 </i>
    <i name="e_wo_entrp">   -174.88753177 </i>
    <i name="e_0_energy">   -174.96804385 </i>
   </energy>
  </scstep>
  <scstep>
   <time name="diag">   64.76   64.76</time>
   <time name="diis">  177.96  177.96</time>
   <time name="orth">   12.49   12.49</time>
   <time name="total">  296.00  296.00</time>
   <energy>
    <i name="e_fr_energy">   -174.99654936 </i>
    <i name="e_wo_entrp">   -174.88680714 </i>
    <i name="e_0_energy">   -174.96911381 </i>
   </energy>
  </scstep>
  <scstep>
   <time name="diag">   64.71   64.71</time>
   <time name="diis">  161.47  161.47</time>
   <time name="orth">   12.80   12.80</time>
   <time name="total">  279.81  279.81</time>
   <energy>
    <i name="e_fr_energy">   -174.99880472 </i>
    <i name="e_wo_entrp">   -174.88898997 </i>
    <i name="e_0_energy">   -174.97135104 </i>
   </energy>
  </scstep>
  <scstep>
   <time name="diag">   64.64   64.64</time>
   <time name="diis">  174.59  174.59</time>
   <time name="orth">   12.59   12.59</time>
   <time name="total">  293.46  293.46</time>
   <energy>
    <i name="e_fr_energy">   -175.00254717 </i>
    <i name="e_wo_entrp">   -174.89454026 </i>
    <i name="e_0_energy">   -174.97554544 </i>
   </energy>
  </scstep>
  <scstep>
   <time name="diag">   64.84   64.84</time>
   <time name="diis">  134.47  134.48</time>
   <time name="orth">   12.91   12.91</time>
   <time name="total">  254.96  254.96</time>
   <energy>
    <i name="e_fr_energy">   -175.00428694 </i>
    <i name="e_wo_entrp">   -174.89572738 </i>
    <i name="e_0_energy">   -174.97714705 </i>
   </energy>
  </scstep>
  <scstep>
   <time name="diag">   66.67   66.67</time>
   <time name="diis">  134.49  134.49</time>
   <time name="orth">   12.83   12.83</time>
   <time name="total">  256.76  256.76</time>
   <energy>
    <i name="e_fr_energy">   -175.00689439 </i>
    <i name="e_wo_entrp">   -174.89872975 </i>
    <i name="e_0_energy">   -174.97985323 </i>
   </energy>
  </scstep>
  <scstep>
   <time name="diag">   67.10   67.10</time>
   <time name="diis">  119.12  119.12</time>
   <time name="orth">   12.53   12.53</time>
   <time name="total">  240.46  240.47</time>
   <energy>
    <i name="e_fr_energy">   -175.00845536 </i>
    <i name="e_wo_entrp">   -174.90110158 </i>
    <i name="e_0_energy">   -174.98161692 </i>
   </energy>
  </scstep>
  <scstep>
   <time name="diag">   67.47   67.47</time>
   <time name="diis">  119.38  119.39</time>
   <time name="orth">   12.43   12.43</time>
   <time name="total">  240.35  240.36</time>
   <energy>
    <i name="e_fr_energy">   -175.01007359 </i>
    <i name="e_wo_entrp">   -174.90171291 </i>
    <i name="e_0_energy">   -174.98298342 </i>
   </energy>
  </scstep>
  <scstep>
   <time name="diag">   65.97   65.97</time>
   <time name="diis">  125.45  125.46</time>
   <time name="orth">   12.68   12.68</time>
   <time name="total">  246.45  246.45</time>
   <energy>
    <i name="e_fr_energy">   -175.01185281 </i>
    <i name="e_wo_entrp">   -174.90384674 </i>
    <i name="e_0_energy">   -174.98485129 </i>
   </energy>
  </scstep>
  <scstep>
   <time name="diag">   64.86   64.86</time>
   <time name="diis">  117.84  117.85</time>
   <time name="orth">   13.17   13.17</time>
   <time name="total">  239.69  239.69</time>
   <energy>
    <i name="e_fr_energy">   -175.01302978 </i>
    <i name="e_wo_entrp">   -174.90491793 </i>
    <i name="e_0_energy">   -174.98600182 </i>
   </energy>
  </scstep>
  <scstep>
   <time name="diag">   68.13   68.13</time>
   <time name="diis">  116.79  116.79</time>
   <time name="orth">   13.16   13.16</time>
   <time name="total">  242.34  242.34</time>
   <energy>
    <i name="e_fr_energy">   -175.01445489 </i>
    <i name="e_wo_entrp">   -174.90716641 </i>
    <i name="e_0_energy">   -174.98763277 </i>
   </energy>
  </scstep>
  <scstep>
   <time name="diag">   68.40   68.40</time>
   <time name="diis">  120.10  120.10</time>
   <time name="orth">   12.74   12.74</time>
   <time name="total">  245.14  245.15</time>
   <energy>
    <i name="e_fr_energy">   -175.01497293 </i>
    <i name="e_wo_entrp">   -174.90759058 </i>
    <i name="e_0_energy">   -174.98812734 </i>
   </energy>
  </scstep>
  <scstep>
   <time name="diag">   68.66   68.67</time>
   <time name="diis">  118.28  118.28</time>
   <time name="orth">   12.86   12.86</time>
   <time name="total">  243.04  243.05</time>
   <energy>
    <i name="e_fr_energy">   -175.01609018 </i>
    <i name="e_wo_entrp">   -174.90841624 </i>
    <i name="e_0_energy">   -174.98917170 </i>
   </energy>
  </scstep>
  <scstep>
   <time name="diag">   65.88   65.89</time>
   <time name="diis">  119.16  119.16</time>
   <time name="orth">   12.91   12.91</time>
   <time name="total">  241.50  241.51</time>
   <energy>
    <i name="e_fr_energy">   -175.01628126 </i>
    <i name="e_wo_entrp">   -174.90875981 </i>
    <i name="e_0_energy">   -174.98940090 </i>
   </energy>
  </scstep>
  <scstep>
   <time name="diag">   67.00   67.00</time>
   <time name="diis">  108.30  108.30</time>
   <time name="orth">   13.37   13.37</time>
   <time name="total">  234.35  234.36</time>
   <energy>
    <i name="e_fr_energy">   -175.01694722 </i>
    <i name="e_wo_entrp">   -174.90943056 </i>
    <i name="e_0_energy">   -174.99006806 </i>
   </energy>
  </scstep>
  <scstep>
   <time name="diag">   68.04   68.04</time>
   <time name="diis">   98.66   98.66</time>
   <time name="orth">   12.62   12.62</time>
   <time name="total">  223.06  223.07</time>
   <energy>
    <i name="e_fr_energy">   -175.01734696 </i>
    <i name="e_wo_entrp">   -174.90981907 </i>
    <i name="e_0_energy">   -174.99046499 </i>
   </energy>
  </scstep>
  <scstep>
   <time name="diag">   69.00   69.01</time>
   <time name="diis">  101.15  101.16</time>
   <time name="orth">   12.43   12.43</time>
   <time name="total">  226.67  226.68</time>
   <energy>
    <i name="e_fr_energy">   -175.01785615 </i>
    <i name="e_wo_entrp">   -174.91017678 </i>
    <i name="e_0_energy">   -174.99093631 </i>
   </energy>
  </scstep>
  <scstep>
   <time name="diag">   66.00   66.00</time>
   <time name="diis">   89.91   89.91</time>
   <time name="orth">   13.57   13.57</time>
   <time name="total">  213.34  213.35</time>
   <energy>
    <i name="e_fr_energy">   -175.01813756 </i>
    <i name="e_wo_entrp">   -174.91040583 </i>
    <i name="e_0_energy">   -174.99120463 </i>
   </energy>
  </scstep>
  <scstep>
   <time name="diag">   67.01   67.02</time>
   <time name="diis">   91.59   91.59</time>
   <time name="orth">   12.85   12.85</time>
   <time name="total">  215.27  215.28</time>
   <energy>
    <i name="e_fr_energy">   -175.01843153 </i>
    <i name="e_wo_entrp">   -174.91078551 </i>
    <i name="e_0_energy">   -174.99152002 </i>
   </energy>
  </scstep>
  <scstep>
   <time name="diag">   70.55   70.55</time>
   <time name="diis">   86.83   86.83</time>
   <time name="orth">   12.80   12.80</time>
   <time name="total">  214.08  214.09</time>
   <energy>
    <i name="e_fr_energy">   -175.01869972 </i>
    <i name="e_wo_entrp">   -174.91100870 </i>
    <i name="e_0_energy">   -174.99177696 </i>
   </energy>
  </scstep>
  <scstep>
   <time name="diag">   66.14   66.15</time>
   <time name="diis">   93.87   93.88</time>
   <time name="orth">   12.70   12.70</time>
   <time name="total">  216.74  216.75</time>
   <energy>
    <i name="e_fr_energy">   -175.01890844 </i>
    <i name="e_wo_entrp">   -174.91124901 </i>
    <i name="e_0_energy">   -174.99199358 </i>
   </energy>
  </scstep>
  <scstep>
   <time name="diag">   66.44   66.44</time>
   <time name="diis">   78.45   78.45</time>
   <time name="orth">   12.93   12.93</time>
   <time name="total">  201.98  201.98</time>
   <energy>
    <i name="e_fr_energy">   -175.01903706 </i>
    <i name="e_wo_entrp">   -174.91138725 </i>
    <i name="e_0_energy">   -174.99212461 </i>
   </energy>
  </scstep>
  <scstep>
   <time name="diag">   68.13   68.13</time>
   <time name="diis">   86.01   86.01</time>
   <time name="orth">   12.74   12.74</time>
   <time name="total">  210.43  210.44</time>
   <energy>
    <i name="e_fr_energy">   -175.01920046 </i>
    <i name="e_wo_entrp">   -174.91154984 </i>
    <i name="e_0_energy">   -174.99228781 </i>
   </energy>
  </scstep>
  <scstep>
   <time name="diag">   65.75   65.75</time>
   <time name="diis">   79.71   79.72</time>
   <time name="orth">   12.87   12.87</time>
   <time name="total">  172.04  172.05</time>
   <energy>
    <i name="alphaZ">     75.25431677 </i>
    <i name="ewald"> 137764.18264908 </i>
    <i name="hartreedc">-182120.01849206 </i>
    <i name="XCdc">  -1692.72850472 </i>
    <i name="pawpsdc">  46142.30267855 </i>
    <i name="pawaedc"> -42613.29068830 </i>
    <i name="eentropy">     -0.10765778 </i>
    <i name="bandstr">  -2817.11905290 </i>
    <i name="atom">  45086.50549395 </i>
    <i name="e_fr_energy">   -175.01925741 </i>
    <i name="e_wo_entrp">   -174.91159962 </i>
    <i name="e_0_energy">   -174.99234296 </i>
   </energy>
  </scstep>
  <structure>
   <crystal>
    <varray name="basis" >
     <v>      30.00000000       0.00000000       0.00000000 </v>
     <v>       0.00000000      30.00000000       0.00000000 </v>
     <v>       0.00000000       0.00000000      30.00000000 </v>
    </varray>
    <i name="volume">  27000.00000000 </i>
    <varray name="rec_basis" >
     <v>       0.03333333       0.00000000       0.00000000 </v>
     <v>       0.00000000       0.03333333       0.00000000 </v>
     <v>       0.00000000       0.00000000       0.03333333 </v>
    </varray>
   </crystal>
   <varray name="positions" >
    <v>       0.44576020       0.32826710       0.41691983 </v>
    <v>       0.67173288       0.55423978       0.41691983 </v>
    <v>       0.55423980       0.32826710       0.41691983 </v>
    <v>       0.32826712       0.55423978       0.41691983 </v>
    <v>       0.50000000       0.38250690       0.34021317 </v>
    <v>       0.50000000       0.38250690       0.65978680 </v>
    <v>       0.50000000       0.27609440       0.50000000 </v>
    <v>       0.27609443       0.49999998       0.50000000 </v>
    <v>       0.72390557       0.49999998       0.50000000 </v>
    <v>       0.50000000       0.72390555       0.50000000 </v>
    <v>       0.61195280       0.38804720       0.34167483 </v>
    <v>       0.61195280       0.38804720       0.65832513 </v>
    <v>       0.38804722       0.61195278       0.34167483 </v>
    <v>       0.38804722       0.61195278       0.65832513 </v>
    <v>       0.38804720       0.38804720       0.34167483 </v>
    <v>       0.38804720       0.38804720       0.65832513 </v>
    <v>       0.61195278       0.61195278       0.34167483 </v>
    <v>       0.61195278       0.61195278       0.65832513 </v>
    <v>       0.44576020       0.32826710       0.58308023 </v>
    <v>       0.67173288       0.55423978       0.58308023 </v>
    <v>       0.55791699       0.44208301       0.41809300 </v>
    <v>       0.32826705       0.44576024       0.41691983 </v>
    <v>       0.55423973       0.67173293       0.41691983 </v>
    <v>       0.55423980       0.32826710       0.58308023 </v>
    <v>       0.32826712       0.55423978       0.58308023 </v>
    <v>       0.67173295       0.44576024       0.41691983 </v>
    <v>       0.44576027       0.67173293       0.41691983 </v>
    <v>       0.44208301       0.44208301       0.41809300 </v>
    <v>       0.50000000       0.38416601       0.50000000 </v>
    <v>       0.61749315       0.50000005       0.34021317 </v>
    <v>       0.61749315       0.50000005       0.65978680 </v>
    <v>       0.38250685       0.50000005       0.34021317 </v>
    <v>       0.38250685       0.50000005       0.65978680 </v>
    <v>       0.38317830       0.38317830       0.50000000 </v>
    <v>       0.61682172       0.61682172       0.50000000 </v>
    <v>       0.61682170       0.38317830       0.50000000 </v>
    <v>       0.38317828       0.61682172       0.50000000 </v>
    <v>       0.50000000       0.50000000       0.33478917 </v>
    <v>       0.50000000       0.50000000       0.66521087 </v>
    <v>       0.32826705       0.44576024       0.58308023 </v>
    <v>       0.55423973       0.67173293       0.58308023 </v>
    <v>       0.55791699       0.44208301       0.58190703 </v>
    <v>       0.44208298       0.55791702       0.41809300 </v>
    <v>       0.44208301       0.44208301       0.58190703 </v>
    <v>       0.67173295       0.44576024       0.58308023 </v>
    <v>       0.44576027       0.67173293       0.58308023 </v>
    <v>       0.55791702       0.55791702       0.41809300 </v>
    <v>       0.38416599       0.50000002       0.50000000 </v>
    <v>       0.61583401       0.50000002       0.50000000 </v>
    <v>       0.50000000       0.61749319       0.34021317 </v>
    <v>       0.50000000       0.61749319       0.65978680 </v>
    <v>       0.50000000       0.50000000       0.50000000 </v>
    <v>       0.44208298       0.55791702       0.58190703 </v>
    <v>       0.55791702       0.55791702       0.58190703 </v>
    <v>       0.50000000       0.61583404       0.50000000 </v>
    <v>       0.64492203       0.49673413       0.72145433 </v>
    <v>       0.66550950       0.49627017       0.75291383 </v>
   </varray>
  </structure>
  <varray name="forces" >
   <v>       0.70936416       1.10371671       0.30238365 </v>
   <v>      -1.11253354      -0.70262400       0.28850472 </v>
   <v>      -0.71017233       1.10453298       0.28835360 </v>
   <v>       1.10786097      -0.70459722       0.29273224 </v>
   <v>       0.00810146       0.41216580       1.28296384 </v>
   <v>      -0.01961027       0.39839156      -1.29110686 </v>
   <v>      -0.00395927       1.51664653      -0.01574552 </v>
   <v>       1.51597525       0.00009700       0.00709167 </v>
   <v>      -1.52759415      -0.00310046       0.02362705 </v>
   <v>      -0.00421215      -1.51809792      -0.01538723 </v>
   <v>      -0.75896014       0.75461244       1.07357607 </v>
   <v>      -0.75617953       0.74036754      -1.07509695 </v>
   <v>       0.75421441      -0.75381965       1.07231497 </v>
   <v>       0.75572677      -0.75751414      -1.07578855 </v>
   <v>       0.75481852       0.75403745       1.07270015 </v>
   <v>       0.75583870       0.75746601      -1.07553284 </v>
   <v>      -0.75894911      -0.75460780       1.07379790 </v>
   <v>      -0.76093352      -0.74086814      -1.08222147 </v>
   <v>       0.70786039       1.11169763      -0.28453703 </v>
   <v>      -1.10053604      -0.66955832      -0.38526066 </v>
   <v>       0.10954101      -0.11466820      -0.15901767 </v>
   <v>       1.10736600       0.70461297       0.29211523 </v>
   <v>      -0.71000987      -1.10375882       0.28820052 </v>
   <v>      -0.69988317       1.10763831      -0.28521010 </v>
   <v>       1.10600951      -0.70940804      -0.29119530 </v>
   <v>      -1.11225850       0.70300508       0.28882849 </v>
   <v>       0.70917692      -1.10328162       0.30311499 </v>
   <v>      -0.11355238      -0.10836156      -0.15609907 </v>
   <v>      -0.01174172      -0.24676525      -0.02859950 </v>
   <v>      -0.41465173       0.00030270       1.27946823 </v>
   <v>       0.37299051      -0.08744510       0.71672952 </v>
   <v>       0.41012091      -0.00020572       1.28224304 </v>
   <v>       0.40757432       0.00032907      -1.29098718 </v>
   <v>       0.82512141       0.82787175      -0.00247030 </v>
   <v>      -0.81826320      -0.84019301       0.00915201 </v>
   <v>      -0.81811500       0.83936494       0.00640039 </v>
   <v>       0.82542717      -0.82770335      -0.00188649 </v>
   <v>       0.00394510       0.00008845       1.17943475 </v>
   <v>      -0.06960579       0.00085940      -1.19191860 </v>
   <v>       1.10543118       0.70988809      -0.29095823 </v>
   <v>      -0.69861848      -1.10858814      -0.28482635 </v>
   <v>       0.11225480      -0.07427455       0.13044141 </v>
   <v>      -0.11352831       0.10814634      -0.15546157 </v>
   <v>      -0.10971291      -0.11482249       0.15899014 </v>
   <v>      -1.08918195       0.67251719      -0.39009956 </v>
   <v>       0.70725711      -1.11153506      -0.28587682 </v>
   <v>       0.10883416       0.11497079      -0.15983305 </v>
   <v>      -0.22759466       0.00079039       0.00127176 </v>
   <v>       0.22111560       0.00070269       0.01774233 </v>
   <v>       0.00913750      -0.41270339       1.28339845 </v>
   <v>      -0.01592378      -0.40020182      -1.29050750 </v>
   <v>       0.02065691      -0.00059871       0.01644173 </v>
   <v>      -0.10948445       0.11489196       0.15967171 </v>
   <v>       0.13107726       0.06197578       0.15026565 </v>
   <v>      -0.01198574       0.24985519      -0.02871598 </v>
   <v>      -2.75818510       0.17485965      -5.08728982 </v>
   <v>       2.05313880      -0.07709994       3.33967397 </v>
  </varray>
  <varray name="stress" >
   <v>      -6.69717777       0.00320524       0.03585448 </v>
   <v>       0.00320526      -6.74617178       0.00952801 </v>
   <v>       0.03585447       0.00952804      -6.74751387 </v>
  </varray>
  <energy>
   <i name="e_fr_energy">   -175.01925741 </i>
   <i name="e_wo_entrp">   -174.99234296 </i>
   <i name="e_0_energy">     -0.10765778 </i>
  </energy>
  <time name="totalsc">17993.1017993.53</time>
  <eigenvalues>
   <array>
    <dimension dim="1">band</dimension>
    <dimension dim="2">kpoint</dimension>
    <dimension dim="3">spin</dimension>
    <field>eigene</field>
    <field>occ</field>
    <set>
     <set comment="spin 1">
      <set comment="kpoint 1">
       <r>  -28.7468    1.0000 </r>
       <r>  -13.4598    1.0000 </r>
       <r>  -11.1309    1.0000 </r>
       <r>  -11.1217    1.0000 </r>
       <r>  -10.4756    1.0000 </r>
       <r>   -6.6527    1.0000 </r>
       <r>   -6.1498    1.0000 </r>
       <r>   -6.1416    1.0000 </r>
       <r>   -6.1326    1.0000 </r>
       <r>   -6.0160    1.0000 </r>
       <r>   -5.9461    1.0000 </r>
       <r>   -5.8343    1.0000 </r>
       <r>   -5.8074    1.0000 </r>
       <r>   -5.7942    1.0000 </r>
       <r>   -5.7579    1.0000 </r>
       <r>   -5.7208    1.0000 </r>
       <r>   -5.6956    1.0000 </r>
       <r>   -5.6888    1.0000 </r>
       <r>   -5.6804    1.0000 </r>
       <r>   -5.6438    1.0000 </r>
       <r>   -5.6272    1.0000 </r>
       <r>   -5.6260    1.0000 </r>
       <r>   -5.6120    1.0000 </r>
       <r>   -5.5991    1.0000 </r>
       <r>   -5.5876    1.0000 </r>
       <r>   -5.5755    1.0000 </r>
       <r>   -5.5522    1.0000 </r>
       <r>   -5.5517    1.0000 </r>
       <r>   -5.5509    1.0000 </r>
       <r>   -5.5364    1.0000 </r>
       <r>   -5.5329    1.0000 </r>
       <r>   -5.5227    1.0000 </r>
       <r>   -5.5222    1.0000 </r>
       <r>   -5.5197    1.0000 </r>
       <r>   -5.5172    1.0000 </r>
       <r>   -5.5159    1.0000 </r>
       <r>   -5.5029    1.0000 </r>
       <r>   -5.4926    1.0000 </r>
       <r>   -5.4918    1.0000 </r>
       <r>   -5.4780    1.0000 </r>
       <r>   -5.4774    1.0000 </r>
       <r>   -5.4743    1.0000 </r>
       <r>   -5.4711    1.0000 </r>
       <r>   -5.4693    1.0000 </r>
       <r>   -5.4629    1.0000 </r>
       <r>   -5.4555    1.0000 </r>
       <r>   -5.4345    1.0000 </r>
       <r>   -5.4334    1.0000 </r>
       <r>   -5.4307    1.0000 </r>
       <r>   -5.4290    1.0000 </r>
       <r>   -5.4271    1.0000 </r>
       <r>   -5.4261    1.0000 </r>
       <r>   -5.4116    1.0000 </r>
       <r>   -5.4098    1.0000 </r>
       <r>   -5.3992    1.0000 </r>
       <r>   -5.3879    1.0000 </r>
       <r>   -5.3639    1.0000 </r>
       <r>   -5.3495    1.0000 </r>
       <r>   -5.3458    1.0000 </r>
       <r>   -5.3308    1.0000 </r>
       <r>   -5.3299    1.0000 </r>
       <r>   -5.3217    1.0000 </r>
       <r>   -5.3203    1.0000 </r>
       <r>   -5.3183    1.0000 </r>
       <r>   -5.3071    1.0000 </r>
       <r>   -5.3042    1.0000 </r>
       <r>   -5.3015    1.0000 </r>
       <r>   -5.2947    1.0000 </r>
       <r>   -5.2654    1.0000 </r>
       <r>   -5.2171    1.0000 </r>
       <r>   -5.2110    1.0000 </r>
       <r>   -5.2094    1.0000 </r>
       <r>   -5.1981    1.0000 </r>
       <r>   -5.1908    1.0000 </r>
       <r>   -5.1856    1.0000 </r>
       <r>   -5.1839    1.0000 </r>
       <r>   -5.1834    1.0000 </r>
       <r>   -5.1756    1.0000 </r>
       <r>   -5.1688    1.0000 </r>
       <r>   -5.1660    1.0000 </r>
       <r>   -5.1621    1.0000 </r>
       <r>   -5.1491    1.0000 </r>
       <r>   -5.1326    1.0000 </r>
       <r>   -5.1301    1.0000 </r>
       <r>   -5.1282    1.0000 </r>
       <r>   -5.1146    1.0000 </r>
       <r>   -5.1083    1.0000 </r>
       <r>   -5.0951    1.0000 </r>
       <r>   -5.0892    1.0000 </r>
       <r>   -5.0687    1.0000 </r>
       <r>   -5.0675    1.0000 </r>
       <r>   -5.0586    1.0000 </r>
       <r>   -5.0585    1.0000 </r>
       <r>   -5.0573    1.0000 </r>
       <r>   -5.0538    1.0000 </r>
       <r>   -5.0503    1.0000 </r>
       <r>   -5.0435    1.0000 </r>
       <r>   -5.0409    1.0000 </r>
       <r>   -5.0325    1.0000 </r>
       <r>   -5.0271    1.0000 </r>
       <r>   -5.0231    1.0000 </r>
       <r>   -5.0185    1.0000 </r>
       <r>   -5.0162    1.0000 </r>
       <r>   -5.0087    1.0000 </r>
       <r>   -5.0060    1.0000 </r>
       <r>   -5.0021    1.0000 </r>
       <r>   -4.9977    1.0000 </r>
       <r>   -4.9951    1.0000 </r>
       <r>   -4.9892    1.0000 </r>
       <r>   -4.9830    1.0000 </r>
       <r>   -4.9801    1.0000 </r>
       <r>   -4.9769    1.0000 </r>
       <r>   -4.9655    1.0000 </r>
       <r>   -4.9644    1.0000 </r>
       <r>   -4.9604    1.0000 </r>
       <r>   -4.9583    1.0000 </r>
       <r>   -4.9515    1.0000 </r>
       <r>   -4.9418    1.0000 </r>
       <r>   -4.9308    1.0000 </r>
       <r>   -4.9226    1.0000 </r>
       <r>   -4.9209    1.0000 </r>
       <r>   -4.9151    1.0000 </r>
       <r>   -4.9119    1.0000 </r>
       <r>   -4.9061    1.0000 </r>
       <r>   -4.9055    1.0000 </r>
       <r>   -4.9051    1.0000 </r>
       <r>   -4.8926    1.0000 </r>
       <r>   -4.8782    1.0000 </r>
       <r>   -4.8537    1.0000 </r>
       <r>   -4.8460    1.0000 </r>
       <r>   -4.8449    1.0000 </r>
       <r>   -4.8432    1.0000 </r>
       <r>   -4.8415    1.0000 </r>
       <r>   -4.8394    1.0000 </r>
       <r>   -4.8334    1.0000 </r>
       <r>   -4.8274    1.0000 </r>
       <r>   -4.8032    0.9999 </r>
       <r>   -4.7961    0.9999 </r>
       <r>   -4.7951    0.9999 </r>
       <r>   -4.7889    0.9999 </r>
       <r>   -4.7809    0.9998 </r>
       <r>   -4.7679    0.9998 </r>
       <r>   -4.7562    0.9997 </r>
       <r>   -4.7455    0.9996 </r>
       <r>   -4.7402    0.9996 </r>
       <r>   -4.7378    0.9996 </r>
       <r>   -4.7300    0.9995 </r>
       <r>   -4.7258    0.9995 </r>
       <r>   -4.7204    0.9994 </r>
       <r>   -4.7059    0.9992 </r>
       <r>   -4.6897    0.9989 </r>
       <r>   -4.6895    0.9989 </r>
       <r>   -4.6840    0.9988 </r>
       <r>   -4.6818    0.9987 </r>
       <r>   -4.6779    0.9986 </r>
       <r>   -4.6753    0.9986 </r>
       <r>   -4.6741    0.9985 </r>
       <r>   -4.6735    0.9985 </r>
       <r>   -4.6706    0.9984 </r>
       <r>   -4.6670    0.9983 </r>
       <r>   -4.6620    0.9982 </r>
       <r>   -4.6519    0.9979 </r>
       <r>   -4.6511    0.9979 </r>
       <r>   -4.6498    0.9978 </r>
       <r>   -4.6481    0.9978 </r>
       <r>   -4.6479    0.9978 </r>
       <r>   -4.6462    0.9977 </r>
       <r>   -4.6412    0.9975 </r>
       <r>   -4.6358    0.9974 </r>
       <r>   -4.6352    0.9973 </r>
       <r>   -4.6177    0.9967 </r>
       <r>   -4.6115    0.9965 </r>
       <r>   -4.6034    0.9962 </r>
       <r>   -4.5994    0.9960 </r>
       <r>   -4.5977    0.9960 </r>
       <r>   -4.5975    0.9959 </r>
       <r>   -4.5958    0.9959 </r>
       <r>   -4.5915    0.9957 </r>
       <r>   -4.5906    0.9957 </r>
       <r>   -4.5847    0.9955 </r>
       <r>   -4.5784    0.9954 </r>
       <r>   -4.5755    0.9953 </r>
       <r>   -4.5683    0.9952 </r>
       <r>   -4.5592    0.9951 </r>
       <r>   -4.5583    0.9951 </r>
       <r>   -4.5568    0.9951 </r>
       <r>   -4.5530    0.9951 </r>
       <r>   -4.5514    0.9951 </r>
       <r>   -4.5509    0.9951 </r>
       <r>   -4.5497    0.9951 </r>
       <r>   -4.5268    0.9959 </r>
       <r>   -4.5235    0.9962 </r>
       <r>   -4.5147    0.9969 </r>
       <r>   -4.5113    0.9973 </r>
       <r>   -4.5077    0.9977 </r>
       <r>   -4.5023    0.9984 </r>
       <r>   -4.4998    0.9988 </r>
       <r>   -4.4922    1.0001 </r>
       <r>   -4.4828    1.0021 </r>
       <r>   -4.4777    1.0033 </r>
       <r>   -4.4768    1.0035 </r>
       <r>   -4.4672    1.0062 </r>
       <r>   -4.4647    1.0069 </r>
       <r>   -4.4617    1.0079 </r>
       <r>   -4.4569    1.0094 </r>
       <r>   -4.4551    1.0101 </r>
       <r>   -4.4500    1.0119 </r>
       <r>   -4.4481    1.0126 </r>
       <r>   -4.4432    1.0146 </r>
       <r>   -4.4429    1.0147 </r>
       <r>   -4.4263    1.0219 </r>
       <r>   -4.4252    1.0224 </r>
       <r>   -4.4235    1.0232 </r>
       <r>   -4.4119    1.0287 </r>
       <r>   -4.4111    1.0290 </r>
       <r>   -4.4094    1.0298 </r>
       <r>   -4.4076    1.0307 </r>
       <r>   -4.4069    1.0310 </r>
       <r>   -4.4051    1.0319 </r>
       <r>   -4.3915    1.0383 </r>
       <r>   -4.3702    1.0469 </r>
       <r>   -4.3691    1.0473 </r>
       <r>   -4.3651    1.0485 </r>
       <r>   -4.3528    1.0511 </r>
       <r>   -4.3499    1.0514 </r>
       <r>   -4.3471    1.0516 </r>
       <r>   -4.3401    1.0515 </r>
       <r>   -4.3394    1.0514 </r>
       <r>   -4.3383    1.0513 </r>
       <r>   -4.3366    1.0511 </r>
       <r>   -4.3359    1.0510 </r>
       <r>   -4.3340    1.0506 </r>
       <r>   -4.3327    1.0504 </r>
       <r>   -4.3293    1.0495 </r>
       <r>   -4.3265    1.0486 </r>
       <r>   -4.3248    1.0479 </r>
       <r>   -4.3239    1.0475 </r>
       <r>   -4.3223    1.0468 </r>
       <r>   -4.3211    1.0462 </r>
       <r>   -4.3196    1.0454 </r>
       <r>   -4.3106    1.0396 </r>
       <r>   -4.3041    1.0339 </r>
       <r>   -4.2979    1.0274 </r>
       <r>   -4.2906    1.0180 </r>
       <r>   -4.2897    1.0167 </r>
       <r>   -4.2875    1.0134 </r>
       <r>   -4.2862    1.0116 </r>
       <r>   -4.2844    1.0087 </r>
       <r>   -4.2821    1.0048 </r>
       <r>   -4.2717    0.9853 </r>
       <r>   -4.2668    0.9744 </r>
       <r>   -4.2653    0.9711 </r>
       <r>   -4.2600    0.9582 </r>
       <r>   -4.2590    0.9557 </r>
       <r>   -4.2557    0.9470 </r>
       <r>   -4.2528    0.9390 </r>
       <r>   -4.2516    0.9354 </r>
       <r>   -4.2508    0.9331 </r>
       <r>   -4.2468    0.9214 </r>
       <r>   -4.2465    0.9204 </r>
       <r>   -4.2451    0.9162 </r>
       <r>   -4.2419    0.9059 </r>
       <r>   -4.2400    0.8998 </r>
       <r>   -4.2396    0.8983 </r>
       <r>   -4.2373    0.8908 </r>
       <r>   -4.2292    0.8619 </r>
       <r>   -4.2267    0.8525 </r>
       <r>   -4.2241    0.8427 </r>
       <r>   -4.2237    0.8409 </r>
       <r>   -4.2210    0.8301 </r>
       <r>   -4.2181    0.8187 </r>
       <r>   -4.2121    0.7933 </r>
       <r>   -4.2024    0.7505 </r>
       <r>   -4.1959    0.7203 </r>
       <r>   -4.1862    0.6733 </r>
       <r>   -4.1848    0.6662 </r>
       <r>   -4.1786    0.6351 </r>
       <r>   -4.1783    0.6337 </r>
       <r>   -4.1769    0.6263 </r>
       <r>   -4.1720    0.6013 </r>
       <r>   -4.1625    0.5516 </r>
       <r>   -4.1614    0.5456 </r>
       <r>   -4.1363    0.4134 </r>
       <r>   -4.1304    0.3830 </r>
       <r>   -4.1303    0.3822 </r>
       <r>   -4.1291    0.3765 </r>
       <r>   -4.1183    0.3222 </r>
       <r>   -4.1156    0.3086 </r>
       <r>   -4.1121    0.2918 </r>
       <r>   -3.9619   -0.0516 </r>
       <r>   -3.8833   -0.0238 </r>
       <r>   -3.8301   -0.0039 </r>
       <r>   -3.8166   -0.0008 </r>
       <r>   -3.7639    0.0047 </r>
       <r>   -3.5035    0.0001 </r>
       <r>   -3.4885    0.0001 </r>
       <r>   -3.4201    0.0000 </r>
       <r>   -3.0604    0.0000 </r>
       <r>   -3.0597    0.0000 </r>
       <r>   -3.0402    0.0000 </r>
       <r>   -3.0278    0.0000 </r>
       <r>   -3.0202    0.0000 </r>
       <r>   -2.9376    0.0000 </r>
       <r>   -2.9364    0.0000 </r>
       <r>   -2.9101    0.0000 </r>
       <r>   -2.5238    0.0000 </r>
       <r>   -2.5205    0.0000 </r>
       <r>   -2.4327    0.0000 </r>
       <r>   -2.3510    0.0000 </r>
       <r>   -2.1187    0.0000 </r>
       <r>   -2.1169    0.0000 </r>
       <r>   -2.0786    0.0000 </r>
       <r>   -2.0033    0.0000 </r>
       <r>   -1.9637    0.0000 </r>
       <r>   -1.9364    0.0000 </r>
       <r>   -1.8673    0.0000 </r>
       <r>   -1.8042    0.0000 </r>
       <r>   -1.7350    0.0000 </r>
       <r>   -1.6644    0.0000 </r>
       <r>   -1.6394    0.0000 </r>
       <r>   -1.6314    0.0000 </r>
       <r>   -1.5586    0.0000 </r>
       <r>   -1.4500    0.0000 </r>
       <r>   -1.4128    0.0000 </r>
       <r>   -1.2556    0.0000 </r>
       <r>   -1.1907    0.0000 </r>
       <r>   -1.1865    0.0000 </r>
       <r>   -1.0361    0.0000 </r>
       <r>   -0.9941    0.0000 </r>
       <r>   -0.9770    0.0000 </r>
       <r>   -0.9674    0.0000 </r>
       <r>   -0.9332    0.0000 </r>
       <r>   -0.9232    0.0000 </r>
       <r>   -0.9104    0.0000 </r>
       <r>   -0.8608    0.0000 </r>
       <r>   -0.7651    0.0000 </r>
      </set>
     </set>
    </set>
   </array>
  </eigenvalues>
  <separator name="orbital magnetization" >
   <v name="MAGDIPOLOUT">      0.00000000      0.00000000      0.00000000</v>
  </separator>
  <dos>
   <i name="efermi">     -4.15274736 </i>
   <total>
    <array>
     <dimension dim="1">gridpoints</dimension>
     <dimension dim="2">spin</dimension>
     <field>energy</field>
     <field>total</field>
     <field>integrated</field>
     <set>
      <set comment="spin 1">
       <r>   -30.7468     0.0000     0.0000 </r>
       <r>   -30.6402     0.0000     0.0000 </r>
       <r>   -30.5336     0.0000     0.0000 </r>
       <r>   -30.4270     0.0000     0.0000 </r>
       <r>   -30.3204     0.0000     0.0000 </r>
       <r>   -30.2138     0.0000     0.0000 </r>
       <r>   -30.1072     0.0000     0.0000 </r>
       <r>   -30.0006     0.0000     0.0000 </r>
       <r>   -29.8940     0.0000     0.0000 </r>
       <r>   -29.7874     0.0000     0.0000 </r>
       <r>   -29.6808     0.0000     0.0000 </r>
       <r>   -29.5741     0.0000     0.0000 </r>
       <r>   -29.4675     0.0002     0.0000 </r>
       <r>   -29.3609     0.0038     0.0004 </r>
       <r>   -29.2543     0.0306     0.0037 </r>
       <r>   -29.1477     0.0578     0.0099 </r>
       <r>   -29.0411    -0.3374    -0.0261 </r>
       <r>   -28.9345    -0.7209    -0.1030 </r>
       <r>   -28.8279     3.2419     0.2426 </r>
       <r>   -28.7213     9.6036     1.2664 </r>
       <r>   -28.6147     7.0575     2.0188 </r>
       <r>   -28.5081     0.5432     2.0767 </r>
       <r>   -28.4015    -0.7364     1.9982 </r>
       <r>   -28.2949    -0.0545     1.9924 </r>
       <r>   -28.1883     0.0575     1.9985 </r>
       <r>   -28.0817     0.0127     1.9999 </r>
       <r>   -27.9751     0.0010     2.0000 </r>
       <r>   -27.8685     0.0000     2.0000 </r>
       <r>   -27.7619     0.0000     2.0000 </r>
       <r>   -27.6552     0.0000     2.0000 </r>
       <r>   -27.5486     0.0000     2.0000 </r>
       <r>   -27.4420     0.0000     2.0000 </r>
       <r>   -27.3354     0.0000     2.0000 </r>
       <r>   -27.2288     0.0000     2.0000 </r>
       <r>   -27.1222     0.0000     2.0000 </r>
       <r>   -27.0156     0.0000     2.0000 </r>
       <r>   -26.9090     0.0000     2.0000 </r>
       <r>   -26.8024     0.0000     2.0000 </r>
       <r>   -26.6958     0.0000     2.0000 </r>
       <r>   -26.5892     0.0000     2.0000 </r>
       <r>   -26.4826     0.0000     2.0000 </r>
       <r>   -26.3760     0.0000     2.0000 </r>
       <r>   -26.2694     0.0000     2.0000 </r>
       <r>   -26.1628     0.0000     2.0000 </r>
       <r>   -26.0562     0.0000     2.0000 </r>
       <r>   -25.9496     0.0000     2.0000 </r>
       <r>   -25.8429     0.0000     2.0000 </r>
       <r>   -25.7363     0.0000     2.0000 </r>
       <r>   -25.6297     0.0000     2.0000 </r>
       <r>   -25.5231     0.0000     2.0000 </r>
       <r>   -25.4165     0.0000     2.0000 </r>
       <r>   -25.3099     0.0000     2.0000 </r>
       <r>   -25.2033     0.0000     2.0000 </r>
       <r>   -25.0967     0.0000     2.0000 </r>
       <r>   -24.9901     0.0000     2.0000 </r>
       <r>   -24.8835     0.0000     2.0000 </r>
       <r>   -24.7769     0.0000     2.0000 </r>
       <r>   -24.6703     0.0000     2.0000 </r>
       <r>   -24.5637     0.0000     2.0000 </r>
       <r>   -24.4571     0.0000     2.0000 </r>
       <r>   -24.3505     0.0000     2.0000 </r>
       <r>   -24.2439     0.0000     2.0000 </r>
       <r>   -24.1373     0.0000     2.0000 </r>
       <r>   -24.0307     0.0000     2.0000 </r>
       <r>   -23.9240     0.0000     2.0000 </r>
       <r>   -23.8174     0.0000     2.0000 </r>
       <r>   -23.7108     0.0000     2.0000 </r>
       <r>   -23.6042     0.0000     2.0000 </r>
       <r>   -23.4976     0.0000     2.0000 </r>
       <r>   -23.3910     0.0000     2.0000 </r>
       <r>   -23.2844     0.0000     2.0000 </r>
       <r>   -23.1778     0.0000     2.0000 </r>
       <r>   -23.0712     0.0000     2.0000 </r>
       <r>   -22.9646     0.0000     2.0000 </r>
       <r>   -22.8580     0.0000     2.0000 </r>
       <r>   -22.7514     0.0000     2.0000 </r>
       <r>   -22.6448     0.0000     2.0000 </r>
       <r>   -22.5382     0.0000     2.0000 </r>
       <r>   -22.4316     0.0000     2.0000 </r>
       <r>   -22.3250     0.0000     2.0000 </r>
       <r>   -22.2184     0.0000     2.0000 </r>
       <r>   -22.1118     0.0000     2.0000 </r>
       <r>   -22.0051     0.0000     2.0000 </r>
       <r>   -21.8985     0.0000     2.0000 </r>
       <r>   -21.7919     0.0000     2.0000 </r>
       <r>   -21.6853     0.0000     2.0000 </r>
       <r>   -21.5787     0.0000     2.0000 </r>
       <r>   -21.4721     0.0000     2.0000 </r>
       <r>   -21.3655     0.0000     2.0000 </r>
       <r>   -21.2589     0.0000     2.0000 </r>
       <r>   -21.1523     0.0000     2.0000 </r>
       <r>   -21.0457     0.0000     2.0000 </r>
       <r>   -20.9391     0.0000     2.0000 </r>
       <r>   -20.8325     0.0000     2.0000 </r>
       <r>   -20.7259     0.0000     2.0000 </r>
       <r>   -20.6193     0.0000     2.0000 </r>
       <r>   -20.5127     0.0000     2.0000 </r>
       <r>   -20.4061     0.0000     2.0000 </r>
       <r>   -20.2995     0.0000     2.0000 </r>
       <r>   -20.1929     0.0000     2.0000 </r>
       <r>   -20.0862     0.0000     2.0000 </r>
       <r>   -19.9796     0.0000     2.0000 </r>
       <r>   -19.8730     0.0000     2.0000 </r>
       <r>   -19.7664     0.0000     2.0000 </r>
       <r>   -19.6598     0.0000     2.0000 </r>
       <r>   -19.5532     0.0000     2.0000 </r>
       <r>   -19.4466     0.0000     2.0000 </r>
       <r>   -19.3400     0.0000     2.0000 </r>
       <r>   -19.2334     0.0000     2.0000 </r>
       <r>   -19.1268     0.0000     2.0000 </r>
       <r>   -19.0202     0.0000     2.0000 </r>
       <r>   -18.9136     0.0000     2.0000 </r>
       <r>   -18.8070     0.0000     2.0000 </r>
       <r>   -18.7004     0.0000     2.0000 </r>
       <r>   -18.5938     0.0000     2.0000 </r>
       <r>   -18.4872     0.0000     2.0000 </r>
       <r>   -18.3806     0.0000     2.0000 </r>
       <r>   -18.2740     0.0000     2.0000 </r>
       <r>   -18.1673     0.0000     2.0000 </r>
       <r>   -18.0607     0.0000     2.0000 </r>
       <r>   -17.9541     0.0000     2.0000 </r>
       <r>   -17.8475     0.0000     2.0000 </r>
       <r>   -17.7409     0.0000     2.0000 </r>
       <r>   -17.6343     0.0000     2.0000 </r>
       <r>   -17.5277     0.0000     2.0000 </r>
       <r>   -17.4211     0.0000     2.0000 </r>
       <r>   -17.3145     0.0000     2.0000 </r>
       <r>   -17.2079     0.0000     2.0000 </r>
       <r>   -17.1013     0.0000     2.0000 </r>
       <r>   -16.9947     0.0000     2.0000 </r>
       <r>   -16.8881     0.0000     2.0000 </r>
       <r>   -16.7815     0.0000     2.0000 </r>
       <r>   -16.6749     0.0000     2.0000 </r>
       <r>   -16.5683     0.0000     2.0000 </r>
       <r>   -16.4617     0.0000     2.0000 </r>
       <r>   -16.3551     0.0000     2.0000 </r>
       <r>   -16.2484     0.0000     2.0000 </r>
       <r>   -16.1418     0.0000     2.0000 </r>
       <r>   -16.0352     0.0000     2.0000 </r>
       <r>   -15.9286     0.0000     2.0000 </r>
       <r>   -15.8220     0.0000     2.0000 </r>
       <r>   -15.7154     0.0000     2.0000 </r>
       <r>   -15.6088     0.0000     2.0000 </r>
       <r>   -15.5022     0.0000     2.0000 </r>
       <r>   -15.3956     0.0000     2.0000 </r>
       <r>   -15.2890     0.0000     2.0000 </r>
       <r>   -15.1824     0.0000     2.0000 </r>
       <r>   -15.0758     0.0000     2.0000 </r>
       <r>   -14.9692     0.0000     2.0000 </r>
       <r>   -14.8626     0.0000     2.0000 </r>
       <r>   -14.7560     0.0000     2.0000 </r>
       <r>   -14.6494     0.0000     2.0000 </r>
       <r>   -14.5428     0.0000     2.0000 </r>
       <r>   -14.4362     0.0000     2.0000 </r>
       <r>   -14.3295     0.0000     2.0000 </r>
       <r>   -14.2229     0.0001     2.0000 </r>
       <r>   -14.1163     0.0013     2.0001 </r>
       <r>   -14.0097     0.0150     2.0017 </r>
       <r>   -13.9031     0.0607     2.0082 </r>
       <r>   -13.7965    -0.0893     1.9987 </r>
       <r>   -13.6899    -0.7782     1.9157 </r>
       <r>   -13.5833     0.8982     2.0115 </r>
       <r>   -13.4767     7.6055     2.8223 </r>
       <r>   -13.3701     9.3168     3.8155 </r>
       <r>   -13.2635     2.6960     4.1029 </r>
       <r>   -13.1569    -0.7798     4.0198 </r>
       <r>   -13.0503    -0.2776     3.9902 </r>
       <r>   -12.9437     0.0621     3.9968 </r>
       <r>   -12.8371     0.0269     3.9997 </r>
       <r>   -12.7305     0.0031     4.0000 </r>
       <r>   -12.6239     0.0002     4.0000 </r>
       <r>   -12.5173     0.0000     4.0000 </r>
       <r>   -12.4106     0.0000     4.0000 </r>
       <r>   -12.3040     0.0000     4.0000 </r>
       <r>   -12.1974     0.0000     4.0000 </r>
       <r>   -12.0908     0.0000     4.0000 </r>
       <r>   -11.9842     0.0000     4.0000 </r>
       <r>   -11.8776     0.0002     4.0000 </r>
       <r>   -11.7710     0.0036     4.0004 </r>
       <r>   -11.6644     0.0373     4.0044 </r>
       <r>   -11.5578     0.1270     4.0179 </r>
       <r>   -11.4512    -0.2938     3.9866 </r>
       <r>   -11.3446    -1.6213     3.8137 </r>
       <r>   -11.2380     2.9293     4.1260 </r>
       <r>   -11.1314    16.5816     5.8937 </r>
       <r>   -11.0248    17.6243     7.7726 </r>
       <r>   -10.9182     4.0659     8.2060 </r>
       <r>   -10.8116    -1.7185     8.0228 </r>
       <r>   -10.7050    -1.1877     7.8962 </r>
       <r>   -10.5983     1.0586     8.0091 </r>
       <r>   -10.4917     7.6948     8.8294 </r>
       <r>   -10.3851     9.2939     9.8201 </r>
       <r>   -10.2785     2.6513    10.1028 </r>
       <r>   -10.1719    -0.7834    10.0193 </r>
       <r>   -10.0653    -0.2728     9.9902 </r>
       <r>    -9.9587     0.0623     9.9968 </r>
       <r>    -9.8521     0.0266     9.9997 </r>
       <r>    -9.7455     0.0030    10.0000 </r>
       <r>    -9.6389     0.0002    10.0000 </r>
       <r>    -9.5323     0.0000    10.0000 </r>
       <r>    -9.4257     0.0000    10.0000 </r>
       <r>    -9.3191     0.0000    10.0000 </r>
       <r>    -9.2125     0.0000    10.0000 </r>
       <r>    -9.1059     0.0000    10.0000 </r>
       <r>    -8.9993     0.0000    10.0000 </r>
       <r>    -8.8927     0.0000    10.0000 </r>
       <r>    -8.7861     0.0000    10.0000 </r>
       <r>    -8.6794     0.0000    10.0000 </r>
       <r>    -8.5728     0.0000    10.0000 </r>
       <r>    -8.4662     0.0000    10.0000 </r>
       <r>    -8.3596     0.0000    10.0000 </r>
       <r>    -8.2530     0.0000    10.0000 </r>
       <r>    -8.1464     0.0000    10.0000 </r>
       <r>    -8.0398     0.0000    10.0000 </r>
       <r>    -7.9332     0.0000    10.0000 </r>
       <r>    -7.8266     0.0000    10.0000 </r>
       <r>    -7.7200     0.0000    10.0000 </r>
       <r>    -7.6134     0.0000    10.0000 </r>
       <r>    -7.5068     0.0000    10.0000 </r>
       <r>    -7.4002     0.0001    10.0000 </r>
       <r>    -7.2936     0.0020    10.0002 </r>
       <r>    -7.1870     0.0199    10.0023 </r>
       <r>    -7.0804     0.0642    10.0092 </r>
       <r>    -6.9738    -0.1664     9.9914 </r>
       <r>    -6.8672    -0.8171     9.9043 </r>
       <r>    -6.7605     1.6647    10.0818 </r>
       <r>    -6.6539     8.5872    10.9972 </r>
       <r>    -6.5473     8.8340    11.9390 </r>
       <r>    -6.4407     0.9907    12.0446 </r>
       <r>    -6.3341    -3.1090    11.7132 </r>
       <r>    -6.2275     7.6923    12.5332 </r>
       <r>    -6.1209    29.3710    15.6643 </r>
       <r>    -6.0143    32.2928    19.1069 </r>
       <r>    -5.9077    23.7302    21.6367 </r>
       <r>    -5.8011    35.3533    25.4055 </r>
       <r>    -5.6945    73.8024    33.2733 </r>
       <r>    -5.5879   161.8329    50.5256 </r>
       <r>    -5.4813   276.4158    79.9931 </r>
       <r>    -5.3747   292.5348   111.1789 </r>
       <r>    -5.2681   220.8714   134.7250 </r>
       <r>    -5.1615   217.6198   157.9245 </r>
       <r>    -5.0549   310.1171   190.9847 </r>
       <r>    -4.9483   365.2368   229.9210 </r>
       <r>    -4.8416   311.4011   263.1181 </r>
       <r>    -4.7350   294.6587   294.5304 </r>
       <r>    -4.6284   387.5664   335.8471 </r>
       <r>    -4.5218   430.7983   381.7726 </r>
       <r>    -4.4152   428.5617   427.4597 </r>
       <r>    -4.3086   518.1256   482.6948 </r>
       <r>    -4.2020   541.2354   540.3935 </r>
       <r>    -4.0954   315.4580   574.0231 </r>
       <r>    -3.9888    66.4250   581.1044 </r>
       <r>    -3.8822     8.6042   582.0216 </r>
       <r>    -3.7756    32.3257   585.4677 </r>
       <r>    -3.6690    21.3293   587.7416 </r>
       <r>    -3.5624    10.6506   588.8770 </r>
       <r>    -3.4558    24.5818   591.4975 </r>
       <r>    -3.3492    20.7515   593.7098 </r>
       <r>    -3.2426    -0.1831   593.6902 </r>
       <r>    -3.1360     8.1714   594.5614 </r>
       <r>    -3.0294    50.9095   599.9886 </r>
       <r>    -2.9227    65.6474   606.9870 </r>
       <r>    -2.8161    30.0633   610.1919 </r>
       <r>    -2.7095    -1.2618   610.0574 </r>
       <r>    -2.6029     2.5121   610.3252 </r>
       <r>    -2.4963    23.7831   612.8606 </r>
       <r>    -2.3897    29.4308   615.9981 </r>
       <r>    -2.2831    14.7254   617.5679 </r>
       <r>    -2.1765    12.1790   618.8663 </r>
       <r>    -2.0699    32.8930   622.3728 </r>
       <r>    -1.9633    45.0766   627.1783 </r>
       <r>    -1.8567    38.0154   631.2309 </r>
       <r>    -1.7501    33.3546   634.7867 </r>
       <r>    -1.6435    40.5807   639.1128 </r>
       <r>    -1.5369    39.1475   643.2862 </r>
       <r>    -1.4303    26.4436   646.1052 </r>
       <r>    -1.3237    19.6010   648.1948 </r>
       <r>    -1.2171    22.1632   650.5575 </r>
       <r>    -1.1105    26.8768   653.4227 </r>
       <r>    -1.0038    46.9260   658.4253 </r>
       <r>    -0.8972    68.7452   665.7539 </r>
       <r>    -0.7906    47.3160   670.7981 </r>
       <r>    -0.6840    12.6954   672.1515 </r>
       <r>    -0.5774    -0.5107   672.0970 </r>
       <r>    -0.4708    -1.0846   671.9814 </r>
       <r>    -0.3642    -0.0143   671.9799 </r>
       <r>    -0.2576     0.1448   671.9953 </r>
       <r>    -0.1510     0.0394   671.9995 </r>
       <r>    -0.0444     0.0042   672.0000 </r>
       <r>     0.0622     0.0002   672.0000 </r>
       <r>     0.1688     0.0000   672.0000 </r>
       <r>     0.2754     0.0000   672.0000 </r>
       <r>     0.3820     0.0000   672.0000 </r>
       <r>     0.4886     0.0000   672.0000 </r>
       <r>     0.5952     0.0000   672.0000 </r>
       <r>     0.7018     0.0000   672.0000 </r>
       <r>     0.8084     0.0000   672.0000 </r>
       <r>     0.9151     0.0000   672.0000 </r>
       <r>     1.0217     0.0000   672.0000 </r>
       <r>     1.1283     0.0000   672.0000 </r>
       <r>     1.2349     0.0000   672.0000 </r>
      </set>
     </set>
    </array>
   </total>
  </dos>
 </calculation>
 <structure name="finalpos" >
  <crystal>
   <varray name="basis" >
    <v>      30.00000000       0.00000000       0.00000000 </v>
    <v>       0.00000000      30.00000000       0.00000000 </v>
    <v>       0.00000000       0.00000000      30.00000000 </v>
   </varray>
   <i name="volume">  27000.00000000 </i>
   <varray name="rec_basis" >
    <v>       0.03333333       0.00000000       0.00000000 </v>
    <v>       0.00000000       0.03333333       0.00000000 </v>
    <v>       0.00000000       0.00000000       0.03333333 </v>
   </varray>
  </crystal>
  <varray name="positions" >
   <v>       0.44576020       0.32826710       0.41691983 </v>
   <v>       0.67173288       0.55423978       0.41691983 </v>
   <v>       0.55423980       0.32826710       0.41691983 </v>
   <v>       0.32826712       0.55423978       0.41691983 </v>
   <v>       0.50000000       0.38250690       0.34021317 </v>
   <v>       0.50000000       0.38250690       0.65978680 </v>
   <v>       0.50000000       0.27609440       0.50000000 </v>
   <v>       0.27609443       0.49999998       0.50000000 </v>
   <v>       0.72390557       0.49999998       0.50000000 </v>
   <v>       0.50000000       0.72390555       0.50000000 </v>
   <v>       0.61195280       0.38804720       0.34167483 </v>
   <v>       0.61195280       0.38804720       0.65832513 </v>
   <v>       0.38804722       0.61195278       0.34167483 </v>
   <v>       0.38804722       0.61195278       0.65832513 </v>
   <v>       0.38804720       0.38804720       0.34167483 </v>
   <v>       0.38804720       0.38804720       0.65832513 </v>
   <v>       0.61195278       0.61195278       0.34167483 </v>
   <v>       0.61195278       0.61195278       0.65832513 </v>
   <v>       0.44576020       0.32826710       0.58308023 </v>
   <v>       0.67173288       0.55423978       0.58308023 </v>
   <v>       0.55791699       0.44208301       0.41809300 </v>
   <v>       0.32826705       0.44576024       0.41691983 </v>
   <v>       0.55423973       0.67173293       0.41691983 </v>
   <v>       0.55423980       0.32826710       0.58308023 </v>
   <v>       0.32826712       0.55423978       0.58308023 </v>
   <v>       0.67173295       0.44576024       0.41691983 </v>
   <v>       0.44576027       0.67173293       0.41691983 </v>
   <v>       0.44208301       0.44208301       0.41809300 </v>
   <v>       0.50000000       0.38416601       0.50000000 </v>
   <v>       0.61749315       0.50000005       0.34021317 </v>
   <v>       0.61749315       0.50000005       0.65978680 </v>
   <v>       0.38250685       0.50000005       0.34021317 </v>
   <v>       0.38250685       0.50000005       0.65978680 </v>
   <v>       0.38317830       0.38317830       0.50000000 </v>
   <v>       0.61682172       0.61682172       0.50000000 </v>
   <v>       0.61682170       0.38317830       0.50000000 </v>
   <v>       0.38317828       0.61682172       0.50000000 </v>
   <v>       0.50000000       0.50000000       0.33478917 </v>
   <v>       0.50000000       0.50000000       0.66521087 </v>
   <v>       0.32826705       0.44576024       0.58308023 </v>
   <v>       0.55423973       0.67173293       0.58308023 </v>
   <v>       0.55791699       0.44208301       0.58190703 </v>
   <v>       0.44208298       0.55791702       0.41809300 </v>
   <v>       0.44208301       0.44208301       0.58190703 </v>
   <v>       0.67173295       0.44576024       0.58308023 </v>
   <v>       0.44576027       0.67173293       0.58308023 </v>
   <v>       0.55791702       0.55791702       0.41809300 </v>
   <v>       0.38416599       0.50000002       0.50000000 </v>
   <v>       0.61583401       0.50000002       0.50000000 </v>
   <v>       0.50000000       0.61749319       0.34021317 </v>
   <v>       0.50000000       0.61749319       0.65978680 </v>
   <v>       0.50000000       0.50000000       0.50000000 </v>
   <v>       0.44208298       0.55791702       0.58190703 </v>
   <v>       0.55791702       0.55791702       0.58190703 </v>
   <v>       0.50000000       0.61583404       0.50000000 </v>
   <v>       0.64492203       0.49673413       0.72145433 </v>
   <v>       0.66550950       0.49627017       0.75291383 </v>
  </varray>
  <varray name="selective"  type="logical" >
   <v type="logical" >  F  F  F </v>
   <v type="logical" >  F  F  F </v>
   <v type="logical" >  F  F  F </v>
   <v type="logical" >  F  F  F </v>
   <v type="logical" >  F  F  F </v>
   <v type="logical" >  F  F  F </v>
   <v type="logical" >  F  F  F </v>
   <v type="logical" >  F  F  F </v>
   <v type="logical" >  F  F  F </v>
   <v type="logical" >  F  F  F </v>
   <v type="logical" >  F  F  F </v>
   <v type="logical" >  F  F  F </v>
   <v type="logical" >  F  F  F </v>
   <v type="logical" >  F  F  F </v>
   <v type="logical" >  F  F  F </v>
   <v type="logical" >  F  F  F </v>
   <v type="logical" >  F  F  F </v>
   <v type="logical" >  F  F  F </v>
   <v type="logical" >  F  F  F </v>
   <v type="logical" >  F  F  F </v>
   <v type="logical" >  F  F  F </v>
   <v type="logical" >  F  F  F </v>
   <v type="logical" >  F  F  F </v>
   <v type="logical" >  F  F  F </v>
   <v type="logical" >  F  F  F </v>
   <v type="logical" >  F  F  F </v>
   <v type="logical" >  F  F  F </v>
   <v type="logical" >  F  F  F </v>
   <v type="logical" >  F  F  F </v>
   <v type="logical" >  F  F  F </v>
   <v type="logical" >  F  F  F </v>
   <v type="logical" >  F  F  F </v>
   <v type="logical" >  F  F  F </v>
   <v type="logical" >  F  F  F </v>
   <v type="logical" >  F  F  F </v>
   <v type="logical" >  F  F  F </v>
   <v type="logical" >  F  F  F </v>
   <v type="logical" >  F  F  F </v>
   <v type="logical" >  F  F  F </v>
   <v type="logical" >  F  F  F </v>
   <v type="logical" >  F  F  F </v>
   <v type="logical" >  F  F  F </v>
   <v type="logical" >  F  F  F </v>
   <v type="logical" >  F  F  F </v>
   <v type="logical" >  F  F  F </v>
   <v type="logical" >  F  F  F </v>
   <v type="logical" >  F  F  F </v>
   <v type="logical" >  F  F  F </v>
   <v type="logical" >  F  F  F </v>
   <v type="logical" >  F  F  F </v>
   <v type="logical" >  F  F  F </v>
   <v type="logical" >  F  F  F </v>
   <v type="logical" >  F  F  F </v>
   <v type="logical" >  F  F  F </v>
   <v type="logical" >  F  F  F </v>
   <v type="logical" >  F  F  F </v>
   <v type="logical" >  F  F  F </v>
  </varray>
  <nose>
   <v>      -3.00000000       0.00000000       0.00010000       0.00010000 </v>
  </nose>
 </structure>
</modeling>
