  57  57   0   0
  0.4736842E+03  0.3000000E-08  0.3000000E-08  0.3000000E-08  0.5000000E-15
  1.000000000000000E-004
  CAR 
 6_Pd100_top_free_z(O)                   
      1.38565728    -30.82015550  301     -4.13479549      1.00000000
    -30.820  0.0000E+00  0.0000E+00
    -30.713  0.0000E+00  0.0000E+00
    -30.605  0.0000E+00  0.0000E+00
    -30.498  0.3980E-27  0.4273E-28
    -30.391  0.1981E-23  0.2127E-24
    -30.283  0.5453E-20  0.5856E-21
    -30.176  0.8281E-17  0.8896E-18
    -30.069  0.6911E-14  0.7428E-15
    -29.961  0.3160E-11  0.3399E-12
    -29.854  0.7838E-09  0.8448E-10
    -29.747  0.1045E-06  0.1130E-07
    -29.639  0.7374E-05  0.8029E-06
    -29.532  0.2678E-03  0.2955E-04
    -29.425  0.4737E-02  0.5381E-03
    -29.317  0.3540E-01  0.4338E-02
    -29.210  0.4826E-01  0.9519E-02
    -29.103 -0.4231E+00 -0.3590E-01
    -28.995 -0.5780E+00 -0.9795E-01
    -28.888  0.4119E+01  0.3443E+00
    -28.780  0.9903E+01  0.1407E+01
    -28.673  0.6070E+01  0.2059E+01
    -28.566  0.2615E-01  0.2062E+01
    -28.458 -0.6332E+00  0.1994E+01
    -28.351 -0.1910E-02  0.1994E+01
    -28.244  0.4940E-01  0.1999E+01
    -28.136  0.8777E-02  0.2000E+01
    -28.029  0.6083E-03  0.2000E+01
    -27.922  0.2006E-04  0.2000E+01
    -27.814  0.3368E-06  0.2000E+01
    -27.707  0.2976E-08  0.2000E+01
    -27.600  0.1409E-10  0.2000E+01
    -27.492  0.3516E-13  0.2000E+01
    -27.385  0.0000E+00  0.2000E+01
    -27.278  0.0000E+00  0.2000E+01
    -27.170  0.0000E+00  0.2000E+01
    -27.063  0.0000E+00  0.2000E+01
    -26.955  0.0000E+00  0.2000E+01
    -26.848  0.0000E+00  0.2000E+01
    -26.741  0.0000E+00  0.2000E+01
    -26.633  0.0000E+00  0.2000E+01
    -26.526  0.0000E+00  0.2000E+01
    -26.419  0.0000E+00  0.2000E+01
    -26.311  0.0000E+00  0.2000E+01
    -26.204  0.0000E+00  0.2000E+01
    -26.097  0.0000E+00  0.2000E+01
    -25.989  0.0000E+00  0.2000E+01
    -25.882  0.0000E+00  0.2000E+01
    -25.775  0.0000E+00  0.2000E+01
    -25.667  0.0000E+00  0.2000E+01
    -25.560  0.0000E+00  0.2000E+01
    -25.453  0.0000E+00  0.2000E+01
    -25.345  0.0000E+00  0.2000E+01
    -25.238  0.0000E+00  0.2000E+01
    -25.130  0.0000E+00  0.2000E+01
    -25.023  0.0000E+00  0.2000E+01
    -24.916  0.0000E+00  0.2000E+01
    -24.808  0.0000E+00  0.2000E+01
    -24.701  0.0000E+00  0.2000E+01
    -24.594  0.0000E+00  0.2000E+01
    -24.486  0.0000E+00  0.2000E+01
    -24.379  0.0000E+00  0.2000E+01
    -24.272  0.0000E+00  0.2000E+01
    -24.164  0.0000E+00  0.2000E+01
    -24.057  0.0000E+00  0.2000E+01
    -23.950  0.0000E+00  0.2000E+01
    -23.842  0.0000E+00  0.2000E+01
    -23.735  0.0000E+00  0.2000E+01
    -23.628  0.0000E+00  0.2000E+01
    -23.520  0.0000E+00  0.2000E+01
    -23.413  0.0000E+00  0.2000E+01
    -23.305  0.0000E+00  0.2000E+01
    -23.198  0.0000E+00  0.2000E+01
    -23.091  0.0000E+00  0.2000E+01
    -22.983  0.0000E+00  0.2000E+01
    -22.876  0.0000E+00  0.2000E+01
    -22.769  0.0000E+00  0.2000E+01
    -22.661  0.0000E+00  0.2000E+01
    -22.554  0.0000E+00  0.2000E+01
    -22.447  0.0000E+00  0.2000E+01
    -22.339  0.0000E+00  0.2000E+01
    -22.232  0.0000E+00  0.2000E+01
    -22.125  0.0000E+00  0.2000E+01
    -22.017  0.0000E+00  0.2000E+01
    -21.910  0.0000E+00  0.2000E+01
    -21.803  0.0000E+00  0.2000E+01
    -21.695  0.0000E+00  0.2000E+01
    -21.588  0.0000E+00  0.2000E+01
    -21.480  0.0000E+00  0.2000E+01
    -21.373  0.0000E+00  0.2000E+01
    -21.266  0.0000E+00  0.2000E+01
    -21.158  0.0000E+00  0.2000E+01
    -21.051  0.0000E+00  0.2000E+01
    -20.944  0.0000E+00  0.2000E+01
    -20.836  0.0000E+00  0.2000E+01
    -20.729  0.0000E+00  0.2000E+01
    -20.622  0.0000E+00  0.2000E+01
    -20.514  0.0000E+00  0.2000E+01
    -20.407  0.0000E+00  0.2000E+01
    -20.300  0.0000E+00  0.2000E+01
    -20.192  0.0000E+00  0.2000E+01
    -20.085  0.0000E+00  0.2000E+01
    -19.978  0.0000E+00  0.2000E+01
    -19.870  0.0000E+00  0.2000E+01
    -19.763  0.0000E+00  0.2000E+01
    -19.655  0.0000E+00  0.2000E+01
    -19.548  0.0000E+00  0.2000E+01
    -19.441  0.0000E+00  0.2000E+01
    -19.333  0.0000E+00  0.2000E+01
    -19.226  0.0000E+00  0.2000E+01
    -19.119  0.0000E+00  0.2000E+01
    -19.011  0.0000E+00  0.2000E+01
    -18.904  0.0000E+00  0.2000E+01
    -18.797  0.0000E+00  0.2000E+01
    -18.689  0.0000E+00  0.2000E+01
    -18.582  0.0000E+00  0.2000E+01
    -18.475  0.0000E+00  0.2000E+01
    -18.367  0.0000E+00  0.2000E+01
    -18.260  0.0000E+00  0.2000E+01
    -18.153  0.0000E+00  0.2000E+01
    -18.045  0.0000E+00  0.2000E+01
    -17.938  0.0000E+00  0.2000E+01
    -17.830  0.0000E+00  0.2000E+01
    -17.723  0.0000E+00  0.2000E+01
    -17.616  0.0000E+00  0.2000E+01
    -17.508  0.0000E+00  0.2000E+01
    -17.401  0.0000E+00  0.2000E+01
    -17.294  0.0000E+00  0.2000E+01
    -17.186  0.0000E+00  0.2000E+01
    -17.079  0.0000E+00  0.2000E+01
    -16.972  0.0000E+00  0.2000E+01
    -16.864  0.0000E+00  0.2000E+01
    -16.757  0.0000E+00  0.2000E+01
    -16.650  0.0000E+00  0.2000E+01
    -16.542  0.0000E+00  0.2000E+01
    -16.435  0.0000E+00  0.2000E+01
    -16.328  0.0000E+00  0.2000E+01
    -16.220  0.0000E+00  0.2000E+01
    -16.113  0.0000E+00  0.2000E+01
    -16.005  0.0000E+00  0.2000E+01
    -15.898  0.0000E+00  0.2000E+01
    -15.791  0.0000E+00  0.2000E+01
    -15.683  0.0000E+00  0.2000E+01
    -15.576  0.0000E+00  0.2000E+01
    -15.469  0.0000E+00  0.2000E+01
    -15.361  0.0000E+00  0.2000E+01
    -15.254  0.0000E+00  0.2000E+01
    -15.147  0.4265E-27  0.2000E+01
    -15.039  0.2113E-23  0.2000E+01
    -14.932  0.5790E-20  0.2000E+01
    -14.825  0.8751E-17  0.2000E+01
    -14.717  0.7268E-14  0.2000E+01
    -14.610  0.3308E-11  0.2000E+01
    -14.503  0.8165E-09  0.2000E+01
    -14.395  0.1083E-06  0.2000E+01
    -14.288  0.7605E-05  0.2000E+01
    -14.180  0.2747E-03  0.2000E+01
    -14.073  0.4830E-02  0.2001E+01
    -13.966  0.3581E-01  0.2004E+01
    -13.858  0.4733E-01  0.2009E+01
    -13.751 -0.4295E+00  0.1963E+01
    -13.644 -0.5658E+00  0.1903E+01
    -13.536  0.4177E+01  0.2351E+01
    -13.429  0.9915E+01  0.3415E+01
    -13.322  0.6012E+01  0.4061E+01
    -13.214  0.1500E-02  0.4061E+01
    -13.107 -0.6272E+00  0.3994E+01
    -13.000  0.2574E-03  0.3994E+01
    -12.892  0.4898E-01  0.3999E+01
    -12.785  0.8623E-02  0.4000E+01
    -12.678  0.5939E-03  0.4000E+01
    -12.570  0.1947E-04  0.4000E+01
    -12.463  0.3254E-06  0.4000E+01
    -12.355  0.2862E-08  0.4000E+01
    -12.248  0.4682E-09  0.4000E+01
    -12.141  0.6925E-07  0.4000E+01
    -12.033  0.5620E-05  0.4000E+01
    -11.926  0.2375E-03  0.4000E+01
    -11.819  0.4990E-02  0.4001E+01
    -11.711  0.4682E-01  0.4006E+01
    -11.604  0.1248E+00  0.4019E+01
    -11.497 -0.4634E+00  0.3969E+01
    -11.389 -0.1570E+01  0.3801E+01
    -11.282  0.4698E+01  0.4305E+01
    -11.175  0.1808E+02  0.6246E+01
    -11.067  0.1571E+02  0.7933E+01
    -10.960  0.2239E+01  0.8173E+01
    -10.853 -0.1555E+01  0.8006E+01
    -10.745 -0.2045E+00  0.7984E+01
    -10.638  0.1639E+00  0.8002E+01
    -10.530  0.5762E-01  0.8008E+01
    -10.423 -0.5352E+00  0.7950E+01
    -10.316 -0.3057E+00  0.7918E+01
    -10.208  0.5168E+01  0.8472E+01
    -10.101  0.1001E+02  0.9547E+01
     -9.994  0.5017E+01  0.1009E+02
     -9.886 -0.3521E+00  0.1005E+02
     -9.779 -0.5215E+00  0.9992E+01
     -9.672  0.3034E-01  0.9995E+01
     -9.564  0.4181E-01  0.9999E+01
     -9.457  0.6343E-02  0.1000E+02
     -9.350  0.3934E-03  0.1000E+02
     -9.242  0.1177E-04  0.1000E+02
     -9.135  0.1803E-06  0.1000E+02
     -9.028  0.1458E-08  0.1000E+02
     -8.920  0.6329E-11  0.1000E+02
     -8.813  0.1448E-13  0.1000E+02
     -8.705  0.0000E+00  0.1000E+02
     -8.598  0.0000E+00  0.1000E+02
     -8.491  0.0000E+00  0.1000E+02
     -8.383  0.0000E+00  0.1000E+02
     -8.276  0.8916E-26  0.1000E+02
     -8.169  0.3592E-22  0.1000E+02
     -8.061  0.7999E-19  0.1000E+02
     -7.954  0.9812E-16  0.1000E+02
     -7.847  0.6605E-13  0.1000E+02
     -7.739  0.2431E-10  0.1000E+02
     -7.632  0.4837E-08  0.1000E+02
     -7.525  0.5150E-06  0.1000E+02
     -7.417  0.2878E-04  0.1000E+02
     -7.310  0.8153E-03  0.1000E+02
     -7.203  0.1087E-01  0.1000E+02
     -7.095  0.5438E-01  0.1001E+02
     -6.988 -0.3246E-01  0.1000E+02
     -6.881 -0.7024E+00  0.9928E+01
     -6.773  0.3691E+00  0.9968E+01
     -6.666  0.6828E+01  0.1070E+02
     -6.558  0.9876E+01  0.1176E+02
     -6.451  0.3090E+01  0.1209E+02
     -6.344 -0.3014E+01  0.1177E+02
     -6.236  0.3577E+01  0.1215E+02
     -6.129  0.2415E+02  0.1475E+02
     -6.022  0.2425E+02  0.1735E+02
     -5.914  0.7641E+01  0.1817E+02
     -5.807  0.2750E+02  0.2112E+02
     -5.700  0.7618E+02  0.2930E+02
     -5.592  0.1502E+03  0.4543E+02
     -5.485  0.2608E+03  0.7342E+02
     -5.378  0.2998E+03  0.1056E+03
     -5.270  0.2327E+03  0.1306E+03
     -5.163  0.2109E+03  0.1532E+03
     -5.056  0.2963E+03  0.1850E+03
     -4.948  0.3686E+03  0.2246E+03
     -4.841  0.3268E+03  0.2597E+03
     -4.733  0.2920E+03  0.2910E+03
     -4.626  0.3687E+03  0.3306E+03
     -4.519  0.4190E+03  0.3756E+03
     -4.411  0.4234E+03  0.4211E+03
     -4.304  0.5103E+03  0.4758E+03
     -4.197  0.5494E+03  0.5348E+03
     -4.089  0.3429E+03  0.5716E+03
     -3.982  0.8635E+02  0.5809E+03
     -3.875  0.1439E+02  0.5824E+03
     -3.767  0.3224E+02  0.5859E+03
     -3.660  0.1860E+02  0.5879E+03
     -3.553  0.7561E+01  0.5887E+03
     -3.445  0.2289E+02  0.5912E+03
     -3.338  0.2170E+02  0.5935E+03
     -3.231  0.1370E+01  0.5936E+03
     -3.123  0.8823E+01  0.5946E+03
     -3.016  0.5190E+02  0.6002E+03
     -2.908  0.6199E+02  0.6068E+03
     -2.801  0.2601E+02  0.6096E+03
     -2.694  0.3393E+01  0.6100E+03
     -2.586  0.1482E+02  0.6116E+03
     -2.479  0.2807E+02  0.6146E+03
     -2.372  0.1354E+02  0.6160E+03
     -2.264  0.5647E+01  0.6166E+03
     -2.157  0.2304E+02  0.6191E+03
     -2.050  0.3437E+02  0.6228E+03
     -1.942  0.3681E+02  0.6268E+03
     -1.835  0.4640E+02  0.6317E+03
     -1.728  0.4738E+02  0.6368E+03
     -1.620  0.3850E+02  0.6410E+03
     -1.513  0.3352E+02  0.6446E+03
     -1.406  0.3130E+02  0.6479E+03
     -1.298  0.1656E+02  0.6497E+03
     -1.191  0.1893E+01  0.6499E+03
     -1.083  0.1870E+02  0.6519E+03
     -0.976  0.5900E+02  0.6582E+03
     -0.869  0.7065E+02  0.6658E+03
     -0.761  0.3705E+02  0.6698E+03
     -0.654  0.1023E+02  0.6709E+03
     -0.547  0.7222E+01  0.6717E+03
     -0.439  0.3630E+01  0.6721E+03
     -0.332 -0.3336E+00  0.6720E+03
     -0.225 -0.3292E+00  0.6720E+03
     -0.117  0.6062E-01  0.6720E+03
     -0.010  0.3616E-01  0.6720E+03
      0.097  0.4761E-02  0.6720E+03
      0.205  0.2682E-03  0.6720E+03
      0.312  0.7377E-05  0.6720E+03
      0.419  0.1045E-06  0.6720E+03
      0.527  0.7838E-09  0.6720E+03
      0.634  0.3160E-11  0.6720E+03
      0.742  0.6205E-14  0.6720E+03
      0.849  0.0000E+00  0.6720E+03
      0.956  0.0000E+00  0.6720E+03
      1.064  0.0000E+00  0.6720E+03
      1.171  0.0000E+00  0.6720E+03
      1.278  0.0000E+00  0.6720E+03
      1.386  0.0000E+00  0.6720E+03
