<?xml version="1.0" encoding="ISO-8859-1"?>
<modeling>
 <generator>
  <i name="program" type="string">vasp </i>
  <i name="version" type="string">5.4.4.18Apr17-6-g9f103f2a35  </i>
  <i name="subversion" type="string">(build Sep 03 2018 23:53:05) complex            parallel </i>
  <i name="platform" type="string">LinuxIFC </i>
  <i name="date" type="string">2021 11 26 </i>
  <i name="time" type="string">03:07:35 </i>
 </generator>
 <incar>
  <i type="string" name="SYSTEM"> 6_Pd100_top_free_z(O)</i>
  <i type="int" name="ISTART">     0</i>
  <i type="string" name="PREC">normal   			! encut=max(enmax), ngx,y,z</i>
  <i type="string" name="ALGO"> Fast     			! Mix RMM-DIIS and Dav</i>
  <i type="logical" name="ADDGRID"> F  </i>
  <i type="int" name="ISPIN">     1</i>
  <i type="int" name="ICHARG">     2</i>
  <i type="int" name="NELM">   100</i>
  <i type="int" name="NELMIN">     6</i>
  <i type="int" name="IBRION">     2</i>
  <i name="EDIFF">      0.00010000</i>
  <i name="EDIFFG">     -0.05000000</i>
  <i type="int" name="NSW">     0</i>
  <i type="int" name="ISIF">     2</i>
  <i type="int" name="ISYM">     2</i>
  <i name="ENCUT">    400.00000000</i>
  <i type="string" name="LREAL"> Auto     			! Auto or A projection done</i>
  <i type="int" name="ISMEAR">     2</i>
  <i name="SIGMA">      0.20000000</i>
  <i type="logical" name="LWAVE"> F  </i>
  <i type="logical" name="LCHARG"> F  </i>
  <v type="int" name="KPOINT_BSE">    -1     0     0     0</v>
  <i type="int" name="MAXMEM"> 10000</i>
  <i type="int" name="NELM">   100</i>
  <i type="string" name="GGA"> RP         			! Revised PBE</i>
 </incar>
 <structure name="primitive_cell" >
  <crystal>
   <varray name="basis" >
    <v>      30.00000000       0.00000000       0.00000000 </v>
    <v>       0.00000000      30.00000000       0.00000000 </v>
    <v>       0.00000000       0.00000000      30.00000000 </v>
   </varray>
   <i name="volume">  27000.00000000 </i>
   <varray name="rec_basis" >
    <v>       0.03333333       0.00000000       0.00000000 </v>
    <v>       0.00000000       0.03333333       0.00000000 </v>
    <v>       0.00000000       0.00000000       0.03333333 </v>
   </varray>
  </crystal>
  <varray name="positions" >
   <v>       0.44576020       0.32826710       0.41691983 </v>
   <v>      -0.44576020       0.32826710       0.41691983 </v>
   <v>      -0.50000000       0.38250690       0.34021317 </v>
   <v>      -0.50000000       0.27609440      -0.50000000 </v>
   <v>       0.38804720       0.38804720       0.34167483 </v>
   <v>      -0.50000000       0.38416601      -0.50000000 </v>
   <v>       0.44208300       0.44208300       0.41809300 </v>
   <v>       0.38317830       0.38317830      -0.50000000 </v>
   <v>      -0.44208300       0.44208300       0.41809300 </v>
   <v>       0.44576020       0.32826710      -0.41691977 </v>
   <v>       0.32826705       0.44576024       0.41691983 </v>
   <v>      -0.38804720       0.38804720       0.34167483 </v>
   <v>      -0.38317830       0.38317830      -0.50000000 </v>
   <v>      -0.50000000      -0.50000000       0.33478917 </v>
   <v>      -0.50000000      -0.50000000      -0.50000000 </v>
   <v>      -0.44576020       0.32826710      -0.41691977 </v>
   <v>       0.38250685      -0.49999995       0.34021317 </v>
   <v>       0.44208300       0.44208300      -0.41809297 </v>
   <v>       0.38416599      -0.49999998      -0.50000000 </v>
   <v>      -0.44208300       0.44208300      -0.41809297 </v>
   <v>       0.44208298      -0.44208298       0.41809300 </v>
   <v>       0.32826705       0.44576024      -0.41691977 </v>
   <v>      -0.50000000       0.38250690      -0.34021320 </v>
   <v>       0.32826712      -0.44576022       0.41691983 </v>
   <v>      -0.38250685      -0.49999995       0.34021317 </v>
   <v>      -0.32826705       0.44576024       0.41691983 </v>
   <v>      -0.47822753      -0.47714480       0.27096053 </v>
   <v>       0.27609443       0.49999998      -0.50000000 </v>
   <v>       0.38804720       0.38804720      -0.34167487 </v>
   <v>      -0.38416599      -0.49999998      -0.50000000 </v>
   <v>      -0.44208298      -0.44208298       0.41809300 </v>
   <v>      -0.47468673      -0.47342793       0.23371260 </v>
   <v>       0.44208298      -0.44208298      -0.41809297 </v>
   <v>      -0.38804720       0.38804720      -0.34167487 </v>
   <v>       0.38804722      -0.38804722       0.34167483 </v>
   <v>       0.38250685      -0.49999995      -0.34021320 </v>
   <v>       0.32826712      -0.44576022      -0.41691977 </v>
   <v>      -0.32826705       0.44576024      -0.41691977 </v>
   <v>       0.50000000      -0.38250681       0.34021317 </v>
   <v>      -0.50000000      -0.38416596      -0.50000000 </v>
   <v>      -0.44208298      -0.44208298      -0.41809297 </v>
   <v>      -0.50000000      -0.50000000      -0.33478913 </v>
   <v>       0.38317828      -0.38317828      -0.50000000 </v>
   <v>      -0.32826712      -0.44576022       0.41691983 </v>
   <v>      -0.27609443       0.49999998      -0.50000000 </v>
   <v>      -0.38804722      -0.38804722       0.34167483 </v>
   <v>      -0.38250685      -0.49999995      -0.34021320 </v>
   <v>       0.44576027      -0.32826707       0.41691983 </v>
   <v>      -0.38317828      -0.38317828      -0.50000000 </v>
   <v>      -0.32826712      -0.44576022      -0.41691977 </v>
   <v>      -0.44576027      -0.32826707       0.41691983 </v>
   <v>       0.38804722      -0.38804722      -0.34167487 </v>
   <v>      -0.50000000      -0.38250681      -0.34021320 </v>
   <v>       0.44576027      -0.32826707      -0.41691977 </v>
   <v>      -0.44576027      -0.32826707      -0.41691977 </v>
   <v>      -0.50000000      -0.27609445       0.50000000 </v>
   <v>      -0.38804722      -0.38804722      -0.34167487 </v>
  </varray>
 </structure>
 <varray name="primitive_index" >
  <v type="int" >        1 </v>
  <v type="int" >        3 </v>
  <v type="int" >        5 </v>
  <v type="int" >        7 </v>
  <v type="int" >       15 </v>
  <v type="int" >       29 </v>
  <v type="int" >       28 </v>
  <v type="int" >       34 </v>
  <v type="int" >       21 </v>
  <v type="int" >       19 </v>
  <v type="int" >       22 </v>
  <v type="int" >       11 </v>
  <v type="int" >       36 </v>
  <v type="int" >       38 </v>
  <v type="int" >       52 </v>
  <v type="int" >       24 </v>
  <v type="int" >       32 </v>
  <v type="int" >       44 </v>
  <v type="int" >       48 </v>
  <v type="int" >       42 </v>
  <v type="int" >       43 </v>
  <v type="int" >       40 </v>
  <v type="int" >        6 </v>
  <v type="int" >        4 </v>
  <v type="int" >       30 </v>
  <v type="int" >       26 </v>
  <v type="int" >       56 </v>
  <v type="int" >        8 </v>
  <v type="int" >       16 </v>
  <v type="int" >       49 </v>
  <v type="int" >       47 </v>
  <v type="int" >       57 </v>
  <v type="int" >       53 </v>
  <v type="int" >       12 </v>
  <v type="int" >       13 </v>
  <v type="int" >       33 </v>
  <v type="int" >       25 </v>
  <v type="int" >       45 </v>
  <v type="int" >       50 </v>
  <v type="int" >       55 </v>
  <v type="int" >       54 </v>
  <v type="int" >       39 </v>
  <v type="int" >       37 </v>
  <v type="int" >        2 </v>
  <v type="int" >        9 </v>
  <v type="int" >       17 </v>
  <v type="int" >       31 </v>
  <v type="int" >       27 </v>
  <v type="int" >       35 </v>
  <v type="int" >       20 </v>
  <v type="int" >       23 </v>
  <v type="int" >       14 </v>
  <v type="int" >       51 </v>
  <v type="int" >       46 </v>
  <v type="int" >       41 </v>
  <v type="int" >       10 </v>
  <v type="int" >       18 </v>
 </varray>
 <kpoints>
  <generation param="Monkhorst-Pack">
   <v type="int" name="divisions">       1        1        1 </v>
   <v name="usershift">      0.00000000       0.00000000       0.00000000 </v>
   <v name="genvec1">      1.00000000       0.00000000       0.00000000 </v>
   <v name="genvec2">      0.00000000       1.00000000       0.00000000 </v>
   <v name="genvec3">      0.00000000       0.00000000       1.00000000 </v>
   <v name="shift">      0.00000000       0.00000000       0.00000000 </v>
  </generation>
  <varray name="kpointlist" >
   <v>       0.00000000       0.00000000       0.00000000 </v>
  </varray>
  <varray name="weights" >
   <v>       1.00000000 </v>
  </varray>
 </kpoints>
 <parameters>
  <separator name="general" >
   <i type="string" name="SYSTEM">6_Pd100_top_free_z(O)</i>
   <i type="logical" name="LCOMPAT"> F  </i>
  </separator>
  <separator name="electronic" >
   <i type="string" name="PREC">normal</i>
   <i name="ENMAX">    400.00000000</i>
   <i name="ENAUG">    644.87300000</i>
   <i name="EDIFF">      0.00010000</i>
   <i type="int" name="IALGO">    68</i>
   <i type="int" name="IWAVPR">    10</i>
   <i type="int" name="NBANDS">   336</i>
   <i name="NELECT">    560.00000000</i>
   <i type="int" name="TURBO">     0</i>
   <i type="int" name="IRESTART">     0</i>
   <i type="int" name="NREBOOT">     0</i>
   <i type="int" name="NMIN">     0</i>
   <i name="EREF">      0.00000000</i>
   <separator name="electronic smearing" >
    <i type="int" name="ISMEAR">     2</i>
    <i name="SIGMA">      0.20000000</i>
    <i name="KSPACING">      0.50000000</i>
    <i type="logical" name="KGAMMA"> T  </i>
   </separator>
   <separator name="electronic projectors" >
    <i type="logical" name="LREAL"> T  </i>
    <v name="ROPT">     -0.00050000     -0.00050000     -0.00050000</v>
    <i type="int" name="LMAXPAW">  -100</i>
    <i type="int" name="LMAXMIX">     2</i>
    <i type="logical" name="NLSPLINE"> F  </i>
   </separator>
   <separator name="electronic startup" >
    <i type="int" name="ISTART">     0</i>
    <i type="int" name="ICHARG">     2</i>
    <i type="int" name="INIWAV">     1</i>
   </separator>
   <separator name="electronic spin" >
    <i type="int" name="ISPIN">     1</i>
    <i type="logical" name="LNONCOLLINEAR"> F  </i>
    <v name="MAGMOM">      1.00000000      1.00000000      1.00000000      1.00000000      1.00000000      1.00000000      1.00000000      1.00000000      1.00000000      1.00000000      1.00000000      1.00000000      1.00000000      1.00000000      1.00000000      1.00000000      1.00000000      1.00000000      1.00000000      1.00000000
      1.00000000      1.00000000      1.00000000      1.00000000      1.00000000      1.00000000      1.00000000      1.00000000      1.00000000      1.00000000      1.00000000      1.00000000      1.00000000      1.00000000      1.00000000      1.00000000      1.00000000      1.00000000      1.00000000      1.00000000
      1.00000000      1.00000000      1.00000000      1.00000000      1.00000000      1.00000000      1.00000000      1.00000000      1.00000000      1.00000000      1.00000000      1.00000000      1.00000000      1.00000000      1.00000000      1.00000000      1.00000000</v>
    <i name="NUPDOWN">     -1.00000000</i>
    <i type="logical" name="LSORBIT"> F  </i>
    <v name="SAXIS">      0.00000000      0.00000000      1.00000000</v>
    <i type="logical" name="LSPIRAL"> F  </i>
    <v name="QSPIRAL">      0.00000000      0.00000000      0.00000000</v>
    <i type="logical" name="LZEROZ"> F  </i>
   </separator>
   <separator name="electronic exchange-correlation" >
    <i type="logical" name="LASPH"> F  </i>
    <i type="logical" name="LMETAGGA"> F  </i>
   </separator>
   <separator name="electronic convergence" >
    <i type="int" name="NELM">   100</i>
    <i type="int" name="NELMDL">    -5</i>
    <i type="int" name="NELMIN">     6</i>
    <i name="ENINI">    400.00000000</i>
    <separator name="electronic convergence detail" >
     <i type="logical" name="LDIAG"> T  </i>
     <i type="logical" name="LSUBROT"> F  </i>
     <i name="WEIMIN">      0.00000000</i>
     <i name="EBREAK">      0.00000007</i>
     <i name="DEPER">      0.30000000</i>
     <i type="int" name="NRMM">     4</i>
     <i name="TIME">      0.40000000</i>
    </separator>
   </separator>
   <separator name="electronic mixer" >
    <i name="AMIX">      0.40000000</i>
    <i name="BMIX">      1.00000000</i>
    <i name="AMIN">      0.10000000</i>
    <i name="AMIX_MAG">      1.60000000</i>
    <i name="BMIX_MAG">      1.00000000</i>
    <separator name="electronic mixer details" >
     <i type="int" name="IMIX">     4</i>
     <i type="logical" name="MIXFIRST"> F  </i>
     <i type="int" name="MAXMIX">   -45</i>
     <i name="WC">    100.00000000</i>
     <i type="int" name="INIMIX">     1</i>
     <i type="int" name="MIXPRE">     1</i>
     <i type="int" name="MREMOVE">     5</i>
    </separator>
   </separator>
   <separator name="electronic dipolcorrection" >
    <i type="logical" name="LDIPOL"> F  </i>
    <i type="logical" name="LMONO"> F  </i>
    <i type="int" name="IDIPOL">     0</i>
    <i name="EPSILON">      1.00000000</i>
    <v name="DIPOL">   -100.00000000   -100.00000000   -100.00000000</v>
    <i name="EFIELD">      0.00000000</i>
   </separator>
  </separator>
  <separator name="grids" >
   <i type="int" name="NGX">   150</i>
   <i type="int" name="NGY">   150</i>
   <i type="int" name="NGZ">   150</i>
   <i type="int" name="NGXF">   300</i>
   <i type="int" name="NGYF">   300</i>
   <i type="int" name="NGZF">   300</i>
   <i type="logical" name="ADDGRID"> F  </i>
  </separator>
  <separator name="ionic" >
   <i type="int" name="NSW">     0</i>
   <i type="int" name="IBRION">    -1</i>
   <i type="int" name="MDALGO">     0</i>
   <i type="int" name="ISIF">     2</i>
   <i name="PSTRESS">      0.00000000</i>
   <i name="EDIFFG">     -0.05000000</i>
   <i type="int" name="NFREE">     1</i>
   <i name="POTIM">      0.50000000</i>
   <i name="SMASS">     -3.00000000</i>
   <i name="SCALEE">      1.00000000</i>
  </separator>
  <separator name="ionic md" >
   <i name="TEBEG">      0.00010000</i>
   <i name="TEEND">      0.00010000</i>
   <i type="int" name="NBLOCK">     1</i>
   <i type="int" name="KBLOCK">     1</i>
   <i type="int" name="NPACO">   256</i>
   <i name="APACO">     16.00000000</i>
  </separator>
  <separator name="symmetry" >
   <i type="int" name="ISYM">     2</i>
   <i name="SYMPREC">      0.00001000</i>
  </separator>
  <separator name="dos" >
   <i type="int" name="LORBIT">     0</i>
   <v name="RWIGS">     -1.00000000     -1.00000000     -1.00000000</v>
   <i type="int" name="NEDOS">   301</i>
   <i name="EMIN">     10.00000000</i>
   <i name="EMAX">    -10.00000000</i>
   <i name="EFERMI">      0.00000000</i>
  </separator>
  <separator name="writing" >
   <i type="int" name="NWRITE">     2</i>
   <i type="logical" name="LWAVE"> F  </i>
   <i type="logical" name="LDOWNSAMPLE"> F  </i>
   <i type="logical" name="LCHARG"> F  </i>
   <i type="logical" name="LPARD"> F  </i>
   <i type="logical" name="LVTOT"> F  </i>
   <i type="logical" name="LVHAR"> F  </i>
   <i type="logical" name="LELF"> F  </i>
   <i type="logical" name="LOPTICS"> F  </i>
   <v name="STM">      0.00000000      0.00000000      0.00000000      0.00000000      0.00000000      0.00000000      0.00000000</v>
  </separator>
  <separator name="performance" >
   <i type="int" name="NPAR">     1</i>
   <i type="int" name="NSIM">     4</i>
   <i type="int" name="NBLK">    -1</i>
   <i type="logical" name="LPLANE"> T  </i>
   <i type="logical" name="LSCALAPACK"> T  </i>
   <i type="logical" name="LSCAAWARE"> F  </i>
   <i type="logical" name="LSCALU"> F  </i>
   <i type="logical" name="LASYNC"> F  </i>
   <i type="logical" name="LORBITALREAL"> F  </i>
  </separator>
  <separator name="miscellaneous" >
   <i type="int" name="IDIOT">     3</i>
   <i type="int" name="ISPECIAL">     0</i>
   <i type="logical" name="LMUSIC"> F  </i>
   <v name="POMASS">    106.42000000     12.01100000     16.00000000</v>
   <v name="DARWINR">      0.00000000      0.00000000      0.00000000</v>
   <v name="DARWINV">      1.00000000      1.00000000      1.00000000</v>
   <i type="logical" name="LCORR"> T  </i>
  </separator>
  <i type="logical" name="GGA_COMPAT"> T  </i>
  <i type="logical" name="LBERRY"> F  </i>
  <i type="int" name="ICORELEVEL">     0</i>
  <i type="logical" name="LDAU"> F  </i>
  <i type="int" name="I_CONSTRAINED_M">     0</i>
  <separator name="electronic exchange-correlation" >
   <i type="string" name="GGA">RP</i>
   <i type="int" name="VOSKOWN">     0</i>
   <i type="logical" name="LHFCALC"> F  </i>
   <i type="string" name="PRECFOCK"></i>
   <i type="logical" name="LSYMGRAD"> F  </i>
   <i type="logical" name="LHFONE"> F  </i>
   <i type="logical" name="LRHFCALC"> F  </i>
   <i type="logical" name="LTHOMAS"> F  </i>
   <i type="logical" name="LMODELHF"> F  </i>
   <i name="ENCUT4O">     -1.00000000</i>
   <i type="int" name="EXXOEP">     0</i>
   <i type="int" name="FOURORBIT">     0</i>
   <i name="AEXX">      0.00000000</i>
   <i name="HFALPHA">      0.00000000</i>
   <i name="MCALPHA">      0.00000000</i>
   <i name="ALDAX">      1.00000000</i>
   <i name="AGGAX">      1.00000000</i>
   <i name="ALDAC">      1.00000000</i>
   <i name="AGGAC">      1.00000000</i>
   <i type="int" name="NKREDX">     1</i>
   <i type="int" name="NKREDY">     1</i>
   <i type="int" name="NKREDZ">     1</i>
   <i type="logical" name="SHIFTRED"> F  </i>
   <i type="logical" name="ODDONLY"> F  </i>
   <i type="logical" name="EVENONLY"> F  </i>
   <i type="int" name="LMAXFOCK">     0</i>
   <i type="int" name="NMAXFOCKAE">     0</i>
   <i type="logical" name="LFOCKAEDFT"> F  </i>
   <i name="HFSCREEN">      0.00000000</i>
   <i name="HFSCREENC">      0.00000000</i>
   <i type="int" name="NBANDSGWLOW">     0</i>
  </separator>
  <separator name="vdW DFT" >
   <i type="logical" name="LUSE_VDW"> F  </i>
   <i name="Zab_VDW">     -0.84910000</i>
   <i name="PARAM1">      0.12340000</i>
   <i name="PARAM2">      1.00000000</i>
   <i name="PARAM3">      0.00000000</i>
  </separator>
  <separator name="model GW" >
   <i type="int" name="MODEL_GW">     0</i>
   <i name="MODEL_EPS0">    284.21052632</i>
   <i name="MODEL_ALPHA">      1.00000000</i>
  </separator>
  <separator name="linear response parameters" >
   <i type="logical" name="LEPSILON"> F  </i>
   <i type="logical" name="LRPA"> F  </i>
   <i type="logical" name="LNABLA"> F  </i>
   <i type="logical" name="LVEL"> F  </i>
   <i type="int" name="KINTER">     0</i>
   <i name="CSHIFT">      0.10000000</i>
   <i name="OMEGAMAX">     -1.00000000</i>
   <i name="DEG_THRESHOLD">      0.00200000</i>
   <i name="RTIME">     -0.10000000</i>
   <i name="WPLASMAI">      0.00000000</i>
   <v name="DFIELD">      0.00000000      0.00000000      0.00000000</v>
   <v name="WPLASMA">      0.00000000      0.00000000      0.00000000      0.00000000      0.00000000      0.00000000      0.00000000      0.00000000      0.00000000</v>
  </separator>
  <separator name="orbital magnetization" >
   <i type="logical" name="NUCIND"> F  </i>
   <v name="MAGPOS">      0.00000000      0.00000000      0.00000000</v>
   <i type="logical" name="LNICSALL"> T  </i>
   <i type="logical" name="ORBITALMAG"> F  </i>
   <i type="logical" name="LMAGBLOCH"> F  </i>
   <i type="logical" name="LCHIMAG"> F  </i>
   <i type="logical" name="LGAUGE"> T  </i>
   <i type="int" name="MAGATOM">     0</i>
   <v name="MAGDIPOL">      0.00000000      0.00000000      0.00000000</v>
   <v name="AVECCONST">      0.00000000      0.00000000      0.00000000</v>
  </separator>
  <separator name="response functions" >
   <i type="logical" name="LADDER"> F  </i>
   <i type="logical" name="LRPAFORCE"> F  </i>
   <i type="logical" name="LFXC"> F  </i>
   <i type="logical" name="LHARTREE"> T  </i>
   <i type="int" name="IBSE">     0</i>
   <v type="int" name="KPOINT">    -1     0     0     0</v>
   <i type="logical" name="LTCTE"> F  </i>
   <i type="logical" name="LTETE"> F  </i>
   <i type="logical" name="LTRIPLET"> F  </i>
   <i type="logical" name="LFXCEPS"> F  </i>
   <i type="logical" name="LFXHEG"> F  </i>
   <i type="int" name="NATURALO">     2</i>
   <i type="logical" name="L2ORDER"> F  </i>
   <i type="logical" name="LMP2LT"> F  </i>
   <i type="logical" name="LUSEW"> F  </i>
   <i name="ENCUTGW">     -2.00000000</i>
   <i name="ENCUTGWSOFT">     -2.00000000</i>
   <i name="ENCUTLF">     -1.00000000</i>
   <i type="int" name="LMAXMP2">    -1</i>
   <i name="SCISSOR">      0.00000000</i>
   <i type="int" name="NOMEGA">     0</i>
   <i type="int" name="NOMEGAR">     0</i>
   <i type="int" name="NBANDSGW">    -1</i>
   <i type="int" name="NBANDSO">    -1</i>
   <i type="int" name="NBANDSV">    -1</i>
   <i type="int" name="NELM">   100</i>
   <i type="int" name="NELMHF">     1</i>
   <i type="int" name="DIM">     3</i>
   <i type="int" name="ANTIRES">     0</i>
   <i name="OMEGAMAX">    -30.00000000</i>
   <i name="OMEGAMIN">    -30.00000000</i>
   <i name="OMEGATL">   -200.00000000</i>
   <i type="int" name="OMEGAGRID">   140</i>
   <i name="CSHIFT">     -0.10000000</i>
   <i type="logical" name="SELFENERGY"> F  </i>
   <i type="logical" name="LSPECTRAL"> F  </i>
   <i type="logical" name="LSPECTRALGW"> F  </i>
   <i type="logical" name="LSINGLES"> F  </i>
   <i type="logical" name="LFERMIGW"> F  </i>
   <i type="logical" name="ODDONLYGW"> F  </i>
   <i type="logical" name="EVENONLYGW"> F  </i>
   <i type="int" name="NKREDLFX">     1</i>
   <i type="int" name="NKREDLFY">     1</i>
   <i type="int" name="NKREDLFZ">     1</i>
   <i type="int" name="MAXMEM"> 10000</i>
   <i type="int" name="TELESCOPE">     0</i>
   <i type="int" name="TAUPAR">     1</i>
   <i type="int" name="OMEGAPAR">    -1</i>
   <i name="LAMBDA">      1.00000000</i>
  </separator>
  <separator name="External order field" >
   <i name="OFIELD_KAPPA">      0.00000000</i>
   <v name="OFIELD_K">      0.00000000      0.00000000      0.00000000</v>
   <i name="OFIELD_Q6_NEAR">      0.00000000</i>
   <i name="OFIELD_Q6_FAR">      0.00000000</i>
   <i name="OFIELD_A">      0.00000000</i>
  </separator>
 </parameters>
 <atominfo>
  <atoms>      57 </atoms>
  <types>       3 </types>
  <array name="atoms" >
   <dimension dim="1">ion</dimension>
   <field type="string">element</field>
   <field type="int">atomtype</field>
   <set>
    <rc><c>Pd</c><c>   1</c></rc>
    <rc><c>Pd</c><c>   1</c></rc>
    <rc><c>Pd</c><c>   1</c></rc>
    <rc><c>Pd</c><c>   1</c></rc>
    <rc><c>Pd</c><c>   1</c></rc>
    <rc><c>Pd</c><c>   1</c></rc>
    <rc><c>Pd</c><c>   1</c></rc>
    <rc><c>Pd</c><c>   1</c></rc>
    <rc><c>Pd</c><c>   1</c></rc>
    <rc><c>Pd</c><c>   1</c></rc>
    <rc><c>Pd</c><c>   1</c></rc>
    <rc><c>Pd</c><c>   1</c></rc>
    <rc><c>Pd</c><c>   1</c></rc>
    <rc><c>Pd</c><c>   1</c></rc>
    <rc><c>Pd</c><c>   1</c></rc>
    <rc><c>Pd</c><c>   1</c></rc>
    <rc><c>Pd</c><c>   1</c></rc>
    <rc><c>Pd</c><c>   1</c></rc>
    <rc><c>Pd</c><c>   1</c></rc>
    <rc><c>Pd</c><c>   1</c></rc>
    <rc><c>Pd</c><c>   1</c></rc>
    <rc><c>Pd</c><c>   1</c></rc>
    <rc><c>Pd</c><c>   1</c></rc>
    <rc><c>Pd</c><c>   1</c></rc>
    <rc><c>Pd</c><c>   1</c></rc>
    <rc><c>Pd</c><c>   1</c></rc>
    <rc><c>Pd</c><c>   1</c></rc>
    <rc><c>Pd</c><c>   1</c></rc>
    <rc><c>Pd</c><c>   1</c></rc>
    <rc><c>Pd</c><c>   1</c></rc>
    <rc><c>Pd</c><c>   1</c></rc>
    <rc><c>Pd</c><c>   1</c></rc>
    <rc><c>Pd</c><c>   1</c></rc>
    <rc><c>Pd</c><c>   1</c></rc>
    <rc><c>Pd</c><c>   1</c></rc>
    <rc><c>Pd</c><c>   1</c></rc>
    <rc><c>Pd</c><c>   1</c></rc>
    <rc><c>Pd</c><c>   1</c></rc>
    <rc><c>Pd</c><c>   1</c></rc>
    <rc><c>Pd</c><c>   1</c></rc>
    <rc><c>Pd</c><c>   1</c></rc>
    <rc><c>Pd</c><c>   1</c></rc>
    <rc><c>Pd</c><c>   1</c></rc>
    <rc><c>Pd</c><c>   1</c></rc>
    <rc><c>Pd</c><c>   1</c></rc>
    <rc><c>Pd</c><c>   1</c></rc>
    <rc><c>Pd</c><c>   1</c></rc>
    <rc><c>Pd</c><c>   1</c></rc>
    <rc><c>Pd</c><c>   1</c></rc>
    <rc><c>Pd</c><c>   1</c></rc>
    <rc><c>Pd</c><c>   1</c></rc>
    <rc><c>Pd</c><c>   1</c></rc>
    <rc><c>Pd</c><c>   1</c></rc>
    <rc><c>Pd</c><c>   1</c></rc>
    <rc><c>Pd</c><c>   1</c></rc>
    <rc><c>C </c><c>   2</c></rc>
    <rc><c>O </c><c>   3</c></rc>
   </set>
  </array>
  <array name="atomtypes" >
   <dimension dim="1">type</dimension>
   <field type="int">atomspertype</field>
   <field type="string">element</field>
   <field>mass</field>
   <field>valence</field>
   <field type="string">pseudopotential</field>
   <set>
    <rc><c>  55</c><c>Pd</c><c>    106.42000000</c><c>     10.00000000</c><c>  PAW_PBE Pd 04Jan2005                  </c></rc>
    <rc><c>   1</c><c>C </c><c>     12.01100000</c><c>      4.00000000</c><c>  PAW_PBE C 08Apr2002                   </c></rc>
    <rc><c>   1</c><c>O </c><c>     16.00000000</c><c>      6.00000000</c><c>  PAW_PBE O 08Apr2002                   </c></rc>
   </set>
  </array>
 </atominfo>
 <structure name="initialpos" >
  <crystal>
   <varray name="basis" >
    <v>      30.00000000       0.00000000       0.00000000 </v>
    <v>       0.00000000      30.00000000       0.00000000 </v>
    <v>       0.00000000       0.00000000      30.00000000 </v>
   </varray>
   <i name="volume">  27000.00000000 </i>
   <varray name="rec_basis" >
    <v>       0.03333333       0.00000000       0.00000000 </v>
    <v>       0.00000000       0.03333333       0.00000000 </v>
    <v>       0.00000000       0.00000000       0.03333333 </v>
   </varray>
  </crystal>
  <varray name="positions" >
   <v>       0.44576020       0.32826710       0.41691983 </v>
   <v>       0.67173288       0.55423978       0.41691983 </v>
   <v>       0.55423980       0.32826710       0.41691983 </v>
   <v>       0.32826712       0.55423978       0.41691983 </v>
   <v>       0.50000000       0.38250690       0.34021317 </v>
   <v>       0.50000000       0.38250690       0.65978680 </v>
   <v>       0.50000000       0.27609440       0.50000000 </v>
   <v>       0.27609443       0.49999998       0.50000000 </v>
   <v>       0.72390557       0.49999998       0.50000000 </v>
   <v>       0.50000000       0.72390555       0.50000000 </v>
   <v>       0.61195280       0.38804720       0.34167483 </v>
   <v>       0.61195280       0.38804720       0.65832513 </v>
   <v>       0.38804722       0.61195278       0.34167483 </v>
   <v>       0.38804722       0.61195278       0.65832513 </v>
   <v>       0.38804720       0.38804720       0.34167483 </v>
   <v>       0.38804720       0.38804720       0.65832513 </v>
   <v>       0.61195278       0.61195278       0.34167483 </v>
   <v>       0.61195278       0.61195278       0.65832513 </v>
   <v>       0.44576020       0.32826710       0.58308023 </v>
   <v>       0.67173288       0.55423978       0.58308023 </v>
   <v>       0.55791699       0.44208301       0.41809300 </v>
   <v>       0.32826705       0.44576024       0.41691983 </v>
   <v>       0.55423973       0.67173293       0.41691983 </v>
   <v>       0.55423980       0.32826710       0.58308023 </v>
   <v>       0.32826712       0.55423978       0.58308023 </v>
   <v>       0.67173295       0.44576024       0.41691983 </v>
   <v>       0.44576027       0.67173293       0.41691983 </v>
   <v>       0.44208301       0.44208301       0.41809300 </v>
   <v>       0.50000000       0.38416601       0.50000000 </v>
   <v>       0.61749315       0.50000005       0.34021317 </v>
   <v>       0.61749315       0.50000005       0.65978680 </v>
   <v>       0.38250685       0.50000005       0.34021317 </v>
   <v>       0.38250685       0.50000005       0.65978680 </v>
   <v>       0.38317830       0.38317830       0.50000000 </v>
   <v>       0.61682172       0.61682172       0.50000000 </v>
   <v>       0.61682170       0.38317830       0.50000000 </v>
   <v>       0.38317828       0.61682172       0.50000000 </v>
   <v>       0.50000000       0.50000000       0.33478917 </v>
   <v>       0.50000000       0.50000000       0.66521087 </v>
   <v>       0.32826705       0.44576024       0.58308023 </v>
   <v>       0.55423973       0.67173293       0.58308023 </v>
   <v>       0.55791699       0.44208301       0.58190703 </v>
   <v>       0.44208298       0.55791702       0.41809300 </v>
   <v>       0.44208301       0.44208301       0.58190703 </v>
   <v>       0.67173295       0.44576024       0.58308023 </v>
   <v>       0.44576027       0.67173293       0.58308023 </v>
   <v>       0.55791702       0.55791702       0.41809300 </v>
   <v>       0.38416599       0.50000002       0.50000000 </v>
   <v>       0.61583401       0.50000002       0.50000000 </v>
   <v>       0.50000000       0.61749319       0.34021317 </v>
   <v>       0.50000000       0.61749319       0.65978680 </v>
   <v>       0.50000000       0.50000000       0.50000000 </v>
   <v>       0.44208298       0.55791702       0.58190703 </v>
   <v>       0.55791702       0.55791702       0.58190703 </v>
   <v>       0.50000000       0.61583404       0.50000000 </v>
   <v>       0.52177247       0.52285520       0.27096053 </v>
   <v>       0.52531327       0.52657207       0.23371260 </v>
  </varray>
  <varray name="selective"  type="logical" >
   <v type="logical" >  F  F  F </v>
   <v type="logical" >  F  F  F </v>
   <v type="logical" >  F  F  F </v>
   <v type="logical" >  F  F  F </v>
   <v type="logical" >  F  F  F </v>
   <v type="logical" >  F  F  F </v>
   <v type="logical" >  F  F  F </v>
   <v type="logical" >  F  F  F </v>
   <v type="logical" >  F  F  F </v>
   <v type="logical" >  F  F  F </v>
   <v type="logical" >  F  F  F </v>
   <v type="logical" >  F  F  F </v>
   <v type="logical" >  F  F  F </v>
   <v type="logical" >  F  F  F </v>
   <v type="logical" >  F  F  F </v>
   <v type="logical" >  F  F  F </v>
   <v type="logical" >  F  F  F </v>
   <v type="logical" >  F  F  F </v>
   <v type="logical" >  F  F  F </v>
   <v type="logical" >  F  F  F </v>
   <v type="logical" >  F  F  F </v>
   <v type="logical" >  F  F  F </v>
   <v type="logical" >  F  F  F </v>
   <v type="logical" >  F  F  F </v>
   <v type="logical" >  F  F  F </v>
   <v type="logical" >  F  F  F </v>
   <v type="logical" >  F  F  F </v>
   <v type="logical" >  F  F  F </v>
   <v type="logical" >  F  F  F </v>
   <v type="logical" >  F  F  F </v>
   <v type="logical" >  F  F  F </v>
   <v type="logical" >  F  F  F </v>
   <v type="logical" >  F  F  F </v>
   <v type="logical" >  F  F  F </v>
   <v type="logical" >  F  F  F </v>
   <v type="logical" >  F  F  F </v>
   <v type="logical" >  F  F  F </v>
   <v type="logical" >  F  F  F </v>
   <v type="logical" >  F  F  F </v>
   <v type="logical" >  F  F  F </v>
   <v type="logical" >  F  F  F </v>
   <v type="logical" >  F  F  F </v>
   <v type="logical" >  F  F  F </v>
   <v type="logical" >  F  F  F </v>
   <v type="logical" >  F  F  F </v>
   <v type="logical" >  F  F  F </v>
   <v type="logical" >  F  F  F </v>
   <v type="logical" >  F  F  F </v>
   <v type="logical" >  F  F  F </v>
   <v type="logical" >  F  F  F </v>
   <v type="logical" >  F  F  F </v>
   <v type="logical" >  F  F  F </v>
   <v type="logical" >  F  F  F </v>
   <v type="logical" >  F  F  F </v>
   <v type="logical" >  F  F  F </v>
   <v type="logical" >  F  F  F </v>
   <v type="logical" >  F  F  F </v>
  </varray>
  <nose>
   <v>      -3.00000000       0.00000000       0.00010000       0.00010000 </v>
  </nose>
 </structure>
 <calculation>
  <scstep>
   <time name="dav">  358.15  358.24</time>
   <time name="total">  372.43  372.53</time>
   <energy>
    <i name="alphaZ">     75.25431677 </i>
    <i name="ewald"> 138541.88972576 </i>
    <i name="hartreedc">-181906.04323770 </i>
    <i name="XCdc">  -1703.42664571 </i>
    <i name="pawpsdc">  44873.02882129 </i>
    <i name="pawaedc"> -41398.84523641 </i>
    <i name="eentropy">      0.02769368 </i>
    <i name="bandstr">    818.30378252 </i>
    <i name="atom">  45086.50549395 </i>
    <i name="e_fr_energy">   4386.69471415 </i>
    <i name="e_wo_entrp">   4386.66702046 </i>
    <i name="e_0_energy">   4386.68779073 </i>
   </energy>
  </scstep>
  <scstep>
   <time name="dav">  569.92  569.93</time>
   <time name="total">  569.92  569.93</time>
   <energy>
    <i name="e_fr_energy">   2029.58523306 </i>
    <i name="e_wo_entrp">   2029.57939524 </i>
    <i name="e_0_energy">   2029.58377360 </i>
   </energy>
  </scstep>
  <scstep>
   <time name="dav">  491.40  491.43</time>
   <time name="total">  491.40  491.43</time>
   <energy>
    <i name="e_fr_energy">    237.88254917 </i>
    <i name="e_wo_entrp">    237.86575631 </i>
    <i name="e_0_energy">    237.87835095 </i>
   </energy>
  </scstep>
  <scstep>
   <time name="dav">  425.56  425.60</time>
   <time name="total">  425.56  425.60</time>
   <energy>
    <i name="e_fr_energy">   -131.94736401 </i>
    <i name="e_wo_entrp">   -131.88439389 </i>
    <i name="e_0_energy">   -131.93162148 </i>
   </energy>
  </scstep>
  <scstep>
   <time name="dav">  527.36  527.40</time>
   <time name="total">  553.37  553.41</time>
   <energy>
    <i name="e_fr_energy">   -179.12693779 </i>
    <i name="e_wo_entrp">   -179.62926906 </i>
    <i name="e_0_energy">   -179.25252061 </i>
   </energy>
  </scstep>
  <scstep>
   <time name="diag">   68.97   68.98</time>
   <time name="diis">  194.35  194.36</time>
   <time name="orth">   13.74   13.74</time>
   <time name="total">  317.04  317.06</time>
   <energy>
    <i name="e_fr_energy">   -180.35923326 </i>
    <i name="e_wo_entrp">   -180.00142265 </i>
    <i name="e_0_energy">   -180.26978061 </i>
   </energy>
  </scstep>
  <scstep>
   <time name="diag">   69.26   69.26</time>
   <time name="diis">  225.50  225.51</time>
   <time name="orth">   13.93   13.93</time>
   <time name="total">  348.67  348.69</time>
   <energy>
    <i name="e_fr_energy">   -180.86868348 </i>
    <i name="e_wo_entrp">   -180.88485571 </i>
    <i name="e_0_energy">   -180.87272654 </i>
   </energy>
  </scstep>
  <scstep>
   <time name="diag">   69.05   69.06</time>
   <time name="diis">  213.12  213.14</time>
   <time name="orth">   13.63   13.63</time>
   <time name="total">  336.20  336.23</time>
   <energy>
    <i name="e_fr_energy">   -183.73395760 </i>
    <i name="e_wo_entrp">   -183.57716568 </i>
    <i name="e_0_energy">   -183.69475962 </i>
   </energy>
  </scstep>
  <scstep>
   <time name="diag">   68.49   68.50</time>
   <time name="diis">  199.93  199.95</time>
   <time name="orth">   13.60   13.60</time>
   <time name="total">  322.47  322.50</time>
   <energy>
    <i name="e_fr_energy">   -181.71999350 </i>
    <i name="e_wo_entrp">   -181.57773262 </i>
    <i name="e_0_energy">   -181.68442828 </i>
   </energy>
  </scstep>
  <scstep>
   <time name="diag">   68.34   68.35</time>
   <time name="diis">  196.24  196.24</time>
   <time name="orth">   13.79   13.79</time>
   <time name="total">  318.83  318.83</time>
   <energy>
    <i name="e_fr_energy">   -178.89552831 </i>
    <i name="e_wo_entrp">   -178.83921422 </i>
    <i name="e_0_energy">   -178.88144979 </i>
   </energy>
  </scstep>
  <scstep>
   <time name="diag">   68.21   68.21</time>
   <time name="diis">  194.80  194.81</time>
   <time name="orth">   13.83   13.83</time>
   <time name="total">  317.44  317.44</time>
   <energy>
    <i name="e_fr_energy">   -177.77734116 </i>
    <i name="e_wo_entrp">   -177.81632885 </i>
    <i name="e_0_energy">   -177.78708809 </i>
   </energy>
  </scstep>
  <scstep>
   <time name="diag">   68.20   68.20</time>
   <time name="diis">  194.35  194.35</time>
   <time name="orth">   13.80   13.80</time>
   <time name="total">  316.89  316.90</time>
   <energy>
    <i name="e_fr_energy">   -177.39135538 </i>
    <i name="e_wo_entrp">   -177.33003054 </i>
    <i name="e_0_energy">   -177.37602417 </i>
   </energy>
  </scstep>
  <scstep>
   <time name="diag">   68.22   68.22</time>
   <time name="diis">  193.67  193.67</time>
   <time name="orth">   13.75   13.75</time>
   <time name="total">  316.18  316.19</time>
   <energy>
    <i name="e_fr_energy">   -176.48979590 </i>
    <i name="e_wo_entrp">   -176.47836966 </i>
    <i name="e_0_energy">   -176.48693934 </i>
   </energy>
  </scstep>
  <scstep>
   <time name="diag">   68.33   68.33</time>
   <time name="diis">  194.49  194.52</time>
   <time name="orth">   13.74   13.74</time>
   <time name="total">  317.18  317.21</time>
   <energy>
    <i name="e_fr_energy">   -176.68884556 </i>
    <i name="e_wo_entrp">   -176.64705034 </i>
    <i name="e_0_energy">   -176.67839676 </i>
   </energy>
  </scstep>
  <scstep>
   <time name="diag">   68.46   68.46</time>
   <time name="diis">  193.98  193.98</time>
   <time name="orth">   13.78   13.78</time>
   <time name="total">  316.51  316.52</time>
   <energy>
    <i name="e_fr_energy">   -177.24293777 </i>
    <i name="e_wo_entrp">   -177.12894816 </i>
    <i name="e_0_energy">   -177.21444037 </i>
   </energy>
  </scstep>
  <scstep>
   <time name="diag">   68.19   68.19</time>
   <time name="diis">  192.16  192.17</time>
   <time name="orth">   13.80   13.80</time>
   <time name="total">  314.49  314.50</time>
   <energy>
    <i name="e_fr_energy">   -176.03853903 </i>
    <i name="e_wo_entrp">   -176.01973966 </i>
    <i name="e_0_energy">   -176.03383919 </i>
   </energy>
  </scstep>
  <scstep>
   <time name="diag">   68.31   68.31</time>
   <time name="diis">  191.34  191.34</time>
   <time name="orth">   13.81   13.81</time>
   <time name="total">  313.95  313.96</time>
   <energy>
    <i name="e_fr_energy">   -175.59347947 </i>
    <i name="e_wo_entrp">   -175.62906496 </i>
    <i name="e_0_energy">   -175.60237584 </i>
   </energy>
  </scstep>
  <scstep>
   <time name="diag">   68.36   68.36</time>
   <time name="diis">  189.87  189.88</time>
   <time name="orth">   13.90   13.90</time>
   <time name="total">  312.81  312.82</time>
   <energy>
    <i name="e_fr_energy">   -175.37053048 </i>
    <i name="e_wo_entrp">   -175.38844478 </i>
    <i name="e_0_energy">   -175.37500905 </i>
   </energy>
  </scstep>
  <scstep>
   <time name="diag">   68.21   68.21</time>
   <time name="diis">  188.59  188.60</time>
   <time name="orth">   14.02   14.02</time>
   <time name="total">  311.39  311.39</time>
   <energy>
    <i name="e_fr_energy">   -175.45952267 </i>
    <i name="e_wo_entrp">   -175.42741723 </i>
    <i name="e_0_energy">   -175.45149631 </i>
   </energy>
  </scstep>
  <scstep>
   <time name="diag">   68.62   68.62</time>
   <time name="diis">  189.78  189.78</time>
   <time name="orth">   14.12   14.12</time>
   <time name="total">  313.12  313.13</time>
   <energy>
    <i name="e_fr_energy">   -175.25578499 </i>
    <i name="e_wo_entrp">   -175.25728450 </i>
    <i name="e_0_energy">   -175.25615986 </i>
   </energy>
  </scstep>
  <scstep>
   <time name="diag">   68.12   68.12</time>
   <time name="diis">  188.59  188.59</time>
   <time name="orth">   14.04   14.04</time>
   <time name="total">  311.31  311.33</time>
   <energy>
    <i name="e_fr_energy">   -175.11797438 </i>
    <i name="e_wo_entrp">   -175.07632166 </i>
    <i name="e_0_energy">   -175.10756120 </i>
   </energy>
  </scstep>
  <scstep>
   <time name="diag">   68.22   68.22</time>
   <time name="diis">  186.86  186.86</time>
   <time name="orth">   14.01   14.01</time>
   <time name="total">  309.80  309.80</time>
   <energy>
    <i name="e_fr_energy">   -175.05959498 </i>
    <i name="e_wo_entrp">   -175.01834945 </i>
    <i name="e_0_energy">   -175.04928360 </i>
   </energy>
  </scstep>
  <scstep>
   <time name="diag">   68.09   68.09</time>
   <time name="diis">  187.33  187.34</time>
   <time name="orth">   14.05   14.05</time>
   <time name="total">  310.39  310.40</time>
   <energy>
    <i name="e_fr_energy">   -174.94260698 </i>
    <i name="e_wo_entrp">   -174.92645922 </i>
    <i name="e_0_energy">   -174.93857004 </i>
   </energy>
  </scstep>
  <scstep>
   <time name="diag">   68.08   68.08</time>
   <time name="diis">  187.78  187.78</time>
   <time name="orth">   14.03   14.03</time>
   <time name="total">  310.82  310.82</time>
   <energy>
    <i name="e_fr_energy">   -174.89486469 </i>
    <i name="e_wo_entrp">   -174.87361127 </i>
    <i name="e_0_energy">   -174.88955133 </i>
   </energy>
  </scstep>
  <scstep>
   <time name="diag">   68.09   68.09</time>
   <time name="diis">  189.20  189.20</time>
   <time name="orth">   13.96   13.96</time>
   <time name="total">  312.30  312.30</time>
   <energy>
    <i name="e_fr_energy">   -174.87100984 </i>
    <i name="e_wo_entrp">   -174.82884647 </i>
    <i name="e_0_energy">   -174.86046900 </i>
   </energy>
  </scstep>
  <scstep>
   <time name="diag">   68.23   68.23</time>
   <time name="diis">  189.10  189.10</time>
   <time name="orth">   13.91   13.91</time>
   <time name="total">  312.20  312.20</time>
   <energy>
    <i name="e_fr_energy">   -174.81082818 </i>
    <i name="e_wo_entrp">   -174.75138367 </i>
    <i name="e_0_energy">   -174.79596705 </i>
   </energy>
  </scstep>
  <scstep>
   <time name="diag">   68.13   68.13</time>
   <time name="diis">  187.06  187.07</time>
   <time name="orth">   13.96   13.96</time>
   <time name="total">  310.32  310.33</time>
   <energy>
    <i name="e_fr_energy">   -174.77765912 </i>
    <i name="e_wo_entrp">   -174.71257387 </i>
    <i name="e_0_energy">   -174.76138781 </i>
   </energy>
  </scstep>
  <scstep>
   <time name="diag">   68.33   68.33</time>
   <time name="diis">  187.59  187.60</time>
   <time name="orth">   14.00   14.00</time>
   <time name="total">  311.05  311.06</time>
   <energy>
    <i name="e_fr_energy">   -174.76193052 </i>
    <i name="e_wo_entrp">   -174.70994239 </i>
    <i name="e_0_energy">   -174.74893348 </i>
   </energy>
  </scstep>
  <scstep>
   <time name="diag">   68.19   68.19</time>
   <time name="diis">  187.84  187.85</time>
   <time name="orth">   13.90   13.90</time>
   <time name="total">  311.25  311.26</time>
   <energy>
    <i name="e_fr_energy">   -174.75494014 </i>
    <i name="e_wo_entrp">   -174.70140143 </i>
    <i name="e_0_energy">   -174.74155546 </i>
   </energy>
  </scstep>
  <scstep>
   <time name="diag">   68.31   68.32</time>
   <time name="diis">  186.62  186.63</time>
   <time name="orth">   13.99   13.99</time>
   <time name="total">  310.35  310.37</time>
   <energy>
    <i name="e_fr_energy">   -174.75023833 </i>
    <i name="e_wo_entrp">   -174.69659045 </i>
    <i name="e_0_energy">   -174.73682636 </i>
   </energy>
  </scstep>
  <scstep>
   <time name="diag">   68.20   68.20</time>
   <time name="diis">  186.62  186.62</time>
   <time name="orth">   13.97   13.97</time>
   <time name="total">  310.33  310.34</time>
   <energy>
    <i name="e_fr_energy">   -174.74608926 </i>
    <i name="e_wo_entrp">   -174.69065926 </i>
    <i name="e_0_energy">   -174.73223176 </i>
   </energy>
  </scstep>
  <scstep>
   <time name="diag">   68.18   68.18</time>
   <time name="diis">  187.12  187.12</time>
   <time name="orth">   13.98   13.98</time>
   <time name="total">  311.20  311.21</time>
   <energy>
    <i name="e_fr_energy">   -174.74341283 </i>
    <i name="e_wo_entrp">   -174.69291672 </i>
    <i name="e_0_energy">   -174.73078880 </i>
   </energy>
  </scstep>
  <scstep>
   <time name="diag">   68.04   68.04</time>
   <time name="diis">  186.93  186.93</time>
   <time name="orth">   13.78   13.78</time>
   <time name="total">  310.52  310.52</time>
   <energy>
    <i name="e_fr_energy">   -174.74166053 </i>
    <i name="e_wo_entrp">   -174.69121239 </i>
    <i name="e_0_energy">   -174.72904850 </i>
   </energy>
  </scstep>
  <scstep>
   <time name="diag">   68.31   68.31</time>
   <time name="diis">  185.10  185.12</time>
   <time name="orth">   13.48   13.48</time>
   <time name="total">  308.26  308.28</time>
   <energy>
    <i name="e_fr_energy">   -174.74292927 </i>
    <i name="e_wo_entrp">   -174.69251064 </i>
    <i name="e_0_energy">   -174.73032462 </i>
   </energy>
  </scstep>
  <scstep>
   <time name="diag">   68.13   68.13</time>
   <time name="diis">  186.34  186.34</time>
   <time name="orth">   13.40   13.40</time>
   <time name="total">  309.59  309.61</time>
   <energy>
    <i name="e_fr_energy">   -174.74286797 </i>
    <i name="e_wo_entrp">   -174.69018511 </i>
    <i name="e_0_energy">   -174.72969725 </i>
   </energy>
  </scstep>
  <scstep>
   <time name="diag">   68.24   68.24</time>
   <time name="diis">  184.58  184.58</time>
   <time name="orth">   13.74   13.74</time>
   <time name="total">  307.87  307.88</time>
   <energy>
    <i name="e_fr_energy">   -174.74403778 </i>
    <i name="e_wo_entrp">   -174.68969965 </i>
    <i name="e_0_energy">   -174.73045325 </i>
   </energy>
  </scstep>
  <scstep>
   <time name="diag">   68.99   69.00</time>
   <time name="diis">  184.53  184.54</time>
   <time name="orth">   13.76   13.76</time>
   <time name="total">  309.38  309.39</time>
   <energy>
    <i name="e_fr_energy">   -174.74698569 </i>
    <i name="e_wo_entrp">   -174.69656862 </i>
    <i name="e_0_energy">   -174.73438142 </i>
   </energy>
  </scstep>
  <scstep>
   <time name="diag">   68.91   68.91</time>
   <time name="diis">  182.69  182.69</time>
   <time name="orth">   13.68   13.68</time>
   <time name="total">  307.42  307.42</time>
   <energy>
    <i name="e_fr_energy">   -174.74893462 </i>
    <i name="e_wo_entrp">   -174.69792650 </i>
    <i name="e_0_energy">   -174.73618259 </i>
   </energy>
  </scstep>
  <scstep>
   <time name="diag">   69.30   69.30</time>
   <time name="diis">  154.60  154.60</time>
   <time name="orth">   13.59   13.59</time>
   <time name="total">  278.90  278.90</time>
   <energy>
    <i name="e_fr_energy">   -174.75064520 </i>
    <i name="e_wo_entrp">   -174.69936230 </i>
    <i name="e_0_energy">   -174.73782448 </i>
   </energy>
  </scstep>
  <scstep>
   <time name="diag">   68.35   68.35</time>
   <time name="diis">  122.75  122.75</time>
   <time name="orth">   13.59   13.59</time>
   <time name="total">  246.53  246.53</time>
   <energy>
    <i name="e_fr_energy">   -174.75228143 </i>
    <i name="e_wo_entrp">   -174.70008052 </i>
    <i name="e_0_energy">   -174.73923120 </i>
   </energy>
  </scstep>
  <scstep>
   <time name="diag">   68.33   68.33</time>
   <time name="diis">  127.11  127.11</time>
   <time name="orth">   13.20   13.20</time>
   <time name="total">  250.32  250.32</time>
   <energy>
    <i name="e_fr_energy">   -174.75435501 </i>
    <i name="e_wo_entrp">   -174.70102790 </i>
    <i name="e_0_energy">   -174.74102323 </i>
   </energy>
  </scstep>
  <scstep>
   <time name="diag">   67.82   67.82</time>
   <time name="diis">  144.75  144.75</time>
   <time name="orth">   13.59   13.59</time>
   <time name="total">  267.64  267.64</time>
   <energy>
    <i name="e_fr_energy">   -174.75759955 </i>
    <i name="e_wo_entrp">   -174.70505340 </i>
    <i name="e_0_energy">   -174.74446301 </i>
   </energy>
  </scstep>
  <scstep>
   <time name="diag">   67.98   67.98</time>
   <time name="diis">  121.26  121.27</time>
   <time name="orth">   13.50   13.50</time>
   <time name="total">  244.85  244.85</time>
   <energy>
    <i name="e_fr_energy">   -174.75897076 </i>
    <i name="e_wo_entrp">   -174.70668787 </i>
    <i name="e_0_energy">   -174.74590003 </i>
   </energy>
  </scstep>
  <scstep>
   <time name="diag">   68.18   68.18</time>
   <time name="diis">  124.05  124.06</time>
   <time name="orth">   13.53   13.53</time>
   <time name="total">  248.27  248.28</time>
   <energy>
    <i name="e_fr_energy">   -174.76152163 </i>
    <i name="e_wo_entrp">   -174.70874057 </i>
    <i name="e_0_energy">   -174.74832637 </i>
   </energy>
  </scstep>
  <scstep>
   <time name="diag">   68.16   68.16</time>
   <time name="diis">  119.75  119.76</time>
   <time name="orth">   13.60   13.60</time>
   <time name="total">  244.09  244.10</time>
   <energy>
    <i name="e_fr_energy">   -174.76272090 </i>
    <i name="e_wo_entrp">   -174.71035383 </i>
    <i name="e_0_energy">   -174.74962914 </i>
   </energy>
  </scstep>
  <scstep>
   <time name="diag">   68.47   68.47</time>
   <time name="diis">  117.48  117.49</time>
   <time name="orth">   13.42   13.42</time>
   <time name="total">  242.80  242.81</time>
   <energy>
    <i name="e_fr_energy">   -174.76427140 </i>
    <i name="e_wo_entrp">   -174.71202932 </i>
    <i name="e_0_energy">   -174.75121088 </i>
   </energy>
  </scstep>
  <scstep>
   <time name="diag">   68.50   68.50</time>
   <time name="diis">  117.53  117.53</time>
   <time name="orth">   13.42   13.42</time>
   <time name="total">  243.45  243.46</time>
   <energy>
    <i name="e_fr_energy">   -174.76584887 </i>
    <i name="e_wo_entrp">   -174.71362676 </i>
    <i name="e_0_energy">   -174.75279334 </i>
   </energy>
  </scstep>
  <scstep>
   <time name="diag">   68.71   68.71</time>
   <time name="diis">  115.57  115.58</time>
   <time name="orth">   13.48   13.48</time>
   <time name="total">  241.54  241.55</time>
   <energy>
    <i name="e_fr_energy">   -174.76632387 </i>
    <i name="e_wo_entrp">   -174.71435977 </i>
    <i name="e_0_energy">   -174.75333284 </i>
   </energy>
  </scstep>
  <scstep>
   <time name="diag">   68.15   68.15</time>
   <time name="diis">  115.01  115.02</time>
   <time name="orth">   13.60   13.60</time>
   <time name="total">  240.56  240.57</time>
   <energy>
    <i name="e_fr_energy">   -174.76705075 </i>
    <i name="e_wo_entrp">   -174.71509594 </i>
    <i name="e_0_energy">   -174.75406205 </i>
   </energy>
  </scstep>
  <scstep>
   <time name="diag">   68.02   68.02</time>
   <time name="diis">  111.57  111.57</time>
   <time name="orth">   13.49   13.49</time>
   <time name="total">  236.52  236.52</time>
   <energy>
    <i name="e_fr_energy">   -174.76743111 </i>
    <i name="e_wo_entrp">   -174.71532544 </i>
    <i name="e_0_energy">   -174.75440470 </i>
   </energy>
  </scstep>
  <scstep>
   <time name="diag">   67.69   67.70</time>
   <time name="diis">  108.57  108.57</time>
   <time name="orth">   13.72   13.72</time>
   <time name="total">  232.97  232.98</time>
   <energy>
    <i name="e_fr_energy">   -174.76790618 </i>
    <i name="e_wo_entrp">   -174.71599774 </i>
    <i name="e_0_energy">   -174.75492907 </i>
   </energy>
  </scstep>
  <scstep>
   <time name="diag">   66.92   66.93</time>
   <time name="diis">  106.41  106.43</time>
   <time name="orth">   13.44   13.44</time>
   <time name="total">  229.88  229.90</time>
   <energy>
    <i name="e_fr_energy">   -174.76856530 </i>
    <i name="e_wo_entrp">   -174.71662390 </i>
    <i name="e_0_energy">   -174.75557995 </i>
   </energy>
  </scstep>
  <scstep>
   <time name="diag">   67.57   67.57</time>
   <time name="diis">   82.18   82.18</time>
   <time name="orth">   13.71   13.71</time>
   <time name="total">  207.04  207.05</time>
   <energy>
    <i name="e_fr_energy">   -174.76879135 </i>
    <i name="e_wo_entrp">   -174.71687615 </i>
    <i name="e_0_energy">   -174.75581255 </i>
   </energy>
  </scstep>
  <scstep>
   <time name="diag">   67.52   67.52</time>
   <time name="diis">   99.09   99.10</time>
   <time name="orth">   13.53   13.53</time>
   <time name="total">  223.76  223.76</time>
   <energy>
    <i name="e_fr_energy">   -174.76936749 </i>
    <i name="e_wo_entrp">   -174.71743324 </i>
    <i name="e_0_energy">   -174.75638393 </i>
   </energy>
  </scstep>
  <scstep>
   <time name="diag">   67.50   67.50</time>
   <time name="diis">   80.88   80.88</time>
   <time name="orth">   13.50   13.50</time>
   <time name="total">  204.73  204.74</time>
   <energy>
    <i name="e_fr_energy">   -174.76960481 </i>
    <i name="e_wo_entrp">   -174.71760965 </i>
    <i name="e_0_energy">   -174.75660602 </i>
   </energy>
  </scstep>
  <scstep>
   <time name="diag">   67.72   67.72</time>
   <time name="diis">   95.60   95.61</time>
   <time name="orth">   13.59   13.59</time>
   <time name="total">  219.82  219.82</time>
   <energy>
    <i name="e_fr_energy">   -174.76989980 </i>
    <i name="e_wo_entrp">   -174.71790672 </i>
    <i name="e_0_energy">   -174.75690153 </i>
   </energy>
  </scstep>
  <scstep>
   <time name="diag">   66.89   66.89</time>
   <time name="diis">   78.42   78.42</time>
   <time name="orth">   13.42   13.42</time>
   <time name="total">  201.82  201.82</time>
   <energy>
    <i name="e_fr_energy">   -174.77003005 </i>
    <i name="e_wo_entrp">   -174.71806757 </i>
    <i name="e_0_energy">   -174.75703943 </i>
   </energy>
  </scstep>
  <scstep>
   <time name="diag">   66.97   66.97</time>
   <time name="diis">   83.57   83.57</time>
   <time name="orth">   13.49   13.49</time>
   <time name="total">  207.21  207.22</time>
   <energy>
    <i name="e_fr_energy">   -174.77023586 </i>
    <i name="e_wo_entrp">   -174.71830914 </i>
    <i name="e_0_energy">   -174.75725418 </i>
   </energy>
  </scstep>
  <scstep>
   <time name="diag">   66.80   66.81</time>
   <time name="diis">   79.66   79.66</time>
   <time name="orth">   13.24   13.24</time>
   <time name="total">  173.62  173.62</time>
   <energy>
    <i name="alphaZ">     75.25431677 </i>
    <i name="ewald"> 138541.88972576 </i>
    <i name="hartreedc">-182908.71036173 </i>
    <i name="XCdc">  -1692.72832772 </i>
    <i name="pawpsdc">  46107.04290033 </i>
    <i name="pawaedc"> -42577.09568444 </i>
    <i name="eentropy">     -0.05200471 </i>
    <i name="bandstr">  -2806.87638564 </i>
    <i name="atom">  45086.50549395 </i>
    <i name="e_fr_energy">   -174.77032742 </i>
    <i name="e_wo_entrp">   -174.71832272 </i>
    <i name="e_0_energy">   -174.75732625 </i>
   </energy>
  </scstep>
  <structure>
   <crystal>
    <varray name="basis" >
     <v>      30.00000000       0.00000000       0.00000000 </v>
     <v>       0.00000000      30.00000000       0.00000000 </v>
     <v>       0.00000000       0.00000000      30.00000000 </v>
    </varray>
    <i name="volume">  27000.00000000 </i>
    <varray name="rec_basis" >
     <v>       0.03333333       0.00000000       0.00000000 </v>
     <v>       0.00000000       0.03333333       0.00000000 </v>
     <v>       0.00000000       0.00000000       0.03333333 </v>
    </varray>
   </crystal>
   <varray name="positions" >
    <v>       0.44576020       0.32826710       0.41691983 </v>
    <v>       0.67173288       0.55423978       0.41691983 </v>
    <v>       0.55423980       0.32826710       0.41691983 </v>
    <v>       0.32826712       0.55423978       0.41691983 </v>
    <v>       0.50000000       0.38250690       0.34021317 </v>
    <v>       0.50000000       0.38250690       0.65978680 </v>
    <v>       0.50000000       0.27609440       0.50000000 </v>
    <v>       0.27609443       0.49999998       0.50000000 </v>
    <v>       0.72390557       0.49999998       0.50000000 </v>
    <v>       0.50000000       0.72390555       0.50000000 </v>
    <v>       0.61195280       0.38804720       0.34167483 </v>
    <v>       0.61195280       0.38804720       0.65832513 </v>
    <v>       0.38804722       0.61195278       0.34167483 </v>
    <v>       0.38804722       0.61195278       0.65832513 </v>
    <v>       0.38804720       0.38804720       0.34167483 </v>
    <v>       0.38804720       0.38804720       0.65832513 </v>
    <v>       0.61195278       0.61195278       0.34167483 </v>
    <v>       0.61195278       0.61195278       0.65832513 </v>
    <v>       0.44576020       0.32826710       0.58308023 </v>
    <v>       0.67173288       0.55423978       0.58308023 </v>
    <v>       0.55791699       0.44208301       0.41809300 </v>
    <v>       0.32826705       0.44576024       0.41691983 </v>
    <v>       0.55423973       0.67173293       0.41691983 </v>
    <v>       0.55423980       0.32826710       0.58308023 </v>
    <v>       0.32826712       0.55423978       0.58308023 </v>
    <v>       0.67173295       0.44576024       0.41691983 </v>
    <v>       0.44576027       0.67173293       0.41691983 </v>
    <v>       0.44208301       0.44208301       0.41809300 </v>
    <v>       0.50000000       0.38416601       0.50000000 </v>
    <v>       0.61749315       0.50000005       0.34021317 </v>
    <v>       0.61749315       0.50000005       0.65978680 </v>
    <v>       0.38250685       0.50000005       0.34021317 </v>
    <v>       0.38250685       0.50000005       0.65978680 </v>
    <v>       0.38317830       0.38317830       0.50000000 </v>
    <v>       0.61682172       0.61682172       0.50000000 </v>
    <v>       0.61682170       0.38317830       0.50000000 </v>
    <v>       0.38317828       0.61682172       0.50000000 </v>
    <v>       0.50000000       0.50000000       0.33478917 </v>
    <v>       0.50000000       0.50000000       0.66521087 </v>
    <v>       0.32826705       0.44576024       0.58308023 </v>
    <v>       0.55423973       0.67173293       0.58308023 </v>
    <v>       0.55791699       0.44208301       0.58190703 </v>
    <v>       0.44208298       0.55791702       0.41809300 </v>
    <v>       0.44208301       0.44208301       0.58190703 </v>
    <v>       0.67173295       0.44576024       0.58308023 </v>
    <v>       0.44576027       0.67173293       0.58308023 </v>
    <v>       0.55791702       0.55791702       0.41809300 </v>
    <v>       0.38416599       0.50000002       0.50000000 </v>
    <v>       0.61583401       0.50000002       0.50000000 </v>
    <v>       0.50000000       0.61749319       0.34021317 </v>
    <v>       0.50000000       0.61749319       0.65978680 </v>
    <v>       0.50000000       0.50000000       0.50000000 </v>
    <v>       0.44208298       0.55791702       0.58190703 </v>
    <v>       0.55791702       0.55791702       0.58190703 </v>
    <v>       0.50000000       0.61583404       0.50000000 </v>
    <v>       0.52177247       0.52285520       0.27096053 </v>
    <v>       0.52531327       0.52657207       0.23371260 </v>
   </varray>
  </structure>
  <varray name="forces" >
   <v>       0.70132143       1.10774549       0.28710233 </v>
   <v>      -1.09617118      -0.70171918       0.30122013 </v>
   <v>      -0.69822343       1.10542131       0.29285968 </v>
   <v>       1.10523642      -0.69837339       0.29320318 </v>
   <v>      -0.00671518       0.38169165       1.32247301 </v>
   <v>       0.00122645       0.40328906      -1.28104865 </v>
   <v>       0.00201535       1.51150626      -0.00440500 </v>
   <v>       1.51134237       0.00220258      -0.00460749 </v>
   <v>      -1.50767192       0.00325539      -0.01182411 </v>
   <v>       0.00318682      -1.50753027      -0.01216334 </v>
   <v>      -0.74868679       0.74530677       1.07438753 </v>
   <v>      -0.75119643       0.75461630      -1.07376626 </v>
   <v>       0.74478045      -0.74837445       1.07445555 </v>
   <v>       0.75470768      -0.75132937      -1.07391786 </v>
   <v>       0.75255065       0.75264055       1.07117214 </v>
   <v>       0.75250043       0.75256735      -1.07418664 </v>
   <v>      -0.73455510      -0.73483252       1.07618510 </v>
   <v>      -0.75395225      -0.75384211      -1.07268188 </v>
   <v>       0.69873158       1.10842544      -0.29134461 </v>
   <v>      -1.11026667      -0.69954389      -0.28755341 </v>
   <v>       0.11949083      -0.14872633      -0.13187565 </v>
   <v>       1.10781218       0.70171047       0.28693047 </v>
   <v>      -0.70200526      -1.09604661       0.30131969 </v>
   <v>      -0.69933615       1.10692079      -0.28926431 </v>
   <v>       1.10716747      -0.69942926      -0.28920097 </v>
   <v>      -1.10443980       0.70568305       0.28906633 </v>
   <v>       0.70568608      -1.10402276       0.28952507 </v>
   <v>      -0.06647482      -0.06746107      -0.19819736 </v>
   <v>      -0.00134320      -0.21574540       0.00018004 </v>
   <v>      -0.39304695      -0.00441773       1.31134561 </v>
   <v>      -0.40717225       0.00139140      -1.28047007 </v>
   <v>       0.38090312      -0.00714602       1.32302042 </v>
   <v>       0.40344898       0.00140571      -1.28116360 </v>
   <v>       0.81522996       0.81507360       0.02260396 </v>
   <v>      -0.82873125      -0.82877721      -0.00244361 </v>
   <v>      -0.82274031       0.81833284       0.01349434 </v>
   <v>       0.81877260      -0.82315769       0.01277667 </v>
   <v>       0.62139217       0.65115839      -0.88040889 </v>
   <v>       0.00563523       0.00595992      -1.18502510 </v>
   <v>       1.10822501       0.69857402      -0.29123991 </v>
   <v>      -0.69948627      -1.11028895      -0.28744505 </v>
   <v>       0.11327057      -0.11425486       0.15291774 </v>
   <v>      -0.15050882       0.12160153      -0.13037541 </v>
   <v>      -0.11383401      -0.11385360       0.15120795 </v>
   <v>      -1.11119232       0.69756256      -0.28656821 </v>
   <v>       0.69743872      -1.11120261      -0.28642954 </v>
   <v>       0.15526266       0.15464252      -0.10881494 </v>
   <v>      -0.21585506      -0.00134245       0.00025759 </v>
   <v>       0.21755071       0.00030460       0.00192125 </v>
   <v>      -0.00295313      -0.39756500       1.30754662 </v>
   <v>       0.00126484      -0.40718486      -1.28033794 </v>
   <v>      -0.00016579      -0.00020224      -0.00812815 </v>
   <v>      -0.11435937       0.11326029       0.15305016 </v>
   <v>       0.11367947       0.11360084       0.15390022 </v>
   <v>       0.00032277       0.21765078       0.00191462 </v>
   <v>      -1.14213522      -1.18868920       5.52179068 </v>
   <v>       0.46306591       0.48155759      -3.68294016 </v>
  </varray>
  <varray name="stress" >
   <v>      -6.74059074      -0.02727749       0.05616127 </v>
   <v>      -0.02727751      -6.74290809       0.05811068 </v>
   <v>       0.05616130       0.05811070      -6.72108882 </v>
  </varray>
  <energy>
   <i name="e_fr_energy">   -174.77032742 </i>
   <i name="e_wo_entrp">   -174.75732625 </i>
   <i name="e_0_energy">     -0.05200471 </i>
  </energy>
  <time name="totalsc">18020.3118021.03</time>
  <eigenvalues>
   <array>
    <dimension dim="1">band</dimension>
    <dimension dim="2">kpoint</dimension>
    <dimension dim="3">spin</dimension>
    <field>eigene</field>
    <field>occ</field>
    <set>
     <set comment="spin 1">
      <set comment="kpoint 1">
       <r>  -28.8202    1.0000 </r>
       <r>  -13.4696    1.0000 </r>
       <r>  -11.1973    1.0000 </r>
       <r>  -11.1754    1.0000 </r>
       <r>  -10.1558    1.0000 </r>
       <r>   -6.6365    1.0000 </r>
       <r>   -6.1220    1.0000 </r>
       <r>   -6.1200    1.0000 </r>
       <r>   -6.1168    1.0000 </r>
       <r>   -5.8203    1.0000 </r>
       <r>   -5.8105    1.0000 </r>
       <r>   -5.8010    1.0000 </r>
       <r>   -5.7441    1.0000 </r>
       <r>   -5.7221    1.0000 </r>
       <r>   -5.7178    1.0000 </r>
       <r>   -5.6792    1.0000 </r>
       <r>   -5.6742    1.0000 </r>
       <r>   -5.6738    1.0000 </r>
       <r>   -5.6708    1.0000 </r>
       <r>   -5.6157    1.0000 </r>
       <r>   -5.5993    1.0000 </r>
       <r>   -5.5939    1.0000 </r>
       <r>   -5.5859    1.0000 </r>
       <r>   -5.5835    1.0000 </r>
       <r>   -5.5834    1.0000 </r>
       <r>   -5.5581    1.0000 </r>
       <r>   -5.5497    1.0000 </r>
       <r>   -5.5313    1.0000 </r>
       <r>   -5.5172    1.0000 </r>
       <r>   -5.5158    1.0000 </r>
       <r>   -5.5085    1.0000 </r>
       <r>   -5.5060    1.0000 </r>
       <r>   -5.5059    1.0000 </r>
       <r>   -5.5050    1.0000 </r>
       <r>   -5.5003    1.0000 </r>
       <r>   -5.4939    1.0000 </r>
       <r>   -5.4834    1.0000 </r>
       <r>   -5.4681    1.0000 </r>
       <r>   -5.4663    1.0000 </r>
       <r>   -5.4613    1.0000 </r>
       <r>   -5.4559    1.0000 </r>
       <r>   -5.4556    1.0000 </r>
       <r>   -5.4550    1.0000 </r>
       <r>   -5.4543    1.0000 </r>
       <r>   -5.4501    1.0000 </r>
       <r>   -5.4321    1.0000 </r>
       <r>   -5.4292    1.0000 </r>
       <r>   -5.4206    1.0000 </r>
       <r>   -5.4176    1.0000 </r>
       <r>   -5.4163    1.0000 </r>
       <r>   -5.4149    1.0000 </r>
       <r>   -5.4026    1.0000 </r>
       <r>   -5.3953    1.0000 </r>
       <r>   -5.3951    1.0000 </r>
       <r>   -5.3828    1.0000 </r>
       <r>   -5.3562    1.0000 </r>
       <r>   -5.3487    1.0000 </r>
       <r>   -5.3286    1.0000 </r>
       <r>   -5.3256    1.0000 </r>
       <r>   -5.3054    1.0000 </r>
       <r>   -5.3049    1.0000 </r>
       <r>   -5.3039    1.0000 </r>
       <r>   -5.3037    1.0000 </r>
       <r>   -5.3001    1.0000 </r>
       <r>   -5.2917    1.0000 </r>
       <r>   -5.2874    1.0000 </r>
       <r>   -5.2857    1.0000 </r>
       <r>   -5.2660    1.0000 </r>
       <r>   -5.2435    1.0000 </r>
       <r>   -5.2204    1.0000 </r>
       <r>   -5.2167    1.0000 </r>
       <r>   -5.1778    1.0000 </r>
       <r>   -5.1700    1.0000 </r>
       <r>   -5.1692    1.0000 </r>
       <r>   -5.1689    1.0000 </r>
       <r>   -5.1641    1.0000 </r>
       <r>   -5.1631    1.0000 </r>
       <r>   -5.1622    1.0000 </r>
       <r>   -5.1578    1.0000 </r>
       <r>   -5.1381    1.0000 </r>
       <r>   -5.1355    1.0000 </r>
       <r>   -5.1268    1.0000 </r>
       <r>   -5.1121    1.0000 </r>
       <r>   -5.1116    1.0000 </r>
       <r>   -5.1062    1.0000 </r>
       <r>   -5.0982    1.0000 </r>
       <r>   -5.0916    1.0000 </r>
       <r>   -5.0866    1.0000 </r>
       <r>   -5.0819    1.0000 </r>
       <r>   -5.0610    1.0000 </r>
       <r>   -5.0565    1.0000 </r>
       <r>   -5.0463    1.0000 </r>
       <r>   -5.0446    1.0000 </r>
       <r>   -5.0404    1.0000 </r>
       <r>   -5.0398    1.0000 </r>
       <r>   -5.0357    1.0000 </r>
       <r>   -5.0354    1.0000 </r>
       <r>   -5.0187    1.0000 </r>
       <r>   -5.0152    1.0000 </r>
       <r>   -5.0069    1.0000 </r>
       <r>   -5.0042    1.0000 </r>
       <r>   -4.9980    1.0000 </r>
       <r>   -4.9930    1.0000 </r>
       <r>   -4.9920    1.0000 </r>
       <r>   -4.9915    1.0000 </r>
       <r>   -4.9830    1.0000 </r>
       <r>   -4.9777    1.0000 </r>
       <r>   -4.9771    1.0000 </r>
       <r>   -4.9694    1.0000 </r>
       <r>   -4.9676    1.0000 </r>
       <r>   -4.9673    1.0000 </r>
       <r>   -4.9663    1.0000 </r>
       <r>   -4.9552    1.0000 </r>
       <r>   -4.9486    1.0000 </r>
       <r>   -4.9456    1.0000 </r>
       <r>   -4.9432    1.0000 </r>
       <r>   -4.9348    1.0000 </r>
       <r>   -4.9317    1.0000 </r>
       <r>   -4.9136    1.0000 </r>
       <r>   -4.9050    1.0000 </r>
       <r>   -4.9049    1.0000 </r>
       <r>   -4.9044    1.0000 </r>
       <r>   -4.9037    1.0000 </r>
       <r>   -4.9000    1.0000 </r>
       <r>   -4.8894    1.0000 </r>
       <r>   -4.8888    1.0000 </r>
       <r>   -4.8648    1.0000 </r>
       <r>   -4.8619    1.0000 </r>
       <r>   -4.8502    1.0000 </r>
       <r>   -4.8501    1.0000 </r>
       <r>   -4.8308    1.0000 </r>
       <r>   -4.8272    1.0000 </r>
       <r>   -4.8218    1.0000 </r>
       <r>   -4.8194    1.0000 </r>
       <r>   -4.8178    1.0000 </r>
       <r>   -4.8173    1.0000 </r>
       <r>   -4.8025    0.9999 </r>
       <r>   -4.7853    0.9999 </r>
       <r>   -4.7827    0.9999 </r>
       <r>   -4.7767    0.9999 </r>
       <r>   -4.7659    0.9999 </r>
       <r>   -4.7489    0.9998 </r>
       <r>   -4.7442    0.9998 </r>
       <r>   -4.7344    0.9997 </r>
       <r>   -4.7251    0.9996 </r>
       <r>   -4.7250    0.9996 </r>
       <r>   -4.7233    0.9996 </r>
       <r>   -4.7143    0.9995 </r>
       <r>   -4.7019    0.9994 </r>
       <r>   -4.6946    0.9993 </r>
       <r>   -4.6882    0.9992 </r>
       <r>   -4.6830    0.9991 </r>
       <r>   -4.6696    0.9988 </r>
       <r>   -4.6662    0.9988 </r>
       <r>   -4.6653    0.9987 </r>
       <r>   -4.6618    0.9987 </r>
       <r>   -4.6601    0.9986 </r>
       <r>   -4.6599    0.9986 </r>
       <r>   -4.6542    0.9985 </r>
       <r>   -4.6486    0.9983 </r>
       <r>   -4.6409    0.9981 </r>
       <r>   -4.6391    0.9981 </r>
       <r>   -4.6374    0.9980 </r>
       <r>   -4.6372    0.9980 </r>
       <r>   -4.6353    0.9979 </r>
       <r>   -4.6321    0.9978 </r>
       <r>   -4.6320    0.9978 </r>
       <r>   -4.6246    0.9976 </r>
       <r>   -4.6178    0.9974 </r>
       <r>   -4.6169    0.9973 </r>
       <r>   -4.6131    0.9972 </r>
       <r>   -4.6088    0.9970 </r>
       <r>   -4.6031    0.9968 </r>
       <r>   -4.5844    0.9961 </r>
       <r>   -4.5840    0.9961 </r>
       <r>   -4.5802    0.9960 </r>
       <r>   -4.5791    0.9959 </r>
       <r>   -4.5746    0.9958 </r>
       <r>   -4.5738    0.9957 </r>
       <r>   -4.5709    0.9957 </r>
       <r>   -4.5609    0.9954 </r>
       <r>   -4.5512    0.9952 </r>
       <r>   -4.5412    0.9951 </r>
       <r>   -4.5401    0.9951 </r>
       <r>   -4.5388    0.9951 </r>
       <r>   -4.5384    0.9951 </r>
       <r>   -4.5379    0.9951 </r>
       <r>   -4.5377    0.9951 </r>
       <r>   -4.5353    0.9951 </r>
       <r>   -4.5340    0.9951 </r>
       <r>   -4.5011    0.9965 </r>
       <r>   -4.4959    0.9970 </r>
       <r>   -4.4957    0.9970 </r>
       <r>   -4.4924    0.9974 </r>
       <r>   -4.4900    0.9977 </r>
       <r>   -4.4779    0.9995 </r>
       <r>   -4.4691    1.0011 </r>
       <r>   -4.4679    1.0014 </r>
       <r>   -4.4624    1.0026 </r>
       <r>   -4.4564    1.0041 </r>
       <r>   -4.4545    1.0047 </r>
       <r>   -4.4508    1.0057 </r>
       <r>   -4.4465    1.0070 </r>
       <r>   -4.4447    1.0076 </r>
       <r>   -4.4400    1.0091 </r>
       <r>   -4.4370    1.0102 </r>
       <r>   -4.4366    1.0103 </r>
       <r>   -4.4340    1.0112 </r>
       <r>   -4.4323    1.0119 </r>
       <r>   -4.4262    1.0142 </r>
       <r>   -4.4172    1.0179 </r>
       <r>   -4.4041    1.0238 </r>
       <r>   -4.3968    1.0273 </r>
       <r>   -4.3954    1.0280 </r>
       <r>   -4.3938    1.0287 </r>
       <r>   -4.3890    1.0310 </r>
       <r>   -4.3876    1.0317 </r>
       <r>   -4.3871    1.0319 </r>
       <r>   -4.3850    1.0330 </r>
       <r>   -4.3748    1.0378 </r>
       <r>   -4.3725    1.0388 </r>
       <r>   -4.3532    1.0466 </r>
       <r>   -4.3463    1.0487 </r>
       <r>   -4.3359    1.0509 </r>
       <r>   -4.3354    1.0510 </r>
       <r>   -4.3267    1.0516 </r>
       <r>   -4.3243    1.0516 </r>
       <r>   -4.3235    1.0515 </r>
       <r>   -4.3232    1.0515 </r>
       <r>   -4.3199    1.0512 </r>
       <r>   -4.3161    1.0506 </r>
       <r>   -4.3157    1.0506 </r>
       <r>   -4.3118    1.0496 </r>
       <r>   -4.3111    1.0494 </r>
       <r>   -4.3101    1.0491 </r>
       <r>   -4.3085    1.0485 </r>
       <r>   -4.3077    1.0482 </r>
       <r>   -4.3038    1.0466 </r>
       <r>   -4.3026    1.0460 </r>
       <r>   -4.3010    1.0451 </r>
       <r>   -4.2936    1.0403 </r>
       <r>   -4.2865    1.0343 </r>
       <r>   -4.2836    1.0314 </r>
       <r>   -4.2816    1.0293 </r>
       <r>   -4.2759    1.0224 </r>
       <r>   -4.2737    1.0195 </r>
       <r>   -4.2698    1.0139 </r>
       <r>   -4.2691    1.0128 </r>
       <r>   -4.2686    1.0121 </r>
       <r>   -4.2668    1.0093 </r>
       <r>   -4.2523    0.9821 </r>
       <r>   -4.2442    0.9635 </r>
       <r>   -4.2438    0.9625 </r>
       <r>   -4.2426    0.9596 </r>
       <r>   -4.2368    0.9443 </r>
       <r>   -4.2359    0.9419 </r>
       <r>   -4.2359    0.9417 </r>
       <r>   -4.2343    0.9375 </r>
       <r>   -4.2299    0.9244 </r>
       <r>   -4.2297    0.9238 </r>
       <r>   -4.2241    0.9064 </r>
       <r>   -4.2227    0.9020 </r>
       <r>   -4.2226    0.9014 </r>
       <r>   -4.2219    0.8992 </r>
       <r>   -4.2193    0.8907 </r>
       <r>   -4.2072    0.8467 </r>
       <r>   -4.2062    0.8426 </r>
       <r>   -4.2051    0.8382 </r>
       <r>   -4.2040    0.8341 </r>
       <r>   -4.2010    0.8221 </r>
       <r>   -4.2001    0.8182 </r>
       <r>   -4.1899    0.7749 </r>
       <r>   -4.1806    0.7326 </r>
       <r>   -4.1792    0.7260 </r>
       <r>   -4.1745    0.7038 </r>
       <r>   -4.1694    0.6788 </r>
       <r>   -4.1694    0.6786 </r>
       <r>   -4.1642    0.6530 </r>
       <r>   -4.1555    0.6086 </r>
       <r>   -4.1543    0.6026 </r>
       <r>   -4.1542    0.6020 </r>
       <r>   -4.1406    0.5308 </r>
       <r>   -4.1246    0.4462 </r>
       <r>   -4.1171    0.4071 </r>
       <r>   -4.1162    0.4022 </r>
       <r>   -4.1116    0.3785 </r>
       <r>   -4.1040    0.3402 </r>
       <r>   -4.0964    0.3026 </r>
       <r>   -4.0430    0.0858 </r>
       <r>   -3.9557   -0.0502 </r>
       <r>   -3.8885   -0.0348 </r>
       <r>   -3.8095   -0.0032 </r>
       <r>   -3.8081   -0.0028 </r>
       <r>   -3.7983   -0.0007 </r>
       <r>   -3.4813    0.0001 </r>
       <r>   -3.4810    0.0001 </r>
       <r>   -3.3847    0.0000 </r>
       <r>   -3.0488    0.0000 </r>
       <r>   -3.0460    0.0000 </r>
       <r>   -3.0105    0.0000 </r>
       <r>   -3.0049    0.0000 </r>
       <r>   -2.9998    0.0000 </r>
       <r>   -2.9985    0.0000 </r>
       <r>   -2.9188    0.0000 </r>
       <r>   -2.8260    0.0000 </r>
       <r>   -2.5622    0.0000 </r>
       <r>   -2.5393    0.0000 </r>
       <r>   -2.5062    0.0000 </r>
       <r>   -2.2343    0.0000 </r>
       <r>   -2.1210    0.0000 </r>
       <r>   -2.1109    0.0000 </r>
       <r>   -2.1049    0.0000 </r>
       <r>   -1.9506    0.0000 </r>
       <r>   -1.9357    0.0000 </r>
       <r>   -1.8698    0.0000 </r>
       <r>   -1.8667    0.0000 </r>
       <r>   -1.8361    0.0000 </r>
       <r>   -1.7424    0.0000 </r>
       <r>   -1.7302    0.0000 </r>
       <r>   -1.6827    0.0000 </r>
       <r>   -1.6293    0.0000 </r>
       <r>   -1.5401    0.0000 </r>
       <r>   -1.4980    0.0000 </r>
       <r>   -1.4303    0.0000 </r>
       <r>   -1.3720    0.0000 </r>
       <r>   -1.0954    0.0000 </r>
       <r>   -1.0612    0.0000 </r>
       <r>   -1.0106    0.0000 </r>
       <r>   -0.9698    0.0000 </r>
       <r>   -0.9646    0.0000 </r>
       <r>   -0.9279    0.0000 </r>
       <r>   -0.9234    0.0000 </r>
       <r>   -0.9039    0.0000 </r>
       <r>   -0.8779    0.0000 </r>
       <r>   -0.7984    0.0000 </r>
       <r>   -0.6143    0.0000 </r>
      </set>
     </set>
    </set>
   </array>
  </eigenvalues>
  <separator name="orbital magnetization" >
   <v name="MAGDIPOLOUT">      0.00000000      0.00000000      0.00000000</v>
  </separator>
  <dos>
   <i name="efermi">     -4.13479549 </i>
   <total>
    <array>
     <dimension dim="1">gridpoints</dimension>
     <dimension dim="2">spin</dimension>
     <field>energy</field>
     <field>total</field>
     <field>integrated</field>
     <set>
      <set comment="spin 1">
       <r>   -30.8202     0.0000     0.0000 </r>
       <r>   -30.7128     0.0000     0.0000 </r>
       <r>   -30.6055     0.0000     0.0000 </r>
       <r>   -30.4981     0.0000     0.0000 </r>
       <r>   -30.3907     0.0000     0.0000 </r>
       <r>   -30.2834     0.0000     0.0000 </r>
       <r>   -30.1760     0.0000     0.0000 </r>
       <r>   -30.0687     0.0000     0.0000 </r>
       <r>   -29.9613     0.0000     0.0000 </r>
       <r>   -29.8540     0.0000     0.0000 </r>
       <r>   -29.7466     0.0000     0.0000 </r>
       <r>   -29.6393     0.0000     0.0000 </r>
       <r>   -29.5319     0.0003     0.0000 </r>
       <r>   -29.4246     0.0047     0.0005 </r>
       <r>   -29.3172     0.0354     0.0043 </r>
       <r>   -29.2099     0.0483     0.0095 </r>
       <r>   -29.1025    -0.4231    -0.0359 </r>
       <r>   -28.9952    -0.5780    -0.0980 </r>
       <r>   -28.8878     4.1193     0.3443 </r>
       <r>   -28.7805     9.9031     1.4074 </r>
       <r>   -28.6731     6.0705     2.0591 </r>
       <r>   -28.5657     0.0261     2.0619 </r>
       <r>   -28.4584    -0.6332     1.9939 </r>
       <r>   -28.3510    -0.0019     1.9937 </r>
       <r>   -28.2437     0.0494     1.9990 </r>
       <r>   -28.1363     0.0088     1.9999 </r>
       <r>   -28.0290     0.0006     2.0000 </r>
       <r>   -27.9216     0.0000     2.0000 </r>
       <r>   -27.8143     0.0000     2.0000 </r>
       <r>   -27.7069     0.0000     2.0000 </r>
       <r>   -27.5996     0.0000     2.0000 </r>
       <r>   -27.4922     0.0000     2.0000 </r>
       <r>   -27.3849     0.0000     2.0000 </r>
       <r>   -27.2775     0.0000     2.0000 </r>
       <r>   -27.1702     0.0000     2.0000 </r>
       <r>   -27.0628     0.0000     2.0000 </r>
       <r>   -26.9555     0.0000     2.0000 </r>
       <r>   -26.8481     0.0000     2.0000 </r>
       <r>   -26.7408     0.0000     2.0000 </r>
       <r>   -26.6334     0.0000     2.0000 </r>
       <r>   -26.5260     0.0000     2.0000 </r>
       <r>   -26.4187     0.0000     2.0000 </r>
       <r>   -26.3113     0.0000     2.0000 </r>
       <r>   -26.2040     0.0000     2.0000 </r>
       <r>   -26.0966     0.0000     2.0000 </r>
       <r>   -25.9893     0.0000     2.0000 </r>
       <r>   -25.8819     0.0000     2.0000 </r>
       <r>   -25.7746     0.0000     2.0000 </r>
       <r>   -25.6672     0.0000     2.0000 </r>
       <r>   -25.5599     0.0000     2.0000 </r>
       <r>   -25.4525     0.0000     2.0000 </r>
       <r>   -25.3452     0.0000     2.0000 </r>
       <r>   -25.2378     0.0000     2.0000 </r>
       <r>   -25.1305     0.0000     2.0000 </r>
       <r>   -25.0231     0.0000     2.0000 </r>
       <r>   -24.9158     0.0000     2.0000 </r>
       <r>   -24.8084     0.0000     2.0000 </r>
       <r>   -24.7011     0.0000     2.0000 </r>
       <r>   -24.5937     0.0000     2.0000 </r>
       <r>   -24.4863     0.0000     2.0000 </r>
       <r>   -24.3790     0.0000     2.0000 </r>
       <r>   -24.2716     0.0000     2.0000 </r>
       <r>   -24.1643     0.0000     2.0000 </r>
       <r>   -24.0569     0.0000     2.0000 </r>
       <r>   -23.9496     0.0000     2.0000 </r>
       <r>   -23.8422     0.0000     2.0000 </r>
       <r>   -23.7349     0.0000     2.0000 </r>
       <r>   -23.6275     0.0000     2.0000 </r>
       <r>   -23.5202     0.0000     2.0000 </r>
       <r>   -23.4128     0.0000     2.0000 </r>
       <r>   -23.3055     0.0000     2.0000 </r>
       <r>   -23.1981     0.0000     2.0000 </r>
       <r>   -23.0908     0.0000     2.0000 </r>
       <r>   -22.9834     0.0000     2.0000 </r>
       <r>   -22.8761     0.0000     2.0000 </r>
       <r>   -22.7687     0.0000     2.0000 </r>
       <r>   -22.6613     0.0000     2.0000 </r>
       <r>   -22.5540     0.0000     2.0000 </r>
       <r>   -22.4466     0.0000     2.0000 </r>
       <r>   -22.3393     0.0000     2.0000 </r>
       <r>   -22.2319     0.0000     2.0000 </r>
       <r>   -22.1246     0.0000     2.0000 </r>
       <r>   -22.0172     0.0000     2.0000 </r>
       <r>   -21.9099     0.0000     2.0000 </r>
       <r>   -21.8025     0.0000     2.0000 </r>
       <r>   -21.6952     0.0000     2.0000 </r>
       <r>   -21.5878     0.0000     2.0000 </r>
       <r>   -21.4805     0.0000     2.0000 </r>
       <r>   -21.3731     0.0000     2.0000 </r>
       <r>   -21.2658     0.0000     2.0000 </r>
       <r>   -21.1584     0.0000     2.0000 </r>
       <r>   -21.0511     0.0000     2.0000 </r>
       <r>   -20.9437     0.0000     2.0000 </r>
       <r>   -20.8364     0.0000     2.0000 </r>
       <r>   -20.7290     0.0000     2.0000 </r>
       <r>   -20.6216     0.0000     2.0000 </r>
       <r>   -20.5143     0.0000     2.0000 </r>
       <r>   -20.4069     0.0000     2.0000 </r>
       <r>   -20.2996     0.0000     2.0000 </r>
       <r>   -20.1922     0.0000     2.0000 </r>
       <r>   -20.0849     0.0000     2.0000 </r>
       <r>   -19.9775     0.0000     2.0000 </r>
       <r>   -19.8702     0.0000     2.0000 </r>
       <r>   -19.7628     0.0000     2.0000 </r>
       <r>   -19.6555     0.0000     2.0000 </r>
       <r>   -19.5481     0.0000     2.0000 </r>
       <r>   -19.4408     0.0000     2.0000 </r>
       <r>   -19.3334     0.0000     2.0000 </r>
       <r>   -19.2261     0.0000     2.0000 </r>
       <r>   -19.1187     0.0000     2.0000 </r>
       <r>   -19.0114     0.0000     2.0000 </r>
       <r>   -18.9040     0.0000     2.0000 </r>
       <r>   -18.7967     0.0000     2.0000 </r>
       <r>   -18.6893     0.0000     2.0000 </r>
       <r>   -18.5819     0.0000     2.0000 </r>
       <r>   -18.4746     0.0000     2.0000 </r>
       <r>   -18.3672     0.0000     2.0000 </r>
       <r>   -18.2599     0.0000     2.0000 </r>
       <r>   -18.1525     0.0000     2.0000 </r>
       <r>   -18.0452     0.0000     2.0000 </r>
       <r>   -17.9378     0.0000     2.0000 </r>
       <r>   -17.8305     0.0000     2.0000 </r>
       <r>   -17.7231     0.0000     2.0000 </r>
       <r>   -17.6158     0.0000     2.0000 </r>
       <r>   -17.5084     0.0000     2.0000 </r>
       <r>   -17.4011     0.0000     2.0000 </r>
       <r>   -17.2937     0.0000     2.0000 </r>
       <r>   -17.1864     0.0000     2.0000 </r>
       <r>   -17.0790     0.0000     2.0000 </r>
       <r>   -16.9717     0.0000     2.0000 </r>
       <r>   -16.8643     0.0000     2.0000 </r>
       <r>   -16.7570     0.0000     2.0000 </r>
       <r>   -16.6496     0.0000     2.0000 </r>
       <r>   -16.5422     0.0000     2.0000 </r>
       <r>   -16.4349     0.0000     2.0000 </r>
       <r>   -16.3275     0.0000     2.0000 </r>
       <r>   -16.2202     0.0000     2.0000 </r>
       <r>   -16.1128     0.0000     2.0000 </r>
       <r>   -16.0055     0.0000     2.0000 </r>
       <r>   -15.8981     0.0000     2.0000 </r>
       <r>   -15.7908     0.0000     2.0000 </r>
       <r>   -15.6834     0.0000     2.0000 </r>
       <r>   -15.5761     0.0000     2.0000 </r>
       <r>   -15.4687     0.0000     2.0000 </r>
       <r>   -15.3614     0.0000     2.0000 </r>
       <r>   -15.2540     0.0000     2.0000 </r>
       <r>   -15.1467     0.0000     2.0000 </r>
       <r>   -15.0393     0.0000     2.0000 </r>
       <r>   -14.9320     0.0000     2.0000 </r>
       <r>   -14.8246     0.0000     2.0000 </r>
       <r>   -14.7172     0.0000     2.0000 </r>
       <r>   -14.6099     0.0000     2.0000 </r>
       <r>   -14.5025     0.0000     2.0000 </r>
       <r>   -14.3952     0.0000     2.0000 </r>
       <r>   -14.2878     0.0000     2.0000 </r>
       <r>   -14.1805     0.0003     2.0000 </r>
       <r>   -14.0731     0.0048     2.0005 </r>
       <r>   -13.9658     0.0358     2.0044 </r>
       <r>   -13.8584     0.0473     2.0095 </r>
       <r>   -13.7511    -0.4295     1.9634 </r>
       <r>   -13.6437    -0.5658     1.9026 </r>
       <r>   -13.5364     4.1772     2.3511 </r>
       <r>   -13.4290     9.9153     3.4155 </r>
       <r>   -13.3217     6.0119     4.0609 </r>
       <r>   -13.2143     0.0015     4.0611 </r>
       <r>   -13.1070    -0.6272     3.9937 </r>
       <r>   -12.9996     0.0003     3.9937 </r>
       <r>   -12.8923     0.0490     3.9990 </r>
       <r>   -12.7849     0.0086     3.9999 </r>
       <r>   -12.6775     0.0006     4.0000 </r>
       <r>   -12.5702     0.0000     4.0000 </r>
       <r>   -12.4628     0.0000     4.0000 </r>
       <r>   -12.3555     0.0000     4.0000 </r>
       <r>   -12.2481     0.0000     4.0000 </r>
       <r>   -12.1408     0.0000     4.0000 </r>
       <r>   -12.0334     0.0000     4.0000 </r>
       <r>   -11.9261     0.0002     4.0000 </r>
       <r>   -11.8187     0.0050     4.0006 </r>
       <r>   -11.7114     0.0468     4.0056 </r>
       <r>   -11.6040     0.1248     4.0190 </r>
       <r>   -11.4967    -0.4634     3.9692 </r>
       <r>   -11.3893    -1.5699     3.8007 </r>
       <r>   -11.2820     4.6975     4.3050 </r>
       <r>   -11.1746    18.0781     6.2457 </r>
       <r>   -11.0673    15.7139     7.9327 </r>
       <r>   -10.9599     2.2389     8.1730 </r>
       <r>   -10.8526    -1.5550     8.0061 </r>
       <r>   -10.7452    -0.2045     7.9841 </r>
       <r>   -10.6378     0.1639     8.0017 </r>
       <r>   -10.5305     0.0576     8.0079 </r>
       <r>   -10.4231    -0.5352     7.9505 </r>
       <r>   -10.3158    -0.3057     7.9176 </r>
       <r>   -10.2084     5.1678     8.4724 </r>
       <r>   -10.1011    10.0077     9.5468 </r>
       <r>    -9.9937     5.0166    10.0853 </r>
       <r>    -9.8864    -0.3521    10.0475 </r>
       <r>    -9.7790    -0.5215     9.9915 </r>
       <r>    -9.6717     0.0303     9.9948 </r>
       <r>    -9.5643     0.0418     9.9993 </r>
       <r>    -9.4570     0.0063    10.0000 </r>
       <r>    -9.3496     0.0004    10.0000 </r>
       <r>    -9.2423     0.0000    10.0000 </r>
       <r>    -9.1349     0.0000    10.0000 </r>
       <r>    -9.0276     0.0000    10.0000 </r>
       <r>    -8.9202     0.0000    10.0000 </r>
       <r>    -8.8129     0.0000    10.0000 </r>
       <r>    -8.7055     0.0000    10.0000 </r>
       <r>    -8.5981     0.0000    10.0000 </r>
       <r>    -8.4908     0.0000    10.0000 </r>
       <r>    -8.3834     0.0000    10.0000 </r>
       <r>    -8.2761     0.0000    10.0000 </r>
       <r>    -8.1687     0.0000    10.0000 </r>
       <r>    -8.0614     0.0000    10.0000 </r>
       <r>    -7.9540     0.0000    10.0000 </r>
       <r>    -7.8467     0.0000    10.0000 </r>
       <r>    -7.7393     0.0000    10.0000 </r>
       <r>    -7.6320     0.0000    10.0000 </r>
       <r>    -7.5246     0.0000    10.0000 </r>
       <r>    -7.4173     0.0000    10.0000 </r>
       <r>    -7.3099     0.0008    10.0001 </r>
       <r>    -7.2026     0.0109    10.0013 </r>
       <r>    -7.0952     0.0544    10.0071 </r>
       <r>    -6.9879    -0.0325    10.0036 </r>
       <r>    -6.8805    -0.7024     9.9282 </r>
       <r>    -6.7731     0.3691     9.9678 </r>
       <r>    -6.6658     6.8277    10.7008 </r>
       <r>    -6.5584     9.8764    11.7611 </r>
       <r>    -6.4511     3.0899    12.0928 </r>
       <r>    -6.3437    -3.0141    11.7692 </r>
       <r>    -6.2364     3.5770    12.1532 </r>
       <r>    -6.1290    24.1505    14.7458 </r>
       <r>    -6.0217    24.2517    17.3493 </r>
       <r>    -5.9143     7.6406    18.1696 </r>
       <r>    -5.8070    27.5035    21.1221 </r>
       <r>    -5.6996    76.1768    29.2999 </r>
       <r>    -5.5923   150.2191    45.4263 </r>
       <r>    -5.4849   260.7619    73.4198 </r>
       <r>    -5.3776   299.8266   105.6070 </r>
       <r>    -5.2702   232.6884   130.5868 </r>
       <r>    -5.1629   210.8524   153.2223 </r>
       <r>    -5.0555   296.3082   185.0318 </r>
       <r>    -4.9482   368.5816   224.6001 </r>
       <r>    -4.8408   326.7872   259.6816 </r>
       <r>    -4.7334   292.0395   291.0328 </r>
       <r>    -4.6261   368.6772   330.6113 </r>
       <r>    -4.5187   419.0333   375.5957 </r>
       <r>    -4.4114   423.4389   421.0530 </r>
       <r>    -4.3040   510.3410   475.8395 </r>
       <r>    -4.1967   549.4008   534.8191 </r>
       <r>    -4.0893   342.8930   571.6296 </r>
       <r>    -3.9820    86.3516   580.8997 </r>
       <r>    -3.8746    14.3864   582.4441 </r>
       <r>    -3.7673    32.2371   585.9049 </r>
       <r>    -3.6599    18.5962   587.9012 </r>
       <r>    -3.5526     7.5608   588.7129 </r>
       <r>    -3.4452    22.8904   591.1702 </r>
       <r>    -3.3379    21.7010   593.4999 </r>
       <r>    -3.2305     1.3705   593.6470 </r>
       <r>    -3.1232     8.8226   594.5941 </r>
       <r>    -3.0158    51.8996   600.1657 </r>
       <r>    -2.9085    61.9913   606.8206 </r>
       <r>    -2.8011    26.0074   609.6126 </r>
       <r>    -2.6937     3.3929   609.9768 </r>
       <r>    -2.5864    14.8159   611.5674 </r>
       <r>    -2.4790    28.0659   614.5803 </r>
       <r>    -2.3717    13.5391   616.0338 </r>
       <r>    -2.2643     5.6473   616.6400 </r>
       <r>    -2.1570    23.0394   619.1134 </r>
       <r>    -2.0496    34.3728   622.8034 </r>
       <r>    -1.9423    36.8077   626.7548 </r>
       <r>    -1.8349    46.3967   631.7356 </r>
       <r>    -1.7276    47.3775   636.8217 </r>
       <r>    -1.6202    38.5036   640.9551 </r>
       <r>    -1.5129    33.5189   644.5535 </r>
       <r>    -1.4055    31.3014   647.9138 </r>
       <r>    -1.2982    16.5636   649.6919 </r>
       <r>    -1.1908     1.8926   649.8951 </r>
       <r>    -1.0835    18.6971   651.9023 </r>
       <r>    -0.9761    58.9971   658.2358 </r>
       <r>    -0.8687    70.6464   665.8199 </r>
       <r>    -0.7614    37.0481   669.7971 </r>
       <r>    -0.6540    10.2290   670.8952 </r>
       <r>    -0.5467     7.2223   671.6705 </r>
       <r>    -0.4393     3.6300   672.0602 </r>
       <r>    -0.3320    -0.3336   672.0244 </r>
       <r>    -0.2246    -0.3292   671.9891 </r>
       <r>    -0.1173     0.0606   671.9956 </r>
       <r>    -0.0099     0.0362   671.9995 </r>
       <r>     0.0974     0.0048   672.0000 </r>
       <r>     0.2048     0.0003   672.0000 </r>
       <r>     0.3121     0.0000   672.0000 </r>
       <r>     0.4195     0.0000   672.0000 </r>
       <r>     0.5268     0.0000   672.0000 </r>
       <r>     0.6342     0.0000   672.0000 </r>
       <r>     0.7415     0.0000   672.0000 </r>
       <r>     0.8489     0.0000   672.0000 </r>
       <r>     0.9562     0.0000   672.0000 </r>
       <r>     1.0636     0.0000   672.0000 </r>
       <r>     1.1710     0.0000   672.0000 </r>
       <r>     1.2783     0.0000   672.0000 </r>
       <r>     1.3857     0.0000   672.0000 </r>
      </set>
     </set>
    </array>
   </total>
  </dos>
 </calculation>
 <structure name="finalpos" >
  <crystal>
   <varray name="basis" >
    <v>      30.00000000       0.00000000       0.00000000 </v>
    <v>       0.00000000      30.00000000       0.00000000 </v>
    <v>       0.00000000       0.00000000      30.00000000 </v>
   </varray>
   <i name="volume">  27000.00000000 </i>
   <varray name="rec_basis" >
    <v>       0.03333333       0.00000000       0.00000000 </v>
    <v>       0.00000000       0.03333333       0.00000000 </v>
    <v>       0.00000000       0.00000000       0.03333333 </v>
   </varray>
  </crystal>
  <varray name="positions" >
   <v>       0.44576020       0.32826710       0.41691983 </v>
   <v>       0.67173288       0.55423978       0.41691983 </v>
   <v>       0.55423980       0.32826710       0.41691983 </v>
   <v>       0.32826712       0.55423978       0.41691983 </v>
   <v>       0.50000000       0.38250690       0.34021317 </v>
   <v>       0.50000000       0.38250690       0.65978680 </v>
   <v>       0.50000000       0.27609440       0.50000000 </v>
   <v>       0.27609443       0.49999998       0.50000000 </v>
   <v>       0.72390557       0.49999998       0.50000000 </v>
   <v>       0.50000000       0.72390555       0.50000000 </v>
   <v>       0.61195280       0.38804720       0.34167483 </v>
   <v>       0.61195280       0.38804720       0.65832513 </v>
   <v>       0.38804722       0.61195278       0.34167483 </v>
   <v>       0.38804722       0.61195278       0.65832513 </v>
   <v>       0.38804720       0.38804720       0.34167483 </v>
   <v>       0.38804720       0.38804720       0.65832513 </v>
   <v>       0.61195278       0.61195278       0.34167483 </v>
   <v>       0.61195278       0.61195278       0.65832513 </v>
   <v>       0.44576020       0.32826710       0.58308023 </v>
   <v>       0.67173288       0.55423978       0.58308023 </v>
   <v>       0.55791699       0.44208301       0.41809300 </v>
   <v>       0.32826705       0.44576024       0.41691983 </v>
   <v>       0.55423973       0.67173293       0.41691983 </v>
   <v>       0.55423980       0.32826710       0.58308023 </v>
   <v>       0.32826712       0.55423978       0.58308023 </v>
   <v>       0.67173295       0.44576024       0.41691983 </v>
   <v>       0.44576027       0.67173293       0.41691983 </v>
   <v>       0.44208301       0.44208301       0.41809300 </v>
   <v>       0.50000000       0.38416601       0.50000000 </v>
   <v>       0.61749315       0.50000005       0.34021317 </v>
   <v>       0.61749315       0.50000005       0.65978680 </v>
   <v>       0.38250685       0.50000005       0.34021317 </v>
   <v>       0.38250685       0.50000005       0.65978680 </v>
   <v>       0.38317830       0.38317830       0.50000000 </v>
   <v>       0.61682172       0.61682172       0.50000000 </v>
   <v>       0.61682170       0.38317830       0.50000000 </v>
   <v>       0.38317828       0.61682172       0.50000000 </v>
   <v>       0.50000000       0.50000000       0.33478917 </v>
   <v>       0.50000000       0.50000000       0.66521087 </v>
   <v>       0.32826705       0.44576024       0.58308023 </v>
   <v>       0.55423973       0.67173293       0.58308023 </v>
   <v>       0.55791699       0.44208301       0.58190703 </v>
   <v>       0.44208298       0.55791702       0.41809300 </v>
   <v>       0.44208301       0.44208301       0.58190703 </v>
   <v>       0.67173295       0.44576024       0.58308023 </v>
   <v>       0.44576027       0.67173293       0.58308023 </v>
   <v>       0.55791702       0.55791702       0.41809300 </v>
   <v>       0.38416599       0.50000002       0.50000000 </v>
   <v>       0.61583401       0.50000002       0.50000000 </v>
   <v>       0.50000000       0.61749319       0.34021317 </v>
   <v>       0.50000000       0.61749319       0.65978680 </v>
   <v>       0.50000000       0.50000000       0.50000000 </v>
   <v>       0.44208298       0.55791702       0.58190703 </v>
   <v>       0.55791702       0.55791702       0.58190703 </v>
   <v>       0.50000000       0.61583404       0.50000000 </v>
   <v>       0.52177247       0.52285520       0.27096053 </v>
   <v>       0.52531327       0.52657207       0.23371260 </v>
  </varray>
  <varray name="selective"  type="logical" >
   <v type="logical" >  F  F  F </v>
   <v type="logical" >  F  F  F </v>
   <v type="logical" >  F  F  F </v>
   <v type="logical" >  F  F  F </v>
   <v type="logical" >  F  F  F </v>
   <v type="logical" >  F  F  F </v>
   <v type="logical" >  F  F  F </v>
   <v type="logical" >  F  F  F </v>
   <v type="logical" >  F  F  F </v>
   <v type="logical" >  F  F  F </v>
   <v type="logical" >  F  F  F </v>
   <v type="logical" >  F  F  F </v>
   <v type="logical" >  F  F  F </v>
   <v type="logical" >  F  F  F </v>
   <v type="logical" >  F  F  F </v>
   <v type="logical" >  F  F  F </v>
   <v type="logical" >  F  F  F </v>
   <v type="logical" >  F  F  F </v>
   <v type="logical" >  F  F  F </v>
   <v type="logical" >  F  F  F </v>
   <v type="logical" >  F  F  F </v>
   <v type="logical" >  F  F  F </v>
   <v type="logical" >  F  F  F </v>
   <v type="logical" >  F  F  F </v>
   <v type="logical" >  F  F  F </v>
   <v type="logical" >  F  F  F </v>
   <v type="logical" >  F  F  F </v>
   <v type="logical" >  F  F  F </v>
   <v type="logical" >  F  F  F </v>
   <v type="logical" >  F  F  F </v>
   <v type="logical" >  F  F  F </v>
   <v type="logical" >  F  F  F </v>
   <v type="logical" >  F  F  F </v>
   <v type="logical" >  F  F  F </v>
   <v type="logical" >  F  F  F </v>
   <v type="logical" >  F  F  F </v>
   <v type="logical" >  F  F  F </v>
   <v type="logical" >  F  F  F </v>
   <v type="logical" >  F  F  F </v>
   <v type="logical" >  F  F  F </v>
   <v type="logical" >  F  F  F </v>
   <v type="logical" >  F  F  F </v>
   <v type="logical" >  F  F  F </v>
   <v type="logical" >  F  F  F </v>
   <v type="logical" >  F  F  F </v>
   <v type="logical" >  F  F  F </v>
   <v type="logical" >  F  F  F </v>
   <v type="logical" >  F  F  F </v>
   <v type="logical" >  F  F  F </v>
   <v type="logical" >  F  F  F </v>
   <v type="logical" >  F  F  F </v>
   <v type="logical" >  F  F  F </v>
   <v type="logical" >  F  F  F </v>
   <v type="logical" >  F  F  F </v>
   <v type="logical" >  F  F  F </v>
   <v type="logical" >  F  F  F </v>
   <v type="logical" >  F  F  F </v>
  </varray>
  <nose>
   <v>      -3.00000000       0.00000000       0.00010000       0.00010000 </v>
  </nose>
 </structure>
</modeling>
