<?xml version="1.0" encoding="ISO-8859-1"?>
<modeling>
 <generator>
  <i name="program" type="string">vasp </i>
  <i name="version" type="string">5.4.4.18Apr17-6-g9f103f2a35  </i>
  <i name="subversion" type="string">(build Sep 03 2018 23:53:05) complex            parallel </i>
  <i name="platform" type="string">LinuxIFC </i>
  <i name="date" type="string">2021 11 27 </i>
  <i name="time" type="string">04:46:12 </i>
 </generator>
 <incar>
  <i type="string" name="SYSTEM"> 6_Pd100_top_free_z(O)</i>
  <i type="int" name="ISTART">     0</i>
  <i type="string" name="PREC">normal   			! encut=max(enmax), ngx,y,z</i>
  <i type="string" name="ALGO"> Fast     			! Mix RMM-DIIS and Dav</i>
  <i type="logical" name="ADDGRID"> F  </i>
  <i type="int" name="ISPIN">     1</i>
  <i type="int" name="ICHARG">     2</i>
  <i type="int" name="NELM">   100</i>
  <i type="int" name="NELMIN">     6</i>
  <i type="int" name="IBRION">     2</i>
  <i name="EDIFF">      0.00010000</i>
  <i name="EDIFFG">     -0.05000000</i>
  <i type="int" name="NSW">     0</i>
  <i type="int" name="ISIF">     2</i>
  <i type="int" name="ISYM">     2</i>
  <i name="ENCUT">    400.00000000</i>
  <i type="string" name="LREAL"> Auto     			! Auto or A projection done</i>
  <i type="int" name="ISMEAR">     2</i>
  <i name="SIGMA">      0.20000000</i>
  <i type="logical" name="LWAVE"> F  </i>
  <i type="logical" name="LCHARG"> F  </i>
  <v type="int" name="KPOINT_BSE">    -1     0     0     0</v>
  <i type="int" name="MAXMEM"> 10000</i>
  <i type="int" name="NELM">   100</i>
  <i type="string" name="GGA"> RP         			! Revised PBE</i>
 </incar>
 <structure name="primitive_cell" >
  <crystal>
   <varray name="basis" >
    <v>      30.00000000       0.00000000       0.00000000 </v>
    <v>       0.00000000      30.00000000       0.00000000 </v>
    <v>       0.00000000       0.00000000      30.00000000 </v>
   </varray>
   <i name="volume">  27000.00000000 </i>
   <varray name="rec_basis" >
    <v>       0.03333333       0.00000000       0.00000000 </v>
    <v>       0.00000000       0.03333333       0.00000000 </v>
    <v>       0.00000000       0.00000000       0.03333333 </v>
   </varray>
  </crystal>
  <varray name="positions" >
   <v>       0.44576020       0.32826710       0.41691983 </v>
   <v>      -0.44576020       0.32826710       0.41691983 </v>
   <v>      -0.50000000       0.38250690       0.34021317 </v>
   <v>      -0.50000000       0.27609440      -0.50000000 </v>
   <v>       0.38804720       0.38804720       0.34167483 </v>
   <v>      -0.50000000       0.38416601      -0.50000000 </v>
   <v>       0.44208300       0.44208300       0.41809300 </v>
   <v>       0.38317830       0.38317830      -0.50000000 </v>
   <v>      -0.44208300       0.44208300       0.41809300 </v>
   <v>       0.44576020       0.32826710      -0.41691977 </v>
   <v>       0.32826705       0.44576024       0.41691983 </v>
   <v>      -0.38804720       0.38804720       0.34167483 </v>
   <v>      -0.38317830       0.38317830      -0.50000000 </v>
   <v>      -0.50000000      -0.50000000       0.33478917 </v>
   <v>      -0.50000000      -0.50000000      -0.50000000 </v>
   <v>      -0.44576020       0.32826710      -0.41691977 </v>
   <v>       0.38250685      -0.49999995       0.34021317 </v>
   <v>       0.44208300       0.44208300      -0.41809297 </v>
   <v>       0.38416599      -0.49999998      -0.50000000 </v>
   <v>      -0.44208300       0.44208300      -0.41809297 </v>
   <v>       0.44208298      -0.44208298       0.41809300 </v>
   <v>       0.32826705       0.44576024      -0.41691977 </v>
   <v>      -0.37789780       0.44063507       0.29167450 </v>
   <v>      -0.50000000       0.38250690      -0.34021320 </v>
   <v>       0.32826712      -0.44576022       0.41691983 </v>
   <v>      -0.38250685      -0.49999995       0.34021317 </v>
   <v>      -0.32826705       0.44576024       0.41691983 </v>
   <v>       0.27609443       0.49999998      -0.50000000 </v>
   <v>       0.38804720       0.38804720      -0.34167487 </v>
   <v>      -0.38416599      -0.49999998      -0.50000000 </v>
   <v>      -0.44208298      -0.44208298       0.41809300 </v>
   <v>      -0.35943480       0.43165853       0.26017373 </v>
   <v>       0.44208298      -0.44208298      -0.41809297 </v>
   <v>      -0.38804720       0.38804720      -0.34167487 </v>
   <v>       0.38804722      -0.38804722       0.34167483 </v>
   <v>       0.38250685      -0.49999995      -0.34021320 </v>
   <v>       0.32826712      -0.44576022      -0.41691977 </v>
   <v>      -0.32826705       0.44576024      -0.41691977 </v>
   <v>       0.50000000      -0.38250681       0.34021317 </v>
   <v>      -0.50000000      -0.38416596      -0.50000000 </v>
   <v>      -0.44208298      -0.44208298      -0.41809297 </v>
   <v>      -0.50000000      -0.50000000      -0.33478913 </v>
   <v>       0.38317828      -0.38317828      -0.50000000 </v>
   <v>      -0.32826712      -0.44576022       0.41691983 </v>
   <v>      -0.27609443       0.49999998      -0.50000000 </v>
   <v>      -0.38804722      -0.38804722       0.34167483 </v>
   <v>      -0.38250685      -0.49999995      -0.34021320 </v>
   <v>       0.44576027      -0.32826707       0.41691983 </v>
   <v>      -0.38317828      -0.38317828      -0.50000000 </v>
   <v>      -0.32826712      -0.44576022      -0.41691977 </v>
   <v>      -0.44576027      -0.32826707       0.41691983 </v>
   <v>       0.38804722      -0.38804722      -0.34167487 </v>
   <v>      -0.50000000      -0.38250681      -0.34021320 </v>
   <v>       0.44576027      -0.32826707      -0.41691977 </v>
   <v>      -0.44576027      -0.32826707      -0.41691977 </v>
   <v>      -0.50000000      -0.27609445       0.50000000 </v>
   <v>      -0.38804722      -0.38804722      -0.34167487 </v>
  </varray>
 </structure>
 <varray name="primitive_index" >
  <v type="int" >        1 </v>
  <v type="int" >        3 </v>
  <v type="int" >        5 </v>
  <v type="int" >        7 </v>
  <v type="int" >       15 </v>
  <v type="int" >       29 </v>
  <v type="int" >       28 </v>
  <v type="int" >       34 </v>
  <v type="int" >       21 </v>
  <v type="int" >       19 </v>
  <v type="int" >       22 </v>
  <v type="int" >       11 </v>
  <v type="int" >       36 </v>
  <v type="int" >       38 </v>
  <v type="int" >       52 </v>
  <v type="int" >       24 </v>
  <v type="int" >       32 </v>
  <v type="int" >       44 </v>
  <v type="int" >       48 </v>
  <v type="int" >       42 </v>
  <v type="int" >       43 </v>
  <v type="int" >       40 </v>
  <v type="int" >       56 </v>
  <v type="int" >        6 </v>
  <v type="int" >        4 </v>
  <v type="int" >       30 </v>
  <v type="int" >       26 </v>
  <v type="int" >        8 </v>
  <v type="int" >       16 </v>
  <v type="int" >       49 </v>
  <v type="int" >       47 </v>
  <v type="int" >       57 </v>
  <v type="int" >       53 </v>
  <v type="int" >       12 </v>
  <v type="int" >       13 </v>
  <v type="int" >       33 </v>
  <v type="int" >       25 </v>
  <v type="int" >       45 </v>
  <v type="int" >       50 </v>
  <v type="int" >       55 </v>
  <v type="int" >       54 </v>
  <v type="int" >       39 </v>
  <v type="int" >       37 </v>
  <v type="int" >        2 </v>
  <v type="int" >        9 </v>
  <v type="int" >       17 </v>
  <v type="int" >       31 </v>
  <v type="int" >       27 </v>
  <v type="int" >       35 </v>
  <v type="int" >       20 </v>
  <v type="int" >       23 </v>
  <v type="int" >       14 </v>
  <v type="int" >       51 </v>
  <v type="int" >       46 </v>
  <v type="int" >       41 </v>
  <v type="int" >       10 </v>
  <v type="int" >       18 </v>
 </varray>
 <kpoints>
  <generation param="Monkhorst-Pack">
   <v type="int" name="divisions">       1        1        1 </v>
   <v name="usershift">      0.00000000       0.00000000       0.00000000 </v>
   <v name="genvec1">      1.00000000       0.00000000       0.00000000 </v>
   <v name="genvec2">      0.00000000       1.00000000       0.00000000 </v>
   <v name="genvec3">      0.00000000       0.00000000       1.00000000 </v>
   <v name="shift">      0.00000000       0.00000000       0.00000000 </v>
  </generation>
  <varray name="kpointlist" >
   <v>       0.00000000       0.00000000       0.00000000 </v>
  </varray>
  <varray name="weights" >
   <v>       1.00000000 </v>
  </varray>
 </kpoints>
 <parameters>
  <separator name="general" >
   <i type="string" name="SYSTEM">6_Pd100_top_free_z(O)</i>
   <i type="logical" name="LCOMPAT"> F  </i>
  </separator>
  <separator name="electronic" >
   <i type="string" name="PREC">normal</i>
   <i name="ENMAX">    400.00000000</i>
   <i name="ENAUG">    644.87300000</i>
   <i name="EDIFF">      0.00010000</i>
   <i type="int" name="IALGO">    68</i>
   <i type="int" name="IWAVPR">    10</i>
   <i type="int" name="NBANDS">   336</i>
   <i name="NELECT">    560.00000000</i>
   <i type="int" name="TURBO">     0</i>
   <i type="int" name="IRESTART">     0</i>
   <i type="int" name="NREBOOT">     0</i>
   <i type="int" name="NMIN">     0</i>
   <i name="EREF">      0.00000000</i>
   <separator name="electronic smearing" >
    <i type="int" name="ISMEAR">     2</i>
    <i name="SIGMA">      0.20000000</i>
    <i name="KSPACING">      0.50000000</i>
    <i type="logical" name="KGAMMA"> T  </i>
   </separator>
   <separator name="electronic projectors" >
    <i type="logical" name="LREAL"> T  </i>
    <v name="ROPT">     -0.00050000     -0.00050000     -0.00050000</v>
    <i type="int" name="LMAXPAW">  -100</i>
    <i type="int" name="LMAXMIX">     2</i>
    <i type="logical" name="NLSPLINE"> F  </i>
   </separator>
   <separator name="electronic startup" >
    <i type="int" name="ISTART">     0</i>
    <i type="int" name="ICHARG">     2</i>
    <i type="int" name="INIWAV">     1</i>
   </separator>
   <separator name="electronic spin" >
    <i type="int" name="ISPIN">     1</i>
    <i type="logical" name="LNONCOLLINEAR"> F  </i>
    <v name="MAGMOM">      1.00000000      1.00000000      1.00000000      1.00000000      1.00000000      1.00000000      1.00000000      1.00000000      1.00000000      1.00000000      1.00000000      1.00000000      1.00000000      1.00000000      1.00000000      1.00000000      1.00000000      1.00000000      1.00000000      1.00000000
      1.00000000      1.00000000      1.00000000      1.00000000      1.00000000      1.00000000      1.00000000      1.00000000      1.00000000      1.00000000      1.00000000      1.00000000      1.00000000      1.00000000      1.00000000      1.00000000      1.00000000      1.00000000      1.00000000      1.00000000
      1.00000000      1.00000000      1.00000000      1.00000000      1.00000000      1.00000000      1.00000000      1.00000000      1.00000000      1.00000000      1.00000000      1.00000000      1.00000000      1.00000000      1.00000000      1.00000000      1.00000000</v>
    <i name="NUPDOWN">     -1.00000000</i>
    <i type="logical" name="LSORBIT"> F  </i>
    <v name="SAXIS">      0.00000000      0.00000000      1.00000000</v>
    <i type="logical" name="LSPIRAL"> F  </i>
    <v name="QSPIRAL">      0.00000000      0.00000000      0.00000000</v>
    <i type="logical" name="LZEROZ"> F  </i>
   </separator>
   <separator name="electronic exchange-correlation" >
    <i type="logical" name="LASPH"> F  </i>
    <i type="logical" name="LMETAGGA"> F  </i>
   </separator>
   <separator name="electronic convergence" >
    <i type="int" name="NELM">   100</i>
    <i type="int" name="NELMDL">    -5</i>
    <i type="int" name="NELMIN">     6</i>
    <i name="ENINI">    400.00000000</i>
    <separator name="electronic convergence detail" >
     <i type="logical" name="LDIAG"> T  </i>
     <i type="logical" name="LSUBROT"> F  </i>
     <i name="WEIMIN">      0.00000000</i>
     <i name="EBREAK">      0.00000007</i>
     <i name="DEPER">      0.30000000</i>
     <i type="int" name="NRMM">     4</i>
     <i name="TIME">      0.40000000</i>
    </separator>
   </separator>
   <separator name="electronic mixer" >
    <i name="AMIX">      0.40000000</i>
    <i name="BMIX">      1.00000000</i>
    <i name="AMIN">      0.10000000</i>
    <i name="AMIX_MAG">      1.60000000</i>
    <i name="BMIX_MAG">      1.00000000</i>
    <separator name="electronic mixer details" >
     <i type="int" name="IMIX">     4</i>
     <i type="logical" name="MIXFIRST"> F  </i>
     <i type="int" name="MAXMIX">   -45</i>
     <i name="WC">    100.00000000</i>
     <i type="int" name="INIMIX">     1</i>
     <i type="int" name="MIXPRE">     1</i>
     <i type="int" name="MREMOVE">     5</i>
    </separator>
   </separator>
   <separator name="electronic dipolcorrection" >
    <i type="logical" name="LDIPOL"> F  </i>
    <i type="logical" name="LMONO"> F  </i>
    <i type="int" name="IDIPOL">     0</i>
    <i name="EPSILON">      1.00000000</i>
    <v name="DIPOL">   -100.00000000   -100.00000000   -100.00000000</v>
    <i name="EFIELD">      0.00000000</i>
   </separator>
  </separator>
  <separator name="grids" >
   <i type="int" name="NGX">   150</i>
   <i type="int" name="NGY">   150</i>
   <i type="int" name="NGZ">   150</i>
   <i type="int" name="NGXF">   300</i>
   <i type="int" name="NGYF">   300</i>
   <i type="int" name="NGZF">   300</i>
   <i type="logical" name="ADDGRID"> F  </i>
  </separator>
  <separator name="ionic" >
   <i type="int" name="NSW">     0</i>
   <i type="int" name="IBRION">    -1</i>
   <i type="int" name="MDALGO">     0</i>
   <i type="int" name="ISIF">     2</i>
   <i name="PSTRESS">      0.00000000</i>
   <i name="EDIFFG">     -0.05000000</i>
   <i type="int" name="NFREE">     1</i>
   <i name="POTIM">      0.50000000</i>
   <i name="SMASS">     -3.00000000</i>
   <i name="SCALEE">      1.00000000</i>
  </separator>
  <separator name="ionic md" >
   <i name="TEBEG">      0.00010000</i>
   <i name="TEEND">      0.00010000</i>
   <i type="int" name="NBLOCK">     1</i>
   <i type="int" name="KBLOCK">     1</i>
   <i type="int" name="NPACO">   256</i>
   <i name="APACO">     16.00000000</i>
  </separator>
  <separator name="symmetry" >
   <i type="int" name="ISYM">     2</i>
   <i name="SYMPREC">      0.00001000</i>
  </separator>
  <separator name="dos" >
   <i type="int" name="LORBIT">     0</i>
   <v name="RWIGS">     -1.00000000     -1.00000000     -1.00000000</v>
   <i type="int" name="NEDOS">   301</i>
   <i name="EMIN">     10.00000000</i>
   <i name="EMAX">    -10.00000000</i>
   <i name="EFERMI">      0.00000000</i>
  </separator>
  <separator name="writing" >
   <i type="int" name="NWRITE">     2</i>
   <i type="logical" name="LWAVE"> F  </i>
   <i type="logical" name="LDOWNSAMPLE"> F  </i>
   <i type="logical" name="LCHARG"> F  </i>
   <i type="logical" name="LPARD"> F  </i>
   <i type="logical" name="LVTOT"> F  </i>
   <i type="logical" name="LVHAR"> F  </i>
   <i type="logical" name="LELF"> F  </i>
   <i type="logical" name="LOPTICS"> F  </i>
   <v name="STM">      0.00000000      0.00000000      0.00000000      0.00000000      0.00000000      0.00000000      0.00000000</v>
  </separator>
  <separator name="performance" >
   <i type="int" name="NPAR">     1</i>
   <i type="int" name="NSIM">     4</i>
   <i type="int" name="NBLK">    -1</i>
   <i type="logical" name="LPLANE"> T  </i>
   <i type="logical" name="LSCALAPACK"> T  </i>
   <i type="logical" name="LSCAAWARE"> F  </i>
   <i type="logical" name="LSCALU"> F  </i>
   <i type="logical" name="LASYNC"> F  </i>
   <i type="logical" name="LORBITALREAL"> F  </i>
  </separator>
  <separator name="miscellaneous" >
   <i type="int" name="IDIOT">     3</i>
   <i type="int" name="ISPECIAL">     0</i>
   <i type="logical" name="LMUSIC"> F  </i>
   <v name="POMASS">    106.42000000     12.01100000     16.00000000</v>
   <v name="DARWINR">      0.00000000      0.00000000      0.00000000</v>
   <v name="DARWINV">      1.00000000      1.00000000      1.00000000</v>
   <i type="logical" name="LCORR"> T  </i>
  </separator>
  <i type="logical" name="GGA_COMPAT"> T  </i>
  <i type="logical" name="LBERRY"> F  </i>
  <i type="int" name="ICORELEVEL">     0</i>
  <i type="logical" name="LDAU"> F  </i>
  <i type="int" name="I_CONSTRAINED_M">     0</i>
  <separator name="electronic exchange-correlation" >
   <i type="string" name="GGA">RP</i>
   <i type="int" name="VOSKOWN">     0</i>
   <i type="logical" name="LHFCALC"> F  </i>
   <i type="string" name="PRECFOCK"></i>
   <i type="logical" name="LSYMGRAD"> F  </i>
   <i type="logical" name="LHFONE"> F  </i>
   <i type="logical" name="LRHFCALC"> F  </i>
   <i type="logical" name="LTHOMAS"> F  </i>
   <i type="logical" name="LMODELHF"> F  </i>
   <i name="ENCUT4O">     -1.00000000</i>
   <i type="int" name="EXXOEP">     0</i>
   <i type="int" name="FOURORBIT">     0</i>
   <i name="AEXX">      0.00000000</i>
   <i name="HFALPHA">      0.00000000</i>
   <i name="MCALPHA">      0.00000000</i>
   <i name="ALDAX">      1.00000000</i>
   <i name="AGGAX">      1.00000000</i>
   <i name="ALDAC">      1.00000000</i>
   <i name="AGGAC">      1.00000000</i>
   <i type="int" name="NKREDX">     1</i>
   <i type="int" name="NKREDY">     1</i>
   <i type="int" name="NKREDZ">     1</i>
   <i type="logical" name="SHIFTRED"> F  </i>
   <i type="logical" name="ODDONLY"> F  </i>
   <i type="logical" name="EVENONLY"> F  </i>
   <i type="int" name="LMAXFOCK">     0</i>
   <i type="int" name="NMAXFOCKAE">     0</i>
   <i type="logical" name="LFOCKAEDFT"> F  </i>
   <i name="HFSCREEN">      0.00000000</i>
   <i name="HFSCREENC">      0.00000000</i>
   <i type="int" name="NBANDSGWLOW">     0</i>
  </separator>
  <separator name="vdW DFT" >
   <i type="logical" name="LUSE_VDW"> F  </i>
   <i name="Zab_VDW">     -0.84910000</i>
   <i name="PARAM1">      0.12340000</i>
   <i name="PARAM2">      1.00000000</i>
   <i name="PARAM3">      0.00000000</i>
  </separator>
  <separator name="model GW" >
   <i type="int" name="MODEL_GW">     0</i>
   <i name="MODEL_EPS0">    284.21052632</i>
   <i name="MODEL_ALPHA">      1.00000000</i>
  </separator>
  <separator name="linear response parameters" >
   <i type="logical" name="LEPSILON"> F  </i>
   <i type="logical" name="LRPA"> F  </i>
   <i type="logical" name="LNABLA"> F  </i>
   <i type="logical" name="LVEL"> F  </i>
   <i type="int" name="KINTER">     0</i>
   <i name="CSHIFT">      0.10000000</i>
   <i name="OMEGAMAX">     -1.00000000</i>
   <i name="DEG_THRESHOLD">      0.00200000</i>
   <i name="RTIME">     -0.10000000</i>
   <i name="WPLASMAI">      0.00000000</i>
   <v name="DFIELD">      0.00000000      0.00000000      0.00000000</v>
   <v name="WPLASMA">      0.00000000      0.00000000      0.00000000      0.00000000      0.00000000      0.00000000      0.00000000      0.00000000      0.00000000</v>
  </separator>
  <separator name="orbital magnetization" >
   <i type="logical" name="NUCIND"> F  </i>
   <v name="MAGPOS">      0.00000000      0.00000000      0.00000000</v>
   <i type="logical" name="LNICSALL"> T  </i>
   <i type="logical" name="ORBITALMAG"> F  </i>
   <i type="logical" name="LMAGBLOCH"> F  </i>
   <i type="logical" name="LCHIMAG"> F  </i>
   <i type="logical" name="LGAUGE"> T  </i>
   <i type="int" name="MAGATOM">     0</i>
   <v name="MAGDIPOL">      0.00000000      0.00000000      0.00000000</v>
   <v name="AVECCONST">      0.00000000      0.00000000      0.00000000</v>
  </separator>
  <separator name="response functions" >
   <i type="logical" name="LADDER"> F  </i>
   <i type="logical" name="LRPAFORCE"> F  </i>
   <i type="logical" name="LFXC"> F  </i>
   <i type="logical" name="LHARTREE"> T  </i>
   <i type="int" name="IBSE">     0</i>
   <v type="int" name="KPOINT">    -1     0     0     0</v>
   <i type="logical" name="LTCTE"> F  </i>
   <i type="logical" name="LTETE"> F  </i>
   <i type="logical" name="LTRIPLET"> F  </i>
   <i type="logical" name="LFXCEPS"> F  </i>
   <i type="logical" name="LFXHEG"> F  </i>
   <i type="int" name="NATURALO">     2</i>
   <i type="logical" name="L2ORDER"> F  </i>
   <i type="logical" name="LMP2LT"> F  </i>
   <i type="logical" name="LUSEW"> F  </i>
   <i name="ENCUTGW">     -2.00000000</i>
   <i name="ENCUTGWSOFT">     -2.00000000</i>
   <i name="ENCUTLF">     -1.00000000</i>
   <i type="int" name="LMAXMP2">    -1</i>
   <i name="SCISSOR">      0.00000000</i>
   <i type="int" name="NOMEGA">     0</i>
   <i type="int" name="NOMEGAR">     0</i>
   <i type="int" name="NBANDSGW">    -1</i>
   <i type="int" name="NBANDSO">    -1</i>
   <i type="int" name="NBANDSV">    -1</i>
   <i type="int" name="NELM">   100</i>
   <i type="int" name="NELMHF">     1</i>
   <i type="int" name="DIM">     3</i>
   <i type="int" name="ANTIRES">     0</i>
   <i name="OMEGAMAX">    -30.00000000</i>
   <i name="OMEGAMIN">    -30.00000000</i>
   <i name="OMEGATL">   -200.00000000</i>
   <i type="int" name="OMEGAGRID">   140</i>
   <i name="CSHIFT">     -0.10000000</i>
   <i type="logical" name="SELFENERGY"> F  </i>
   <i type="logical" name="LSPECTRAL"> F  </i>
   <i type="logical" name="LSPECTRALGW"> F  </i>
   <i type="logical" name="LSINGLES"> F  </i>
   <i type="logical" name="LFERMIGW"> F  </i>
   <i type="logical" name="ODDONLYGW"> F  </i>
   <i type="logical" name="EVENONLYGW"> F  </i>
   <i type="int" name="NKREDLFX">     1</i>
   <i type="int" name="NKREDLFY">     1</i>
   <i type="int" name="NKREDLFZ">     1</i>
   <i type="int" name="MAXMEM"> 10000</i>
   <i type="int" name="TELESCOPE">     0</i>
   <i type="int" name="TAUPAR">     1</i>
   <i type="int" name="OMEGAPAR">    -1</i>
   <i name="LAMBDA">      1.00000000</i>
  </separator>
  <separator name="External order field" >
   <i name="OFIELD_KAPPA">      0.00000000</i>
   <v name="OFIELD_K">      0.00000000      0.00000000      0.00000000</v>
   <i name="OFIELD_Q6_NEAR">      0.00000000</i>
   <i name="OFIELD_Q6_FAR">      0.00000000</i>
   <i name="OFIELD_A">      0.00000000</i>
  </separator>
 </parameters>
 <atominfo>
  <atoms>      57 </atoms>
  <types>       3 </types>
  <array name="atoms" >
   <dimension dim="1">ion</dimension>
   <field type="string">element</field>
   <field type="int">atomtype</field>
   <set>
    <rc><c>Pd</c><c>   1</c></rc>
    <rc><c>Pd</c><c>   1</c></rc>
    <rc><c>Pd</c><c>   1</c></rc>
    <rc><c>Pd</c><c>   1</c></rc>
    <rc><c>Pd</c><c>   1</c></rc>
    <rc><c>Pd</c><c>   1</c></rc>
    <rc><c>Pd</c><c>   1</c></rc>
    <rc><c>Pd</c><c>   1</c></rc>
    <rc><c>Pd</c><c>   1</c></rc>
    <rc><c>Pd</c><c>   1</c></rc>
    <rc><c>Pd</c><c>   1</c></rc>
    <rc><c>Pd</c><c>   1</c></rc>
    <rc><c>Pd</c><c>   1</c></rc>
    <rc><c>Pd</c><c>   1</c></rc>
    <rc><c>Pd</c><c>   1</c></rc>
    <rc><c>Pd</c><c>   1</c></rc>
    <rc><c>Pd</c><c>   1</c></rc>
    <rc><c>Pd</c><c>   1</c></rc>
    <rc><c>Pd</c><c>   1</c></rc>
    <rc><c>Pd</c><c>   1</c></rc>
    <rc><c>Pd</c><c>   1</c></rc>
    <rc><c>Pd</c><c>   1</c></rc>
    <rc><c>Pd</c><c>   1</c></rc>
    <rc><c>Pd</c><c>   1</c></rc>
    <rc><c>Pd</c><c>   1</c></rc>
    <rc><c>Pd</c><c>   1</c></rc>
    <rc><c>Pd</c><c>   1</c></rc>
    <rc><c>Pd</c><c>   1</c></rc>
    <rc><c>Pd</c><c>   1</c></rc>
    <rc><c>Pd</c><c>   1</c></rc>
    <rc><c>Pd</c><c>   1</c></rc>
    <rc><c>Pd</c><c>   1</c></rc>
    <rc><c>Pd</c><c>   1</c></rc>
    <rc><c>Pd</c><c>   1</c></rc>
    <rc><c>Pd</c><c>   1</c></rc>
    <rc><c>Pd</c><c>   1</c></rc>
    <rc><c>Pd</c><c>   1</c></rc>
    <rc><c>Pd</c><c>   1</c></rc>
    <rc><c>Pd</c><c>   1</c></rc>
    <rc><c>Pd</c><c>   1</c></rc>
    <rc><c>Pd</c><c>   1</c></rc>
    <rc><c>Pd</c><c>   1</c></rc>
    <rc><c>Pd</c><c>   1</c></rc>
    <rc><c>Pd</c><c>   1</c></rc>
    <rc><c>Pd</c><c>   1</c></rc>
    <rc><c>Pd</c><c>   1</c></rc>
    <rc><c>Pd</c><c>   1</c></rc>
    <rc><c>Pd</c><c>   1</c></rc>
    <rc><c>Pd</c><c>   1</c></rc>
    <rc><c>Pd</c><c>   1</c></rc>
    <rc><c>Pd</c><c>   1</c></rc>
    <rc><c>Pd</c><c>   1</c></rc>
    <rc><c>Pd</c><c>   1</c></rc>
    <rc><c>Pd</c><c>   1</c></rc>
    <rc><c>Pd</c><c>   1</c></rc>
    <rc><c>C </c><c>   2</c></rc>
    <rc><c>O </c><c>   3</c></rc>
   </set>
  </array>
  <array name="atomtypes" >
   <dimension dim="1">type</dimension>
   <field type="int">atomspertype</field>
   <field type="string">element</field>
   <field>mass</field>
   <field>valence</field>
   <field type="string">pseudopotential</field>
   <set>
    <rc><c>  55</c><c>Pd</c><c>    106.42000000</c><c>     10.00000000</c><c>  PAW_PBE Pd 04Jan2005                  </c></rc>
    <rc><c>   1</c><c>C </c><c>     12.01100000</c><c>      4.00000000</c><c>  PAW_PBE C 08Apr2002                   </c></rc>
    <rc><c>   1</c><c>O </c><c>     16.00000000</c><c>      6.00000000</c><c>  PAW_PBE O 08Apr2002                   </c></rc>
   </set>
  </array>
 </atominfo>
 <structure name="initialpos" >
  <crystal>
   <varray name="basis" >
    <v>      30.00000000       0.00000000       0.00000000 </v>
    <v>       0.00000000      30.00000000       0.00000000 </v>
    <v>       0.00000000       0.00000000      30.00000000 </v>
   </varray>
   <i name="volume">  27000.00000000 </i>
   <varray name="rec_basis" >
    <v>       0.03333333       0.00000000       0.00000000 </v>
    <v>       0.00000000       0.03333333       0.00000000 </v>
    <v>       0.00000000       0.00000000       0.03333333 </v>
   </varray>
  </crystal>
  <varray name="positions" >
   <v>       0.44576020       0.32826710       0.41691983 </v>
   <v>       0.67173288       0.55423978       0.41691983 </v>
   <v>       0.55423980       0.32826710       0.41691983 </v>
   <v>       0.32826712       0.55423978       0.41691983 </v>
   <v>       0.50000000       0.38250690       0.34021317 </v>
   <v>       0.50000000       0.38250690       0.65978680 </v>
   <v>       0.50000000       0.27609440       0.50000000 </v>
   <v>       0.27609443       0.49999998       0.50000000 </v>
   <v>       0.72390557       0.49999998       0.50000000 </v>
   <v>       0.50000000       0.72390555       0.50000000 </v>
   <v>       0.61195280       0.38804720       0.34167483 </v>
   <v>       0.61195280       0.38804720       0.65832513 </v>
   <v>       0.38804722       0.61195278       0.34167483 </v>
   <v>       0.38804722       0.61195278       0.65832513 </v>
   <v>       0.38804720       0.38804720       0.34167483 </v>
   <v>       0.38804720       0.38804720       0.65832513 </v>
   <v>       0.61195278       0.61195278       0.34167483 </v>
   <v>       0.61195278       0.61195278       0.65832513 </v>
   <v>       0.44576020       0.32826710       0.58308023 </v>
   <v>       0.67173288       0.55423978       0.58308023 </v>
   <v>       0.55791699       0.44208301       0.41809300 </v>
   <v>       0.32826705       0.44576024       0.41691983 </v>
   <v>       0.55423973       0.67173293       0.41691983 </v>
   <v>       0.55423980       0.32826710       0.58308023 </v>
   <v>       0.32826712       0.55423978       0.58308023 </v>
   <v>       0.67173295       0.44576024       0.41691983 </v>
   <v>       0.44576027       0.67173293       0.41691983 </v>
   <v>       0.44208301       0.44208301       0.41809300 </v>
   <v>       0.50000000       0.38416601       0.50000000 </v>
   <v>       0.61749315       0.50000005       0.34021317 </v>
   <v>       0.61749315       0.50000005       0.65978680 </v>
   <v>       0.38250685       0.50000005       0.34021317 </v>
   <v>       0.38250685       0.50000005       0.65978680 </v>
   <v>       0.38317830       0.38317830       0.50000000 </v>
   <v>       0.61682172       0.61682172       0.50000000 </v>
   <v>       0.61682170       0.38317830       0.50000000 </v>
   <v>       0.38317828       0.61682172       0.50000000 </v>
   <v>       0.50000000       0.50000000       0.33478917 </v>
   <v>       0.50000000       0.50000000       0.66521087 </v>
   <v>       0.32826705       0.44576024       0.58308023 </v>
   <v>       0.55423973       0.67173293       0.58308023 </v>
   <v>       0.55791699       0.44208301       0.58190703 </v>
   <v>       0.44208298       0.55791702       0.41809300 </v>
   <v>       0.44208301       0.44208301       0.58190703 </v>
   <v>       0.67173295       0.44576024       0.58308023 </v>
   <v>       0.44576027       0.67173293       0.58308023 </v>
   <v>       0.55791702       0.55791702       0.41809300 </v>
   <v>       0.38416599       0.50000002       0.50000000 </v>
   <v>       0.61583401       0.50000002       0.50000000 </v>
   <v>       0.50000000       0.61749319       0.34021317 </v>
   <v>       0.50000000       0.61749319       0.65978680 </v>
   <v>       0.50000000       0.50000000       0.50000000 </v>
   <v>       0.44208298       0.55791702       0.58190703 </v>
   <v>       0.55791702       0.55791702       0.58190703 </v>
   <v>       0.50000000       0.61583404       0.50000000 </v>
   <v>       0.62210220       0.44063507       0.29167450 </v>
   <v>       0.64056520       0.43165853       0.26017373 </v>
  </varray>
  <varray name="selective"  type="logical" >
   <v type="logical" >  F  F  F </v>
   <v type="logical" >  F  F  F </v>
   <v type="logical" >  F  F  F </v>
   <v type="logical" >  F  F  F </v>
   <v type="logical" >  F  F  F </v>
   <v type="logical" >  F  F  F </v>
   <v type="logical" >  F  F  F </v>
   <v type="logical" >  F  F  F </v>
   <v type="logical" >  F  F  F </v>
   <v type="logical" >  F  F  F </v>
   <v type="logical" >  F  F  F </v>
   <v type="logical" >  F  F  F </v>
   <v type="logical" >  F  F  F </v>
   <v type="logical" >  F  F  F </v>
   <v type="logical" >  F  F  F </v>
   <v type="logical" >  F  F  F </v>
   <v type="logical" >  F  F  F </v>
   <v type="logical" >  F  F  F </v>
   <v type="logical" >  F  F  F </v>
   <v type="logical" >  F  F  F </v>
   <v type="logical" >  F  F  F </v>
   <v type="logical" >  F  F  F </v>
   <v type="logical" >  F  F  F </v>
   <v type="logical" >  F  F  F </v>
   <v type="logical" >  F  F  F </v>
   <v type="logical" >  F  F  F </v>
   <v type="logical" >  F  F  F </v>
   <v type="logical" >  F  F  F </v>
   <v type="logical" >  F  F  F </v>
   <v type="logical" >  F  F  F </v>
   <v type="logical" >  F  F  F </v>
   <v type="logical" >  F  F  F </v>
   <v type="logical" >  F  F  F </v>
   <v type="logical" >  F  F  F </v>
   <v type="logical" >  F  F  F </v>
   <v type="logical" >  F  F  F </v>
   <v type="logical" >  F  F  F </v>
   <v type="logical" >  F  F  F </v>
   <v type="logical" >  F  F  F </v>
   <v type="logical" >  F  F  F </v>
   <v type="logical" >  F  F  F </v>
   <v type="logical" >  F  F  F </v>
   <v type="logical" >  F  F  F </v>
   <v type="logical" >  F  F  F </v>
   <v type="logical" >  F  F  F </v>
   <v type="logical" >  F  F  F </v>
   <v type="logical" >  F  F  F </v>
   <v type="logical" >  F  F  F </v>
   <v type="logical" >  F  F  F </v>
   <v type="logical" >  F  F  F </v>
   <v type="logical" >  F  F  F </v>
   <v type="logical" >  F  F  F </v>
   <v type="logical" >  F  F  F </v>
   <v type="logical" >  F  F  F </v>
   <v type="logical" >  F  F  F </v>
   <v type="logical" >  F  F  F </v>
   <v type="logical" >  F  F  F </v>
  </varray>
  <nose>
   <v>      -3.00000000       0.00000000       0.00010000       0.00010000 </v>
  </nose>
 </structure>
 <calculation>
  <scstep>
   <time name="dav">  365.62  365.72</time>
   <time name="total">  380.12  380.23</time>
   <energy>
    <i name="alphaZ">     75.25431677 </i>
    <i name="ewald"> 138257.69265665 </i>
    <i name="hartreedc">-181619.32965905 </i>
    <i name="XCdc">  -1702.96901145 </i>
    <i name="pawpsdc">  44873.02882129 </i>
    <i name="pawaedc"> -41398.84523641 </i>
    <i name="eentropy">     -0.01078361 </i>
    <i name="bandstr">    815.81326471 </i>
    <i name="atom">  45086.50549395 </i>
    <i name="e_fr_energy">   4387.13986286 </i>
    <i name="e_wo_entrp">   4387.15064646 </i>
    <i name="e_0_energy">   4387.14255876 </i>
   </energy>
  </scstep>
  <scstep>
   <time name="dav">  586.61  586.62</time>
   <time name="total">  586.61  586.62</time>
   <energy>
    <i name="e_fr_energy">   2009.78270011 </i>
    <i name="e_wo_entrp">   2009.80345973 </i>
    <i name="e_0_energy">   2009.78789002 </i>
   </energy>
  </scstep>
  <scstep>
   <time name="dav">  495.69  495.70</time>
   <time name="total">  495.69  495.70</time>
   <energy>
    <i name="e_fr_energy">    235.30019132 </i>
    <i name="e_wo_entrp">    235.32829372 </i>
    <i name="e_0_energy">    235.30721692 </i>
   </energy>
  </scstep>
  <scstep>
   <time name="dav">  426.10  426.10</time>
   <time name="total">  426.10  426.10</time>
   <energy>
    <i name="e_fr_energy">   -133.85722219 </i>
    <i name="e_wo_entrp">   -133.83455320 </i>
    <i name="e_0_energy">   -133.85155494 </i>
   </energy>
  </scstep>
  <scstep>
   <time name="dav">  522.13  522.14</time>
   <time name="total">  548.83  548.84</time>
   <energy>
    <i name="e_fr_energy">   -179.87580033 </i>
    <i name="e_wo_entrp">   -180.39404264 </i>
    <i name="e_0_energy">   -180.00536091 </i>
   </energy>
  </scstep>
  <scstep>
   <time name="diag">   68.25   68.25</time>
   <time name="diis">  192.38  192.38</time>
   <time name="orth">   13.54   13.54</time>
   <time name="total">  314.61  314.62</time>
   <energy>
    <i name="e_fr_energy">   -179.88055504 </i>
    <i name="e_wo_entrp">   -179.64427666 </i>
    <i name="e_0_energy">   -179.82148545 </i>
   </energy>
  </scstep>
  <scstep>
   <time name="diag">   68.03   68.03</time>
   <time name="diis">  222.34  222.35</time>
   <time name="orth">   14.04   14.04</time>
   <time name="total">  344.44  344.45</time>
   <energy>
    <i name="e_fr_energy">   -181.85858377 </i>
    <i name="e_wo_entrp">   -181.83114847 </i>
    <i name="e_0_energy">   -181.85172494 </i>
   </energy>
  </scstep>
  <scstep>
   <time name="diag">   69.36   69.36</time>
   <time name="diis">  218.62  218.62</time>
   <time name="orth">   13.70   13.70</time>
   <time name="total">  341.98  341.99</time>
   <energy>
    <i name="e_fr_energy">   -183.49741113 </i>
    <i name="e_wo_entrp">   -183.40067166 </i>
    <i name="e_0_energy">   -183.47322626 </i>
   </energy>
  </scstep>
  <scstep>
   <time name="diag">   69.23   69.23</time>
   <time name="diis">  197.99  197.99</time>
   <time name="orth">   13.79   13.79</time>
   <time name="total">  321.27  321.27</time>
   <energy>
    <i name="e_fr_energy">   -182.42595291 </i>
    <i name="e_wo_entrp">   -182.30592722 </i>
    <i name="e_0_energy">   -182.39594649 </i>
   </energy>
  </scstep>
  <scstep>
   <time name="diag">   68.64   68.64</time>
   <time name="diis">  195.33  195.33</time>
   <time name="orth">   13.82   13.82</time>
   <time name="total">  317.47  317.47</time>
   <energy>
    <i name="e_fr_energy">   -180.45295658 </i>
    <i name="e_wo_entrp">   -180.21180189 </i>
    <i name="e_0_energy">   -180.39266791 </i>
   </energy>
  </scstep>
  <scstep>
   <time name="diag">   68.57   68.57</time>
   <time name="diis">  196.82  196.82</time>
   <time name="orth">   13.58   13.58</time>
   <time name="total">  318.71  318.71</time>
   <energy>
    <i name="e_fr_energy">   -178.13130576 </i>
    <i name="e_wo_entrp">   -178.05393310 </i>
    <i name="e_0_energy">   -178.11196260 </i>
   </energy>
  </scstep>
  <scstep>
   <time name="diag">   68.46   68.46</time>
   <time name="diis">  190.66  190.66</time>
   <time name="orth">   13.72   13.72</time>
   <time name="total">  312.53  312.53</time>
   <energy>
    <i name="e_fr_energy">   -176.82876779 </i>
    <i name="e_wo_entrp">   -176.78771012 </i>
    <i name="e_0_energy">   -176.81850338 </i>
   </energy>
  </scstep>
  <scstep>
   <time name="diag">   68.74   68.74</time>
   <time name="diis">  191.73  191.73</time>
   <time name="orth">   13.47   13.47</time>
   <time name="total">  313.59  313.59</time>
   <energy>
    <i name="e_fr_energy">   -176.74537966 </i>
    <i name="e_wo_entrp">   -176.66606873 </i>
    <i name="e_0_energy">   -176.72555193 </i>
   </energy>
  </scstep>
  <scstep>
   <time name="diag">   68.90   68.90</time>
   <time name="diis">  192.63  192.63</time>
   <time name="orth">   13.43   13.43</time>
   <time name="total">  314.75  314.75</time>
   <energy>
    <i name="e_fr_energy">   -177.21953309 </i>
    <i name="e_wo_entrp">   -177.13255536 </i>
    <i name="e_0_energy">   -177.19778866 </i>
   </energy>
  </scstep>
  <scstep>
   <time name="diag">   69.70   69.70</time>
   <time name="diis">  188.08  188.08</time>
   <time name="orth">   13.53   13.53</time>
   <time name="total">  311.60  311.61</time>
   <energy>
    <i name="e_fr_energy">   -176.56705798 </i>
    <i name="e_wo_entrp">   -176.46437416 </i>
    <i name="e_0_energy">   -176.54138703 </i>
   </energy>
  </scstep>
  <scstep>
   <time name="diag">   69.47   69.47</time>
   <time name="diis">  187.70  187.71</time>
   <time name="orth">   13.40   13.40</time>
   <time name="total">  311.32  311.33</time>
   <energy>
    <i name="e_fr_energy">   -176.17364328 </i>
    <i name="e_wo_entrp">   -176.14901480 </i>
    <i name="e_0_energy">   -176.16748616 </i>
   </energy>
  </scstep>
  <scstep>
   <time name="diag">   68.69   68.69</time>
   <time name="diis">  185.64  185.64</time>
   <time name="orth">   13.23   13.23</time>
   <time name="total">  307.46  307.47</time>
   <energy>
    <i name="e_fr_energy">   -175.99566212 </i>
    <i name="e_wo_entrp">   -176.00677543 </i>
    <i name="e_0_energy">   -175.99844045 </i>
   </energy>
  </scstep>
  <scstep>
   <time name="diag">   68.78   68.78</time>
   <time name="diis">  186.61  186.62</time>
   <time name="orth">   13.53   13.53</time>
   <time name="total">  308.94  308.95</time>
   <energy>
    <i name="e_fr_energy">   -175.91060176 </i>
    <i name="e_wo_entrp">   -175.89643259 </i>
    <i name="e_0_energy">   -175.90705947 </i>
   </energy>
  </scstep>
  <scstep>
   <time name="diag">   69.47   69.47</time>
   <time name="diis">  184.47  184.49</time>
   <time name="orth">   13.71   13.71</time>
   <time name="total">  308.27  308.30</time>
   <energy>
    <i name="e_fr_energy">   -175.83609706 </i>
    <i name="e_wo_entrp">   -175.84391545 </i>
    <i name="e_0_energy">   -175.83805166 </i>
   </energy>
  </scstep>
  <scstep>
   <time name="diag">   69.35   69.35</time>
   <time name="diis">  184.25  184.25</time>
   <time name="orth">   13.81   13.81</time>
   <time name="total">  308.22  308.23</time>
   <energy>
    <i name="e_fr_energy">   -175.56385769 </i>
    <i name="e_wo_entrp">   -175.55057512 </i>
    <i name="e_0_energy">   -175.56053705 </i>
   </energy>
  </scstep>
  <scstep>
   <time name="diag">   68.08   68.08</time>
   <time name="diis">  183.37  183.40</time>
   <time name="orth">   13.44   13.44</time>
   <time name="total">  305.15  305.19</time>
   <energy>
    <i name="e_fr_energy">   -175.47378362 </i>
    <i name="e_wo_entrp">   -175.43009297 </i>
    <i name="e_0_energy">   -175.46286096 </i>
   </energy>
  </scstep>
  <scstep>
   <time name="diag">   68.90   68.91</time>
   <time name="diis">  183.88  183.88</time>
   <time name="orth">   13.62   13.62</time>
   <time name="total">  306.53  306.54</time>
   <energy>
    <i name="e_fr_energy">   -175.32784113 </i>
    <i name="e_wo_entrp">   -175.25893628 </i>
    <i name="e_0_energy">   -175.31061492 </i>
   </energy>
  </scstep>
  <scstep>
   <time name="diag">   68.95   68.95</time>
   <time name="diis">  186.13  186.14</time>
   <time name="orth">   13.49   13.49</time>
   <time name="total">  309.19  309.20</time>
   <energy>
    <i name="e_fr_energy">   -175.30388856 </i>
    <i name="e_wo_entrp">   -175.23571001 </i>
    <i name="e_0_energy">   -175.28684392 </i>
   </energy>
  </scstep>
  <scstep>
   <time name="diag">   68.55   68.55</time>
   <time name="diis">  184.40  184.40</time>
   <time name="orth">   13.48   13.48</time>
   <time name="total">  306.82  306.82</time>
   <energy>
    <i name="e_fr_energy">   -175.27321320 </i>
    <i name="e_wo_entrp">   -175.20738872 </i>
    <i name="e_0_energy">   -175.25675708 </i>
   </energy>
  </scstep>
  <scstep>
   <time name="diag">   68.58   68.58</time>
   <time name="diis">  182.32  182.32</time>
   <time name="orth">   13.57   13.57</time>
   <time name="total">  304.86  304.86</time>
   <energy>
    <i name="e_fr_energy">   -175.20586579 </i>
    <i name="e_wo_entrp">   -175.13641522 </i>
    <i name="e_0_energy">   -175.18850314 </i>
   </energy>
  </scstep>
  <scstep>
   <time name="diag">   68.75   68.75</time>
   <time name="diis">  182.69  182.69</time>
   <time name="orth">   13.52   13.53</time>
   <time name="total">  305.28  305.29</time>
   <energy>
    <i name="e_fr_energy">   -175.16277940 </i>
    <i name="e_wo_entrp">   -175.10309790 </i>
    <i name="e_0_energy">   -175.14785902 </i>
   </energy>
  </scstep>
  <scstep>
   <time name="diag">   68.26   68.27</time>
   <time name="diis">  180.66  180.66</time>
   <time name="orth">   13.35   13.35</time>
   <time name="total">  302.63  302.64</time>
   <energy>
    <i name="e_fr_energy">   -175.16940991 </i>
    <i name="e_wo_entrp">   -175.10852840 </i>
    <i name="e_0_energy">   -175.15418953 </i>
   </energy>
  </scstep>
  <scstep>
   <time name="diag">   68.64   68.64</time>
   <time name="diis">  181.76  181.76</time>
   <time name="orth">   13.35   13.35</time>
   <time name="total">  304.14  304.15</time>
   <energy>
    <i name="e_fr_energy">   -175.14415654 </i>
    <i name="e_wo_entrp">   -175.07928185 </i>
    <i name="e_0_energy">   -175.12793787 </i>
   </energy>
  </scstep>
  <scstep>
   <time name="diag">   68.09   68.09</time>
   <time name="diis">  182.71  182.72</time>
   <time name="orth">   13.33   13.33</time>
   <time name="total">  304.39  304.39</time>
   <energy>
    <i name="e_fr_energy">   -175.13505893 </i>
    <i name="e_wo_entrp">   -175.06825592 </i>
    <i name="e_0_energy">   -175.11835818 </i>
   </energy>
  </scstep>
  <scstep>
   <time name="diag">   68.00   68.00</time>
   <time name="diis">  182.59  182.59</time>
   <time name="orth">   13.40   13.40</time>
   <time name="total">  304.43  304.44</time>
   <energy>
    <i name="e_fr_energy">   -175.13303056 </i>
    <i name="e_wo_entrp">   -175.05632393 </i>
    <i name="e_0_energy">   -175.11385390 </i>
   </energy>
  </scstep>
  <scstep>
   <time name="diag">   68.22   68.22</time>
   <time name="diis">  182.07  182.08</time>
   <time name="orth">   13.34   13.34</time>
   <time name="total">  303.98  303.99</time>
   <energy>
    <i name="e_fr_energy">   -175.12598237 </i>
    <i name="e_wo_entrp">   -175.05334360 </i>
    <i name="e_0_energy">   -175.10782268 </i>
   </energy>
  </scstep>
  <scstep>
   <time name="diag">   68.02   68.02</time>
   <time name="diis">  182.05  182.05</time>
   <time name="orth">   13.44   13.44</time>
   <time name="total">  304.01  304.02</time>
   <energy>
    <i name="e_fr_energy">   -175.12605256 </i>
    <i name="e_wo_entrp">   -175.05496234 </i>
    <i name="e_0_energy">   -175.10828000 </i>
   </energy>
  </scstep>
  <scstep>
   <time name="diag">   67.73   67.73</time>
   <time name="diis">  181.73  181.73</time>
   <time name="orth">   13.24   13.24</time>
   <time name="total">  302.85  302.86</time>
   <energy>
    <i name="e_fr_energy">   -175.12672089 </i>
    <i name="e_wo_entrp">   -175.05321367 </i>
    <i name="e_0_energy">   -175.10834409 </i>
   </energy>
  </scstep>
  <scstep>
   <time name="diag">   67.32   67.32</time>
   <time name="diis">  181.04  181.04</time>
   <time name="orth">   13.21   13.21</time>
   <time name="total">  301.59  301.59</time>
   <energy>
    <i name="e_fr_energy">   -175.12635505 </i>
    <i name="e_wo_entrp">   -175.05367608 </i>
    <i name="e_0_energy">   -175.10818531 </i>
   </energy>
  </scstep>
  <scstep>
   <time name="diag">   68.23   68.23</time>
   <time name="diis">  180.05  180.05</time>
   <time name="orth">   13.38   13.38</time>
   <time name="total">  302.01  302.02</time>
   <energy>
    <i name="e_fr_energy">   -175.12834104 </i>
    <i name="e_wo_entrp">   -175.05573108 </i>
    <i name="e_0_energy">   -175.11018855 </i>
   </energy>
  </scstep>
  <scstep>
   <time name="diag">   68.77   68.77</time>
   <time name="diis">  181.75  181.76</time>
   <time name="orth">   13.37   13.37</time>
   <time name="total">  304.98  304.98</time>
   <energy>
    <i name="e_fr_energy">   -175.13094840 </i>
    <i name="e_wo_entrp">   -175.05965486 </i>
    <i name="e_0_energy">   -175.11312501 </i>
   </energy>
  </scstep>
  <scstep>
   <time name="diag">   68.29   68.30</time>
   <time name="diis">  170.92  170.92</time>
   <time name="orth">   13.76   13.76</time>
   <time name="total">  294.79  294.80</time>
   <energy>
    <i name="e_fr_energy">   -175.13231347 </i>
    <i name="e_wo_entrp">   -175.06021455 </i>
    <i name="e_0_energy">   -175.11428874 </i>
   </energy>
  </scstep>
  <scstep>
   <time name="diag">   67.58   67.58</time>
   <time name="diis">  159.92  159.92</time>
   <time name="orth">   13.51   13.50</time>
   <time name="total">  282.84  282.84</time>
   <energy>
    <i name="e_fr_energy">   -175.13439683 </i>
    <i name="e_wo_entrp">   -175.06280390 </i>
    <i name="e_0_energy">   -175.11649860 </i>
   </energy>
  </scstep>
  <scstep>
   <time name="diag">   67.93   67.93</time>
   <time name="diis">  154.24  154.24</time>
   <time name="orth">   13.73   13.73</time>
   <time name="total">  277.96  277.96</time>
   <energy>
    <i name="e_fr_energy">   -175.13726868 </i>
    <i name="e_wo_entrp">   -175.06523962 </i>
    <i name="e_0_energy">   -175.11926142 </i>
   </energy>
  </scstep>
  <scstep>
   <time name="diag">   68.65   68.64</time>
   <time name="diis">  135.55  135.55</time>
   <time name="orth">   13.31   13.31</time>
   <time name="total">  259.14  259.15</time>
   <energy>
    <i name="e_fr_energy">   -175.13931441 </i>
    <i name="e_wo_entrp">   -175.06746927 </i>
    <i name="e_0_energy">   -175.12135313 </i>
   </energy>
  </scstep>
  <scstep>
   <time name="diag">   68.40   68.40</time>
   <time name="diis">  126.02  126.02</time>
   <time name="orth">   13.55   13.55</time>
   <time name="total">  249.49  249.49</time>
   <energy>
    <i name="e_fr_energy">   -175.14133085 </i>
    <i name="e_wo_entrp">   -175.06842284 </i>
    <i name="e_0_energy">   -175.12310385 </i>
   </energy>
  </scstep>
  <scstep>
   <time name="diag">   68.11   68.11</time>
   <time name="diis">  133.71  133.71</time>
   <time name="orth">   13.48   13.48</time>
   <time name="total">  256.80  256.81</time>
   <energy>
    <i name="e_fr_energy">   -175.14352667 </i>
    <i name="e_wo_entrp">   -175.07073783 </i>
    <i name="e_0_energy">   -175.12532946 </i>
   </energy>
  </scstep>
  <scstep>
   <time name="diag">   68.32   68.32</time>
   <time name="diis">  142.83  142.84</time>
   <time name="orth">   13.67   13.67</time>
   <time name="total">  267.57  267.58</time>
   <energy>
    <i name="e_fr_energy">   -175.14610402 </i>
    <i name="e_wo_entrp">   -175.07324521 </i>
    <i name="e_0_energy">   -175.12788932 </i>
   </energy>
  </scstep>
  <scstep>
   <time name="diag">   68.37   68.37</time>
   <time name="diis">  119.38  119.38</time>
   <time name="orth">   13.72   13.72</time>
   <time name="total">  244.53  244.54</time>
   <energy>
    <i name="e_fr_energy">   -175.14737592 </i>
    <i name="e_wo_entrp">   -175.07532765 </i>
    <i name="e_0_energy">   -175.12936386 </i>
   </energy>
  </scstep>
  <scstep>
   <time name="diag">   68.95   68.95</time>
   <time name="diis">  116.96  116.96</time>
   <time name="orth">   14.02   14.02</time>
   <time name="total">  243.25  243.26</time>
   <energy>
    <i name="e_fr_energy">   -175.14816361 </i>
    <i name="e_wo_entrp">   -175.07617698 </i>
    <i name="e_0_energy">   -175.13016695 </i>
   </energy>
  </scstep>
  <scstep>
   <time name="diag">   68.09   68.09</time>
   <time name="diis">  115.23  115.23</time>
   <time name="orth">   13.56   13.56</time>
   <time name="total">  240.85  240.86</time>
   <energy>
    <i name="e_fr_energy">   -175.14957545 </i>
    <i name="e_wo_entrp">   -175.07846776 </i>
    <i name="e_0_energy">   -175.13179852 </i>
   </energy>
  </scstep>
  <scstep>
   <time name="diag">   67.48   67.48</time>
   <time name="diis">  117.46  117.47</time>
   <time name="orth">   13.95   13.95</time>
   <time name="total">  241.95  241.97</time>
   <energy>
    <i name="e_fr_energy">   -175.15022242 </i>
    <i name="e_wo_entrp">   -175.07858118 </i>
    <i name="e_0_energy">   -175.13231211 </i>
   </energy>
  </scstep>
  <scstep>
   <time name="diag">   67.03   67.05</time>
   <time name="diis">  116.10  116.12</time>
   <time name="orth">   13.56   13.57</time>
   <time name="total">  240.74  240.78</time>
   <energy>
    <i name="e_fr_energy">   -175.15108230 </i>
    <i name="e_wo_entrp">   -175.07906453 </i>
    <i name="e_0_energy">   -175.13307786 </i>
   </energy>
  </scstep>
  <scstep>
   <time name="diag">   67.48   67.49</time>
   <time name="diis">  112.73  112.74</time>
   <time name="orth">   13.72   13.72</time>
   <time name="total">  237.39  237.43</time>
   <energy>
    <i name="e_fr_energy">   -175.15163180 </i>
    <i name="e_wo_entrp">   -175.07983942 </i>
    <i name="e_0_energy">   -175.13368371 </i>
   </energy>
  </scstep>
  <scstep>
   <time name="diag">   68.34   68.34</time>
   <time name="diis">  104.33  104.33</time>
   <time name="orth">   13.43   13.43</time>
   <time name="total">  228.95  228.95</time>
   <energy>
    <i name="e_fr_energy">   -175.15211383 </i>
    <i name="e_wo_entrp">   -175.08015611 </i>
    <i name="e_0_energy">   -175.13412440 </i>
   </energy>
  </scstep>
  <scstep>
   <time name="diag">   67.12   67.12</time>
   <time name="diis">  104.56  104.56</time>
   <time name="orth">   13.62   13.62</time>
   <time name="total">  228.11  228.11</time>
   <energy>
    <i name="e_fr_energy">   -175.15260143 </i>
    <i name="e_wo_entrp">   -175.08080913 </i>
    <i name="e_0_energy">   -175.13465335 </i>
   </energy>
  </scstep>
  <scstep>
   <time name="diag">   67.90   67.90</time>
   <time name="diis">   93.76   93.76</time>
   <time name="orth">   13.67   13.67</time>
   <time name="total">  218.58  218.58</time>
   <energy>
    <i name="e_fr_energy">   -175.15300088 </i>
    <i name="e_wo_entrp">   -175.08120678 </i>
    <i name="e_0_energy">   -175.13505235 </i>
   </energy>
  </scstep>
  <scstep>
   <time name="diag">   67.45   67.45</time>
   <time name="diis">  101.45  101.45</time>
   <time name="orth">   13.44   13.44</time>
   <time name="total">  225.97  225.98</time>
   <energy>
    <i name="e_fr_energy">   -175.15359922 </i>
    <i name="e_wo_entrp">   -175.08169667 </i>
    <i name="e_0_energy">   -175.13562359 </i>
   </energy>
  </scstep>
  <scstep>
   <time name="diag">   68.37   68.37</time>
   <time name="diis">   83.59   83.59</time>
   <time name="orth">   13.43   13.43</time>
   <time name="total">  208.85  208.86</time>
   <energy>
    <i name="e_fr_energy">   -175.15382696 </i>
    <i name="e_wo_entrp">   -175.08193222 </i>
    <i name="e_0_energy">   -175.13585328 </i>
   </energy>
  </scstep>
  <scstep>
   <time name="diag">   67.79   67.79</time>
   <time name="diis">   98.22   98.22</time>
   <time name="orth">   13.52   13.52</time>
   <time name="total">  223.23  223.23</time>
   <energy>
    <i name="e_fr_energy">   -175.15417856 </i>
    <i name="e_wo_entrp">   -175.08229967 </i>
    <i name="e_0_energy">   -175.13620883 </i>
   </energy>
  </scstep>
  <scstep>
   <time name="diag">   67.86   67.86</time>
   <time name="diis">   72.26   72.26</time>
   <time name="orth">   13.47   13.47</time>
   <time name="total">  167.80  167.81</time>
   <energy>
    <i name="alphaZ">     75.25431677 </i>
    <i name="ewald"> 138257.69265665 </i>
    <i name="hartreedc">-182616.22367376 </i>
    <i name="XCdc">  -1692.29134297 </i>
    <i name="pawpsdc">  46123.49929297 </i>
    <i name="pawaedc"> -42593.71604019 </i>
    <i name="eentropy">     -0.07179427 </i>
    <i name="bandstr">  -2815.80311705 </i>
    <i name="atom">  45086.50549395 </i>
    <i name="e_fr_energy">   -175.15420791 </i>
    <i name="e_wo_entrp">   -175.08241364 </i>
    <i name="e_0_energy">   -175.13625935 </i>
   </energy>
  </scstep>
  <structure>
   <crystal>
    <varray name="basis" >
     <v>      30.00000000       0.00000000       0.00000000 </v>
     <v>       0.00000000      30.00000000       0.00000000 </v>
     <v>       0.00000000       0.00000000      30.00000000 </v>
    </varray>
    <i name="volume">  27000.00000000 </i>
    <varray name="rec_basis" >
     <v>       0.03333333       0.00000000       0.00000000 </v>
     <v>       0.00000000       0.03333333       0.00000000 </v>
     <v>       0.00000000       0.00000000       0.03333333 </v>
    </varray>
   </crystal>
   <varray name="positions" >
    <v>       0.44576020       0.32826710       0.41691983 </v>
    <v>       0.67173288       0.55423978       0.41691983 </v>
    <v>       0.55423980       0.32826710       0.41691983 </v>
    <v>       0.32826712       0.55423978       0.41691983 </v>
    <v>       0.50000000       0.38250690       0.34021317 </v>
    <v>       0.50000000       0.38250690       0.65978680 </v>
    <v>       0.50000000       0.27609440       0.50000000 </v>
    <v>       0.27609443       0.49999998       0.50000000 </v>
    <v>       0.72390557       0.49999998       0.50000000 </v>
    <v>       0.50000000       0.72390555       0.50000000 </v>
    <v>       0.61195280       0.38804720       0.34167483 </v>
    <v>       0.61195280       0.38804720       0.65832513 </v>
    <v>       0.38804722       0.61195278       0.34167483 </v>
    <v>       0.38804722       0.61195278       0.65832513 </v>
    <v>       0.38804720       0.38804720       0.34167483 </v>
    <v>       0.38804720       0.38804720       0.65832513 </v>
    <v>       0.61195278       0.61195278       0.34167483 </v>
    <v>       0.61195278       0.61195278       0.65832513 </v>
    <v>       0.44576020       0.32826710       0.58308023 </v>
    <v>       0.67173288       0.55423978       0.58308023 </v>
    <v>       0.55791699       0.44208301       0.41809300 </v>
    <v>       0.32826705       0.44576024       0.41691983 </v>
    <v>       0.55423973       0.67173293       0.41691983 </v>
    <v>       0.55423980       0.32826710       0.58308023 </v>
    <v>       0.32826712       0.55423978       0.58308023 </v>
    <v>       0.67173295       0.44576024       0.41691983 </v>
    <v>       0.44576027       0.67173293       0.41691983 </v>
    <v>       0.44208301       0.44208301       0.41809300 </v>
    <v>       0.50000000       0.38416601       0.50000000 </v>
    <v>       0.61749315       0.50000005       0.34021317 </v>
    <v>       0.61749315       0.50000005       0.65978680 </v>
    <v>       0.38250685       0.50000005       0.34021317 </v>
    <v>       0.38250685       0.50000005       0.65978680 </v>
    <v>       0.38317830       0.38317830       0.50000000 </v>
    <v>       0.61682172       0.61682172       0.50000000 </v>
    <v>       0.61682170       0.38317830       0.50000000 </v>
    <v>       0.38317828       0.61682172       0.50000000 </v>
    <v>       0.50000000       0.50000000       0.33478917 </v>
    <v>       0.50000000       0.50000000       0.66521087 </v>
    <v>       0.32826705       0.44576024       0.58308023 </v>
    <v>       0.55423973       0.67173293       0.58308023 </v>
    <v>       0.55791699       0.44208301       0.58190703 </v>
    <v>       0.44208298       0.55791702       0.41809300 </v>
    <v>       0.44208301       0.44208301       0.58190703 </v>
    <v>       0.67173295       0.44576024       0.58308023 </v>
    <v>       0.44576027       0.67173293       0.58308023 </v>
    <v>       0.55791702       0.55791702       0.41809300 </v>
    <v>       0.38416599       0.50000002       0.50000000 </v>
    <v>       0.61583401       0.50000002       0.50000000 </v>
    <v>       0.50000000       0.61749319       0.34021317 </v>
    <v>       0.50000000       0.61749319       0.65978680 </v>
    <v>       0.50000000       0.50000000       0.50000000 </v>
    <v>       0.44208298       0.55791702       0.58190703 </v>
    <v>       0.55791702       0.55791702       0.58190703 </v>
    <v>       0.50000000       0.61583404       0.50000000 </v>
    <v>       0.62210220       0.44063507       0.29167450 </v>
    <v>       0.64056520       0.43165853       0.26017373 </v>
   </varray>
  </structure>
  <varray name="forces" >
   <v>       0.72413157       1.11500428       0.26215246 </v>
   <v>      -1.13231701      -0.67333197       0.30842449 </v>
   <v>      -0.78917329       1.03747001       0.33712499 </v>
   <v>       1.10955699      -0.70174765       0.29228452 </v>
   <v>      -0.09345128       0.36659708       1.31825296 </v>
   <v>       0.00273201       0.40907759      -1.28062936 </v>
   <v>      -0.00031314       1.50041223       0.02504192 </v>
   <v>       1.51410525      -0.00000846      -0.00183655 </v>
   <v>      -1.51982206      -0.03434087      -0.02059318 </v>
   <v>      -0.00262345      -1.51755515       0.00504864 </v>
   <v>      -0.64052767       1.66742197       0.14673742 </v>
   <v>      -0.75888226       0.75538216      -1.07274700 </v>
   <v>       0.75616348      -0.75657304       1.07181025 </v>
   <v>       0.75281835      -0.74929245      -1.07278156 </v>
   <v>       0.75724458       0.75424488       1.07391148 </v>
   <v>       0.75751808       0.75274149      -1.07347897 </v>
   <v>      -0.75332961      -0.75138864       1.08293048 </v>
   <v>      -0.75636802      -0.75540920      -1.07176873 </v>
   <v>       0.70587842       1.10872857      -0.28006364 </v>
   <v>      -1.11108949      -0.70113758      -0.28607122 </v>
   <v>       0.03337195      -0.10344355      -0.04969082 </v>
   <v>       1.10458913       0.71016902       0.29133138 </v>
   <v>      -0.69805840      -1.10850276       0.28865655 </v>
   <v>      -0.70689647       1.11109431      -0.28930761 </v>
   <v>       1.10595230      -0.70486770      -0.29873990 </v>
   <v>      -1.00384810       0.77961406       0.39206442 </v>
   <v>       0.70061684      -1.11026918       0.29095560 </v>
   <v>      -0.11668739      -0.11774009      -0.14890533 </v>
   <v>       0.00623186      -0.22021167      -0.00217838 </v>
   <v>      -0.32831271      -1.14945954       0.14053601 </v>
   <v>      -0.41574677      -0.00026218      -1.27893138 </v>
   <v>       0.41180317       0.00158829       1.28094484 </v>
   <v>       0.40934071      -0.00940050      -1.28181135 </v>
   <v>       0.82658327       0.83530759       0.00115668 </v>
   <v>      -0.82529065      -0.83988024      -0.02021938 </v>
   <v>      -0.83269929       0.82720305       0.00618474 </v>
   <v>       0.82492840      -0.82805583      -0.00023650 </v>
   <v>      -0.04990680       0.02373168       1.17482205 </v>
   <v>       0.00547265      -0.00123871      -1.17775178 </v>
   <v>       1.10287432       0.70206013      -0.28781842 </v>
   <v>      -0.70771212      -1.10126928      -0.28486385 </v>
   <v>       0.11250425      -0.11545784       0.15343486 </v>
   <v>      -0.10808523       0.11017049      -0.15758162 </v>
   <v>      -0.10792502      -0.11132254       0.15422136 </v>
   <v>      -1.10939146       0.70278484      -0.28999292 </v>
   <v>       0.70815430      -1.10383774      -0.30607113 </v>
   <v>       0.10179579       0.12847805      -0.12996552 </v>
   <v>      -0.22425550       0.01028462       0.00049603 </v>
   <v>       0.22255534       0.00495952      -0.00331581 </v>
   <v>      -0.00348350      -0.40976226       1.28669166 </v>
   <v>       0.01436535      -0.41472003      -1.28160585 </v>
   <v>       0.01067875      -0.00317464      -0.00789676 </v>
   <v>      -0.11255117       0.10735142       0.15555791 </v>
   <v>       0.10355456       0.11234056       0.16301121 </v>
   <v>      -0.01340252       0.24516290       0.02266718 </v>
   <v>      -2.37877744       1.16052281       6.53854320 </v>
   <v>       2.41540616      -0.94624232      -4.80814075 </v>
  </varray>
  <varray name="stress" >
   <v>      -6.62765937      -0.03285808      -0.15297484 </v>
   <v>      -0.03285809      -6.91418762       0.03711928 </v>
   <v>      -0.15297484       0.03711930      -6.60315400 </v>
  </varray>
  <energy>
   <i name="e_fr_energy">   -175.15420791 </i>
   <i name="e_wo_entrp">   -175.13625935 </i>
   <i name="e_0_energy">     -0.07179427 </i>
  </energy>
  <time name="totalsc">17252.7917253.37</time>
  <eigenvalues>
   <array>
    <dimension dim="1">band</dimension>
    <dimension dim="2">kpoint</dimension>
    <dimension dim="3">spin</dimension>
    <field>eigene</field>
    <field>occ</field>
    <set>
     <set comment="spin 1">
      <set comment="kpoint 1">
       <r>  -28.4632    1.0000 </r>
       <r>  -13.2454    1.0000 </r>
       <r>  -11.1144    1.0000 </r>
       <r>  -10.9324    1.0000 </r>
       <r>  -10.0143    1.0000 </r>
       <r>   -6.6513    1.0000 </r>
       <r>   -6.1407    1.0000 </r>
       <r>   -6.1342    1.0000 </r>
       <r>   -6.1313    1.0000 </r>
       <r>   -5.8511    1.0000 </r>
       <r>   -5.8389    1.0000 </r>
       <r>   -5.8169    1.0000 </r>
       <r>   -5.7744    1.0000 </r>
       <r>   -5.7584    1.0000 </r>
       <r>   -5.7319    1.0000 </r>
       <r>   -5.6956    1.0000 </r>
       <r>   -5.6903    1.0000 </r>
       <r>   -5.6862    1.0000 </r>
       <r>   -5.6622    1.0000 </r>
       <r>   -5.6430    1.0000 </r>
       <r>   -5.6307    1.0000 </r>
       <r>   -5.6222    1.0000 </r>
       <r>   -5.6123    1.0000 </r>
       <r>   -5.5973    1.0000 </r>
       <r>   -5.5787    1.0000 </r>
       <r>   -5.5668    1.0000 </r>
       <r>   -5.5564    1.0000 </r>
       <r>   -5.5542    1.0000 </r>
       <r>   -5.5536    1.0000 </r>
       <r>   -5.5481    1.0000 </r>
       <r>   -5.5357    1.0000 </r>
       <r>   -5.5313    1.0000 </r>
       <r>   -5.5248    1.0000 </r>
       <r>   -5.5214    1.0000 </r>
       <r>   -5.5178    1.0000 </r>
       <r>   -5.5157    1.0000 </r>
       <r>   -5.5035    1.0000 </r>
       <r>   -5.4965    1.0000 </r>
       <r>   -5.4874    1.0000 </r>
       <r>   -5.4818    1.0000 </r>
       <r>   -5.4791    1.0000 </r>
       <r>   -5.4757    1.0000 </r>
       <r>   -5.4725    1.0000 </r>
       <r>   -5.4646    1.0000 </r>
       <r>   -5.4622    1.0000 </r>
       <r>   -5.4455    1.0000 </r>
       <r>   -5.4412    1.0000 </r>
       <r>   -5.4386    1.0000 </r>
       <r>   -5.4336    1.0000 </r>
       <r>   -5.4316    1.0000 </r>
       <r>   -5.4269    1.0000 </r>
       <r>   -5.4216    1.0000 </r>
       <r>   -5.4107    1.0000 </r>
       <r>   -5.4091    1.0000 </r>
       <r>   -5.4009    1.0000 </r>
       <r>   -5.3946    1.0000 </r>
       <r>   -5.3878    1.0000 </r>
       <r>   -5.3436    1.0000 </r>
       <r>   -5.3403    1.0000 </r>
       <r>   -5.3352    1.0000 </r>
       <r>   -5.3302    1.0000 </r>
       <r>   -5.3254    1.0000 </r>
       <r>   -5.3220    1.0000 </r>
       <r>   -5.3168    1.0000 </r>
       <r>   -5.3070    1.0000 </r>
       <r>   -5.3050    1.0000 </r>
       <r>   -5.2944    1.0000 </r>
       <r>   -5.2923    1.0000 </r>
       <r>   -5.2636    1.0000 </r>
       <r>   -5.2235    1.0000 </r>
       <r>   -5.2220    1.0000 </r>
       <r>   -5.2108    1.0000 </r>
       <r>   -5.2096    1.0000 </r>
       <r>   -5.2043    1.0000 </r>
       <r>   -5.1985    1.0000 </r>
       <r>   -5.1895    1.0000 </r>
       <r>   -5.1838    1.0000 </r>
       <r>   -5.1825    1.0000 </r>
       <r>   -5.1685    1.0000 </r>
       <r>   -5.1659    1.0000 </r>
       <r>   -5.1645    1.0000 </r>
       <r>   -5.1601    1.0000 </r>
       <r>   -5.1350    1.0000 </r>
       <r>   -5.1296    1.0000 </r>
       <r>   -5.1287    1.0000 </r>
       <r>   -5.1265    1.0000 </r>
       <r>   -5.1238    1.0000 </r>
       <r>   -5.1093    1.0000 </r>
       <r>   -5.1020    1.0000 </r>
       <r>   -5.0768    1.0000 </r>
       <r>   -5.0723    1.0000 </r>
       <r>   -5.0705    1.0000 </r>
       <r>   -5.0608    1.0000 </r>
       <r>   -5.0561    1.0000 </r>
       <r>   -5.0544    1.0000 </r>
       <r>   -5.0509    1.0000 </r>
       <r>   -5.0446    1.0000 </r>
       <r>   -5.0418    1.0000 </r>
       <r>   -5.0339    1.0000 </r>
       <r>   -5.0318    1.0000 </r>
       <r>   -5.0245    1.0000 </r>
       <r>   -5.0199    1.0000 </r>
       <r>   -5.0176    1.0000 </r>
       <r>   -5.0134    1.0000 </r>
       <r>   -5.0102    1.0000 </r>
       <r>   -5.0074    1.0000 </r>
       <r>   -5.0010    1.0000 </r>
       <r>   -4.9928    1.0000 </r>
       <r>   -4.9886    1.0000 </r>
       <r>   -4.9829    1.0000 </r>
       <r>   -4.9802    1.0000 </r>
       <r>   -4.9760    1.0000 </r>
       <r>   -4.9723    1.0000 </r>
       <r>   -4.9665    1.0000 </r>
       <r>   -4.9596    1.0000 </r>
       <r>   -4.9577    1.0000 </r>
       <r>   -4.9524    1.0000 </r>
       <r>   -4.9469    1.0000 </r>
       <r>   -4.9417    1.0000 </r>
       <r>   -4.9368    1.0000 </r>
       <r>   -4.9230    1.0000 </r>
       <r>   -4.9199    1.0000 </r>
       <r>   -4.9174    1.0000 </r>
       <r>   -4.9074    1.0000 </r>
       <r>   -4.9046    1.0000 </r>
       <r>   -4.9038    1.0000 </r>
       <r>   -4.8980    1.0000 </r>
       <r>   -4.8758    1.0000 </r>
       <r>   -4.8587    1.0000 </r>
       <r>   -4.8556    1.0000 </r>
       <r>   -4.8482    1.0000 </r>
       <r>   -4.8446    1.0000 </r>
       <r>   -4.8432    1.0000 </r>
       <r>   -4.8396    1.0000 </r>
       <r>   -4.8346    1.0000 </r>
       <r>   -4.8333    1.0000 </r>
       <r>   -4.8165    0.9999 </r>
       <r>   -4.8104    0.9999 </r>
       <r>   -4.8015    0.9999 </r>
       <r>   -4.7985    0.9999 </r>
       <r>   -4.7977    0.9999 </r>
       <r>   -4.7856    0.9999 </r>
       <r>   -4.7784    0.9998 </r>
       <r>   -4.7721    0.9998 </r>
       <r>   -4.7676    0.9998 </r>
       <r>   -4.7594    0.9997 </r>
       <r>   -4.7488    0.9997 </r>
       <r>   -4.7413    0.9996 </r>
       <r>   -4.7305    0.9995 </r>
       <r>   -4.7232    0.9994 </r>
       <r>   -4.7162    0.9993 </r>
       <r>   -4.7142    0.9993 </r>
       <r>   -4.6984    0.9991 </r>
       <r>   -4.6937    0.9990 </r>
       <r>   -4.6892    0.9989 </r>
       <r>   -4.6855    0.9988 </r>
       <r>   -4.6816    0.9987 </r>
       <r>   -4.6771    0.9986 </r>
       <r>   -4.6726    0.9985 </r>
       <r>   -4.6682    0.9984 </r>
       <r>   -4.6670    0.9983 </r>
       <r>   -4.6621    0.9982 </r>
       <r>   -4.6582    0.9981 </r>
       <r>   -4.6558    0.9980 </r>
       <r>   -4.6504    0.9978 </r>
       <r>   -4.6494    0.9978 </r>
       <r>   -4.6491    0.9978 </r>
       <r>   -4.6471    0.9977 </r>
       <r>   -4.6435    0.9976 </r>
       <r>   -4.6380    0.9974 </r>
       <r>   -4.6272    0.9970 </r>
       <r>   -4.6255    0.9970 </r>
       <r>   -4.6104    0.9964 </r>
       <r>   -4.6047    0.9962 </r>
       <r>   -4.6018    0.9961 </r>
       <r>   -4.5997    0.9960 </r>
       <r>   -4.5985    0.9960 </r>
       <r>   -4.5930    0.9958 </r>
       <r>   -4.5870    0.9956 </r>
       <r>   -4.5820    0.9955 </r>
       <r>   -4.5774    0.9953 </r>
       <r>   -4.5754    0.9953 </r>
       <r>   -4.5732    0.9952 </r>
       <r>   -4.5677    0.9951 </r>
       <r>   -4.5653    0.9951 </r>
       <r>   -4.5582    0.9951 </r>
       <r>   -4.5566    0.9951 </r>
       <r>   -4.5523    0.9951 </r>
       <r>   -4.5521    0.9951 </r>
       <r>   -4.5492    0.9951 </r>
       <r>   -4.5355    0.9955 </r>
       <r>   -4.5253    0.9960 </r>
       <r>   -4.5145    0.9970 </r>
       <r>   -4.5133    0.9971 </r>
       <r>   -4.5096    0.9975 </r>
       <r>   -4.5034    0.9983 </r>
       <r>   -4.5024    0.9984 </r>
       <r>   -4.4952    0.9996 </r>
       <r>   -4.4888    1.0008 </r>
       <r>   -4.4822    1.0022 </r>
       <r>   -4.4765    1.0036 </r>
       <r>   -4.4718    1.0049 </r>
       <r>   -4.4703    1.0053 </r>
       <r>   -4.4677    1.0060 </r>
       <r>   -4.4608    1.0082 </r>
       <r>   -4.4554    1.0100 </r>
       <r>   -4.4532    1.0108 </r>
       <r>   -4.4512    1.0115 </r>
       <r>   -4.4480    1.0127 </r>
       <r>   -4.4444    1.0141 </r>
       <r>   -4.4386    1.0165 </r>
       <r>   -4.4296    1.0204 </r>
       <r>   -4.4248    1.0226 </r>
       <r>   -4.4169    1.0263 </r>
       <r>   -4.4126    1.0283 </r>
       <r>   -4.4114    1.0289 </r>
       <r>   -4.4081    1.0305 </r>
       <r>   -4.4064    1.0314 </r>
       <r>   -4.3965    1.0361 </r>
       <r>   -4.3889    1.0395 </r>
       <r>   -4.3840    1.0417 </r>
       <r>   -4.3717    1.0464 </r>
       <r>   -4.3694    1.0472 </r>
       <r>   -4.3615    1.0494 </r>
       <r>   -4.3554    1.0507 </r>
       <r>   -4.3538    1.0509 </r>
       <r>   -4.3418    1.0516 </r>
       <r>   -4.3413    1.0515 </r>
       <r>   -4.3376    1.0512 </r>
       <r>   -4.3370    1.0511 </r>
       <r>   -4.3360    1.0510 </r>
       <r>   -4.3357    1.0509 </r>
       <r>   -4.3319    1.0501 </r>
       <r>   -4.3303    1.0497 </r>
       <r>   -4.3285    1.0492 </r>
       <r>   -4.3249    1.0479 </r>
       <r>   -4.3232    1.0472 </r>
       <r>   -4.3219    1.0466 </r>
       <r>   -4.3200    1.0456 </r>
       <r>   -4.3153    1.0429 </r>
       <r>   -4.3098    1.0389 </r>
       <r>   -4.3031    1.0329 </r>
       <r>   -4.2954    1.0243 </r>
       <r>   -4.2929    1.0211 </r>
       <r>   -4.2893    1.0160 </r>
       <r>   -4.2883    1.0146 </r>
       <r>   -4.2875    1.0134 </r>
       <r>   -4.2850    1.0095 </r>
       <r>   -4.2821    1.0046 </r>
       <r>   -4.2749    0.9915 </r>
       <r>   -4.2691    0.9793 </r>
       <r>   -4.2661    0.9726 </r>
       <r>   -4.2614    0.9615 </r>
       <r>   -4.2591    0.9557 </r>
       <r>   -4.2576    0.9518 </r>
       <r>   -4.2544    0.9432 </r>
       <r>   -4.2525    0.9379 </r>
       <r>   -4.2507    0.9327 </r>
       <r>   -4.2494    0.9288 </r>
       <r>   -4.2476    0.9235 </r>
       <r>   -4.2459    0.9182 </r>
       <r>   -4.2443    0.9133 </r>
       <r>   -4.2427    0.9082 </r>
       <r>   -4.2422    0.9066 </r>
       <r>   -4.2386    0.8948 </r>
       <r>   -4.2361    0.8862 </r>
       <r>   -4.2289    0.8604 </r>
       <r>   -4.2252    0.8464 </r>
       <r>   -4.2228    0.8370 </r>
       <r>   -4.2220    0.8338 </r>
       <r>   -4.2200    0.8258 </r>
       <r>   -4.2103    0.7854 </r>
       <r>   -4.2091    0.7801 </r>
       <r>   -4.2019    0.7478 </r>
       <r>   -4.1885    0.6842 </r>
       <r>   -4.1843    0.6634 </r>
       <r>   -4.1797    0.6403 </r>
       <r>   -4.1765    0.6238 </r>
       <r>   -4.1756    0.6191 </r>
       <r>   -4.1746    0.6138 </r>
       <r>   -4.1647    0.5626 </r>
       <r>   -4.1594    0.5347 </r>
       <r>   -4.1371    0.4169 </r>
       <r>   -4.1335    0.3985 </r>
       <r>   -4.1310    0.3853 </r>
       <r>   -4.1299    0.3798 </r>
       <r>   -4.1191    0.3255 </r>
       <r>   -4.1151    0.3058 </r>
       <r>   -4.0742    0.1302 </r>
       <r>   -3.9669   -0.0513 </r>
       <r>   -3.9006   -0.0320 </r>
       <r>   -3.8220   -0.0019 </r>
       <r>   -3.8168   -0.0008 </r>
       <r>   -3.7007    0.0038 </r>
       <r>   -3.5002    0.0001 </r>
       <r>   -3.4963    0.0001 </r>
       <r>   -3.4090    0.0000 </r>
       <r>   -3.0789    0.0000 </r>
       <r>   -3.0625    0.0000 </r>
       <r>   -3.0473    0.0000 </r>
       <r>   -3.0427    0.0000 </r>
       <r>   -3.0176    0.0000 </r>
       <r>   -2.9660    0.0000 </r>
       <r>   -2.9477    0.0000 </r>
       <r>   -2.8237    0.0000 </r>
       <r>   -2.5421    0.0000 </r>
       <r>   -2.5333    0.0000 </r>
       <r>   -2.3835    0.0000 </r>
       <r>   -2.3504    0.0000 </r>
       <r>   -2.1978    0.0000 </r>
       <r>   -2.1181    0.0000 </r>
       <r>   -2.0987    0.0000 </r>
       <r>   -2.0779    0.0000 </r>
       <r>   -1.9874    0.0000 </r>
       <r>   -1.9287    0.0000 </r>
       <r>   -1.8721    0.0000 </r>
       <r>   -1.8418    0.0000 </r>
       <r>   -1.7630    0.0000 </r>
       <r>   -1.7349    0.0000 </r>
       <r>   -1.6483    0.0000 </r>
       <r>   -1.6064    0.0000 </r>
       <r>   -1.5574    0.0000 </r>
       <r>   -1.4324    0.0000 </r>
       <r>   -1.3378    0.0000 </r>
       <r>   -1.2727    0.0000 </r>
       <r>   -1.2176    0.0000 </r>
       <r>   -1.1541    0.0000 </r>
       <r>   -1.0737    0.0000 </r>
       <r>   -0.9873    0.0000 </r>
       <r>   -0.9833    0.0000 </r>
       <r>   -0.9512    0.0000 </r>
       <r>   -0.9396    0.0000 </r>
       <r>   -0.9234    0.0000 </r>
       <r>   -0.8842    0.0000 </r>
       <r>   -0.8096    0.0000 </r>
       <r>   -0.7659    0.0000 </r>
      </set>
     </set>
    </set>
   </array>
  </eigenvalues>
  <separator name="orbital magnetization" >
   <v name="MAGDIPOLOUT">      0.00000000      0.00000000      0.00000000</v>
  </separator>
  <dos>
   <i name="efermi">     -4.15284015 </i>
   <total>
    <array>
     <dimension dim="1">gridpoints</dimension>
     <dimension dim="2">spin</dimension>
     <field>energy</field>
     <field>total</field>
     <field>integrated</field>
     <set>
      <set comment="spin 1">
       <r>   -30.4632     0.0000     0.0000 </r>
       <r>   -30.3576     0.0000     0.0000 </r>
       <r>   -30.2519     0.0000     0.0000 </r>
       <r>   -30.1463     0.0000     0.0000 </r>
       <r>   -30.0406     0.0000     0.0000 </r>
       <r>   -29.9349     0.0000     0.0000 </r>
       <r>   -29.8293     0.0000     0.0000 </r>
       <r>   -29.7236     0.0000     0.0000 </r>
       <r>   -29.6180     0.0000     0.0000 </r>
       <r>   -29.5123     0.0000     0.0000 </r>
       <r>   -29.4066     0.0000     0.0000 </r>
       <r>   -29.3010     0.0000     0.0000 </r>
       <r>   -29.1953     0.0001     0.0000 </r>
       <r>   -29.0897     0.0028     0.0003 </r>
       <r>   -28.9840     0.0251     0.0030 </r>
       <r>   -28.8784     0.0637     0.0097 </r>
       <r>   -28.7727    -0.2374    -0.0154 </r>
       <r>   -28.6670    -0.8099    -0.1010 </r>
       <r>   -28.5614     2.2141     0.1330 </r>
       <r>   -28.4557     8.9558     1.0792 </r>
       <r>   -28.3501     8.1928     1.9449 </r>
       <r>   -28.2444     1.4013     2.0929 </r>
       <r>   -28.1388    -0.8151     2.0068 </r>
       <r>   -28.0331    -0.1500     1.9910 </r>
       <r>   -27.9274     0.0641     1.9977 </r>
       <r>   -27.8218     0.0195     1.9998 </r>
       <r>   -27.7161     0.0019     2.0000 </r>
       <r>   -27.6105     0.0001     2.0000 </r>
       <r>   -27.5048     0.0000     2.0000 </r>
       <r>   -27.3991     0.0000     2.0000 </r>
       <r>   -27.2935     0.0000     2.0000 </r>
       <r>   -27.1878     0.0000     2.0000 </r>
       <r>   -27.0822     0.0000     2.0000 </r>
       <r>   -26.9765     0.0000     2.0000 </r>
       <r>   -26.8709     0.0000     2.0000 </r>
       <r>   -26.7652     0.0000     2.0000 </r>
       <r>   -26.6595     0.0000     2.0000 </r>
       <r>   -26.5539     0.0000     2.0000 </r>
       <r>   -26.4482     0.0000     2.0000 </r>
       <r>   -26.3426     0.0000     2.0000 </r>
       <r>   -26.2369     0.0000     2.0000 </r>
       <r>   -26.1313     0.0000     2.0000 </r>
       <r>   -26.0256     0.0000     2.0000 </r>
       <r>   -25.9199     0.0000     2.0000 </r>
       <r>   -25.8143     0.0000     2.0000 </r>
       <r>   -25.7086     0.0000     2.0000 </r>
       <r>   -25.6030     0.0000     2.0000 </r>
       <r>   -25.4973     0.0000     2.0000 </r>
       <r>   -25.3916     0.0000     2.0000 </r>
       <r>   -25.2860     0.0000     2.0000 </r>
       <r>   -25.1803     0.0000     2.0000 </r>
       <r>   -25.0747     0.0000     2.0000 </r>
       <r>   -24.9690     0.0000     2.0000 </r>
       <r>   -24.8634     0.0000     2.0000 </r>
       <r>   -24.7577     0.0000     2.0000 </r>
       <r>   -24.6520     0.0000     2.0000 </r>
       <r>   -24.5464     0.0000     2.0000 </r>
       <r>   -24.4407     0.0000     2.0000 </r>
       <r>   -24.3351     0.0000     2.0000 </r>
       <r>   -24.2294     0.0000     2.0000 </r>
       <r>   -24.1238     0.0000     2.0000 </r>
       <r>   -24.0181     0.0000     2.0000 </r>
       <r>   -23.9124     0.0000     2.0000 </r>
       <r>   -23.8068     0.0000     2.0000 </r>
       <r>   -23.7011     0.0000     2.0000 </r>
       <r>   -23.5955     0.0000     2.0000 </r>
       <r>   -23.4898     0.0000     2.0000 </r>
       <r>   -23.3842     0.0000     2.0000 </r>
       <r>   -23.2785     0.0000     2.0000 </r>
       <r>   -23.1728     0.0000     2.0000 </r>
       <r>   -23.0672     0.0000     2.0000 </r>
       <r>   -22.9615     0.0000     2.0000 </r>
       <r>   -22.8559     0.0000     2.0000 </r>
       <r>   -22.7502     0.0000     2.0000 </r>
       <r>   -22.6445     0.0000     2.0000 </r>
       <r>   -22.5389     0.0000     2.0000 </r>
       <r>   -22.4332     0.0000     2.0000 </r>
       <r>   -22.3276     0.0000     2.0000 </r>
       <r>   -22.2219     0.0000     2.0000 </r>
       <r>   -22.1163     0.0000     2.0000 </r>
       <r>   -22.0106     0.0000     2.0000 </r>
       <r>   -21.9049     0.0000     2.0000 </r>
       <r>   -21.7993     0.0000     2.0000 </r>
       <r>   -21.6936     0.0000     2.0000 </r>
       <r>   -21.5880     0.0000     2.0000 </r>
       <r>   -21.4823     0.0000     2.0000 </r>
       <r>   -21.3767     0.0000     2.0000 </r>
       <r>   -21.2710     0.0000     2.0000 </r>
       <r>   -21.1653     0.0000     2.0000 </r>
       <r>   -21.0597     0.0000     2.0000 </r>
       <r>   -20.9540     0.0000     2.0000 </r>
       <r>   -20.8484     0.0000     2.0000 </r>
       <r>   -20.7427     0.0000     2.0000 </r>
       <r>   -20.6370     0.0000     2.0000 </r>
       <r>   -20.5314     0.0000     2.0000 </r>
       <r>   -20.4257     0.0000     2.0000 </r>
       <r>   -20.3201     0.0000     2.0000 </r>
       <r>   -20.2144     0.0000     2.0000 </r>
       <r>   -20.1088     0.0000     2.0000 </r>
       <r>   -20.0031     0.0000     2.0000 </r>
       <r>   -19.8974     0.0000     2.0000 </r>
       <r>   -19.7918     0.0000     2.0000 </r>
       <r>   -19.6861     0.0000     2.0000 </r>
       <r>   -19.5805     0.0000     2.0000 </r>
       <r>   -19.4748     0.0000     2.0000 </r>
       <r>   -19.3692     0.0000     2.0000 </r>
       <r>   -19.2635     0.0000     2.0000 </r>
       <r>   -19.1578     0.0000     2.0000 </r>
       <r>   -19.0522     0.0000     2.0000 </r>
       <r>   -18.9465     0.0000     2.0000 </r>
       <r>   -18.8409     0.0000     2.0000 </r>
       <r>   -18.7352     0.0000     2.0000 </r>
       <r>   -18.6296     0.0000     2.0000 </r>
       <r>   -18.5239     0.0000     2.0000 </r>
       <r>   -18.4182     0.0000     2.0000 </r>
       <r>   -18.3126     0.0000     2.0000 </r>
       <r>   -18.2069     0.0000     2.0000 </r>
       <r>   -18.1013     0.0000     2.0000 </r>
       <r>   -17.9956     0.0000     2.0000 </r>
       <r>   -17.8899     0.0000     2.0000 </r>
       <r>   -17.7843     0.0000     2.0000 </r>
       <r>   -17.6786     0.0000     2.0000 </r>
       <r>   -17.5730     0.0000     2.0000 </r>
       <r>   -17.4673     0.0000     2.0000 </r>
       <r>   -17.3617     0.0000     2.0000 </r>
       <r>   -17.2560     0.0000     2.0000 </r>
       <r>   -17.1503     0.0000     2.0000 </r>
       <r>   -17.0447     0.0000     2.0000 </r>
       <r>   -16.9390     0.0000     2.0000 </r>
       <r>   -16.8334     0.0000     2.0000 </r>
       <r>   -16.7277     0.0000     2.0000 </r>
       <r>   -16.6221     0.0000     2.0000 </r>
       <r>   -16.5164     0.0000     2.0000 </r>
       <r>   -16.4107     0.0000     2.0000 </r>
       <r>   -16.3051     0.0000     2.0000 </r>
       <r>   -16.1994     0.0000     2.0000 </r>
       <r>   -16.0938     0.0000     2.0000 </r>
       <r>   -15.9881     0.0000     2.0000 </r>
       <r>   -15.8824     0.0000     2.0000 </r>
       <r>   -15.7768     0.0000     2.0000 </r>
       <r>   -15.6711     0.0000     2.0000 </r>
       <r>   -15.5655     0.0000     2.0000 </r>
       <r>   -15.4598     0.0000     2.0000 </r>
       <r>   -15.3542     0.0000     2.0000 </r>
       <r>   -15.2485     0.0000     2.0000 </r>
       <r>   -15.1428     0.0000     2.0000 </r>
       <r>   -15.0372     0.0000     2.0000 </r>
       <r>   -14.9315     0.0000     2.0000 </r>
       <r>   -14.8259     0.0000     2.0000 </r>
       <r>   -14.7202     0.0000     2.0000 </r>
       <r>   -14.6146     0.0000     2.0000 </r>
       <r>   -14.5089     0.0000     2.0000 </r>
       <r>   -14.4032     0.0000     2.0000 </r>
       <r>   -14.2976     0.0000     2.0000 </r>
       <r>   -14.1919     0.0000     2.0000 </r>
       <r>   -14.0863     0.0000     2.0000 </r>
       <r>   -13.9806     0.0001     2.0000 </r>
       <r>   -13.8749     0.0026     2.0003 </r>
       <r>   -13.7693     0.0239     2.0028 </r>
       <r>   -13.6636     0.0642     2.0096 </r>
       <r>   -13.5580    -0.2180     1.9866 </r>
       <r>   -13.4523    -0.8164     1.9003 </r>
       <r>   -13.3467     2.0361     2.1154 </r>
       <r>   -13.2410     8.8116     3.0464 </r>
       <r>   -13.1353     8.3640     3.9302 </r>
       <r>   -13.0297     1.5597     4.0950 </r>
       <r>   -12.9240    -0.8192     4.0084 </r>
       <r>   -12.8184    -0.1668     3.9908 </r>
       <r>   -12.7127     0.0644     3.9976 </r>
       <r>   -12.6071     0.0206     3.9998 </r>
       <r>   -12.5014     0.0021     4.0000 </r>
       <r>   -12.3957     0.0001     4.0000 </r>
       <r>   -12.2901     0.0000     4.0000 </r>
       <r>   -12.1844     0.0000     4.0000 </r>
       <r>   -12.0788     0.0000     4.0000 </r>
       <r>   -11.9731     0.0000     4.0000 </r>
       <r>   -11.8675     0.0001     4.0000 </r>
       <r>   -11.7618     0.0017     4.0002 </r>
       <r>   -11.6561     0.0177     4.0021 </r>
       <r>   -11.5505     0.0665     4.0091 </r>
       <r>   -11.4448    -0.0911     3.9995 </r>
       <r>   -11.3392    -0.7398     3.9213 </r>
       <r>   -11.2335     0.8200     4.0079 </r>
       <r>   -11.1278     7.0718     4.7551 </r>
       <r>   -11.0222    11.9279     6.0154 </r>
       <r>   -10.9165    11.8734     7.2699 </r>
       <r>   -10.8109     6.9124     8.0003 </r>
       <r>   -10.7052     0.7252     8.0769 </r>
       <r>   -10.5996    -0.7234     8.0004 </r>
       <r>   -10.4939    -0.0360     7.9966 </r>
       <r>   -10.3882     0.0901     8.0062 </r>
       <r>   -10.2826    -0.5200     7.9512 </r>
       <r>   -10.1769    -0.3522     7.9140 </r>
       <r>   -10.0713     4.9193     8.4338 </r>
       <r>    -9.9656    10.0162     9.4921 </r>
       <r>    -9.8600     5.5026    10.0735 </r>
       <r>    -9.7543    -0.1606    10.0565 </r>
       <r>    -9.6486    -0.5994     9.9931 </r>
       <r>    -9.5430     0.0067     9.9939 </r>
       <r>    -9.4373     0.0487     9.9990 </r>
       <r>    -9.3317     0.0088     9.9999 </r>
       <r>    -9.2260     0.0006    10.0000 </r>
       <r>    -9.1203     0.0000    10.0000 </r>
       <r>    -9.0147     0.0000    10.0000 </r>
       <r>    -8.9090     0.0000    10.0000 </r>
       <r>    -8.8034     0.0000    10.0000 </r>
       <r>    -8.6977     0.0000    10.0000 </r>
       <r>    -8.5921     0.0000    10.0000 </r>
       <r>    -8.4864     0.0000    10.0000 </r>
       <r>    -8.3807     0.0000    10.0000 </r>
       <r>    -8.2751     0.0000    10.0000 </r>
       <r>    -8.1694     0.0000    10.0000 </r>
       <r>    -8.0638     0.0000    10.0000 </r>
       <r>    -7.9581     0.0000    10.0000 </r>
       <r>    -7.8525     0.0000    10.0000 </r>
       <r>    -7.7468     0.0000    10.0000 </r>
       <r>    -7.6411     0.0000    10.0000 </r>
       <r>    -7.5355     0.0000    10.0000 </r>
       <r>    -7.4298     0.0000    10.0000 </r>
       <r>    -7.3242     0.0008    10.0001 </r>
       <r>    -7.2185     0.0108    10.0012 </r>
       <r>    -7.1129     0.0535    10.0069 </r>
       <r>    -7.0072    -0.0198    10.0048 </r>
       <r>    -6.9015    -0.6689     9.9341 </r>
       <r>    -6.7959     0.1221     9.9470 </r>
       <r>    -6.6902     6.2285    10.6051 </r>
       <r>    -6.5846    10.0972    11.6720 </r>
       <r>    -6.4789     4.0529    12.1002 </r>
       <r>    -6.3732    -2.6932    11.8156 </r>
       <r>    -6.2676     1.5294    11.9772 </r>
       <r>    -6.1619    21.1565    14.2126 </r>
       <r>    -6.0563    26.5496    17.0177 </r>
       <r>    -5.9506    10.7064    18.1490 </r>
       <r>    -5.8450    22.8291    20.5610 </r>
       <r>    -5.7393    64.1223    27.3360 </r>
       <r>    -5.6336   129.9605    41.0674 </r>
       <r>    -5.5280   239.0194    66.3217 </r>
       <r>    -5.4223   303.1539    98.3522 </r>
       <r>    -5.3167   254.0698   125.1967 </r>
       <r>    -5.2110   210.6333   147.4517 </r>
       <r>    -5.1054   264.7824   175.4281 </r>
       <r>    -4.9997   348.4245   212.2418 </r>
       <r>    -4.8940   350.3540   249.2595 </r>
       <r>    -4.7884   304.8434   281.4685 </r>
       <r>    -4.6827   338.3726   317.2202 </r>
       <r>    -4.5771   406.4142   360.1611 </r>
       <r>    -4.4714   414.3005   403.9352 </r>
       <r>    -4.3657   459.0743   452.4399 </r>
       <r>    -4.2601   553.6567   510.9381 </r>
       <r>    -4.1544   459.4499   559.4826 </r>
       <r>    -4.0488   185.2094   579.0514 </r>
       <r>    -3.9431    21.7619   581.3507 </r>
       <r>    -3.8375    16.5200   583.0962 </r>
       <r>    -3.7318    27.8943   586.0434 </r>
       <r>    -3.6261    16.6385   587.8014 </r>
       <r>    -3.5205    18.4710   589.7530 </r>
       <r>    -3.4148    26.3097   592.5328 </r>
       <r>    -3.3092    11.9037   593.7905 </r>
       <r>    -3.2035    -0.6917   593.7174 </r>
       <r>    -3.0979    26.2931   596.4955 </r>
       <r>    -2.9922    61.3334   602.9759 </r>
       <r>    -2.8865    48.6593   608.1171 </r>
       <r>    -2.7809    15.4415   609.7486 </r>
       <r>    -2.6752     2.4342   610.0058 </r>
       <r>    -2.5696    11.1877   611.1879 </r>
       <r>    -2.4639    23.4426   613.6648 </r>
       <r>    -2.3582    23.4884   616.1465 </r>
       <r>    -2.2526    19.1595   618.1709 </r>
       <r>    -2.1469    26.8441   621.0071 </r>
       <r>    -2.0413    38.2375   625.0472 </r>
       <r>    -1.9356    37.7325   629.0340 </r>
       <r>    -1.8300    36.7938   632.9215 </r>
       <r>    -1.7243    37.4367   636.8770 </r>
       <r>    -1.6186    35.3512   640.6121 </r>
       <r>    -1.5130    27.5963   643.5279 </r>
       <r>    -1.4073    20.1886   645.6610 </r>
       <r>    -1.3017    24.3245   648.2311 </r>
       <r>    -1.1960    28.7643   651.2702 </r>
       <r>    -1.0904    30.1621   654.4571 </r>
       <r>    -0.9847    48.0708   659.5361 </r>
       <r>    -0.8790    62.3995   666.1291 </r>
       <r>    -0.7734    43.0380   670.6764 </r>
       <r>    -0.6677    13.9738   672.1529 </r>
       <r>    -0.5621    -0.2142   672.1302 </r>
       <r>    -0.4564    -1.4196   671.9803 </r>
       <r>    -0.3508    -0.0228   671.9778 </r>
       <r>    -0.2451     0.1653   671.9953 </r>
       <r>    -0.1394     0.0403   671.9996 </r>
       <r>    -0.0338     0.0039   672.0000 </r>
       <r>     0.0719     0.0002   672.0000 </r>
       <r>     0.1775     0.0000   672.0000 </r>
       <r>     0.2832     0.0000   672.0000 </r>
       <r>     0.3889     0.0000   672.0000 </r>
       <r>     0.4945     0.0000   672.0000 </r>
       <r>     0.6002     0.0000   672.0000 </r>
       <r>     0.7058     0.0000   672.0000 </r>
       <r>     0.8115     0.0000   672.0000 </r>
       <r>     0.9171     0.0000   672.0000 </r>
       <r>     1.0228     0.0000   672.0000 </r>
       <r>     1.1285     0.0000   672.0000 </r>
       <r>     1.2341     0.0000   672.0000 </r>
      </set>
     </set>
    </array>
   </total>
  </dos>
 </calculation>
 <structure name="finalpos" >
  <crystal>
   <varray name="basis" >
    <v>      30.00000000       0.00000000       0.00000000 </v>
    <v>       0.00000000      30.00000000       0.00000000 </v>
    <v>       0.00000000       0.00000000      30.00000000 </v>
   </varray>
   <i name="volume">  27000.00000000 </i>
   <varray name="rec_basis" >
    <v>       0.03333333       0.00000000       0.00000000 </v>
    <v>       0.00000000       0.03333333       0.00000000 </v>
    <v>       0.00000000       0.00000000       0.03333333 </v>
   </varray>
  </crystal>
  <varray name="positions" >
   <v>       0.44576020       0.32826710       0.41691983 </v>
   <v>       0.67173288       0.55423978       0.41691983 </v>
   <v>       0.55423980       0.32826710       0.41691983 </v>
   <v>       0.32826712       0.55423978       0.41691983 </v>
   <v>       0.50000000       0.38250690       0.34021317 </v>
   <v>       0.50000000       0.38250690       0.65978680 </v>
   <v>       0.50000000       0.27609440       0.50000000 </v>
   <v>       0.27609443       0.49999998       0.50000000 </v>
   <v>       0.72390557       0.49999998       0.50000000 </v>
   <v>       0.50000000       0.72390555       0.50000000 </v>
   <v>       0.61195280       0.38804720       0.34167483 </v>
   <v>       0.61195280       0.38804720       0.65832513 </v>
   <v>       0.38804722       0.61195278       0.34167483 </v>
   <v>       0.38804722       0.61195278       0.65832513 </v>
   <v>       0.38804720       0.38804720       0.34167483 </v>
   <v>       0.38804720       0.38804720       0.65832513 </v>
   <v>       0.61195278       0.61195278       0.34167483 </v>
   <v>       0.61195278       0.61195278       0.65832513 </v>
   <v>       0.44576020       0.32826710       0.58308023 </v>
   <v>       0.67173288       0.55423978       0.58308023 </v>
   <v>       0.55791699       0.44208301       0.41809300 </v>
   <v>       0.32826705       0.44576024       0.41691983 </v>
   <v>       0.55423973       0.67173293       0.41691983 </v>
   <v>       0.55423980       0.32826710       0.58308023 </v>
   <v>       0.32826712       0.55423978       0.58308023 </v>
   <v>       0.67173295       0.44576024       0.41691983 </v>
   <v>       0.44576027       0.67173293       0.41691983 </v>
   <v>       0.44208301       0.44208301       0.41809300 </v>
   <v>       0.50000000       0.38416601       0.50000000 </v>
   <v>       0.61749315       0.50000005       0.34021317 </v>
   <v>       0.61749315       0.50000005       0.65978680 </v>
   <v>       0.38250685       0.50000005       0.34021317 </v>
   <v>       0.38250685       0.50000005       0.65978680 </v>
   <v>       0.38317830       0.38317830       0.50000000 </v>
   <v>       0.61682172       0.61682172       0.50000000 </v>
   <v>       0.61682170       0.38317830       0.50000000 </v>
   <v>       0.38317828       0.61682172       0.50000000 </v>
   <v>       0.50000000       0.50000000       0.33478917 </v>
   <v>       0.50000000       0.50000000       0.66521087 </v>
   <v>       0.32826705       0.44576024       0.58308023 </v>
   <v>       0.55423973       0.67173293       0.58308023 </v>
   <v>       0.55791699       0.44208301       0.58190703 </v>
   <v>       0.44208298       0.55791702       0.41809300 </v>
   <v>       0.44208301       0.44208301       0.58190703 </v>
   <v>       0.67173295       0.44576024       0.58308023 </v>
   <v>       0.44576027       0.67173293       0.58308023 </v>
   <v>       0.55791702       0.55791702       0.41809300 </v>
   <v>       0.38416599       0.50000002       0.50000000 </v>
   <v>       0.61583401       0.50000002       0.50000000 </v>
   <v>       0.50000000       0.61749319       0.34021317 </v>
   <v>       0.50000000       0.61749319       0.65978680 </v>
   <v>       0.50000000       0.50000000       0.50000000 </v>
   <v>       0.44208298       0.55791702       0.58190703 </v>
   <v>       0.55791702       0.55791702       0.58190703 </v>
   <v>       0.50000000       0.61583404       0.50000000 </v>
   <v>       0.62210220       0.44063507       0.29167450 </v>
   <v>       0.64056520       0.43165853       0.26017373 </v>
  </varray>
  <varray name="selective"  type="logical" >
   <v type="logical" >  F  F  F </v>
   <v type="logical" >  F  F  F </v>
   <v type="logical" >  F  F  F </v>
   <v type="logical" >  F  F  F </v>
   <v type="logical" >  F  F  F </v>
   <v type="logical" >  F  F  F </v>
   <v type="logical" >  F  F  F </v>
   <v type="logical" >  F  F  F </v>
   <v type="logical" >  F  F  F </v>
   <v type="logical" >  F  F  F </v>
   <v type="logical" >  F  F  F </v>
   <v type="logical" >  F  F  F </v>
   <v type="logical" >  F  F  F </v>
   <v type="logical" >  F  F  F </v>
   <v type="logical" >  F  F  F </v>
   <v type="logical" >  F  F  F </v>
   <v type="logical" >  F  F  F </v>
   <v type="logical" >  F  F  F </v>
   <v type="logical" >  F  F  F </v>
   <v type="logical" >  F  F  F </v>
   <v type="logical" >  F  F  F </v>
   <v type="logical" >  F  F  F </v>
   <v type="logical" >  F  F  F </v>
   <v type="logical" >  F  F  F </v>
   <v type="logical" >  F  F  F </v>
   <v type="logical" >  F  F  F </v>
   <v type="logical" >  F  F  F </v>
   <v type="logical" >  F  F  F </v>
   <v type="logical" >  F  F  F </v>
   <v type="logical" >  F  F  F </v>
   <v type="logical" >  F  F  F </v>
   <v type="logical" >  F  F  F </v>
   <v type="logical" >  F  F  F </v>
   <v type="logical" >  F  F  F </v>
   <v type="logical" >  F  F  F </v>
   <v type="logical" >  F  F  F </v>
   <v type="logical" >  F  F  F </v>
   <v type="logical" >  F  F  F </v>
   <v type="logical" >  F  F  F </v>
   <v type="logical" >  F  F  F </v>
   <v type="logical" >  F  F  F </v>
   <v type="logical" >  F  F  F </v>
   <v type="logical" >  F  F  F </v>
   <v type="logical" >  F  F  F </v>
   <v type="logical" >  F  F  F </v>
   <v type="logical" >  F  F  F </v>
   <v type="logical" >  F  F  F </v>
   <v type="logical" >  F  F  F </v>
   <v type="logical" >  F  F  F </v>
   <v type="logical" >  F  F  F </v>
   <v type="logical" >  F  F  F </v>
   <v type="logical" >  F  F  F </v>
   <v type="logical" >  F  F  F </v>
   <v type="logical" >  F  F  F </v>
   <v type="logical" >  F  F  F </v>
   <v type="logical" >  F  F  F </v>
   <v type="logical" >  F  F  F </v>
  </varray>
  <nose>
   <v>      -3.00000000       0.00000000       0.00010000       0.00010000 </v>
  </nose>
 </structure>
</modeling>
