       N       E                     dE             d eps       ncg     rms          rms(c)
DAV:   1     0.438700967435E+04    0.43870E+04   -0.10049E+05   688   0.815E+02
DAV:   2     0.201232938421E+04   -0.23747E+04   -0.21351E+04  1224   0.105E+02
DAV:   3     0.233731828656E+03   -0.17786E+04   -0.16734E+04   992   0.919E+01
DAV:   4    -0.136794350828E+03   -0.37053E+03   -0.31522E+03   832   0.436E+01
DAV:   5    -0.179883595876E+03   -0.43089E+02   -0.35782E+02  1040   0.145E+01    0.145E+01
RMM:   6    -0.179989592313E+03   -0.10600E+00   -0.53765E+01   726   0.900E+00    0.205E+01
RMM:   7    -0.180684426126E+03   -0.69483E+00   -0.17690E+01   829   0.483E+00    0.191E+01
RMM:   8    -0.181662276980E+03   -0.97785E+00   -0.69337E+00   780   0.356E+00    0.232E+01
RMM:   9    -0.181178578065E+03    0.48370E+00   -0.40954E+00   733   0.289E+00    0.306E+01
RMM:  10    -0.178382856155E+03    0.27957E+01   -0.19212E+00   752   0.198E+00    0.177E+01
RMM:  11    -0.176734599084E+03    0.16483E+01   -0.19111E+00   718   0.205E+00    0.119E+01
RMM:  12    -0.176058214690E+03    0.67638E+00   -0.14238E+00   716   0.176E+00    0.113E+01
RMM:  13    -0.176634837500E+03   -0.57662E+00   -0.13209E+00   716   0.168E+00    0.150E+01
RMM:  14    -0.176974863484E+03   -0.34003E+00   -0.87263E-01   722   0.139E+00    0.202E+01
RMM:  15    -0.176342731435E+03    0.63213E+00   -0.74914E-01   724   0.133E+00    0.200E+01
RMM:  16    -0.175558568410E+03    0.78416E+00   -0.57261E-01   712   0.114E+00    0.978E+00
RMM:  17    -0.175473461989E+03    0.85106E-01   -0.50803E-01   708   0.106E+00    0.988E+00
RMM:  18    -0.175666223317E+03   -0.19276E+00   -0.44017E-01   713   0.101E+00    0.137E+01
RMM:  19    -0.175560540784E+03    0.10568E+00   -0.35853E-01   719   0.934E-01    0.111E+01
RMM:  20    -0.175128221091E+03    0.43232E+00   -0.23142E-01   706   0.784E-01    0.671E+00
RMM:  21    -0.175021363803E+03    0.10686E+00   -0.16064E-01   701   0.648E-01    0.581E+00
RMM:  22    -0.174925806929E+03    0.95557E-01   -0.97548E-02   697   0.503E-01    0.437E+00
RMM:  23    -0.174849848884E+03    0.75958E-01   -0.63735E-02   700   0.409E-01    0.303E+00
RMM:  24    -0.174843269883E+03    0.65790E-02   -0.57733E-02   696   0.362E-01    0.304E+00
RMM:  25    -0.174806550370E+03    0.36720E-01   -0.39396E-02   697   0.320E-01    0.223E+00
RMM:  26    -0.174792157458E+03    0.14393E-01   -0.27719E-02   699   0.275E-01    0.171E+00
RMM:  27    -0.174791195299E+03    0.96216E-03   -0.23258E-02   695   0.249E-01    0.203E+00
RMM:  28    -0.174782559992E+03    0.86353E-02   -0.12412E-02   696   0.189E-01    0.163E+00
RMM:  29    -0.174772586500E+03    0.99735E-02   -0.10904E-02   696   0.171E-01    0.135E+00
RMM:  30    -0.174763444077E+03    0.91424E-02   -0.68832E-03   695   0.137E-01    0.747E-01
RMM:  31    -0.174763370836E+03    0.73241E-04   -0.45714E-03   695   0.111E-01    0.832E-01
RMM:  32    -0.174760815094E+03    0.25557E-02   -0.32742E-03   695   0.944E-02    0.537E-01
RMM:  33    -0.174760048492E+03    0.76660E-03   -0.17393E-03   692   0.701E-02    0.338E-01
RMM:  34    -0.174762369833E+03   -0.23213E-02   -0.15969E-03   691   0.620E-02    0.499E-01
RMM:  35    -0.174764322010E+03   -0.19522E-02   -0.14005E-03   694   0.612E-02    0.247E-01
RMM:  36    -0.174765792739E+03   -0.14707E-02   -0.65725E-04   646   0.397E-02    0.226E-01
RMM:  37    -0.174771076160E+03   -0.52834E-02   -0.12094E-03   693   0.467E-02    0.321E-01
RMM:  38    -0.174773372614E+03   -0.22965E-02   -0.70782E-04   609   0.364E-02    0.218E-01
RMM:  39    -0.174775879075E+03   -0.25065E-02   -0.49505E-04   533   0.305E-02    0.226E-01
RMM:  40    -0.174777531536E+03   -0.16525E-02   -0.32131E-04   446   0.265E-02    0.137E-01
RMM:  41    -0.174778494686E+03   -0.96315E-03   -0.16436E-04   416   0.191E-02    0.138E-01
RMM:  42    -0.174779749212E+03   -0.12545E-02   -0.12273E-04   414   0.162E-02    0.919E-02
RMM:  43    -0.174780606402E+03   -0.85719E-03   -0.86880E-05   407   0.134E-02    0.894E-02
RMM:  44    -0.174782787227E+03   -0.21808E-02   -0.14780E-04   417   0.167E-02    0.823E-02
RMM:  45    -0.174783891983E+03   -0.11048E-02   -0.95348E-05   414   0.131E-02    0.555E-02
RMM:  46    -0.174785292088E+03   -0.14001E-02   -0.89739E-05   413   0.121E-02    0.731E-02
RMM:  47    -0.174786400835E+03   -0.11087E-02   -0.78587E-05   409   0.108E-02    0.470E-02
RMM:  48    -0.174786797295E+03   -0.39646E-03   -0.41366E-05   404   0.758E-03    0.382E-02
RMM:  49    -0.174787518827E+03   -0.72153E-03   -0.43074E-05   406   0.727E-03    0.293E-02
RMM:  50    -0.174787761071E+03   -0.24224E-03   -0.19783E-05   305   0.527E-03    0.164E-02
RMM:  51    -0.174788095174E+03   -0.33410E-03   -0.10448E-05   245   0.460E-03    0.231E-02
RMM:  52    -0.174788440116E+03   -0.34494E-03   -0.84281E-06   209   0.431E-03    0.166E-02
RMM:  53    -0.174788628480E+03   -0.18836E-03   -0.48493E-06   169   0.391E-03    0.110E-02
RMM:  54    -0.174788865897E+03   -0.23742E-03   -0.45259E-06   155   0.389E-03    0.120E-02
RMM:  55    -0.174789122767E+03   -0.25687E-03   -0.11704E-05   234   0.427E-03    0.860E-03
RMM:  56    -0.174789223470E+03   -0.10070E-03   -0.50388E-06   147   0.340E-03    0.103E-02
RMM:  57    -0.174789412728E+03   -0.18926E-03   -0.78164E-06   172   0.376E-03    0.597E-03
RMM:  58    -0.174789512082E+03   -0.99354E-04   -0.45681E-06   135   0.362E-03
   1 F= -.17478951E+03 E0= -.17477728E+03  d E =-.489355E-01
