 vasp.5.4.4.18Apr17-6-g9f103f2a35 (build Sep 03 2018 23:53:05) complex          
  
 executed on             LinuxIFC date 2021.11.30  15:12:17
 running on    1 total cores
 distrk:  each k-point on    1 cores,    1 groups
 distr:  one band on NCORES_PER_BAND=   1 cores,    1 groups


--------------------------------------------------------------------------------------------------------


 INCAR:
 POTCAR:    PAW_PBE Pd 04Jan2005                  
 POTCAR:    PAW_PBE C 08Apr2002                   
 POTCAR:    PAW_PBE O 08Apr2002                   
 POTCAR:    PAW_PBE Pd 04Jan2005                  
   VRHFIN =Pd : s1 d9                                                           
   LEXCH  = PE                                                                  
   EATOM  =   809.7530 eV,   59.5152 Ry                                         
                                                                                
   TITEL  = PAW_PBE Pd 04Jan2005                                                
   LULTRA =        F    use ultrasoft PP ?                                      
   IUNSCR =        1    unscreen: 0-lin 1-nonlin 2-no                           
   RPACOR =    2.000    partial core radius                                     
   POMASS =  106.420; ZVAL   =   10.000    mass and valenz                      
   RCORE  =    2.600    outmost cutoff radius                                   
   RWIGS  =    2.710; RWIGS  =    1.434    wigner-seitz radius (au A)           
   ENMAX  =  250.925; ENMIN  =  188.194 eV                                      
   ICORE  =        3    local potential                                         
   LCOR   =        T    correct aug charges                                     
   LPAW   =        T    paw PP                                                  
   EAUG   =  416.230                                                            
   DEXC   =    0.000                                                            
   RMAX   =    2.653    core radius for proj-oper                               
   RAUG   =    1.300    factor for augmentation sphere                          
   RDEP   =    2.734    radius for radial grids                                 
   RDEPT  =    2.103    core radius for aug-charge                              
                                                                                
   Atomic configuration                                                         
   12 entries                                                                   
     n  l   j            E        occ.                                          
     1  0  0.50    -24164.6631   2.0000                                         
     2  0  0.50     -3530.9218   2.0000                                         
     2  1  1.50     -3165.6822   6.0000                                         
     3  0  0.50      -639.4577   2.0000                                         
     3  1  1.50      -519.4532   6.0000                                         
     3  2  2.50      -328.9757  10.0000                                         
     4  0  0.50       -88.7014   2.0000                                         
     4  1  1.50       -54.4540   6.0000                                         
     4  2  2.50        -6.6878   9.0000                                         
     5  0  0.50        -4.3543   1.0000                                         
     5  1  0.50        -1.3606   0.0000                                         
     4  3  2.50        -1.3606   0.0000                                         
   Description                                                                  
     l       E           TYP  RCUT    TYP  RCUT                                 
     2     -6.6878251     23  2.400                                             
     2     -8.0484077     23  2.400                                             
     0     -4.3542939     23  2.400                                             
     0      4.3406793     23  2.400                                             
     1     -4.0817478     23  2.600                                             
     1     15.8380318     23  2.600                                             
     3     -4.0817478     23  2.400                                             
  local pseudopotential read in
  partial core-charges read in
  partial kinetic energy density read in
  atomic valenz-charges read in
  non local Contribution for L=           2  read in
    real space projection operators read in
  non local Contribution for L=           2  read in
    real space projection operators read in
  non local Contribution for L=           0  read in
    real space projection operators read in
  non local Contribution for L=           0  read in
    real space projection operators read in
  non local Contribution for L=           1  read in
    real space projection operators read in
  non local Contribution for L=           1  read in
    real space projection operators read in
    PAW grid and wavefunctions read in
 
   number of l-projection  operators is LMAX  =           6
   number of lm-projection operators is LMMAX =          18
 
 POTCAR:    PAW_PBE C 08Apr2002                   
   VRHFIN =C: s2p2                                                              
   LEXCH  = PE                                                                  
   EATOM  =   147.1560 eV,   10.8157 Ry                                         
                                                                                
   TITEL  = PAW_PBE C 08Apr2002                                                 
   LULTRA =        F    use ultrasoft PP ?                                      
   IUNSCR =        1    unscreen: 0-lin 1-nonlin 2-no                           
   RPACOR =    1.200    partial core radius                                     
   POMASS =   12.011; ZVAL   =    4.000    mass and valenz                      
   RCORE  =    1.500    outmost cutoff radius                                   
   RWIGS  =    1.630; RWIGS  =    0.863    wigner-seitz radius (au A)           
   ENMAX  =  400.000; ENMIN  =  300.000 eV                                      
   ICORE  =        2    local potential                                         
   LCOR   =        T    correct aug charges                                     
   LPAW   =        T    paw PP                                                  
   EAUG   =  644.873                                                            
   DEXC   =    0.000                                                            
   RMAX   =    1.529    core radius for proj-oper                               
   RAUG   =    1.300    factor for augmentation sphere                          
   RDEP   =    1.501    radius for radial grids                                 
   RDEPT  =    1.300    core radius for aug-charge                              
                                                                                
   Atomic configuration                                                         
    4 entries                                                                   
     n  l   j            E        occ.                                          
     1  0  0.50      -273.3789   2.0000                                         
     2  0  0.50       -13.7508   2.0000                                         
     2  1  0.50        -5.2854   2.0000                                         
     3  2  1.50        -5.4423   0.0000                                         
   Description                                                                  
     l       E           TYP  RCUT    TYP  RCUT                                 
     0    -13.7508458     23  1.200                                             
     0     -8.2022199     23  1.200                                             
     1     -5.2854383     23  1.500                                             
     1     34.0145650     23  1.500                                             
     2     -5.4423304      7  1.500                                             
  local pseudopotential read in
  partial core-charges read in
  partial kinetic energy density read in
  atomic valenz-charges read in
  non local Contribution for L=           0  read in
    real space projection operators read in
  non local Contribution for L=           0  read in
    real space projection operators read in
  non local Contribution for L=           1  read in
    real space projection operators read in
  non local Contribution for L=           1  read in
    real space projection operators read in
    PAW grid and wavefunctions read in
 
   number of l-projection  operators is LMAX  =           4
   number of lm-projection operators is LMMAX =           8
 
 POTCAR:    PAW_PBE O 08Apr2002                   
   VRHFIN =O: s2p4                                                              
   LEXCH  = PE                                                                  
   EATOM  =   432.3788 eV,   31.7789 Ry                                         
                                                                                
   TITEL  = PAW_PBE O 08Apr2002                                                 
   LULTRA =        F    use ultrasoft PP ?                                      
   IUNSCR =        1    unscreen: 0-lin 1-nonlin 2-no                           
   RPACOR =    1.200    partial core radius                                     
   POMASS =   16.000; ZVAL   =    6.000    mass and valenz                      
   RCORE  =    1.520    outmost cutoff radius                                   
   RWIGS  =    1.550; RWIGS  =    0.820    wigner-seitz radius (au A)           
   ENMAX  =  400.000; ENMIN  =  300.000 eV                                      
   ICORE  =        2    local potential                                         
   LCOR   =        T    correct aug charges                                     
   LPAW   =        T    paw PP                                                  
   EAUG   =  605.392                                                            
   DEXC   =    0.000                                                            
   RMAX   =    1.553    core radius for proj-oper                               
   RAUG   =    1.300    factor for augmentation sphere                          
   RDEP   =    1.550    radius for radial grids                                 
   RDEPT  =    1.329    core radius for aug-charge                              
                                                                                
   Atomic configuration                                                         
    4 entries                                                                   
     n  l   j            E        occ.                                          
     1  0  0.50      -514.6923   2.0000                                         
     2  0  0.50       -23.9615   2.0000                                         
     2  1  0.50        -9.0305   4.0000                                         
     3  2  1.50        -9.5241   0.0000                                         
   Description                                                                  
     l       E           TYP  RCUT    TYP  RCUT                                 
     0    -23.9615318     23  1.200                                             
     0     -9.5240782     23  1.200                                             
     1     -9.0304911     23  1.520                                             
     1      8.1634956     23  1.520                                             
     2     -9.5240782      7  1.500                                             
  local pseudopotential read in
  partial core-charges read in
  partial kinetic energy density read in
  kinetic energy density of atom read in
  atomic valenz-charges read in
  non local Contribution for L=           0  read in
    real space projection operators read in
  non local Contribution for L=           0  read in
    real space projection operators read in
  non local Contribution for L=           1  read in
    real space projection operators read in
  non local Contribution for L=           1  read in
    real space projection operators read in
    PAW grid and wavefunctions read in
 
   number of l-projection  operators is LMAX  =           4
   number of lm-projection operators is LMMAX =           8
 
 Optimization of the real space projectors (new method)

 maximal supplied QI-value         = 14.36
 optimisation between [QCUT,QGAM] = [ 10.20, 20.39] = [ 29.12,116.47] Ry 
 Optimized for a Real-space Cutoff    1.51 Angstroem

   l    n(q)    QCUT    max X(q) W(low)/X(q) W(high)/X(q)  e(spline) 
   2      8    10.197    59.108    0.26E-03    0.14E-03    0.96E-07
   2      8    10.197    58.101    0.27E-03    0.14E-03    0.98E-07
   0      9    10.197   102.235    0.54E-04    0.60E-05    0.72E-07
   0      9    10.197    58.388    0.52E-04    0.60E-05    0.68E-07
   1      9    10.197    22.191    0.18E-03    0.25E-03    0.79E-07
   1      9    10.197    15.590    0.15E-03    0.21E-03    0.69E-07
 Optimization of the real space projectors (new method)

 maximal supplied QI-value         = 25.13
 optimisation between [QCUT,QGAM] = [ 10.05, 20.36] = [ 28.30,116.06] Ry 
 Optimized for a Real-space Cutoff    1.30 Angstroem

   l    n(q)    QCUT    max X(q) W(low)/X(q) W(high)/X(q)  e(spline) 
   0      8    10.053   115.676    0.49E-03    0.72E-03    0.18E-06
   0      8    10.053    87.132    0.49E-03    0.71E-03    0.18E-06
   1      7    10.053     4.429    0.32E-03    0.31E-03    0.18E-06
   1      7    10.053     2.733    0.23E-03    0.19E-03    0.20E-06
 Optimization of the real space projectors (new method)

 maximal supplied QI-value         = 24.76
 optimisation between [QCUT,QGAM] = [ 10.15, 20.30] = [ 28.85,115.39] Ry 
 Optimized for a Real-space Cutoff    1.38 Angstroem

   l    n(q)    QCUT    max X(q) W(low)/X(q) W(high)/X(q)  e(spline) 
   0      8    10.150    20.381    0.22E-03    0.32E-03    0.29E-06
   0      8    10.150    15.268    0.23E-03    0.35E-03    0.30E-06
   1      8    10.150     5.964    0.46E-03    0.53E-03    0.21E-06
   1      8    10.150     5.382    0.38E-03    0.45E-03    0.19E-06

 ----------------------------------------------------------------------------- 
|                                                                             |
|  ADVICE TO THIS USER RUNNING 'VASP/VAMP'   (HEAR YOUR MASTER'S VOICE ...):  |
|                                                                             |
|      You enforced a specific xc-type in the INCAR file,                     |
|      a different type was found on the POTCAR file                          |
|          I HOPE YOU KNOW, WHAT YOU ARE  DOING                               |
|                                                                             |
 ----------------------------------------------------------------------------- 

  PAW_PBE Pd 04Jan2005                  :
 energy of atom  1       EATOM= -809.7530
 kinetic energy error for atom=    0.0091 (will be added to EATOM!!)
  PAW_PBE C 08Apr2002                   :
 energy of atom  2       EATOM= -147.1560
 kinetic energy error for atom=    0.0288 (will be added to EATOM!!)
  PAW_PBE O 08Apr2002                   :
 energy of atom  3       EATOM= -432.3788
 kinetic energy error for atom=    0.1156 (will be added to EATOM!!)
 
 
 POSCAR: Pd55PES                                 
  positions in cartesian coordinates
  No initial velocities read in
 exchange correlation table for  LEXCH =        9
   RHO(1)=    0.500       N(1)  =     2000
   RHO(2)=  100.500       N(2)  =     4000
 


--------------------------------------------------------------------------------------------------------


 ion  position               nearest neighbor table
   1  0.446  0.328  0.417-   3 3.25   5 3.25   7 3.36  15 3.36  29 3.42  28 3.42
   2  0.672  0.554  0.417-  26 3.25  30 3.25  17 3.36   9 3.36  47 3.42  49 3.42
   3  0.554  0.328  0.417-   1 3.25   5 3.25   7 3.36  11 3.36  29 3.42  21 3.42
   4  0.328  0.554  0.417-  32 3.25  22 3.25  13 3.36   8 3.36  43 3.42  48 3.42
   5  0.500  0.383  0.340-   1 3.25   3 3.25  11 3.36  15 3.36  21 3.42  28 3.42
   6  0.500  0.383  0.660-  24 3.25  19 3.25  16 3.36  12 3.36  42 3.42  44 3.42
   7  0.500  0.276  0.500-  29 3.24   3 3.36   1 3.36  19 3.36  24 3.36
   8  0.276  0.500  0.500-  48 3.24  22 3.36  40 3.36   4 3.36  25 3.36
   9  0.724  0.500  0.500-  49 3.24  26 3.36  45 3.36   2 3.36  20 3.36
  10  0.500  0.724  0.500-  55 3.24  27 3.36  23 3.36  46 3.36  41 3.36
  11  0.612  0.388  0.342-  21 3.24   5 3.36   3 3.36  30 3.36  26 3.36
  12  0.612  0.388  0.658-  42 3.24  24 3.36  45 3.36   6 3.36  31 3.36
  13  0.388  0.612  0.342-  43 3.24  32 3.36  50 3.36   4 3.36  27 3.36
  14  0.388  0.612  0.658-  53 3.24  25 3.36  33 3.36  51 3.36  46 3.36
  15  0.388  0.388  0.342-  28 3.24   5 3.36   1 3.36  32 3.36  22 3.36
  16  0.388  0.388  0.658-  44 3.24  19 3.36  40 3.36   6 3.36  33 3.36
  17  0.612  0.612  0.342-  47 3.24  30 3.36  50 3.36   2 3.36  23 3.36
  18  0.612  0.612  0.658-  54 3.24  31 3.36  20 3.36  51 3.36  41 3.36
  19  0.446  0.328  0.583-   6 3.25  24 3.25  16 3.36   7 3.36  44 3.42  29 3.42
  20  0.672  0.554  0.583-  31 3.25  45 3.25  18 3.36   9 3.36  54 3.42  49 3.42
  21  0.558  0.442  0.418-  11 3.24   5 3.42   3 3.42  30 3.42  26 3.42
  22  0.328  0.446  0.417-   4 3.25  32 3.25   8 3.36  15 3.36  48 3.42  28 3.42
  23  0.554  0.672  0.417-  27 3.25  50 3.25  10 3.36  17 3.36  55 3.42  47 3.42
  24  0.554  0.328  0.583-   6 3.25  19 3.25  12 3.36   7 3.36  42 3.42  29 3.42
  25  0.328  0.554  0.583-  33 3.25  40 3.25  14 3.36   8 3.36  53 3.42  48 3.42
  26  0.672  0.446  0.417-   2 3.25  30 3.25   9 3.36  11 3.36  49 3.42  21 3.42
  27  0.446  0.672  0.417-  23 3.25  50 3.25  10 3.36  13 3.36  55 3.42  43 3.42
  28  0.442  0.442  0.418-  15 3.24   5 3.42   1 3.42  32 3.42  22 3.42
  29  0.500  0.384  0.500-   7 3.24   3 3.42   1 3.42  24 3.42  19 3.42
  30  0.617  0.500  0.340-   2 3.25  26 3.25  17 3.36  11 3.36  47 3.42  21 3.42
  31  0.617  0.500  0.660-  20 3.25  45 3.25  18 3.36  12 3.36  54 3.42  42 3.42
  32  0.383  0.500  0.340-   4 3.25  22 3.25  13 3.36  15 3.36  43 3.42  28 3.42
  33  0.383  0.500  0.660-  25 3.25  40 3.25  14 3.36  16 3.36  53 3.42  44 3.42
  34  0.383  0.383  0.500-
  35  0.617  0.617  0.500-
  36  0.617  0.383  0.500-
  37  0.383  0.617  0.500-
  38  0.500  0.500  0.335-  56 2.17
  39  0.500  0.500  0.665-
  40  0.328  0.446  0.583-  33 3.25  25 3.25  16 3.36   8 3.36  44 3.42  48 3.42
  41  0.554  0.672  0.583-  46 3.25  51 3.25  10 3.36  18 3.36  54 3.42  55 3.42
  42  0.558  0.442  0.582-  12 3.24   6 3.42  24 3.42  31 3.42  45 3.42
  43  0.442  0.558  0.418-  13 3.24   4 3.42  32 3.42  27 3.42  50 3.42
  44  0.442  0.442  0.582-  16 3.24   6 3.42  19 3.42  33 3.42  40 3.42
  45  0.672  0.446  0.583-  20 3.25  31 3.25   9 3.36  12 3.36  49 3.42  42 3.42
  46  0.446  0.672  0.583-  41 3.25  51 3.25  10 3.36  14 3.36  53 3.42  55 3.42
  47  0.558  0.558  0.418-  17 3.24   2 3.42  30 3.42  23 3.42  50 3.42
  48  0.384  0.500  0.500-   8 3.24   4 3.42  22 3.42  25 3.42  40 3.42
  49  0.616  0.500  0.500-   9 3.24   2 3.42  26 3.42  20 3.42  45 3.42
  50  0.500  0.617  0.340-  27 3.25  23 3.25  13 3.36  17 3.36  43 3.42  47 3.42
  51  0.500  0.617  0.660-  41 3.25  46 3.25  14 3.36  18 3.36  53 3.42  54 3.42
  52  0.500  0.500  0.500-
  53  0.442  0.558  0.582-  14 3.24  25 3.42  33 3.42  51 3.42  46 3.42
  54  0.558  0.558  0.582-  18 3.24  31 3.42  20 3.42  51 3.42  41 3.42
  55  0.500  0.616  0.500-  10 3.24  23 3.42  27 3.42  41 3.42  46 3.42
  56  0.513  0.456  0.279-  57 1.13  38 2.17
  57  0.515  0.449  0.242-  56 1.13
 
  LATTYP: Found a simple cubic cell.
 ALAT       =    30.0000000000
  
  Lattice vectors:
  
 A1 = (  30.0000000000,   0.0000000000,   0.0000000000)
 A2 = (   0.0000000000,  30.0000000000,   0.0000000000)
 A3 = (   0.0000000000,   0.0000000000,  30.0000000000)


Analysis of symmetry for initial positions (statically):
=====================================================================
 Subroutine PRICEL returns:
 Original cell was already a primitive cell.
 

 Routine SETGRP: Setting up the symmetry group for a 
 simple cubic supercell.


 Subroutine GETGRP returns: Found  1 space group operations
 (whereof  1 operations were pure point group operations)
 out of a pool of 48 trial point group operations.


The static configuration has the point symmetry C_1 .


Analysis of symmetry for dynamics (positions and initial velocities):
=====================================================================
 Subroutine PRICEL returns:
 Original cell was already a primitive cell.
 

 Routine SETGRP: Setting up the symmetry group for a 
 simple cubic supercell.


 Subroutine GETGRP returns: Found  1 space group operations
 (whereof  1 operations were pure point group operations)
 out of a pool of 48 trial point group operations.


The dynamic configuration has the point symmetry C_1 .


Analysis of constrained symmetry for selective dynamics:
=====================================================================
 Subroutine PRICEL returns:
 Original cell was already a primitive cell.
 

 Routine SETGRP: Setting up the symmetry group for a 
 simple cubic supercell.


 Subroutine GETGRP returns: Found  1 space group operations
 (whereof  1 operations were pure point group operations)
 out of a pool of 48 trial point group operations.


The constrained configuration has the point symmetry C_1 .


 Subroutine INISYM returns: Found  1 space group operations
 (whereof  1 operations are pure point group operations),
 and found     1 'primitive' translations

 
 
 KPOINTS: K-points                                

Automatic generation of k-mesh.
Space group operators:
 irot       det(A)        alpha          n_x          n_y          n_z        tau_x        tau_y        tau_z
    1     1.000000     0.000000     1.000000     0.000000     0.000000     0.000000     0.000000     0.000000
 
 Subroutine IBZKPT returns following result:
 ===========================================
 
 Found      1 irreducible k-points:
 
 Following reciprocal coordinates:
            Coordinates               Weight
  0.000000  0.000000  0.000000      1.000000
 
 Following cartesian coordinates:
            Coordinates               Weight
  0.000000  0.000000  0.000000      1.000000
 


--------------------------------------------------------------------------------------------------------




 Dimension of arrays:
   k-points           NKPTS =      1   k-points in BZ     NKDIM =      1   number of bands    NBANDS=    336
   number of dos      NEDOS =    301   number of ions     NIONS =     57
   non local maximal  LDIM  =      6   non local SUM 2l+1 LMDIM =     18
   total plane-waves  NPLWV = ******
   max r-space proj   IRMAX =   1847   max aug-charges    IRDMAX=   6262
   dimension x,y,z NGX =   150 NGY =  150 NGZ =  150
   dimension x,y,z NGXF=   300 NGYF=  300 NGZF=  300
   support grid    NGXF=   300 NGYF=  300 NGZF=  300
   ions per type =              55   1   1
   NGX,Y,Z   is equivalent  to a cutoff of   8.31,  8.31,  8.31 a.u.
   NGXF,Y,Z  is equivalent  to a cutoff of  16.62, 16.62, 16.62 a.u.

 SYSTEM =  6_Pd100_top_free_z(O)                   
 POSCAR =  Pd55PES                                 

 Startparameter for this run:
   NWRITE =      2    write-flag & timer
   PREC   = normal    normal or accurate (medium, high low for compatibility)
   ISTART =      0    job   : 0-new  1-cont  2-samecut
   ICHARG =      2    charge: 1-file 2-atom 10-const
   ISPIN  =      1    spin polarized calculation?
   LNONCOLLINEAR =      F non collinear calculations
   LSORBIT =      F    spin-orbit coupling
   INIWAV =      1    electr: 0-lowe 1-rand  2-diag
   LASPH  =      F    aspherical Exc in radial PAW
   METAGGA=      F    non-selfconsistent MetaGGA calc.

 Electronic Relaxation 1
   ENCUT  =  400.0 eV  29.40 Ry    5.42 a.u.  48.92 48.92 48.92*2*pi/ulx,y,z
   ENINI  =  400.0     initial cutoff
   ENAUG  =  644.9 eV  augmentation charge cutoff
   NELM   =    100;   NELMIN=  6; NELMDL= -5     # of ELM steps 
   EDIFF  = 0.1E-03   stopping-criterion for ELM
   LREAL  =      T    real-space projection
   NLSPLINE    = F    spline interpolate recip. space projectors
   LCOMPAT=      F    compatible to vasp.4.4
   GGA_COMPAT  = T    GGA compatible to vasp.4.4-vasp.4.6
   LMAXPAW     = -100 max onsite density
   LMAXMIX     =    2 max onsite mixed and CHGCAR
   VOSKOWN=      0    Vosko Wilk Nusair interpolation
   ROPT   =   -0.00050  -0.00050  -0.00050
 Ionic relaxation
   EDIFFG = -.5E-01   stopping-criterion for IOM
   NSW    =      0    number of steps for IOM
   NBLOCK =      1;   KBLOCK =      1    inner block; outer block 
   IBRION =     -1    ionic relax: 0-MD 1-quasi-New 2-CG
   NFREE  =      1    steps in history (QN), initial steepest desc. (CG)
   ISIF   =      2    stress and relaxation
   IWAVPR =     10    prediction:  0-non 1-charg 2-wave 3-comb
   ISYM   =      2    0-nonsym 1-usesym 2-fastsym
   LCORR  =      T    Harris-Foulkes like correction to forces

   POTIM  = 0.5000    time-step for ionic-motion
   TEIN   =    0.0    initial temperature
   TEBEG  =    0.0;   TEEND  =   0.0 temperature during run
   SMASS  =  -3.00    Nose mass-parameter (am)
   estimated Nose-frequenzy (Omega)   =  0.10E-29 period in steps =****** mass=  -0.206E-25a.u.
   SCALEE = 1.0000    scale energy and forces
   NPACO  =    256;   APACO  = 16.0  distance and # of slots for P.C.
   PSTRESS=    0.0 pullay stress

  Mass of Ions in am
   POMASS = 106.42 12.01 16.00
  Ionic Valenz
   ZVAL   =  10.00  4.00  6.00
  Atomic Wigner-Seitz radii
   RWIGS  =  -1.00 -1.00 -1.00
  virtual crystal weights 
   VCA    =   1.00  1.00  1.00
   NELECT =     560.0000    total number of electrons
   NUPDOWN=      -1.0000    fix difference up-down

 DOS related values:
   EMIN   =  10.00;   EMAX   =-10.00  energy-range for DOS
   EFERMI =   0.00
   ISMEAR =     2;   SIGMA  =   0.20  broadening in eV -4-tet -1-fermi 0-gaus

 Electronic relaxation 2 (details)
   IALGO  =     68    algorithm
   LDIAG  =      T    sub-space diagonalisation (order eigenvalues)
   LSUBROT=      F    optimize rotation matrix (better conditioning)
   TURBO    =      0    0=normal 1=particle mesh
   IRESTART =      0    0=no restart 2=restart with 2 vectors
   NREBOOT  =      0    no. of reboots
   NMIN     =      0    reboot dimension
   EREF     =   0.00    reference energy to select bands
   IMIX   =      4    mixing-type and parameters
     AMIX     =   0.40;   BMIX     =  1.00
     AMIX_MAG =   1.60;   BMIX_MAG =  1.00
     AMIN     =   0.10
     WC   =   100.;   INIMIX=   1;  MIXPRE=   1;  MAXMIX= -45

 Intra band minimization:
   WEIMIN = 0.0000     energy-eigenvalue tresh-hold
   EBREAK =  0.74E-07  absolut break condition
   DEPER  =   0.30     relativ break condition  

   TIME   =   0.40     timestep for ELM

  volume/ion in A,a.u.               =     473.68      3196.58
  Fermi-wavevector in a.u.,A,eV,Ry     =   0.449797  0.849992  2.752691  0.202317
  Thomas-Fermi vector in A             =   1.430086
 
 Write flags
   LWAVE        =      F    write WAVECAR
   LDOWNSAMPLE  =      F    k-point downsampling of WAVECAR
   LCHARG       =      F    write CHGCAR
   LVTOT        =      F    write LOCPOT, total local potential
   LVHAR        =      F    write LOCPOT, Hartree potential only
   LELF         =      F    write electronic localiz. function (ELF)
   LORBIT       =      0    0 simple, 1 ext, 2 COOP (PROOUT), +10 PAW based schemes


 Dipole corrections
   LMONO  =      F    monopole corrections only (constant potential shift)
   LDIPOL =      F    correct potential (dipole corrections)
   IDIPOL =      0    1-x, 2-y, 3-z, 4-all directions 
   EPSILON=  1.0000000 bulk dielectric constant

 Exchange correlation treatment:
   GGA     =    RP    GGA type
   LEXCH   =     9    internal setting for exchange type
   VOSKOWN=      0    Vosko Wilk Nusair interpolation
   LHFCALC =     F    Hartree Fock is set to
   LHFONE  =     F    Hartree Fock one center treatment
   AEXX    =    0.0000 exact exchange contribution

 Linear response parameters
   LEPSILON=     F    determine dielectric tensor
   LRPA    =     F    only Hartree local field effects (RPA)
   LNABLA  =     F    use nabla operator in PAW spheres
   LVEL    =     F    velocity operator in full k-point grid
   LINTERFAST=   F  fast interpolation
   KINTER  =     0    interpolate to denser k-point grid
   CSHIFT  =0.1000    complex shift for real part using Kramers Kronig
   OMEGAMAX=  -1.0    maximum frequency
   DEG_THRESHOLD= 0.2000000E-02 threshold for treating states as degnerate
   RTIME   =   -0.100 relaxation time in fs
  (WPLASMAI=    0.000 imaginary part of plasma frequency in eV, 0.658/RTIME)
   DFIELD  = 0.0000000 0.0000000 0.0000000 field for delta impulse in time
 
 Orbital magnetization related:
   ORBITALMAG=     F  switch on orbital magnetization
   LCHIMAG   =     F  perturbation theory with respect to B field
   DQ        =  0.001000  dq finite difference perturbation B field
   LLRAUG    =     F  two centre corrections for induced B field



--------------------------------------------------------------------------------------------------------


 Static calculation
 charge density and potential will be updated during run
 non-spin polarized calculation
 RMM-DIIS sequential band-by-band and
  variant of blocked Davidson during initial phase
 perform sub-space diagonalisation
    before iterative eigenvector-optimisation
 modified Broyden-mixing scheme, WC =      100.0
 initial mixing is a Kerker type mixing with AMIX =  0.4000 and BMIX =      1.0000
 Hartree-type preconditioning will be used
 using additional bands           56
 real space projection scheme for non local part
 use partial core corrections
 calculate Harris-corrections to forces 
   (improved forces if not selfconsistent)
 use gradient corrections 
 use of overlap-Matrix (Vanderbilt PP)
 Methfessel and Paxton  Order N= 2 SIGMA  =   0.20


--------------------------------------------------------------------------------------------------------


  energy-cutoff  :      400.00
  volume of cell :    27000.00
      direct lattice vectors                 reciprocal lattice vectors
    30.000000000  0.000000000  0.000000000     0.033333333  0.000000000  0.000000000
     0.000000000 30.000000000  0.000000000     0.000000000  0.033333333  0.000000000
     0.000000000  0.000000000 30.000000000     0.000000000  0.000000000  0.033333333

  length of vectors
    30.000000000 30.000000000 30.000000000     0.033333333  0.033333333  0.033333333


 
 k-points in units of 2pi/SCALE and weight: K-points                                
   0.00000000  0.00000000  0.00000000       1.000
 
 k-points in reciprocal lattice and weights: K-points                                
   0.00000000  0.00000000  0.00000000       1.000
 
 position of ions in fractional coordinates (direct lattice) 
   0.44576020  0.32826710  0.41691983
   0.67173288  0.55423978  0.41691983
   0.55423980  0.32826710  0.41691983
   0.32826712  0.55423978  0.41691983
   0.50000000  0.38250690  0.34021317
   0.50000000  0.38250690  0.65978680
   0.50000000  0.27609440  0.50000000
   0.27609443  0.49999998  0.50000000
   0.72390557  0.49999998  0.50000000
   0.50000000  0.72390555  0.50000000
   0.61195280  0.38804720  0.34167483
   0.61195280  0.38804720  0.65832513
   0.38804722  0.61195278  0.34167483
   0.38804722  0.61195278  0.65832513
   0.38804720  0.38804720  0.34167483
   0.38804720  0.38804720  0.65832513
   0.61195278  0.61195278  0.34167483
   0.61195278  0.61195278  0.65832513
   0.44576020  0.32826710  0.58308023
   0.67173288  0.55423978  0.58308023
   0.55791699  0.44208301  0.41809300
   0.32826705  0.44576024  0.41691983
   0.55423973  0.67173293  0.41691983
   0.55423980  0.32826710  0.58308023
   0.32826712  0.55423978  0.58308023
   0.67173295  0.44576024  0.41691983
   0.44576027  0.67173293  0.41691983
   0.44208301  0.44208301  0.41809300
   0.50000000  0.38416601  0.50000000
   0.61749315  0.50000005  0.34021317
   0.61749315  0.50000005  0.65978680
   0.38250685  0.50000005  0.34021317
   0.38250685  0.50000005  0.65978680
   0.38317830  0.38317830  0.50000000
   0.61682172  0.61682172  0.50000000
   0.61682170  0.38317830  0.50000000
   0.38317828  0.61682172  0.50000000
   0.50000000  0.50000000  0.33478917
   0.50000000  0.50000000  0.66521087
   0.32826705  0.44576024  0.58308023
   0.55423973  0.67173293  0.58308023
   0.55791699  0.44208301  0.58190703
   0.44208298  0.55791702  0.41809300
   0.44208301  0.44208301  0.58190703
   0.67173295  0.44576024  0.58308023
   0.44576027  0.67173293  0.58308023
   0.55791702  0.55791702  0.41809300
   0.38416599  0.50000002  0.50000000
   0.61583401  0.50000002  0.50000000
   0.50000000  0.61749319  0.34021317
   0.50000000  0.61749319  0.65978680
   0.50000000  0.50000000  0.50000000
   0.44208298  0.55791702  0.58190703
   0.55791702  0.55791702  0.58190703
   0.50000000  0.61583404  0.50000000
   0.51278073  0.45600847  0.27878947
   0.51490797  0.44868640  0.24197067
 
 position of ions in cartesian coordinates  (Angst):
  13.37280588  9.84801292 12.50759500
  20.15198637 16.62719342 12.50759500
  16.62719412  9.84801292 12.50759500
   9.84801363 16.62719342 12.50759500
  15.00000000 11.47520705 10.20639500
  15.00000000 11.47520705 19.79360400
  15.00000000  8.28283206 15.00000000
   8.28283277 14.99999929 15.00000000
  21.71716723 14.99999929 15.00000000
  15.00000000 21.71716652 14.99999999
  18.35858397 11.64141603 10.25024500
  18.35858397 11.64141603 19.74975399
  11.64141674 18.35858326 10.25024500
  11.64141674 18.35858326 19.74975400
  11.64141603 11.64141603 10.25024500
  11.64141603 11.64141603 19.74975400
  18.35858326 18.35858326 10.25024500
  18.35858326 18.35858326 19.74975400
  13.37280588  9.84801291 17.49240700
  20.15198638 16.62719341 17.49240700
  16.73750985 13.26249015 12.54279000
   9.84801151 13.37280729 12.50759500
  16.62719200 20.15198779 12.50759500
  16.62719412  9.84801292 17.49240700
   9.84801363 16.62719342 17.49240700
  20.15198849 13.37280729 12.50759500
  13.37280800 20.15198779 12.50759500
  13.26249015 13.26249015 12.54279000
  15.00000000 11.52498029 15.00000000
  18.52479437 15.00000140 10.20639500
  18.52479437 15.00000141 19.79360400
  11.47520562 15.00000141 10.20639501
  11.47520563 15.00000141 19.79360400
  11.49534898 11.49534898 15.00000000
  18.50465172 18.50465172 15.00000000
  18.50465102 11.49534898 15.00000000
  11.49534828 18.50465172 15.00000000
  15.00000000 15.00000000 10.04367500
  15.00000000 15.00000000 19.95632599
   9.84801151 13.37280729 17.49240700
  16.62719200 20.15198779 17.49240700
  16.73750985 13.26249015 17.45721100
  13.26248944 16.73751056 12.54279001
  13.26249015 13.26249015 17.45721100
  20.15198849 13.37280729 17.49240699
  13.37280800 20.15198779 17.49240700
  16.73751056 16.73751056 12.54279000
  11.52497959 15.00000071 15.00000000
  18.47502041 15.00000071 15.00000000
  14.99999999 18.52479579 10.20639500
  15.00000000 18.52479578 19.79360400
  15.00000000 15.00000000 15.00000000
  13.26248944 16.73751057 17.45721101
  16.73751056 16.73751057 17.45721100
  15.00000000 18.47502112 15.00000000
  15.38342200 13.68025400  8.36368400
  15.44723900 13.46059200  7.25912000
 


--------------------------------------------------------------------------------------------------------


 k-point  1 :   0.0000 0.0000 0.0000  plane waves:  490521

 maximum and minimum number of plane-waves per node :    490521   490521

 maximum number of plane-waves:    490521
 maximum index in each direction: 
   IXMAX=   48   IYMAX=   48   IZMAX=   48
   IXMIN=  -48   IYMIN=  -48   IZMIN=  -48


 serial   3D FFT for wavefunctions
 parallel 3D FFT for charge:
    minimum data exchange during FFTs selected (reduces bandwidth)


 total amount of memory used by VASP MPI-rank0  5486942. kBytes
=======================================================================

   base      :      30000. kBytes
   nonlr-proj:      17127. kBytes
   fftplans  :     924480. kBytes
   grid      :    1872000. kBytes
   one-center:        886. kBytes
   wavefun   :    2642449. kBytes
 
     INWAV:  cpu time    0.0002: real time    0.0004
 Broyden mixing: mesh for mixing (old mesh)
   NGX = 97   NGY = 97   NGZ = 97
  (NGX  =300   NGY  =300   NGZ  =300)
  gives a total of 912673 points

 initial charge density was supplied:
 charge density of overlapping atoms calculated
 number of electron     560.0000000 magnetization 
 keeping initial charge density in first step


--------------------------------------------------------------------------------------------------------


 Maximum index for non-local projection operator         1763
 Maximum index for augmentation-charges         5898 (set IRDMAX)


--------------------------------------------------------------------------------------------------------


 First call to EWALD:  gamma=   0.059
 Maximum number of real-space cells 3x 3x 3
 Maximum number of reciprocal cells 3x 3x 3

    FEWALD:  cpu time    0.0175: real time    0.0175


--------------------------------------- Iteration      1(   1)  ---------------------------------------


    POTLOK:  cpu time   16.2250: real time   16.2285
    SETDIJ:  cpu time    0.1316: real time    0.1316
     EDDAV:  cpu time  487.1332: real time  487.2679
       DOS:  cpu time    0.0016: real time    0.0016
    --------------------------------------------
      LOOP:  cpu time  503.4914: real time  503.6296

 eigenvalue-minimisations  :   688
 total energy-change (2. order) : 0.4387010E+04  (-0.1004933E+05)
 number of electron     560.0000000 magnetization 
 augmentation part      560.0000000 magnetization 

 Free energy of the ion-electron system (eV)
  ---------------------------------------------------
  alpha Z        PSCENC =        75.25431677
  Ewald energy   TEWEN  =    138725.92528477
  -Hartree energ DENC   =   -182089.91900727
  -exchange      EXHF   =         0.00000000
  -V(xc)+E(xc)   XCENC  =     -1703.33114410
  PAW double counting   =     44873.02882129   -41398.84523641
  entropy T*S    EENTRO =         0.01064464
  eigenvalues    EBANDS =       818.38050071
  atomic energy  EATOM  =     45086.50549395
  Solvation  Ediel_sol  =         0.00000000
  ---------------------------------------------------
  free energy    TOTEN  =      4387.00967435 eV

  energy without entropy =     4386.99902972  energy(sigma->0) =     4387.00701319


--------------------------------------------------------------------------------------------------------




--------------------------------------- Iteration      1(   2)  ---------------------------------------


     EDDAV:  cpu time  774.8769: real time  774.9374
       DOS:  cpu time    0.0015: real time    0.0015
    --------------------------------------------
      LOOP:  cpu time  774.8784: real time  774.9389

 eigenvalue-minimisations  :  1224
 total energy-change (2. order) :-0.2374680E+04  (-0.2135127E+04)
 number of electron     560.0000000 magnetization 
 augmentation part      560.0000000 magnetization 

 Free energy of the ion-electron system (eV)
  ---------------------------------------------------
  alpha Z        PSCENC =        75.25431677
  Ewald energy   TEWEN  =    138725.92528477
  -Hartree energ DENC   =   -182089.91900727
  -exchange      EXHF   =         0.00000000
  -V(xc)+E(xc)   XCENC  =     -1703.33114410
  PAW double counting   =     44873.02882129   -41398.84523641
  entropy T*S    EENTRO =        -0.05190774
  eigenvalues    EBANDS =     -1556.23723705
  atomic energy  EATOM  =     45086.50549395
  Solvation  Ediel_sol  =         0.00000000
  ---------------------------------------------------
  free energy    TOTEN  =      2012.32938421 eV

  energy without entropy =     2012.38129195  energy(sigma->0) =     2012.34236115


--------------------------------------------------------------------------------------------------------




--------------------------------------- Iteration      1(   3)  ---------------------------------------


     EDDAV:  cpu time  650.6969: real time  650.7474
       DOS:  cpu time    0.0014: real time    0.0014
    --------------------------------------------
      LOOP:  cpu time  650.6982: real time  650.7488

 eigenvalue-minimisations  :   992
 total energy-change (2. order) :-0.1778598E+04  (-0.1673420E+04)
 number of electron     560.0000000 magnetization 
 augmentation part      560.0000000 magnetization 

 Free energy of the ion-electron system (eV)
  ---------------------------------------------------
  alpha Z        PSCENC =        75.25431677
  Ewald energy   TEWEN  =    138725.92528477
  -Hartree energ DENC   =   -182089.91900727
  -exchange      EXHF   =         0.00000000
  -V(xc)+E(xc)   XCENC  =     -1703.33114410
  PAW double counting   =     44873.02882129   -41398.84523641
  entropy T*S    EENTRO =        -0.00995484
  eigenvalues    EBANDS =     -3334.87674551
  atomic energy  EATOM  =     45086.50549395
  Solvation  Ediel_sol  =         0.00000000
  ---------------------------------------------------
  free energy    TOTEN  =       233.73182866 eV

  energy without entropy =      233.74178350  energy(sigma->0) =      233.73431737


--------------------------------------------------------------------------------------------------------




--------------------------------------- Iteration      1(   4)  ---------------------------------------


     EDDAV:  cpu time  564.0091: real time  564.0549
       DOS:  cpu time    0.0014: real time    0.0014
    --------------------------------------------
      LOOP:  cpu time  564.0105: real time  564.0563

 eigenvalue-minimisations  :   832
 total energy-change (2. order) :-0.3705262E+03  (-0.3152246E+03)
 number of electron     560.0000000 magnetization 
 augmentation part      560.0000000 magnetization 

 Free energy of the ion-electron system (eV)
  ---------------------------------------------------
  alpha Z        PSCENC =        75.25431677
  Ewald energy   TEWEN  =    138725.92528477
  -Hartree energ DENC   =   -182089.91900727
  -exchange      EXHF   =         0.00000000
  -V(xc)+E(xc)   XCENC  =     -1703.33114410
  PAW double counting   =     44873.02882129   -41398.84523641
  entropy T*S    EENTRO =         0.01071812
  eigenvalues    EBANDS =     -3705.42359796
  atomic energy  EATOM  =     45086.50549395
  Solvation  Ediel_sol  =         0.00000000
  ---------------------------------------------------
  free energy    TOTEN  =      -136.79435083 eV

  energy without entropy =     -136.80506895  energy(sigma->0) =     -136.79703036


--------------------------------------------------------------------------------------------------------




--------------------------------------- Iteration      1(   5)  ---------------------------------------


     EDDAV:  cpu time  735.2588: real time  735.3293
       DOS:  cpu time    0.0018: real time    0.0018
    CHARGE:  cpu time   29.0910: real time   29.0928
    MIXING:  cpu time    0.4729: real time    0.4729
    --------------------------------------------
      LOOP:  cpu time  764.8245: real time  764.8968

 eigenvalue-minimisations  :  1040
 total energy-change (2. order) :-0.4308925E+02  (-0.3578247E+02)
 number of electron     559.9999815 magnetization 
 augmentation part      245.1809724 magnetization 

 Broyden mixing:
  rms(total) = 0.14509E+01    rms(broyden)= 0.14500E+01
  rms(prec ) = 0.15556E+01
  weight for this iteration     100.00

 Free energy of the ion-electron system (eV)
  ---------------------------------------------------
  alpha Z        PSCENC =        75.25431677
  Ewald energy   TEWEN  =    138725.92528477
  -Hartree energ DENC   =   -182089.91900727
  -exchange      EXHF   =         0.00000000
  -V(xc)+E(xc)   XCENC  =     -1703.33114410
  PAW double counting   =     44873.02882129   -41398.84523641
  entropy T*S    EENTRO =         0.53763252
  eigenvalues    EBANDS =     -3749.03975741
  atomic energy  EATOM  =     45086.50549395
  Solvation  Ediel_sol  =         0.00000000
  ---------------------------------------------------
  free energy    TOTEN  =      -179.88359588 eV

  energy without entropy =     -180.42122840  energy(sigma->0) =     -180.01800401


--------------------------------------------------------------------------------------------------------




--------------------------------------- Iteration      1(   6)  ---------------------------------------


    POTLOK:  cpu time   14.6924: real time   14.6966
    SETDIJ:  cpu time    0.1327: real time    0.1327
    EDDIAG:  cpu time   94.8651: real time   94.8722
  RMM-DIIS:  cpu time  260.1475: real time  260.1749
    ORTHCH:  cpu time   25.5419: real time   25.5437
       DOS:  cpu time    0.0017: real time    0.0017
    CHARGE:  cpu time   32.1820: real time   32.1840
    MIXING:  cpu time    0.5325: real time    0.5325
    --------------------------------------------
      LOOP:  cpu time  428.0957: real time  428.1383

 eigenvalue-minimisations  :   726
 total energy-change (2. order) :-0.1059964E+00  (-0.5376511E+01)
 number of electron     559.9999845 magnetization 
 augmentation part      240.5674171 magnetization 

 Broyden mixing:
  rms(total) = 0.20536E+01    rms(broyden)= 0.20533E+01
  rms(prec ) = 0.23729E+01
  weight for this iteration     100.00

 eigenvalues of (default mixing * dielectric matrix)
  average eigenvalue GAMMA=   0.3684
  0.3684

 Free energy of the ion-electron system (eV)
  ---------------------------------------------------
  alpha Z        PSCENC =        75.25431677
  Ewald energy   TEWEN  =    138725.92528477
  -Hartree energ DENC   =   -182491.51368838
  -exchange      EXHF   =         0.00000000
  -V(xc)+E(xc)   XCENC  =     -1696.97862166
  PAW double counting   =     45629.18819970   -42128.03576730
  entropy T*S    EENTRO =        -0.23166661
  eigenvalues    EBANDS =     -3380.10314356
  atomic energy  EATOM  =     45086.50549395
  Solvation  Ediel_sol  =         0.00000000
  ---------------------------------------------------
  free energy    TOTEN  =      -179.98959231 eV

  energy without entropy =     -179.75792571  energy(sigma->0) =     -179.93167566


--------------------------------------------------------------------------------------------------------




--------------------------------------- Iteration      1(   7)  ---------------------------------------


    POTLOK:  cpu time   15.2368: real time   15.2382
    SETDIJ:  cpu time    0.1323: real time    0.1323
    EDDIAG:  cpu time   94.1671: real time   94.1744
  RMM-DIIS:  cpu time  278.2319: real time  278.2600
    ORTHCH:  cpu time   28.2935: real time   28.2953
       DOS:  cpu time    0.0017: real time    0.0017
    CHARGE:  cpu time   33.9583: real time   33.9607
    MIXING:  cpu time    0.6112: real time    0.6112
    --------------------------------------------
      LOOP:  cpu time  450.6327: real time  450.6739

 eigenvalue-minimisations  :   829
 total energy-change (2. order) :-0.6948338E+00  (-0.1768961E+01)
 number of electron     559.9999822 magnetization 
 augmentation part      240.5294869 magnetization 

 Broyden mixing:
  rms(total) = 0.19100E+01    rms(broyden)= 0.19097E+01
  rms(prec ) = 0.21991E+01
  weight for this iteration     100.00

 eigenvalues of (default mixing * dielectric matrix)
  average eigenvalue GAMMA=   0.3759
  0.5810  0.1708

 Free energy of the ion-electron system (eV)
  ---------------------------------------------------
  alpha Z        PSCENC =        75.25431677
  Ewald energy   TEWEN  =    138725.92528477
  -Hartree energ DENC   =   -182587.80712262
  -exchange      EXHF   =         0.00000000
  -V(xc)+E(xc)   XCENC  =     -1697.20511352
  PAW double counting   =     45700.42397682   -42196.38408521
  entropy T*S    EENTRO =        -0.10621612
  eigenvalues    EBANDS =     -3287.29096097
  atomic energy  EATOM  =     45086.50549395
  Solvation  Ediel_sol  =         0.00000000
  ---------------------------------------------------
  free energy    TOTEN  =      -180.68442613 eV

  energy without entropy =     -180.57821001  energy(sigma->0) =     -180.65787210


--------------------------------------------------------------------------------------------------------




--------------------------------------- Iteration      1(   8)  ---------------------------------------


    POTLOK:  cpu time   17.5227: real time   17.5257
    SETDIJ:  cpu time    0.1403: real time    0.1403
    EDDIAG:  cpu time  103.3858: real time  103.3946
  RMM-DIIS:  cpu time  259.4317: real time  259.4549
    ORTHCH:  cpu time   27.3100: real time   27.3118
       DOS:  cpu time    0.0017: real time    0.0017
    CHARGE:  cpu time   37.3273: real time   37.3297
    MIXING:  cpu time    0.6067: real time    0.6068
    --------------------------------------------
      LOOP:  cpu time  445.7263: real time  445.7654

 eigenvalue-minimisations  :   780
 total energy-change (2. order) :-0.9778509E+00  (-0.6933665E+00)
 number of electron     559.9999823 magnetization 
 augmentation part      240.6833133 magnetization 

 Broyden mixing:
  rms(total) = 0.23222E+01    rms(broyden)= 0.23219E+01
  rms(prec ) = 0.26760E+01
  weight for this iteration     100.00

 eigenvalues of (default mixing * dielectric matrix)
  average eigenvalue GAMMA=   0.3487
  0.7319  0.1572  0.1572

 Free energy of the ion-electron system (eV)
  ---------------------------------------------------
  alpha Z        PSCENC =        75.25431677
  Ewald energy   TEWEN  =    138725.92528477
  -Hartree energ DENC   =   -182634.37703340
  -exchange      EXHF   =         0.00000000
  -V(xc)+E(xc)   XCENC  =     -1697.14709112
  PAW double counting   =     45779.38059543   -42271.89887185
  entropy T*S    EENTRO =        -0.07561008
  eigenvalues    EBANDS =     -3245.22936146
  atomic energy  EATOM  =     45086.50549395
  Solvation  Ediel_sol  =         0.00000000
  ---------------------------------------------------
  free energy    TOTEN  =      -181.66227698 eV

  energy without entropy =     -181.58666690  energy(sigma->0) =     -181.64337446


--------------------------------------------------------------------------------------------------------




--------------------------------------- Iteration      1(   9)  ---------------------------------------


    POTLOK:  cpu time   15.7193: real time   15.7219
    SETDIJ:  cpu time    0.1345: real time    0.1346
    EDDIAG:  cpu time  104.5825: real time  104.5909
  RMM-DIIS:  cpu time  247.5073: real time  247.5282
    ORTHCH:  cpu time   25.7739: real time   25.7757
       DOS:  cpu time    0.0017: real time    0.0017
    CHARGE:  cpu time   32.5496: real time   32.5517
    MIXING:  cpu time    0.6326: real time    0.6327
    --------------------------------------------
      LOOP:  cpu time  426.9014: real time  426.9372

 eigenvalue-minimisations  :   733
 total energy-change (2. order) : 0.4836989E+00  (-0.4095357E+00)
 number of electron     559.9999801 magnetization 
 augmentation part      241.1799671 magnetization 

 Broyden mixing:
  rms(total) = 0.30639E+01    rms(broyden)= 0.30636E+01
  rms(prec ) = 0.36865E+01
  weight for this iteration     100.00

 eigenvalues of (default mixing * dielectric matrix)
  average eigenvalue GAMMA=   0.2988
  0.7863  0.1667  0.1667  0.0756

 Free energy of the ion-electron system (eV)
  ---------------------------------------------------
  alpha Z        PSCENC =        75.25431677
  Ewald energy   TEWEN  =    138725.92528477
  -Hartree energ DENC   =   -182655.71925392
  -exchange      EXHF   =         0.00000000
  -V(xc)+E(xc)   XCENC  =     -1696.98148050
  PAW double counting   =     45837.90255174   -42327.87000900
  entropy T*S    EENTRO =         0.10146271
  eigenvalues    EBANDS =     -3226.29694458
  atomic energy  EATOM  =     45086.50549395
  Solvation  Ediel_sol  =         0.00000000
  ---------------------------------------------------
  free energy    TOTEN  =      -181.17857806 eV

  energy without entropy =     -181.28004078  energy(sigma->0) =     -181.20394374


--------------------------------------------------------------------------------------------------------




--------------------------------------- Iteration      1(  10)  ---------------------------------------


    POTLOK:  cpu time   15.0334: real time   15.0361
    SETDIJ:  cpu time    0.1321: real time    0.1321
    EDDIAG:  cpu time   97.0009: real time   97.0096
  RMM-DIIS:  cpu time  272.0494: real time  272.0742
    ORTHCH:  cpu time   27.9631: real time   27.9648
       DOS:  cpu time    0.0018: real time    0.0018
    CHARGE:  cpu time   38.3086: real time   38.3118
    MIXING:  cpu time    0.7473: real time    0.7474
    --------------------------------------------
      LOOP:  cpu time  451.2366: real time  451.2779

 eigenvalue-minimisations  :   752
 total energy-change (2. order) : 0.2795722E+01  (-0.1921167E+00)
 number of electron     559.9999801 magnetization 
 augmentation part      241.5219730 magnetization 

 Broyden mixing:
  rms(total) = 0.17708E+01    rms(broyden)= 0.17704E+01
  rms(prec ) = 0.20174E+01
  weight for this iteration     100.00

 eigenvalues of (default mixing * dielectric matrix)
  average eigenvalue GAMMA=   0.2887
  0.8666  0.1966  0.1966  0.1234  0.0605

 Free energy of the ion-electron system (eV)
  ---------------------------------------------------
  alpha Z        PSCENC =        75.25431677
  Ewald energy   TEWEN  =    138725.92528477
  -Hartree energ DENC   =   -182672.04567301
  -exchange      EXHF   =         0.00000000
  -V(xc)+E(xc)   XCENC  =     -1696.87339270
  PAW double counting   =     45864.91527115   -42353.72520278
  entropy T*S    EENTRO =        -0.10219896
  eigenvalues    EBANDS =     -3208.23675535
  atomic energy  EATOM  =     45086.50549395
  Solvation  Ediel_sol  =         0.00000000
  ---------------------------------------------------
  free energy    TOTEN  =      -178.38285615 eV

  energy without entropy =     -178.28065720  energy(sigma->0) =     -178.35730642


--------------------------------------------------------------------------------------------------------




--------------------------------------- Iteration      1(  11)  ---------------------------------------


    POTLOK:  cpu time   16.0452: real time   16.0497
    SETDIJ:  cpu time    0.1335: real time    0.1335
    EDDIAG:  cpu time   98.5573: real time   98.5664
  RMM-DIIS:  cpu time  228.9811: real time  228.9995
    ORTHCH:  cpu time   26.4950: real time   26.4968
       DOS:  cpu time    0.0017: real time    0.0017
    CHARGE:  cpu time   30.3940: real time   30.3961
    MIXING:  cpu time    0.6566: real time    0.6566
    --------------------------------------------
      LOOP:  cpu time  401.2643: real time  401.3003

 eigenvalue-minimisations  :   718
 total energy-change (2. order) : 0.1648257E+01  (-0.1911068E+00)
 number of electron     559.9999838 magnetization 
 augmentation part      241.6379098 magnetization 

 Broyden mixing:
  rms(total) = 0.11900E+01    rms(broyden)= 0.11896E+01
  rms(prec ) = 0.13665E+01
  weight for this iteration     100.00

 eigenvalues of (default mixing * dielectric matrix)
  average eigenvalue GAMMA=   0.2946
  0.9509  0.2586  0.2586  0.1201  0.1201  0.0595

 Free energy of the ion-electron system (eV)
  ---------------------------------------------------
  alpha Z        PSCENC =        75.25431677
  Ewald energy   TEWEN  =    138725.92528477
  -Hartree energ DENC   =   -182700.42554469
  -exchange      EXHF   =         0.00000000
  -V(xc)+E(xc)   XCENC  =     -1696.64643072
  PAW double counting   =     45906.43968672   -42393.35862399
  entropy T*S    EENTRO =        -0.03959784
  eigenvalues    EBANDS =     -3180.38918406
  atomic energy  EATOM  =     45086.50549395
  Solvation  Ediel_sol  =         0.00000000
  ---------------------------------------------------
  free energy    TOTEN  =      -176.73459908 eV

  energy without entropy =     -176.69500124  energy(sigma->0) =     -176.72469962


--------------------------------------------------------------------------------------------------------




--------------------------------------- Iteration      1(  12)  ---------------------------------------


    POTLOK:  cpu time   14.6193: real time   14.6215
    SETDIJ:  cpu time    0.1332: real time    0.1332
    EDDIAG:  cpu time   95.4959: real time   95.5032
  RMM-DIIS:  cpu time  254.7019: real time  254.7236
    ORTHCH:  cpu time   26.4432: real time   26.4449
       DOS:  cpu time    0.0017: real time    0.0017
    CHARGE:  cpu time   38.3870: real time   38.3897
    MIXING:  cpu time    0.9176: real time    0.9176
    --------------------------------------------
      LOOP:  cpu time  430.6998: real time  430.7354

 eigenvalue-minimisations  :   716
 total energy-change (2. order) : 0.6763844E+00  (-0.1423763E+00)
 number of electron     559.9999813 magnetization 
 augmentation part      241.6803665 magnetization 

 Broyden mixing:
  rms(total) = 0.11286E+01    rms(broyden)= 0.11283E+01
  rms(prec ) = 0.13064E+01
  weight for this iteration     100.00

 eigenvalues of (default mixing * dielectric matrix)
  average eigenvalue GAMMA=   0.3149
  1.0888  0.4318  0.2145  0.1710  0.1203  0.1203  0.0575

 Free energy of the ion-electron system (eV)
  ---------------------------------------------------
  alpha Z        PSCENC =        75.25431677
  Ewald energy   TEWEN  =    138725.92528477
  -Hartree energ DENC   =   -182728.10752030
  -exchange      EXHF   =         0.00000000
  -V(xc)+E(xc)   XCENC  =     -1696.29115509
  PAW double counting   =     45952.09501078   -42436.73024394
  entropy T*S    EENTRO =        -0.03269670
  eigenvalues    EBANDS =     -3154.67670493
  atomic energy  EATOM  =     45086.50549395
  Solvation  Ediel_sol  =         0.00000000
  ---------------------------------------------------
  free energy    TOTEN  =      -176.05821469 eV

  energy without entropy =     -176.02551799  energy(sigma->0) =     -176.05004051


--------------------------------------------------------------------------------------------------------




--------------------------------------- Iteration      1(  13)  ---------------------------------------


    POTLOK:  cpu time   18.2156: real time   18.2184
    SETDIJ:  cpu time    0.1596: real time    0.1596
    EDDIAG:  cpu time  102.3209: real time  102.3301
  RMM-DIIS:  cpu time  227.2922: real time  227.3118
    ORTHCH:  cpu time   25.0573: real time   25.0590
       DOS:  cpu time    0.0016: real time    0.0016
    CHARGE:  cpu time   29.1062: real time   29.1080
    MIXING:  cpu time    0.7210: real time    0.7210
    --------------------------------------------
      LOOP:  cpu time  402.8745: real time  402.9096

 eigenvalue-minimisations  :   716
 total energy-change (2. order) :-0.5766228E+00  (-0.1320861E+00)
 number of electron     559.9999822 magnetization 
 augmentation part      241.4629497 magnetization 

 Broyden mixing:
  rms(total) = 0.15035E+01    rms(broyden)= 0.15032E+01
  rms(prec ) = 0.18199E+01
  weight for this iteration     100.00

 eigenvalues of (default mixing * dielectric matrix)
  average eigenvalue GAMMA=   0.3278
  1.2041  0.6406  0.1797  0.1797  0.1383  0.1383  0.0577  0.0836

 Free energy of the ion-electron system (eV)
  ---------------------------------------------------
  alpha Z        PSCENC =        75.25431677
  Ewald energy   TEWEN  =    138725.92528477
  -Hartree energ DENC   =   -182766.03365017
  -exchange      EXHF   =         0.00000000
  -V(xc)+E(xc)   XCENC  =     -1695.70713779
  PAW double counting   =     46013.47846603   -42494.91151733
  entropy T*S    EENTRO =        -0.07794941
  eigenvalues    EBANDS =     -3121.06814431
  atomic energy  EATOM  =     45086.50549395
  Solvation  Ediel_sol  =         0.00000000
  ---------------------------------------------------
  free energy    TOTEN  =      -176.63483750 eV

  energy without entropy =     -176.55688809  energy(sigma->0) =     -176.61535015


--------------------------------------------------------------------------------------------------------




--------------------------------------- Iteration      1(  14)  ---------------------------------------


    POTLOK:  cpu time   14.6031: real time   14.6056
    SETDIJ:  cpu time    0.1319: real time    0.1319
    EDDIAG:  cpu time   94.5515: real time   94.5591
  RMM-DIIS:  cpu time  228.0509: real time  228.0726
    ORTHCH:  cpu time   25.2149: real time   25.2165
       DOS:  cpu time    0.0015: real time    0.0015
    CHARGE:  cpu time   29.5792: real time   29.5811
    MIXING:  cpu time    0.7623: real time    0.7624
    --------------------------------------------
      LOOP:  cpu time  392.8954: real time  392.9308

 eigenvalue-minimisations  :   722
 total energy-change (2. order) :-0.3400260E+00  (-0.8726287E-01)
 number of electron     559.9999849 magnetization 
 augmentation part      241.1642091 magnetization 

 Broyden mixing:
  rms(total) = 0.20200E+01    rms(broyden)= 0.20198E+01
  rms(prec ) = 0.24125E+01
  weight for this iteration     100.00

 eigenvalues of (default mixing * dielectric matrix)
  average eigenvalue GAMMA=   0.3328
  1.3632  0.7574  0.2019  0.2019  0.1324  0.1099  0.1099  0.0569  0.0619

 Free energy of the ion-electron system (eV)
  ---------------------------------------------------
  alpha Z        PSCENC =        75.25431677
  Ewald energy   TEWEN  =    138725.92528477
  -Hartree energ DENC   =   -182804.71233310
  -exchange      EXHF   =         0.00000000
  -V(xc)+E(xc)   XCENC  =     -1695.23343830
  PAW double counting   =     46060.78690579   -42539.74127551
  entropy T*S    EENTRO =         0.07661488
  eigenvalues    EBANDS =     -3085.83643273
  atomic energy  EATOM  =     45086.50549395
  Solvation  Ediel_sol  =         0.00000000
  ---------------------------------------------------
  free energy    TOTEN  =      -176.97486348 eV

  energy without entropy =     -177.05147836  energy(sigma->0) =     -176.99401720


--------------------------------------------------------------------------------------------------------




--------------------------------------- Iteration      1(  15)  ---------------------------------------


    POTLOK:  cpu time   14.4440: real time   14.4464
    SETDIJ:  cpu time    0.1312: real time    0.1312
    EDDIAG:  cpu time   96.0916: real time   96.0990
  RMM-DIIS:  cpu time  234.6640: real time  234.6847
    ORTHCH:  cpu time   26.8185: real time   26.8202
       DOS:  cpu time    0.0017: real time    0.0017
    CHARGE:  cpu time   35.8278: real time   35.8300
    MIXING:  cpu time    1.0702: real time    1.0702
    --------------------------------------------
      LOOP:  cpu time  409.0489: real time  409.0835

 eigenvalue-minimisations  :   724
 total energy-change (2. order) : 0.6321320E+00  (-0.7491379E-01)
 number of electron     559.9999807 magnetization 
 augmentation part      241.0847192 magnetization 

 Broyden mixing:
  rms(total) = 0.19971E+01    rms(broyden)= 0.19968E+01
  rms(prec ) = 0.23561E+01
  weight for this iteration     100.00

 eigenvalues of (default mixing * dielectric matrix)
  average eigenvalue GAMMA=   0.3257
  1.5118  0.7622  0.2267  0.2267  0.1178  0.1178  0.0938  0.0938  0.0563  0.0498

 Free energy of the ion-electron system (eV)
  ---------------------------------------------------
  alpha Z        PSCENC =        75.25431677
  Ewald energy   TEWEN  =    138725.92528477
  -Hartree energ DENC   =   -182839.68330254
  -exchange      EXHF   =         0.00000000
  -V(xc)+E(xc)   XCENC  =     -1694.81873524
  PAW double counting   =     46102.07285842   -42578.80472850
  entropy T*S    EENTRO =         0.16205266
  eigenvalues    EBANDS =     -3052.95597173
  atomic energy  EATOM  =     45086.50549395
  Solvation  Ediel_sol  =         0.00000000
  ---------------------------------------------------
  free energy    TOTEN  =      -176.34273144 eV

  energy without entropy =     -176.50478410  energy(sigma->0) =     -176.38324460


--------------------------------------------------------------------------------------------------------




--------------------------------------- Iteration      1(  16)  ---------------------------------------


    POTLOK:  cpu time   18.0739: real time   18.0770
    SETDIJ:  cpu time    0.1356: real time    0.1356
    EDDIAG:  cpu time  104.3148: real time  104.3237
  RMM-DIIS:  cpu time  235.7944: real time  235.8128
    ORTHCH:  cpu time   25.0266: real time   25.0282
       DOS:  cpu time    0.0018: real time    0.0018
    CHARGE:  cpu time   28.9338: real time   28.9356
    MIXING:  cpu time    0.8584: real time    0.8585
    --------------------------------------------
      LOOP:  cpu time  413.1393: real time  413.1730

 eigenvalue-minimisations  :   712
 total energy-change (2. order) : 0.7841630E+00  (-0.5726137E-01)
 number of electron     559.9999833 magnetization 
 augmentation part      241.1258786 magnetization 

 Broyden mixing:
  rms(total) = 0.97770E+00    rms(broyden)= 0.97747E+00
  rms(prec ) = 0.11065E+01
  weight for this iteration     100.00

 eigenvalues of (default mixing * dielectric matrix)
  average eigenvalue GAMMA=   0.3350
  1.6236  0.8709  0.2727  0.2727  0.1221  0.1221  0.1107  0.1107  0.0756  0.0557
  0.0481

 Free energy of the ion-electron system (eV)
  ---------------------------------------------------
  alpha Z        PSCENC =        75.25431677
  Ewald energy   TEWEN  =    138725.92528477
  -Hartree energ DENC   =   -182852.23989647
  -exchange      EXHF   =         0.00000000
  -V(xc)+E(xc)   XCENC  =     -1694.64521686
  PAW double counting   =     46121.65737868   -42597.30784275
  entropy T*S    EENTRO =         0.03486473
  eigenvalues    EBANDS =     -3040.74295125
  atomic energy  EATOM  =     45086.50549395
  Solvation  Ediel_sol  =         0.00000000
  ---------------------------------------------------
  free energy    TOTEN  =      -175.55856841 eV

  energy without entropy =     -175.59343314  energy(sigma->0) =     -175.56728459


--------------------------------------------------------------------------------------------------------




--------------------------------------- Iteration      1(  17)  ---------------------------------------


    POTLOK:  cpu time   14.4023: real time   14.4046
    SETDIJ:  cpu time    0.1324: real time    0.1324
    EDDIAG:  cpu time   93.6138: real time   93.6213
  RMM-DIIS:  cpu time  229.6868: real time  229.7072
    ORTHCH:  cpu time   25.0863: real time   25.0879
       DOS:  cpu time    0.0018: real time    0.0018
    CHARGE:  cpu time   29.1674: real time   29.1692
    MIXING:  cpu time    0.8757: real time    0.8758
    --------------------------------------------
      LOOP:  cpu time  392.9665: real time  393.0002

 eigenvalue-minimisations  :   708
 total energy-change (2. order) : 0.8510642E-01  (-0.5080314E-01)
 number of electron     559.9999832 magnetization 
 augmentation part      241.0954801 magnetization 

 Broyden mixing:
  rms(total) = 0.98820E+00    rms(broyden)= 0.98796E+00
  rms(prec ) = 0.11421E+01
  weight for this iteration     100.00

 eigenvalues of (default mixing * dielectric matrix)
  average eigenvalue GAMMA=   0.3477
  1.7627  1.0059  0.3224  0.3224  0.1282  0.1282  0.1185  0.1185  0.0805  0.0805
  0.0562  0.0483

 Free energy of the ion-electron system (eV)
  ---------------------------------------------------
  alpha Z        PSCENC =        75.25431677
  Ewald energy   TEWEN  =    138725.92528477
  -Hartree energ DENC   =   -182875.23860064
  -exchange      EXHF   =         0.00000000
  -V(xc)+E(xc)   XCENC  =     -1694.38457767
  PAW double counting   =     46141.49373568   -42615.78154120
  entropy T*S    EENTRO =        -0.02731612
  eigenvalues    EBANDS =     -3019.22025753
  atomic energy  EATOM  =     45086.50549395
  Solvation  Ediel_sol  =         0.00000000
  ---------------------------------------------------
  free energy    TOTEN  =      -175.47346199 eV

  energy without entropy =     -175.44614587  energy(sigma->0) =     -175.46663296


--------------------------------------------------------------------------------------------------------




--------------------------------------- Iteration      1(  18)  ---------------------------------------


    POTLOK:  cpu time   14.6406: real time   14.6434
    SETDIJ:  cpu time    0.1324: real time    0.1324
    EDDIAG:  cpu time   93.2002: real time   93.2072
  RMM-DIIS:  cpu time  212.4895: real time  212.5077
    ORTHCH:  cpu time   25.2953: real time   25.2970
       DOS:  cpu time    0.0017: real time    0.0017
    CHARGE:  cpu time   29.0481: real time   29.0499
    MIXING:  cpu time    0.9502: real time    0.9503
    --------------------------------------------
      LOOP:  cpu time  375.7580: real time  375.7896

 eigenvalue-minimisations  :   713
 total energy-change (2. order) :-0.1927613E+00  (-0.4401734E-01)
 number of electron     559.9999820 magnetization 
 augmentation part      241.0524182 magnetization 

 Broyden mixing:
  rms(total) = 0.13701E+01    rms(broyden)= 0.13699E+01
  rms(prec ) = 0.16626E+01
  weight for this iteration     100.00

 eigenvalues of (default mixing * dielectric matrix)
  average eigenvalue GAMMA=   0.3557
  1.9260  1.1481  0.3375  0.3375  0.1552  0.1552  0.1116  0.1116  0.0915  0.0915
  0.0580  0.0504  0.0504

 Free energy of the ion-electron system (eV)
  ---------------------------------------------------
  alpha Z        PSCENC =        75.25431677
  Ewald energy   TEWEN  =    138725.92528477
  -Hartree energ DENC   =   -182897.62368165
  -exchange      EXHF   =         0.00000000
  -V(xc)+E(xc)   XCENC  =     -1694.14453783
  PAW double counting   =     46155.74644186   -42628.72452726
  entropy T*S    EENTRO =         0.05426255
  eigenvalues    EBANDS =     -2998.65927647
  atomic energy  EATOM  =     45086.50549395
  Solvation  Ediel_sol  =         0.00000000
  ---------------------------------------------------
  free energy    TOTEN  =      -175.66622332 eV

  energy without entropy =     -175.72048587  energy(sigma->0) =     -175.67978895


--------------------------------------------------------------------------------------------------------




--------------------------------------- Iteration      1(  19)  ---------------------------------------


    POTLOK:  cpu time   14.7380: real time   14.7406
    SETDIJ:  cpu time    0.1552: real time    0.1552
    EDDIAG:  cpu time   98.2338: real time   98.2418
  RMM-DIIS:  cpu time  264.8601: real time  264.8837
    ORTHCH:  cpu time   26.0876: real time   26.0895
       DOS:  cpu time    0.0017: real time    0.0017
    CHARGE:  cpu time   30.5779: real time   30.5799
    MIXING:  cpu time    1.0775: real time    1.0776
    --------------------------------------------
      LOOP:  cpu time  435.7318: real time  435.7699

 eigenvalue-minimisations  :   719
 total energy-change (2. order) : 0.1056825E+00  (-0.3585313E-01)
 number of electron     559.9999838 magnetization 
 augmentation part      240.9926969 magnetization 

 Broyden mixing:
  rms(total) = 0.11112E+01    rms(broyden)= 0.11109E+01
  rms(prec ) = 0.13759E+01
  weight for this iteration     100.00

 eigenvalues of (default mixing * dielectric matrix)
  average eigenvalue GAMMA=   0.3512
  2.0038  1.2232  0.4289  0.2349  0.2349  0.1225  0.1225  0.1144  0.1041  0.1041
  0.0739  0.0565  0.0465  0.0465

 Free energy of the ion-electron system (eV)
  ---------------------------------------------------
  alpha Z        PSCENC =        75.25431677
  Ewald energy   TEWEN  =    138725.92528477
  -Hartree energ DENC   =   -182920.57386336
  -exchange      EXHF   =         0.00000000
  -V(xc)+E(xc)   XCENC  =     -1693.89264029
  PAW double counting   =     46166.91900730   -42638.68718537
  entropy T*S    EENTRO =         0.02769281
  eigenvalues    EBANDS =     -2977.03864736
  atomic energy  EATOM  =     45086.50549395
  Solvation  Ediel_sol  =         0.00000000
  ---------------------------------------------------
  free energy    TOTEN  =      -175.56054078 eV

  energy without entropy =     -175.58823360  energy(sigma->0) =     -175.56746399


--------------------------------------------------------------------------------------------------------




--------------------------------------- Iteration      1(  20)  ---------------------------------------


    POTLOK:  cpu time   15.4150: real time   15.4178
    SETDIJ:  cpu time    0.1326: real time    0.1326
    EDDIAG:  cpu time   99.8590: real time   99.8666
  RMM-DIIS:  cpu time  244.6646: real time  244.6857
    ORTHCH:  cpu time   26.5098: real time   26.5117
       DOS:  cpu time    0.0017: real time    0.0017
    CHARGE:  cpu time   29.1478: real time   29.1497
    MIXING:  cpu time    1.2059: real time    1.2060
    --------------------------------------------
      LOOP:  cpu time  416.9364: real time  416.9719

 eigenvalue-minimisations  :   706
 total energy-change (2. order) : 0.4323197E+00  (-0.2314236E-01)
 number of electron     559.9999827 magnetization 
 augmentation part      241.0415943 magnetization 

 Broyden mixing:
  rms(total) = 0.67128E+00    rms(broyden)= 0.67099E+00
  rms(prec ) = 0.77907E+00
  weight for this iteration     100.00

 eigenvalues of (default mixing * dielectric matrix)
  average eigenvalue GAMMA=   0.3568
  2.0666  1.2985  0.5605  0.2626  0.2626  0.1441  0.1441  0.1092  0.1092  0.0916
  0.0916  0.0625  0.0561  0.0465  0.0465

 Free energy of the ion-electron system (eV)
  ---------------------------------------------------
  alpha Z        PSCENC =        75.25431677
  Ewald energy   TEWEN  =    138725.92528477
  -Hartree energ DENC   =   -182933.29464346
  -exchange      EXHF   =         0.00000000
  -V(xc)+E(xc)   XCENC  =     -1693.77299114
  PAW double counting   =     46168.97008970   -42640.18024107
  entropy T*S    EENTRO =        -0.01500338
  eigenvalues    EBANDS =     -2964.52052724
  atomic energy  EATOM  =     45086.50549395
  Solvation  Ediel_sol  =         0.00000000
  ---------------------------------------------------
  free energy    TOTEN  =      -175.12822109 eV

  energy without entropy =     -175.11321771  energy(sigma->0) =     -175.12447024


--------------------------------------------------------------------------------------------------------




--------------------------------------- Iteration      1(  21)  ---------------------------------------


    POTLOK:  cpu time   15.4170: real time   15.4197
    SETDIJ:  cpu time    0.1329: real time    0.1329
    EDDIAG:  cpu time   94.0193: real time   94.0271
  RMM-DIIS:  cpu time  223.5035: real time  223.5227
    ORTHCH:  cpu time   25.5965: real time   25.5982
       DOS:  cpu time    0.0018: real time    0.0018
    CHARGE:  cpu time   31.0782: real time   31.0804
    MIXING:  cpu time    1.2637: real time    1.2638
    --------------------------------------------
      LOOP:  cpu time  391.0129: real time  391.0466

 eigenvalue-minimisations  :   701
 total energy-change (2. order) : 0.1068573E+00  (-0.1606376E-01)
 number of electron     559.9999833 magnetization 
 augmentation part      241.1047515 magnetization 

 Broyden mixing:
  rms(total) = 0.58131E+00    rms(broyden)= 0.58114E+00
  rms(prec ) = 0.69280E+00
  weight for this iteration     100.00

 eigenvalues of (default mixing * dielectric matrix)
  average eigenvalue GAMMA=   0.3608
  2.1451  1.3391  0.6761  0.2928  0.2928  0.1497  0.1497  0.1189  0.1189  0.0978
  0.0978  0.0846  0.0627  0.0559  0.0459  0.0459

 Free energy of the ion-electron system (eV)
  ---------------------------------------------------
  alpha Z        PSCENC =        75.25431677
  Ewald energy   TEWEN  =    138725.92528477
  -Hartree energ DENC   =   -182943.39084248
  -exchange      EXHF   =         0.00000000
  -V(xc)+E(xc)   XCENC  =     -1693.67099189
  PAW double counting   =     46165.84620017   -42636.62995971
  entropy T*S    EENTRO =        -0.03740667
  eigenvalues    EBANDS =     -2954.82345872
  atomic energy  EATOM  =     45086.50549395
  Solvation  Ediel_sol  =         0.00000000
  ---------------------------------------------------
  free energy    TOTEN  =      -175.02136380 eV

  energy without entropy =     -174.98395714  energy(sigma->0) =     -175.01201214


--------------------------------------------------------------------------------------------------------




--------------------------------------- Iteration      1(  22)  ---------------------------------------


    POTLOK:  cpu time   15.6129: real time   15.6156
    SETDIJ:  cpu time    0.1314: real time    0.1314
    EDDIAG:  cpu time   95.9122: real time   95.9226
  RMM-DIIS:  cpu time  226.1573: real time  226.1782
    ORTHCH:  cpu time   26.4990: real time   26.5008
       DOS:  cpu time    0.0018: real time    0.0018
    CHARGE:  cpu time   29.9186: real time   29.9205
    MIXING:  cpu time    1.2600: real time    1.2601
    --------------------------------------------
      LOOP:  cpu time  395.4931: real time  395.5310

 eigenvalue-minimisations  :   697
 total energy-change (2. order) : 0.9555687E-01  (-0.9754804E-02)
 number of electron     559.9999830 magnetization 
 augmentation part      241.1746243 magnetization 

 Broyden mixing:
  rms(total) = 0.43737E+00    rms(broyden)= 0.43725E+00
  rms(prec ) = 0.50941E+00
  weight for this iteration     100.00

 eigenvalues of (default mixing * dielectric matrix)
  average eigenvalue GAMMA=   0.3566
  2.2015  1.3820  0.6959  0.3058  0.3058  0.1749  0.1398  0.1398  0.1093  0.1093
  0.1032  0.1032  0.0824  0.0615  0.0555  0.0461  0.0461

 Free energy of the ion-electron system (eV)
  ---------------------------------------------------
  alpha Z        PSCENC =        75.25431677
  Ewald energy   TEWEN  =    138725.92528477
  -Hartree energ DENC   =   -182951.90457577
  -exchange      EXHF   =         0.00000000
  -V(xc)+E(xc)   XCENC  =     -1693.54492722
  PAW double counting   =     46161.46784237   -42631.88853591
  entropy T*S    EENTRO =        -0.06309202
  eigenvalues    EBANDS =     -2946.67761386
  atomic energy  EATOM  =     45086.50549395
  Solvation  Ediel_sol  =         0.00000000
  ---------------------------------------------------
  free energy    TOTEN  =      -174.92580693 eV

  energy without entropy =     -174.86271490  energy(sigma->0) =     -174.91003392


--------------------------------------------------------------------------------------------------------




--------------------------------------- Iteration      1(  23)  ---------------------------------------


    POTLOK:  cpu time   15.9589: real time   15.9618
    SETDIJ:  cpu time    0.1330: real time    0.1330
    EDDIAG:  cpu time   96.1555: real time   96.1631
  RMM-DIIS:  cpu time  226.8124: real time  226.8315
    ORTHCH:  cpu time   26.3961: real time   26.3978
       DOS:  cpu time    0.0018: real time    0.0018
    CHARGE:  cpu time   30.6942: real time   30.6963
    MIXING:  cpu time    1.2826: real time    1.2827
    --------------------------------------------
      LOOP:  cpu time  397.4344: real time  397.4679

 eigenvalue-minimisations  :   700
 total energy-change (2. order) : 0.7595804E-01  (-0.6373462E-02)
 number of electron     559.9999830 magnetization 
 augmentation part      241.1162222 magnetization 

 Broyden mixing:
  rms(total) = 0.30256E+00    rms(broyden)= 0.30244E+00
  rms(prec ) = 0.36312E+00
  weight for this iteration     100.00

 eigenvalues of (default mixing * dielectric matrix)
  average eigenvalue GAMMA=   0.3690
  2.3504  1.3271  0.7199  0.5355  0.2941  0.2941  0.1483  0.1483  0.1227  0.1129
[...]
 -0.007  -0.010   0.003   0.004   0.006  -0.007  -0.010   0.003
 -0.012  -0.017   0.005   0.008   0.010  -0.011  -0.017   0.005
 -0.014  -0.006   0.012   0.000   0.022  -0.014  -0.005   0.012
  0.000  -0.022  -0.007  -0.015   0.000   0.000  -0.021  -0.006
 -0.022   0.000   0.008  -0.006  -0.015  -0.021   0.000   0.008
 -0.017  -0.007   0.015   0.000   0.026  -0.016  -0.007   0.014
  0.000  -0.027  -0.008  -0.018   0.000   0.000  -0.026  -0.008
 -0.026   0.000   0.010  -0.007  -0.018  -0.025   0.000   0.010
 total augmentation occupancy for first ion, spin component:           1
  1.532  -0.035   0.009   0.030   0.009   0.080  -0.011  -0.002   0.029  -0.007   0.112  -0.036   0.013  -0.002   0.004  -0.019
 -0.035   1.393   0.034   0.066   0.012  -0.010   0.077   0.009  -0.009  -0.010   0.178  -0.053   0.018   0.006   0.001  -0.006
  0.009   0.034   1.540  -0.003   0.001  -0.002   0.010   0.076  -0.013   0.018  -0.045   0.015  -0.002  -0.008  -0.006   0.015
  0.030   0.066  -0.003   1.323   0.063   0.027  -0.008  -0.012   0.099  -0.026  -0.098   0.025  -0.004  -0.001  -0.005   0.001
  0.009   0.012   0.001   0.063   1.436  -0.007  -0.010   0.016  -0.026   0.067  -0.108   0.034  -0.002  -0.012  -0.009   0.026
  0.080  -0.010  -0.002   0.027  -0.007   0.215   0.019  -0.002  -0.043   0.002  -0.049   0.001   0.016  -0.009   0.034  -0.004
 -0.011   0.077   0.010  -0.008  -0.010   0.019   0.261  -0.022  -0.005   0.007  -0.107   0.009  -0.001   0.050  -0.009  -0.001
 -0.002   0.009   0.076  -0.012   0.016  -0.002  -0.022   0.215   0.013  -0.019   0.028  -0.001  -0.012   0.009  -0.017   0.003
  0.029  -0.009  -0.013   0.099  -0.026  -0.043  -0.005   0.013   0.258   0.009   0.043  -0.003  -0.008   0.034   0.005   0.000
 -0.007  -0.010   0.018  -0.026   0.067   0.002   0.007  -0.019   0.009   0.258   0.051  -0.003  -0.038   0.003   0.049   0.007
  0.112   0.178  -0.045  -0.098  -0.108  -0.049  -0.107   0.028   0.043   0.051   0.959  -0.141   0.084   0.014   0.064  -0.013
 -0.036  -0.053   0.015   0.025   0.034   0.001   0.009  -0.001  -0.003  -0.003  -0.141   0.022  -0.014  -0.003  -0.010   0.003
  0.013   0.018  -0.002  -0.004  -0.002   0.016  -0.001  -0.012  -0.008  -0.038   0.084  -0.014   0.029  -0.008  -0.004  -0.003
 -0.002   0.006  -0.008  -0.001  -0.012  -0.009   0.050   0.009   0.034   0.003   0.014  -0.003  -0.008   0.035   0.005   0.000
  0.004   0.001  -0.006  -0.005  -0.009   0.034  -0.009  -0.017   0.005   0.049   0.064  -0.010  -0.004   0.005   0.034  -0.000
 -0.019  -0.006   0.015   0.001   0.026  -0.004  -0.001   0.003   0.000   0.007  -0.013   0.003  -0.003   0.000  -0.000   0.001
  0.001  -0.028  -0.007  -0.019   0.000   0.001  -0.008  -0.002  -0.006   0.000  -0.003   0.001   0.000  -0.003  -0.000   0.000
 -0.028   0.001   0.012  -0.006  -0.020  -0.006   0.001   0.003  -0.001  -0.007  -0.008   0.001  -0.000  -0.000  -0.003   0.000


------------------------ aborting loop because EDIFF is reached ----------------------------------------


    CHARGE:  cpu time   35.3827: real time   35.3852
    FORLOC:  cpu time    7.4670: real time    7.4675
    FORNL :  cpu time   74.7342: real time   74.7393
    STRESS:  cpu time  246.0742: real time  246.0945
    FORCOR:  cpu time   28.6218: real time   28.6238
    FORHAR:  cpu time   11.3819: real time   11.3827
    MIXING:  cpu time    4.4289: real time    4.4292
    OFIELD:  cpu time    0.0001: real time    0.0001

  FORCE on cell =-STRESS in cart. coord.  units (eV):
  Direction    XX          YY          ZZ          XY          YZ          ZX
  --------------------------------------------------------------------------------------
  Alpha Z    75.25432    75.25432    75.25432
  Ewald   44357.70756 44612.28631 49755.82563   -44.95940   743.74114  -229.91829
  Hartree 59289.36336 59489.28446 64313.99687   -35.65336   659.74803  -199.96281
  E(xc)   -2905.79317 -2904.93522 -2903.10701    -0.13749     0.78041    -0.34199
  Local  ************************************    78.95771 -1391.36989   425.76918
  n-local  -882.42630  -883.77787  -891.01572     0.40110    -2.16324     0.49127
  augment  4106.26234  4103.98914  4100.95616     0.36731    -1.97762     0.96338
  Kinetic  7817.27624  7810.53825  7786.61675     1.34410    -9.42835     3.51750
  Fock        0.00000     0.00000     0.00000     0.00000     0.00000     0.00000
  -------------------------------------------------------------------------------------
  Total    -113.11536  -115.34196  -112.22420     0.31996    -0.66952     0.51825
  in kB      -6.71225    -6.84438    -6.65937     0.01899    -0.03973     0.03075
  external pressure =       -6.74 kB  Pullay stress =        0.00 kB


 VOLUME and BASIS-vectors are now :
 -----------------------------------------------------------------------------
  energy-cutoff  :      400.00
  volume of cell :    27000.00
      direct lattice vectors                 reciprocal lattice vectors
    30.000000000  0.000000000  0.000000000     0.033333333  0.000000000  0.000000000
     0.000000000 30.000000000  0.000000000     0.000000000  0.033333333  0.000000000
     0.000000000  0.000000000 30.000000000     0.000000000  0.000000000  0.033333333

  length of vectors
    30.000000000 30.000000000 30.000000000     0.033333333  0.033333333  0.033333333


 FORCES acting on ions
    electron-ion (+dipol)            ewald-force                    non-local-force                 convergence-correction
 -----------------------------------------------------------------------------------------------
   0.405E+03 0.990E+03 0.391E+03   -.402E+03 -.987E+03 -.390E+03   -.157E+01 -.184E+01 -.224E+00   -.833E-05 0.560E-02 -.644E-03
   -.986E+03 -.404E+03 0.400E+03   0.983E+03 0.402E+03 -.399E+03   0.183E+01 0.154E+01 -.196E+00   -.183E-02 0.824E-03 -.345E-02
   -.401E+03 0.992E+03 0.388E+03   0.399E+03 -.989E+03 -.387E+03   0.156E+01 -.182E+01 -.258E+00   -.179E-02 0.505E-02 0.902E-03
   0.985E+03 -.402E+03 0.403E+03   -.982E+03 0.400E+03 -.403E+03   -.183E+01 0.153E+01 -.197E+00   0.317E-02 0.241E-02 0.133E-03
   0.175E+02 0.675E+03 0.864E+03   -.174E+02 -.674E+03 -.861E+03   -.732E-02 -.123E+00 -.198E+01   -.244E-02 0.231E-02 0.285E-02
   0.319E+00 0.587E+03 -.969E+03   -.318E+00 -.586E+03 0.965E+03   -.886E-03 -.310E+00 0.236E+01   0.960E-03 -.566E-03 -.393E-02
   0.779E+00 0.114E+04 -.127E+02   -.769E+00 -.114E+04 0.127E+02   -.458E-02 -.310E+01 0.587E-01   0.671E-04 0.399E-02 0.121E-02
   0.114E+04 -.173E+01 -.813E+01   -.114E+04 0.173E+01 0.810E+01   -.310E+01 0.126E-02 0.170E-01   0.124E-02 -.605E-03 0.434E-02
   -.114E+04 -.207E+01 -.980E+01   0.114E+04 0.206E+01 0.976E+01   0.310E+01 0.224E-02 0.279E-01   -.366E-02 -.191E-02 0.248E-03
   0.419E+00 -.114E+04 -.662E+01   -.415E+00 0.113E+04 0.662E+01   -.242E-03 0.311E+01 0.321E-02   -.208E-02 -.133E-02 0.142E-03
   -.629E+03 0.611E+03 0.769E+03   0.627E+03 -.609E+03 -.765E+03   0.150E+01 -.151E+01 -.221E+01   -.483E-02 0.139E-02 0.276E-02
   -.579E+03 0.579E+03 -.816E+03   0.577E+03 -.576E+03 0.813E+03   0.156E+01 -.155E+01 0.221E+01   -.134E-02 0.391E-03 -.473E-02
   0.595E+03 -.600E+03 0.800E+03   -.593E+03 0.598E+03 -.796E+03   -.157E+01 0.156E+01 -.222E+01   0.191E-02 0.138E-02 -.149E-02
   0.579E+03 -.580E+03 -.815E+03   -.577E+03 0.578E+03 0.812E+03   -.155E+01 0.156E+01 0.221E+01   0.228E-02 0.284E-02 -.123E-02
   0.622E+03 0.600E+03 0.783E+03   -.619E+03 -.598E+03 -.779E+03   -.152E+01 -.154E+01 -.223E+01   0.499E-02 -.117E-03 0.821E-03
   0.580E+03 0.579E+03 -.816E+03   -.578E+03 -.576E+03 0.813E+03   -.156E+01 -.155E+01 0.221E+01   0.229E-03 0.873E-03 -.188E-02
   -.595E+03 -.606E+03 0.797E+03   0.592E+03 0.603E+03 -.794E+03   0.156E+01 0.156E+01 -.222E+01   -.133E-02 0.170E-02 0.166E-02
   -.579E+03 -.580E+03 -.815E+03   0.577E+03 0.578E+03 0.812E+03   0.155E+01 0.156E+01 0.221E+01   -.386E-02 -.107E-03 0.763E-03
   0.396E+03 0.974E+03 -.425E+03   -.394E+03 -.971E+03 0.424E+03   -.149E+01 -.183E+01 0.187E+00   0.208E-03 0.308E-02 -.118E-02
   -.974E+03 -.396E+03 -.423E+03   0.971E+03 0.394E+03 0.422E+03   0.184E+01 0.149E+01 0.207E+00   -.166E-02 -.346E-02 0.144E-02
   -.336E+03 0.324E+03 0.398E+03   0.337E+03 -.325E+03 -.398E+03   -.438E+00 0.380E+00 0.282E+00   -.394E-02 -.162E-02 0.210E-02
   0.989E+03 0.394E+03 0.399E+03   -.986E+03 -.392E+03 -.399E+03   -.183E+01 -.151E+01 -.234E+00   0.612E-02 -.472E-02 -.170E-03
   -.396E+03 -.986E+03 0.404E+03   0.394E+03 0.983E+03 -.404E+03   0.151E+01 0.183E+01 -.215E+00   -.796E-03 0.284E-02 -.160E-02
   -.395E+03 0.974E+03 -.425E+03   0.393E+03 -.971E+03 0.424E+03   0.149E+01 -.183E+01 0.185E+00   0.779E-03 0.438E-02 -.915E-03
   0.974E+03 -.396E+03 -.422E+03   -.971E+03 0.394E+03 0.422E+03   -.184E+01 0.149E+01 0.217E+00   0.401E-02 0.267E-02 0.386E-02
   -.991E+03 0.394E+03 0.394E+03   0.989E+03 -.392E+03 -.394E+03   0.182E+01 -.152E+01 -.247E+00   -.504E-02 -.535E-03 0.102E-02
   0.398E+03 -.985E+03 0.405E+03   -.396E+03 0.982E+03 -.404E+03   -.151E+01 0.183E+01 -.209E+00   0.298E-02 0.170E-02 0.211E-02
   0.342E+03 0.324E+03 0.406E+03   -.342E+03 -.324E+03 -.407E+03   0.425E+00 0.349E+00 0.370E+00   0.457E-02 -.396E-02 -.155E-03
   0.134E+01 0.644E+03 -.225E+02   -.134E+01 -.645E+03 0.224E+02   -.169E-02 0.722E+00 0.772E-01   0.936E-03 0.368E-02 -.176E-03
   -.644E+03 -.270E+02 0.918E+03   0.644E+03 0.271E+02 -.915E+03   0.124E+00 -.420E-01 -.236E+01   -.232E-02 0.750E-03 0.185E-02
   -.588E+03 -.101E+01 -.968E+03   0.587E+03 0.101E+01 0.965E+03   0.303E+00 0.102E-02 0.236E+01   -.893E-03 -.412E-02 -.281E-02
   0.634E+03 -.175E+02 0.934E+03   -.633E+03 0.175E+02 -.930E+03   -.224E+00 -.210E-01 -.240E+01   0.461E-02 -.307E-02 -.225E-02
   0.588E+03 -.961E+00 -.968E+03   -.587E+03 0.955E+00 0.964E+03   -.297E+00 0.173E-02 0.237E+01   -.853E-03 0.229E-02 -.111E-03
   0.768E+03 0.764E+03 -.152E+02   -.766E+03 -.762E+03 0.152E+02   -.115E+01 -.116E+01 0.311E-01   0.318E-02 -.771E-03 0.842E-03
   -.764E+03 -.767E+03 -.112E+02   0.762E+03 0.765E+03 0.113E+02   0.114E+01 0.113E+01 -.143E-01   -.235E-02 0.948E-03 -.342E-02
   -.767E+03 0.765E+03 -.175E+02   0.765E+03 -.763E+03 0.174E+02   0.115E+01 -.116E+01 0.478E-01   -.363E-02 0.156E-02 0.254E-02
   0.765E+03 -.767E+03 -.101E+02   -.763E+03 0.765E+03 0.101E+02   -.113E+01 0.113E+01 -.317E-01   0.213E-02 0.432E-02 0.516E-02
   0.341E+02 -.117E+03 0.896E+03   -.332E+02 0.114E+03 -.898E+03   -.577E+00 0.189E+01 0.195E+01   -.106E-03 -.434E-02 0.174E-02
   0.326E+00 -.112E+01 -.107E+04   -.316E+00 0.109E+01 0.107E+04   -.558E-02 0.220E-01 0.163E+01   -.112E-02 0.536E-03 -.239E-02
   0.975E+03 0.394E+03 -.423E+03   -.972E+03 -.392E+03 0.422E+03   -.183E+01 -.150E+01 0.203E+00   0.346E-02 -.163E-02 0.141E-02
   -.394E+03 -.975E+03 -.422E+03   0.392E+03 0.972E+03 0.421E+03   0.150E+01 0.183E+01 0.215E+00   -.805E-02 0.131E-02 0.113E-02
   -.322E+03 0.321E+03 -.464E+03   0.323E+03 -.321E+03 0.465E+03   -.354E+00 0.356E+00 -.541E+00   0.105E-02 -.319E-02 -.331E-02
   0.334E+03 -.340E+03 0.424E+03   -.334E+03 0.340E+03 -.424E+03   0.221E+00 -.265E+00 0.677E+00   0.224E-02 -.148E-02 0.294E-03
   0.323E+03 0.321E+03 -.464E+03   -.324E+03 -.321E+03 0.464E+03   0.357E+00 0.358E+00 -.533E+00   0.662E-03 -.242E-02 -.226E-02
   -.975E+03 0.394E+03 -.424E+03   0.972E+03 -.392E+03 0.423E+03   0.183E+01 -.150E+01 0.197E+00   -.526E-02 -.411E-02 0.316E-03
   0.395E+03 -.975E+03 -.422E+03   -.393E+03 0.972E+03 0.421E+03   -.150E+01 0.184E+01 0.221E+00   -.286E-02 -.300E-03 0.248E-02
   -.330E+03 -.342E+03 0.420E+03   0.330E+03 0.343E+03 -.421E+03   -.265E+00 -.331E+00 0.579E+00   -.891E-04 -.133E-02 -.186E-02
   0.647E+03 -.333E+01 -.161E+02   -.647E+03 0.333E+01 0.161E+02   0.716E+00 0.322E-02 0.246E-01   0.477E-02 -.281E-02 0.303E-02
   -.646E+03 -.382E+01 -.186E+02   0.647E+03 0.382E+01 0.185E+02   -.714E+00 0.621E-02 0.428E-01   -.534E-02 -.677E-02 0.505E-03
   0.339E+01 -.626E+03 0.944E+03   -.340E+01 0.625E+03 -.940E+03   0.507E-02 0.354E+00 -.245E+01   0.212E-02 0.189E-02 0.142E-02
   0.270E+00 -.588E+03 -.968E+03   -.260E+00 0.588E+03 0.964E+03   -.180E-02 0.291E+00 0.238E+01   -.688E-02 0.308E-02 -.111E-02
   0.142E+01 -.489E+01 -.239E+02   -.142E+01 0.490E+01 0.239E+02   -.874E-05 -.110E-02 0.244E-01   0.125E-02 -.590E-02 -.278E-03
   0.323E+03 -.324E+03 -.462E+03   -.323E+03 0.325E+03 0.463E+03   0.371E+00 -.371E+00 -.506E+00   -.193E-02 0.503E-02 0.272E-02
   -.322E+03 -.324E+03 -.462E+03   0.322E+03 0.325E+03 0.463E+03   -.367E+00 -.368E+00 -.515E+00   -.359E-02 -.338E-02 0.522E-03
   0.833E+00 -.647E+03 -.137E+02   -.832E+00 0.648E+03 0.137E+02   0.548E-03 -.719E+00 0.226E-02   -.363E-02 0.402E-02 0.114E-02
   -.176E+02 0.441E+02 0.262E+03   0.158E+02 -.388E+02 -.238E+03   0.938E+00 -.359E+01 -.185E+02   -.622E-03 -.773E-03 0.135E-02
   -.409E+02 0.135E+03 0.789E+03   0.445E+02 -.147E+03 -.853E+03   -.327E+01 0.118E+02 0.596E+02   -.677E-03 -.359E-03 0.180E-02
 -----------------------------------------------------------------------------------------------
   0.315E+01 -.105E+02 -.449E+02   0.171E-12 0.131E-11 -.102E-11   -.312E+01 0.105E+02 0.449E+02   -.249E-01 0.713E-02 0.152E-01
 
 
 POSITION                                       TOTAL-FORCE (eV/Angst)
 -----------------------------------------------------------------------------------
     13.37281      9.84801     12.50759         0.702205      1.089151      0.303527
     20.15199     16.62719     12.50759        -1.109168     -0.707373      0.284027
     16.62719      9.84801     12.50759        -0.699764      1.080487      0.318298
      9.84801     16.62719     12.50759         1.109702     -0.704128      0.284381
     15.00000     11.47521     10.20639         0.056477      0.735850      1.029663
     15.00000     11.47521     19.79360         0.000814      0.409516     -1.279783
     15.00000      8.28283     15.00000         0.004942      1.507535     -0.022762
      8.28283     15.00000     15.00000         1.509447     -0.005448     -0.006793
     21.71717     15.00000     15.00000        -1.507190     -0.005745     -0.010530
     15.00000     21.71717     15.00000         0.001505     -1.511989     -0.002960
     18.35858     11.64142     10.25025        -0.722534      0.732296      1.071164
     18.35858     11.64142     19.74975        -0.755262      0.752517     -1.072760
     11.64142     18.35858     10.25025         0.752741     -0.753838      1.070680
     11.64142     18.35858     19.74975         0.750646     -0.753334     -1.075085
     11.64142     11.64142     10.25025         0.733937      0.739051      1.072133
     11.64142     11.64142     19.74975         0.755401      0.751026     -1.073512
     18.35858     18.35858     10.25025        -0.751277     -0.751072      1.072866
     18.35858     18.35858     19.74975        -0.750220     -0.754134     -1.074485
     13.37281      9.84801     17.49241         0.697997      1.114007     -0.284706
     20.15199     16.62719     17.49241        -1.111014     -0.696679     -0.286748
     16.73751     13.26249     12.54279         0.168210     -0.145167     -0.094537
      9.84801     13.37281     12.50759         1.102208      0.699377      0.300069
     16.62719     20.15199     12.50759        -0.696162     -1.109051      0.290310
     16.62719      9.84801     17.49241        -0.699008      1.113507     -0.287295
      9.84801     16.62719     17.49241         1.110145     -0.697176     -0.290150
     20.15199     13.37281     12.50759        -1.096304      0.700886      0.306219
     13.37281     20.15199     12.50759         0.696766     -1.109866      0.289285
     13.26249     13.26249     12.54279        -0.173169     -0.140153     -0.108774
     15.00000     11.52498     15.00000         0.001106     -0.221353      0.001503
     18.52479     15.00000     10.20639        -0.369403      0.024776      1.319765
     18.52479     15.00000     19.79360        -0.407695     -0.001964     -1.280311
     11.47521     15.00000     10.20640         0.370099      0.021131      1.317985
     11.47521     15.00000     19.79360         0.405631     -0.002066     -1.280836
     11.49535     11.49535     15.00000         0.826001      0.830962     -0.001409
     18.50465     18.50465     15.00000        -0.822033     -0.816671      0.016138
     18.50465     11.49535     15.00000        -0.830615      0.833033     -0.006645
     11.49535     18.50465     15.00000         0.818750     -0.814516      0.021093
     15.00000     15.00000     10.04368         0.369207     -1.155316     -0.507757
     15.00000     15.00000     19.95633         0.003130     -0.011539     -1.184334
      9.84801     13.37281     17.49241         1.108246      0.698886     -0.289528
     16.62719     20.15199     17.49241        -0.698660     -1.107045     -0.289655
     16.73751     13.26249     17.45721         0.115372     -0.113039      0.154278
     13.26249     16.73751     12.54279        -0.079774      0.101297     -0.183434
     13.26249     13.26249     17.45721        -0.115323     -0.112522      0.154501
     20.15199     13.37281     17.49241        -1.110391      0.698901     -0.289762
     13.37281     20.15199     17.49241         0.698549     -1.107875     -0.291306
     16.73751     16.73751     12.54279         0.109778      0.140572     -0.143564
     11.52498     15.00000     15.00000        -0.218520      0.003771      0.002516
     18.47502     15.00000     15.00000         0.219527      0.000798      0.001929
     15.00000     18.52480     10.20639        -0.004912     -0.404717      1.310011
     15.00000     18.52480     19.79360         0.001208     -0.401402     -1.281680
     15.00000     15.00000     15.00000         0.001158     -0.001053     -0.003416
     13.26249     16.73751     17.45721        -0.114727      0.114071      0.149487
     16.73751     16.73751     17.45721         0.114404      0.114214      0.150398
     15.00000     18.47502     15.00000        -0.001386      0.215041     -0.000894
     15.38342     13.68025      8.36368        -0.795009      1.723352      5.673221
     15.44724     13.46059      7.25912         0.324212     -0.829779     -3.960036
 -----------------------------------------------------------------------------------
    total drift:                               -0.002851      0.001550      0.003893


--------------------------------------------------------------------------------------------------------



  FREE ENERGIE OF THE ION-ELECTRON SYSTEM (eV)
  ---------------------------------------------------
  free  energy   TOTEN  =      -174.78951208 eV

  energy  without entropy=     -174.74057656  energy(sigma->0) =     -174.77727820
 


--------------------------------------------------------------------------------------------------------


    POTLOK:  cpu time   17.1342: real time   17.1355


--------------------------------------------------------------------------------------------------------


     LOOP+:  cpu time23226.9851: real time23229.2274
    4ORBIT:  cpu time    0.0000: real time    0.0000

 total amount of memory used by VASP MPI-rank0  5486942. kBytes
=======================================================================

   base      :      30000. kBytes
   nonlr-proj:      17127. kBytes
   fftplans  :     924480. kBytes
   grid      :    1872000. kBytes
   one-center:        886. kBytes
   wavefun   :    2642449. kBytes
 
  
  
 General timing and accounting informations for this job:
 ========================================================
  
                  Total CPU time used (sec):    23323.922
                            User time (sec):    21814.577
                          System time (sec):     1509.344
                         Elapsed time (sec):    23326.195
  
                   Maximum memory used (kb):     7181048.
                   Average memory used (kb):           0.
  
                          Minor page faults:    783753492
                          Major page faults:            0
                 Voluntary context switches:          687
