 vasp.5.4.4.18Apr17-6-g9f103f2a35 (build Sep 03 2018 23:53:05) complex          
  
 executed on             LinuxIFC date 2021.12.03  00:28:42
 running on    1 total cores
 distrk:  each k-point on    1 cores,    1 groups
 distr:  one band on NCORES_PER_BAND=   1 cores,    1 groups


--------------------------------------------------------------------------------------------------------


 INCAR:
 POTCAR:    PAW_PBE Pd 04Jan2005                  
 POTCAR:    PAW_PBE C 08Apr2002                   
 POTCAR:    PAW_PBE O 08Apr2002                   
 POTCAR:    PAW_PBE Pd 04Jan2005                  
   VRHFIN =Pd : s1 d9                                                           
   LEXCH  = PE                                                                  
   EATOM  =   809.7530 eV,   59.5152 Ry                                         
                                                                                
   TITEL  = PAW_PBE Pd 04Jan2005                                                
   LULTRA =        F    use ultrasoft PP ?                                      
   IUNSCR =        1    unscreen: 0-lin 1-nonlin 2-no                           
   RPACOR =    2.000    partial core radius                                     
   POMASS =  106.420; ZVAL   =   10.000    mass and valenz                      
   RCORE  =    2.600    outmost cutoff radius                                   
   RWIGS  =    2.710; RWIGS  =    1.434    wigner-seitz radius (au A)           
   ENMAX  =  250.925; ENMIN  =  188.194 eV                                      
   ICORE  =        3    local potential                                         
   LCOR   =        T    correct aug charges                                     
   LPAW   =        T    paw PP                                                  
   EAUG   =  416.230                                                            
   DEXC   =    0.000                                                            
   RMAX   =    2.653    core radius for proj-oper                               
   RAUG   =    1.300    factor for augmentation sphere                          
   RDEP   =    2.734    radius for radial grids                                 
   RDEPT  =    2.103    core radius for aug-charge                              
                                                                                
   Atomic configuration                                                         
   12 entries                                                                   
     n  l   j            E        occ.                                          
     1  0  0.50    -24164.6631   2.0000                                         
     2  0  0.50     -3530.9218   2.0000                                         
     2  1  1.50     -3165.6822   6.0000                                         
     3  0  0.50      -639.4577   2.0000                                         
     3  1  1.50      -519.4532   6.0000                                         
     3  2  2.50      -328.9757  10.0000                                         
     4  0  0.50       -88.7014   2.0000                                         
     4  1  1.50       -54.4540   6.0000                                         
     4  2  2.50        -6.6878   9.0000                                         
     5  0  0.50        -4.3543   1.0000                                         
     5  1  0.50        -1.3606   0.0000                                         
     4  3  2.50        -1.3606   0.0000                                         
   Description                                                                  
     l       E           TYP  RCUT    TYP  RCUT                                 
     2     -6.6878251     23  2.400                                             
     2     -8.0484077     23  2.400                                             
     0     -4.3542939     23  2.400                                             
     0      4.3406793     23  2.400                                             
     1     -4.0817478     23  2.600                                             
     1     15.8380318     23  2.600                                             
     3     -4.0817478     23  2.400                                             
  local pseudopotential read in
  partial core-charges read in
  partial kinetic energy density read in
  atomic valenz-charges read in
  non local Contribution for L=           2  read in
    real space projection operators read in
  non local Contribution for L=           2  read in
    real space projection operators read in
  non local Contribution for L=           0  read in
    real space projection operators read in
  non local Contribution for L=           0  read in
    real space projection operators read in
  non local Contribution for L=           1  read in
    real space projection operators read in
  non local Contribution for L=           1  read in
    real space projection operators read in
    PAW grid and wavefunctions read in
 
   number of l-projection  operators is LMAX  =           6
   number of lm-projection operators is LMMAX =          18
 
 POTCAR:    PAW_PBE C 08Apr2002                   
   VRHFIN =C: s2p2                                                              
   LEXCH  = PE                                                                  
   EATOM  =   147.1560 eV,   10.8157 Ry                                         
                                                                                
   TITEL  = PAW_PBE C 08Apr2002                                                 
   LULTRA =        F    use ultrasoft PP ?                                      
   IUNSCR =        1    unscreen: 0-lin 1-nonlin 2-no                           
   RPACOR =    1.200    partial core radius                                     
   POMASS =   12.011; ZVAL   =    4.000    mass and valenz                      
   RCORE  =    1.500    outmost cutoff radius                                   
   RWIGS  =    1.630; RWIGS  =    0.863    wigner-seitz radius (au A)           
   ENMAX  =  400.000; ENMIN  =  300.000 eV                                      
   ICORE  =        2    local potential                                         
   LCOR   =        T    correct aug charges                                     
   LPAW   =        T    paw PP                                                  
   EAUG   =  644.873                                                            
   DEXC   =    0.000                                                            
   RMAX   =    1.529    core radius for proj-oper                               
   RAUG   =    1.300    factor for augmentation sphere                          
   RDEP   =    1.501    radius for radial grids                                 
   RDEPT  =    1.300    core radius for aug-charge                              
                                                                                
   Atomic configuration                                                         
    4 entries                                                                   
     n  l   j            E        occ.                                          
     1  0  0.50      -273.3789   2.0000                                         
     2  0  0.50       -13.7508   2.0000                                         
     2  1  0.50        -5.2854   2.0000                                         
     3  2  1.50        -5.4423   0.0000                                         
   Description                                                                  
     l       E           TYP  RCUT    TYP  RCUT                                 
     0    -13.7508458     23  1.200                                             
     0     -8.2022199     23  1.200                                             
     1     -5.2854383     23  1.500                                             
     1     34.0145650     23  1.500                                             
     2     -5.4423304      7  1.500                                             
  local pseudopotential read in
  partial core-charges read in
  partial kinetic energy density read in
  atomic valenz-charges read in
  non local Contribution for L=           0  read in
    real space projection operators read in
  non local Contribution for L=           0  read in
    real space projection operators read in
  non local Contribution for L=           1  read in
    real space projection operators read in
  non local Contribution for L=           1  read in
    real space projection operators read in
    PAW grid and wavefunctions read in
 
   number of l-projection  operators is LMAX  =           4
   number of lm-projection operators is LMMAX =           8
 
 POTCAR:    PAW_PBE O 08Apr2002                   
   VRHFIN =O: s2p4                                                              
   LEXCH  = PE                                                                  
   EATOM  =   432.3788 eV,   31.7789 Ry                                         
                                                                                
   TITEL  = PAW_PBE O 08Apr2002                                                 
   LULTRA =        F    use ultrasoft PP ?                                      
   IUNSCR =        1    unscreen: 0-lin 1-nonlin 2-no                           
   RPACOR =    1.200    partial core radius                                     
   POMASS =   16.000; ZVAL   =    6.000    mass and valenz                      
   RCORE  =    1.520    outmost cutoff radius                                   
   RWIGS  =    1.550; RWIGS  =    0.820    wigner-seitz radius (au A)           
   ENMAX  =  400.000; ENMIN  =  300.000 eV                                      
   ICORE  =        2    local potential                                         
   LCOR   =        T    correct aug charges                                     
   LPAW   =        T    paw PP                                                  
   EAUG   =  605.392                                                            
   DEXC   =    0.000                                                            
   RMAX   =    1.553    core radius for proj-oper                               
   RAUG   =    1.300    factor for augmentation sphere                          
   RDEP   =    1.550    radius for radial grids                                 
   RDEPT  =    1.329    core radius for aug-charge                              
                                                                                
   Atomic configuration                                                         
    4 entries                                                                   
     n  l   j            E        occ.                                          
     1  0  0.50      -514.6923   2.0000                                         
     2  0  0.50       -23.9615   2.0000                                         
     2  1  0.50        -9.0305   4.0000                                         
     3  2  1.50        -9.5241   0.0000                                         
   Description                                                                  
     l       E           TYP  RCUT    TYP  RCUT                                 
     0    -23.9615318     23  1.200                                             
     0     -9.5240782     23  1.200                                             
     1     -9.0304911     23  1.520                                             
     1      8.1634956     23  1.520                                             
     2     -9.5240782      7  1.500                                             
  local pseudopotential read in
  partial core-charges read in
  partial kinetic energy density read in
  kinetic energy density of atom read in
  atomic valenz-charges read in
  non local Contribution for L=           0  read in
    real space projection operators read in
  non local Contribution for L=           0  read in
    real space projection operators read in
  non local Contribution for L=           1  read in
    real space projection operators read in
  non local Contribution for L=           1  read in
    real space projection operators read in
    PAW grid and wavefunctions read in
 
   number of l-projection  operators is LMAX  =           4
   number of lm-projection operators is LMMAX =           8
 
 Optimization of the real space projectors (new method)

 maximal supplied QI-value         = 14.36
 optimisation between [QCUT,QGAM] = [ 10.20, 20.39] = [ 29.12,116.47] Ry 
 Optimized for a Real-space Cutoff    1.51 Angstroem

   l    n(q)    QCUT    max X(q) W(low)/X(q) W(high)/X(q)  e(spline) 
   2      8    10.197    59.108    0.26E-03    0.14E-03    0.96E-07
   2      8    10.197    58.101    0.27E-03    0.14E-03    0.98E-07
   0      9    10.197   102.235    0.54E-04    0.60E-05    0.72E-07
   0      9    10.197    58.388    0.52E-04    0.60E-05    0.68E-07
   1      9    10.197    22.191    0.18E-03    0.25E-03    0.79E-07
   1      9    10.197    15.590    0.15E-03    0.21E-03    0.69E-07
 Optimization of the real space projectors (new method)

 maximal supplied QI-value         = 25.13
 optimisation between [QCUT,QGAM] = [ 10.05, 20.36] = [ 28.30,116.06] Ry 
 Optimized for a Real-space Cutoff    1.30 Angstroem

   l    n(q)    QCUT    max X(q) W(low)/X(q) W(high)/X(q)  e(spline) 
   0      8    10.053   115.676    0.49E-03    0.72E-03    0.18E-06
   0      8    10.053    87.132    0.49E-03    0.71E-03    0.18E-06
   1      7    10.053     4.429    0.32E-03    0.31E-03    0.18E-06
   1      7    10.053     2.733    0.23E-03    0.19E-03    0.20E-06
 Optimization of the real space projectors (new method)

 maximal supplied QI-value         = 24.76
 optimisation between [QCUT,QGAM] = [ 10.15, 20.30] = [ 28.85,115.39] Ry 
 Optimized for a Real-space Cutoff    1.38 Angstroem

   l    n(q)    QCUT    max X(q) W(low)/X(q) W(high)/X(q)  e(spline) 
   0      8    10.150    20.381    0.22E-03    0.32E-03    0.29E-06
   0      8    10.150    15.268    0.23E-03    0.35E-03    0.30E-06
   1      8    10.150     5.964    0.46E-03    0.53E-03    0.21E-06
   1      8    10.150     5.382    0.38E-03    0.45E-03    0.19E-06

 ----------------------------------------------------------------------------- 
|                                                                             |
|  ADVICE TO THIS USER RUNNING 'VASP/VAMP'   (HEAR YOUR MASTER'S VOICE ...):  |
|                                                                             |
|      You enforced a specific xc-type in the INCAR file,                     |
|      a different type was found on the POTCAR file                          |
|          I HOPE YOU KNOW, WHAT YOU ARE  DOING                               |
|                                                                             |
 ----------------------------------------------------------------------------- 

  PAW_PBE Pd 04Jan2005                  :
 energy of atom  1       EATOM= -809.7530
 kinetic energy error for atom=    0.0091 (will be added to EATOM!!)
  PAW_PBE C 08Apr2002                   :
 energy of atom  2       EATOM= -147.1560
 kinetic energy error for atom=    0.0288 (will be added to EATOM!!)
  PAW_PBE O 08Apr2002                   :
 energy of atom  3       EATOM= -432.3788
 kinetic energy error for atom=    0.1156 (will be added to EATOM!!)
 
 
 POSCAR: Pd55PES                                 
  positions in cartesian coordinates
  No initial velocities read in
 exchange correlation table for  LEXCH =        9
   RHO(1)=    0.500       N(1)  =     2000
   RHO(2)=  100.500       N(2)  =     4000
 


--------------------------------------------------------------------------------------------------------


 ion  position               nearest neighbor table
   1  0.446  0.328  0.417-   3 3.25   5 3.25   7 3.36  15 3.36  29 3.42  28 3.42
   2  0.672  0.554  0.417-  26 3.25  30 3.25  17 3.36   9 3.36  47 3.42  49 3.42
   3  0.554  0.328  0.417-   1 3.25   5 3.25   7 3.36  11 3.36  29 3.42  21 3.42
   4  0.328  0.554  0.417-  32 3.25  22 3.25  13 3.36   8 3.36  43 3.42  48 3.42
   5  0.500  0.383  0.340-   1 3.25   3 3.25  11 3.36  15 3.36  21 3.42  28 3.42
   6  0.500  0.383  0.660-  24 3.25  19 3.25  16 3.36  12 3.36  42 3.42  44 3.42
   7  0.500  0.276  0.500-  29 3.24   3 3.36   1 3.36  19 3.36  24 3.36
   8  0.276  0.500  0.500-  48 3.24  22 3.36  40 3.36   4 3.36  25 3.36
   9  0.724  0.500  0.500-  49 3.24  26 3.36  45 3.36   2 3.36  20 3.36
  10  0.500  0.724  0.500-  55 3.24  27 3.36  23 3.36  46 3.36  41 3.36
  11  0.612  0.388  0.342-  21 3.24   5 3.36   3 3.36  30 3.36  26 3.36
  12  0.612  0.388  0.658-  42 3.24  24 3.36  45 3.36   6 3.36  31 3.36
  13  0.388  0.612  0.342-  43 3.24  32 3.36  50 3.36   4 3.36  27 3.36
  14  0.388  0.612  0.658-  53 3.24  25 3.36  33 3.36  51 3.36  46 3.36
  15  0.388  0.388  0.342-  28 3.24   5 3.36   1 3.36  32 3.36  22 3.36
  16  0.388  0.388  0.658-  44 3.24  19 3.36  40 3.36   6 3.36  33 3.36
  17  0.612  0.612  0.342-  47 3.24  30 3.36  50 3.36   2 3.36  23 3.36
  18  0.612  0.612  0.658-  54 3.24  31 3.36  20 3.36  51 3.36  41 3.36
  19  0.446  0.328  0.583-   6 3.25  24 3.25  16 3.36   7 3.36  44 3.42  29 3.42
  20  0.672  0.554  0.583-  31 3.25  45 3.25  18 3.36   9 3.36  54 3.42  49 3.42
  21  0.558  0.442  0.418-  11 3.24   5 3.42   3 3.42  30 3.42  26 3.42
  22  0.328  0.446  0.417-   4 3.25  32 3.25   8 3.36  15 3.36  48 3.42  28 3.42
  23  0.554  0.672  0.417-  27 3.25  50 3.25  10 3.36  17 3.36  55 3.42  47 3.42
  24  0.554  0.328  0.583-   6 3.25  19 3.25  12 3.36   7 3.36  42 3.42  29 3.42
  25  0.328  0.554  0.583-  33 3.25  40 3.25  14 3.36   8 3.36  53 3.42  48 3.42
  26  0.672  0.446  0.417-   2 3.25  30 3.25   9 3.36  11 3.36  49 3.42  21 3.42
  27  0.446  0.672  0.417-  23 3.25  50 3.25  10 3.36  13 3.36  55 3.42  43 3.42
  28  0.442  0.442  0.418-  15 3.24   5 3.42   1 3.42  32 3.42  22 3.42
  29  0.500  0.384  0.500-   7 3.24   3 3.42   1 3.42  24 3.42  19 3.42
  30  0.617  0.500  0.340-   2 3.25  26 3.25  17 3.36  11 3.36  47 3.42  21 3.42
  31  0.617  0.500  0.660-  20 3.25  45 3.25  18 3.36  12 3.36  54 3.42  42 3.42
  32  0.383  0.500  0.340-   4 3.25  22 3.25  13 3.36  15 3.36  43 3.42  28 3.42
  33  0.383  0.500  0.660-  25 3.25  40 3.25  14 3.36  16 3.36  53 3.42  44 3.42
  34  0.383  0.383  0.500-
  35  0.617  0.617  0.500-
  36  0.617  0.383  0.500-
  37  0.383  0.617  0.500-
  38  0.500  0.500  0.335-
  39  0.500  0.500  0.665-
  40  0.328  0.446  0.583-  33 3.25  25 3.25  16 3.36   8 3.36  44 3.42  48 3.42
  41  0.554  0.672  0.583-  46 3.25  51 3.25  10 3.36  18 3.36  54 3.42  55 3.42
  42  0.558  0.442  0.582-  12 3.24   6 3.42  24 3.42  31 3.42  45 3.42
  43  0.442  0.558  0.418-  13 3.24   4 3.42  32 3.42  27 3.42  50 3.42
  44  0.442  0.442  0.582-  16 3.24   6 3.42  19 3.42  33 3.42  40 3.42
  45  0.672  0.446  0.583-  20 3.25  31 3.25   9 3.36  12 3.36  49 3.42  42 3.42
  46  0.446  0.672  0.583-  41 3.25  51 3.25  10 3.36  14 3.36  53 3.42  55 3.42
  47  0.558  0.558  0.418-  17 3.24   2 3.42  30 3.42  23 3.42  50 3.42
  48  0.384  0.500  0.500-   8 3.24   4 3.42  22 3.42  25 3.42  40 3.42
  49  0.616  0.500  0.500-   9 3.24   2 3.42  26 3.42  20 3.42  45 3.42
  50  0.500  0.617  0.340-  27 3.25  23 3.25  13 3.36  17 3.36  43 3.42  47 3.42
  51  0.500  0.617  0.660-  41 3.25  46 3.25  14 3.36  18 3.36  53 3.42  54 3.42
  52  0.500  0.500  0.500-
  53  0.442  0.558  0.582-  14 3.24  25 3.42  33 3.42  51 3.42  46 3.42
  54  0.558  0.558  0.582-  18 3.24  31 3.42  20 3.42  51 3.42  41 3.42
  55  0.500  0.616  0.500-  10 3.24  23 3.42  27 3.42  41 3.42  46 3.42
  56  0.475  0.484  0.240-  57 1.13
  57  0.471  0.482  0.203-  56 1.13
 
  LATTYP: Found a simple cubic cell.
 ALAT       =    30.0000000000
  
  Lattice vectors:
  
 A1 = (  30.0000000000,   0.0000000000,   0.0000000000)
 A2 = (   0.0000000000,  30.0000000000,   0.0000000000)
 A3 = (   0.0000000000,   0.0000000000,  30.0000000000)


Analysis of symmetry for initial positions (statically):
=====================================================================
 Subroutine PRICEL returns:
 Original cell was already a primitive cell.
 

 Routine SETGRP: Setting up the symmetry group for a 
 simple cubic supercell.


 Subroutine GETGRP returns: Found  1 space group operations
 (whereof  1 operations were pure point group operations)
 out of a pool of 48 trial point group operations.


The static configuration has the point symmetry C_1 .


Analysis of symmetry for dynamics (positions and initial velocities):
=====================================================================
 Subroutine PRICEL returns:
 Original cell was already a primitive cell.
 

 Routine SETGRP: Setting up the symmetry group for a 
 simple cubic supercell.


 Subroutine GETGRP returns: Found  1 space group operations
 (whereof  1 operations were pure point group operations)
 out of a pool of 48 trial point group operations.


The dynamic configuration has the point symmetry C_1 .


Analysis of constrained symmetry for selective dynamics:
=====================================================================
 Subroutine PRICEL returns:
 Original cell was already a primitive cell.
 

 Routine SETGRP: Setting up the symmetry group for a 
 simple cubic supercell.


 Subroutine GETGRP returns: Found  1 space group operations
 (whereof  1 operations were pure point group operations)
 out of a pool of 48 trial point group operations.


The constrained configuration has the point symmetry C_1 .


 Subroutine INISYM returns: Found  1 space group operations
 (whereof  1 operations are pure point group operations),
 and found     1 'primitive' translations

 
 
 KPOINTS: K-points                                

Automatic generation of k-mesh.
Space group operators:
 irot       det(A)        alpha          n_x          n_y          n_z        tau_x        tau_y        tau_z
    1     1.000000     0.000000     1.000000     0.000000     0.000000     0.000000     0.000000     0.000000
 
 Subroutine IBZKPT returns following result:
 ===========================================
 
 Found      1 irreducible k-points:
 
 Following reciprocal coordinates:
            Coordinates               Weight
  0.000000  0.000000  0.000000      1.000000
 
 Following cartesian coordinates:
            Coordinates               Weight
  0.000000  0.000000  0.000000      1.000000
 


--------------------------------------------------------------------------------------------------------




 Dimension of arrays:
   k-points           NKPTS =      1   k-points in BZ     NKDIM =      1   number of bands    NBANDS=    336
   number of dos      NEDOS =    301   number of ions     NIONS =     57
   non local maximal  LDIM  =      6   non local SUM 2l+1 LMDIM =     18
   total plane-waves  NPLWV = ******
   max r-space proj   IRMAX =   1847   max aug-charges    IRDMAX=   6262
   dimension x,y,z NGX =   150 NGY =  150 NGZ =  150
   dimension x,y,z NGXF=   300 NGYF=  300 NGZF=  300
   support grid    NGXF=   300 NGYF=  300 NGZF=  300
   ions per type =              55   1   1
   NGX,Y,Z   is equivalent  to a cutoff of   8.31,  8.31,  8.31 a.u.
   NGXF,Y,Z  is equivalent  to a cutoff of  16.62, 16.62, 16.62 a.u.

 SYSTEM =  6_Pd100_top_free_z(O)                   
 POSCAR =  Pd55PES                                 

 Startparameter for this run:
   NWRITE =      2    write-flag & timer
   PREC   = normal    normal or accurate (medium, high low for compatibility)
   ISTART =      0    job   : 0-new  1-cont  2-samecut
   ICHARG =      2    charge: 1-file 2-atom 10-const
   ISPIN  =      1    spin polarized calculation?
   LNONCOLLINEAR =      F non collinear calculations
   LSORBIT =      F    spin-orbit coupling
   INIWAV =      1    electr: 0-lowe 1-rand  2-diag
   LASPH  =      F    aspherical Exc in radial PAW
   METAGGA=      F    non-selfconsistent MetaGGA calc.

 Electronic Relaxation 1
   ENCUT  =  400.0 eV  29.40 Ry    5.42 a.u.  48.92 48.92 48.92*2*pi/ulx,y,z
   ENINI  =  400.0     initial cutoff
   ENAUG  =  644.9 eV  augmentation charge cutoff
   NELM   =    100;   NELMIN=  6; NELMDL= -5     # of ELM steps 
   EDIFF  = 0.1E-03   stopping-criterion for ELM
   LREAL  =      T    real-space projection
   NLSPLINE    = F    spline interpolate recip. space projectors
   LCOMPAT=      F    compatible to vasp.4.4
   GGA_COMPAT  = T    GGA compatible to vasp.4.4-vasp.4.6
   LMAXPAW     = -100 max onsite density
   LMAXMIX     =    2 max onsite mixed and CHGCAR
   VOSKOWN=      0    Vosko Wilk Nusair interpolation
   ROPT   =   -0.00050  -0.00050  -0.00050
 Ionic relaxation
   EDIFFG = -.5E-01   stopping-criterion for IOM
   NSW    =      0    number of steps for IOM
   NBLOCK =      1;   KBLOCK =      1    inner block; outer block 
   IBRION =     -1    ionic relax: 0-MD 1-quasi-New 2-CG
   NFREE  =      1    steps in history (QN), initial steepest desc. (CG)
   ISIF   =      2    stress and relaxation
   IWAVPR =     10    prediction:  0-non 1-charg 2-wave 3-comb
   ISYM   =      2    0-nonsym 1-usesym 2-fastsym
   LCORR  =      T    Harris-Foulkes like correction to forces

   POTIM  = 0.5000    time-step for ionic-motion
   TEIN   =    0.0    initial temperature
   TEBEG  =    0.0;   TEEND  =   0.0 temperature during run
   SMASS  =  -3.00    Nose mass-parameter (am)
   estimated Nose-frequenzy (Omega)   =  0.10E-29 period in steps =****** mass=  -0.206E-25a.u.
   SCALEE = 1.0000    scale energy and forces
   NPACO  =    256;   APACO  = 16.0  distance and # of slots for P.C.
   PSTRESS=    0.0 pullay stress

  Mass of Ions in am
   POMASS = 106.42 12.01 16.00
  Ionic Valenz
   ZVAL   =  10.00  4.00  6.00
  Atomic Wigner-Seitz radii
   RWIGS  =  -1.00 -1.00 -1.00
  virtual crystal weights 
   VCA    =   1.00  1.00  1.00
   NELECT =     560.0000    total number of electrons
   NUPDOWN=      -1.0000    fix difference up-down

 DOS related values:
   EMIN   =  10.00;   EMAX   =-10.00  energy-range for DOS
   EFERMI =   0.00
   ISMEAR =     2;   SIGMA  =   0.20  broadening in eV -4-tet -1-fermi 0-gaus

 Electronic relaxation 2 (details)
   IALGO  =     68    algorithm
   LDIAG  =      T    sub-space diagonalisation (order eigenvalues)
   LSUBROT=      F    optimize rotation matrix (better conditioning)
   TURBO    =      0    0=normal 1=particle mesh
   IRESTART =      0    0=no restart 2=restart with 2 vectors
   NREBOOT  =      0    no. of reboots
   NMIN     =      0    reboot dimension
   EREF     =   0.00    reference energy to select bands
   IMIX   =      4    mixing-type and parameters
     AMIX     =   0.40;   BMIX     =  1.00
     AMIX_MAG =   1.60;   BMIX_MAG =  1.00
     AMIN     =   0.10
     WC   =   100.;   INIMIX=   1;  MIXPRE=   1;  MAXMIX= -45

 Intra band minimization:
   WEIMIN = 0.0000     energy-eigenvalue tresh-hold
   EBREAK =  0.74E-07  absolut break condition
   DEPER  =   0.30     relativ break condition  

   TIME   =   0.40     timestep for ELM

  volume/ion in A,a.u.               =     473.68      3196.58
  Fermi-wavevector in a.u.,A,eV,Ry     =   0.449797  0.849992  2.752691  0.202317
  Thomas-Fermi vector in A             =   1.430086
 
 Write flags
   LWAVE        =      F    write WAVECAR
   LDOWNSAMPLE  =      F    k-point downsampling of WAVECAR
   LCHARG       =      F    write CHGCAR
   LVTOT        =      F    write LOCPOT, total local potential
   LVHAR        =      F    write LOCPOT, Hartree potential only
   LELF         =      F    write electronic localiz. function (ELF)
   LORBIT       =      0    0 simple, 1 ext, 2 COOP (PROOUT), +10 PAW based schemes


 Dipole corrections
   LMONO  =      F    monopole corrections only (constant potential shift)
   LDIPOL =      F    correct potential (dipole corrections)
   IDIPOL =      0    1-x, 2-y, 3-z, 4-all directions 
   EPSILON=  1.0000000 bulk dielectric constant

 Exchange correlation treatment:
   GGA     =    RP    GGA type
   LEXCH   =     9    internal setting for exchange type
   VOSKOWN=      0    Vosko Wilk Nusair interpolation
   LHFCALC =     F    Hartree Fock is set to
   LHFONE  =     F    Hartree Fock one center treatment
   AEXX    =    0.0000 exact exchange contribution

 Linear response parameters
   LEPSILON=     F    determine dielectric tensor
   LRPA    =     F    only Hartree local field effects (RPA)
   LNABLA  =     F    use nabla operator in PAW spheres
   LVEL    =     F    velocity operator in full k-point grid
   LINTERFAST=   F  fast interpolation
   KINTER  =     0    interpolate to denser k-point grid
   CSHIFT  =0.1000    complex shift for real part using Kramers Kronig
   OMEGAMAX=  -1.0    maximum frequency
   DEG_THRESHOLD= 0.2000000E-02 threshold for treating states as degnerate
   RTIME   =   -0.100 relaxation time in fs
  (WPLASMAI=    0.000 imaginary part of plasma frequency in eV, 0.658/RTIME)
   DFIELD  = 0.0000000 0.0000000 0.0000000 field for delta impulse in time
 
 Orbital magnetization related:
   ORBITALMAG=     F  switch on orbital magnetization
   LCHIMAG   =     F  perturbation theory with respect to B field
   DQ        =  0.001000  dq finite difference perturbation B field
   LLRAUG    =     F  two centre corrections for induced B field



--------------------------------------------------------------------------------------------------------


 Static calculation
 charge density and potential will be updated during run
 non-spin polarized calculation
 RMM-DIIS sequential band-by-band and
  variant of blocked Davidson during initial phase
 perform sub-space diagonalisation
    before iterative eigenvector-optimisation
 modified Broyden-mixing scheme, WC =      100.0
 initial mixing is a Kerker type mixing with AMIX =  0.4000 and BMIX =      1.0000
 Hartree-type preconditioning will be used
 using additional bands           56
 real space projection scheme for non local part
 use partial core corrections
 calculate Harris-corrections to forces 
   (improved forces if not selfconsistent)
 use gradient corrections 
 use of overlap-Matrix (Vanderbilt PP)
 Methfessel and Paxton  Order N= 2 SIGMA  =   0.20


--------------------------------------------------------------------------------------------------------


  energy-cutoff  :      400.00
  volume of cell :    27000.00
      direct lattice vectors                 reciprocal lattice vectors
    30.000000000  0.000000000  0.000000000     0.033333333  0.000000000  0.000000000
     0.000000000 30.000000000  0.000000000     0.000000000  0.033333333  0.000000000
     0.000000000  0.000000000 30.000000000     0.000000000  0.000000000  0.033333333

  length of vectors
    30.000000000 30.000000000 30.000000000     0.033333333  0.033333333  0.033333333


 
 k-points in units of 2pi/SCALE and weight: K-points                                
   0.00000000  0.00000000  0.00000000       1.000
 
 k-points in reciprocal lattice and weights: K-points                                
   0.00000000  0.00000000  0.00000000       1.000
 
 position of ions in fractional coordinates (direct lattice) 
   0.44576020  0.32826710  0.41691983
   0.67173288  0.55423978  0.41691983
   0.55423980  0.32826710  0.41691983
   0.32826712  0.55423978  0.41691983
   0.50000000  0.38250690  0.34021317
   0.50000000  0.38250690  0.65978680
   0.50000000  0.27609440  0.50000000
   0.27609443  0.49999998  0.50000000
   0.72390557  0.49999998  0.50000000
   0.50000000  0.72390555  0.50000000
   0.61195280  0.38804720  0.34167483
   0.61195280  0.38804720  0.65832513
   0.38804722  0.61195278  0.34167483
   0.38804722  0.61195278  0.65832513
   0.38804720  0.38804720  0.34167483
   0.38804720  0.38804720  0.65832513
   0.61195278  0.61195278  0.34167483
   0.61195278  0.61195278  0.65832513
   0.44576020  0.32826710  0.58308023
   0.67173288  0.55423978  0.58308023
   0.55791699  0.44208301  0.41809300
   0.32826705  0.44576024  0.41691983
   0.55423973  0.67173293  0.41691983
   0.55423980  0.32826710  0.58308023
   0.32826712  0.55423978  0.58308023
   0.67173295  0.44576024  0.41691983
   0.44576027  0.67173293  0.41691983
   0.44208301  0.44208301  0.41809300
   0.50000000  0.38416601  0.50000000
   0.61749315  0.50000005  0.34021317
   0.61749315  0.50000005  0.65978680
   0.38250685  0.50000005  0.34021317
   0.38250685  0.50000005  0.65978680
   0.38317830  0.38317830  0.50000000
   0.61682172  0.61682172  0.50000000
   0.61682170  0.38317830  0.50000000
   0.38317828  0.61682172  0.50000000
   0.50000000  0.50000000  0.33478917
   0.50000000  0.50000000  0.66521087
   0.32826705  0.44576024  0.58308023
   0.55423973  0.67173293  0.58308023
   0.55791699  0.44208301  0.58190703
   0.44208298  0.55791702  0.41809300
   0.44208301  0.44208301  0.58190703
   0.67173295  0.44576024  0.58308023
   0.44576027  0.67173293  0.58308023
   0.55791702  0.55791702  0.41809300
   0.38416599  0.50000002  0.50000000
   0.61583401  0.50000002  0.50000000
   0.50000000  0.61749319  0.34021317
   0.50000000  0.61749319  0.65978680
   0.50000000  0.50000000  0.50000000
   0.44208298  0.55791702  0.58190703
   0.55791702  0.55791702  0.58190703
   0.50000000  0.61583404  0.50000000
   0.47494273  0.48385180  0.24031030
   0.47133843  0.48152900  0.20295560
 
 position of ions in cartesian coordinates  (Angst):
  13.37280588  9.84801292 12.50759500
  20.15198637 16.62719342 12.50759500
  16.62719412  9.84801292 12.50759500
   9.84801363 16.62719342 12.50759500
  15.00000000 11.47520705 10.20639500
  15.00000000 11.47520705 19.79360400
  15.00000000  8.28283206 15.00000000
   8.28283277 14.99999929 15.00000000
  21.71716723 14.99999929 15.00000000
  15.00000000 21.71716652 14.99999999
  18.35858397 11.64141603 10.25024500
  18.35858397 11.64141603 19.74975399
  11.64141674 18.35858326 10.25024500
  11.64141674 18.35858326 19.74975400
  11.64141603 11.64141603 10.25024500
  11.64141603 11.64141603 19.74975400
  18.35858326 18.35858326 10.25024500
  18.35858326 18.35858326 19.74975400
  13.37280588  9.84801291 17.49240700
  20.15198638 16.62719341 17.49240700
  16.73750985 13.26249015 12.54279000
   9.84801151 13.37280729 12.50759500
  16.62719200 20.15198779 12.50759500
  16.62719412  9.84801292 17.49240700
   9.84801363 16.62719342 17.49240700
  20.15198849 13.37280729 12.50759500
  13.37280800 20.15198779 12.50759500
  13.26249015 13.26249015 12.54279000
  15.00000000 11.52498029 15.00000000
  18.52479437 15.00000140 10.20639500
  18.52479437 15.00000141 19.79360400
  11.47520562 15.00000141 10.20639501
  11.47520563 15.00000141 19.79360400
  11.49534898 11.49534898 15.00000000
  18.50465172 18.50465172 15.00000000
  18.50465102 11.49534898 15.00000000
  11.49534828 18.50465172 15.00000000
  15.00000000 15.00000000 10.04367500
  15.00000000 15.00000000 19.95632599
   9.84801151 13.37280729 17.49240700
  16.62719200 20.15198779 17.49240700
  16.73750985 13.26249015 17.45721100
  13.26248944 16.73751056 12.54279001
  13.26249015 13.26249015 17.45721100
  20.15198849 13.37280729 17.49240699
  13.37280800 20.15198779 17.49240700
  16.73751056 16.73751056 12.54279000
  11.52497959 15.00000071 15.00000000
  18.47502041 15.00000071 15.00000000
  14.99999999 18.52479579 10.20639500
  15.00000000 18.52479578 19.79360400
  15.00000000 15.00000000 15.00000000
  13.26248944 16.73751057 17.45721101
  16.73751056 16.73751057 17.45721100
  15.00000000 18.47502112 15.00000000
  14.24828200 14.51555400  7.20930900
  14.14015300 14.44587000  6.08866800
 


--------------------------------------------------------------------------------------------------------


 k-point  1 :   0.0000 0.0000 0.0000  plane waves:  490521

 maximum and minimum number of plane-waves per node :    490521   490521

 maximum number of plane-waves:    490521
 maximum index in each direction: 
   IXMAX=   48   IYMAX=   48   IZMAX=   48
   IXMIN=  -48   IYMIN=  -48   IZMIN=  -48


 serial   3D FFT for wavefunctions
 parallel 3D FFT for charge:
    minimum data exchange during FFTs selected (reduces bandwidth)


 total amount of memory used by VASP MPI-rank0  5486942. kBytes
=======================================================================

   base      :      30000. kBytes
   nonlr-proj:      17127. kBytes
   fftplans  :     924480. kBytes
   grid      :    1872000. kBytes
   one-center:        886. kBytes
   wavefun   :    2642449. kBytes
 
     INWAV:  cpu time    0.0001: real time    0.0005
 Broyden mixing: mesh for mixing (old mesh)
   NGX = 97   NGY = 97   NGZ = 97
  (NGX  =300   NGY  =300   NGZ  =300)
  gives a total of 912673 points

 initial charge density was supplied:
 charge density of overlapping atoms calculated
 number of electron     560.0000000 magnetization 
 keeping initial charge density in first step


--------------------------------------------------------------------------------------------------------


 Maximum index for non-local projection operator         1763
 Maximum index for augmentation-charges         5898 (set IRDMAX)


--------------------------------------------------------------------------------------------------------


 First call to EWALD:  gamma=   0.059
 Maximum number of real-space cells 3x 3x 3
 Maximum number of reciprocal cells 3x 3x 3

    FEWALD:  cpu time    0.0146: real time    0.0146


--------------------------------------- Iteration      1(   1)  ---------------------------------------


    POTLOK:  cpu time   14.0702: real time   14.0742
    SETDIJ:  cpu time    0.1171: real time    0.1171
     EDDAV:  cpu time  364.6388: real time  364.7127
       DOS:  cpu time    0.0013: real time    0.0013
    --------------------------------------------
      LOOP:  cpu time  378.8274: real time  378.9054

 eigenvalue-minimisations  :   688
 total energy-change (2. order) : 0.4381872E+04  (-0.1004719E+05)
 number of electron     560.0000000 magnetization 
 augmentation part      560.0000000 magnetization 

 Free energy of the ion-electron system (eV)
  ---------------------------------------------------
  alpha Z        PSCENC =        75.25431677
  Ewald energy   TEWEN  =    137667.78270540
  -Hartree energ DENC   =   -181036.42661728
  -exchange      EXHF   =         0.00000000
  -V(xc)+E(xc)   XCENC  =     -1704.15078140
  PAW double counting   =     44873.02882129   -41398.84523641
  entropy T*S    EENTRO =        -0.00019291
  eigenvalues    EBANDS =       818.72315606
  atomic energy  EATOM  =     45086.50549395
  Solvation  Ediel_sol  =         0.00000000
  ---------------------------------------------------
  free energy    TOTEN  =      4381.87166548 eV

  energy without entropy =     4381.87185839  energy(sigma->0) =     4381.87171370


--------------------------------------------------------------------------------------------------------




--------------------------------------- Iteration      1(   2)  ---------------------------------------


     EDDAV:  cpu time  586.5430: real time  586.5932
       DOS:  cpu time    0.0012: real time    0.0012
    --------------------------------------------
      LOOP:  cpu time  586.5442: real time  586.5945

 eigenvalue-minimisations  :  1224
 total energy-change (2. order) :-0.2356526E+04  (-0.2118248E+04)
 number of electron     560.0000000 magnetization 
 augmentation part      560.0000000 magnetization 

 Free energy of the ion-electron system (eV)
  ---------------------------------------------------
  alpha Z        PSCENC =        75.25431677
  Ewald energy   TEWEN  =    137667.78270540
  -Hartree energ DENC   =   -181036.42661728
  -exchange      EXHF   =         0.00000000
  -V(xc)+E(xc)   XCENC  =     -1704.15078140
  PAW double counting   =     44873.02882129   -41398.84523641
  entropy T*S    EENTRO =        -0.03050618
  eigenvalues    EBANDS =     -1537.77241873
  atomic energy  EATOM  =     45086.50549395
  Solvation  Ediel_sol  =         0.00000000
  ---------------------------------------------------
  free energy    TOTEN  =      2025.34577742 eV

  energy without entropy =     2025.37628360  energy(sigma->0) =     2025.35340396


--------------------------------------------------------------------------------------------------------




--------------------------------------- Iteration      1(   3)  ---------------------------------------


     EDDAV:  cpu time  491.4469: real time  491.4918
       DOS:  cpu time    0.0011: real time    0.0011
    --------------------------------------------
      LOOP:  cpu time  491.4480: real time  491.4929

 eigenvalue-minimisations  :  1000
 total energy-change (2. order) :-0.1784019E+04  (-0.1676753E+04)
 number of electron     560.0000000 magnetization 
 augmentation part      560.0000000 magnetization 

 Free energy of the ion-electron system (eV)
  ---------------------------------------------------
  alpha Z        PSCENC =        75.25431677
  Ewald energy   TEWEN  =    137667.78270540
  -Hartree energ DENC   =   -181036.42661728
  -exchange      EXHF   =         0.00000000
  -V(xc)+E(xc)   XCENC  =     -1704.15078140
  PAW double counting   =     44873.02882129   -41398.84523641
  entropy T*S    EENTRO =         0.00785300
  eigenvalues    EBANDS =     -3321.82945620
  atomic energy  EATOM  =     45086.50549395
  Solvation  Ediel_sol  =         0.00000000
  ---------------------------------------------------
  free energy    TOTEN  =       241.32709913 eV

  energy without entropy =      241.31924612  energy(sigma->0) =      241.32513588


--------------------------------------------------------------------------------------------------------




--------------------------------------- Iteration      1(   4)  ---------------------------------------


     EDDAV:  cpu time  422.5346: real time  422.5418
       DOS:  cpu time    0.0012: real time    0.0012
    --------------------------------------------
      LOOP:  cpu time  422.5358: real time  422.5430

 eigenvalue-minimisations  :   832
 total energy-change (2. order) :-0.3741348E+03  (-0.3179710E+03)
 number of electron     560.0000000 magnetization 
 augmentation part      560.0000000 magnetization 

 Free energy of the ion-electron system (eV)
  ---------------------------------------------------
  alpha Z        PSCENC =        75.25431677
  Ewald energy   TEWEN  =    137667.78270540
  -Hartree energ DENC   =   -181036.42661728
  -exchange      EXHF   =         0.00000000
  -V(xc)+E(xc)   XCENC  =     -1704.15078140
  PAW double counting   =     44873.02882129   -41398.84523641
  entropy T*S    EENTRO =        -0.02952102
  eigenvalues    EBANDS =     -3695.92689759
  atomic energy  EATOM  =     45086.50549395
  Solvation  Ediel_sol  =         0.00000000
  ---------------------------------------------------
  free energy    TOTEN  =      -132.80771628 eV

  energy without entropy =     -132.77819527  energy(sigma->0) =     -132.80033603


--------------------------------------------------------------------------------------------------------




--------------------------------------- Iteration      1(   5)  ---------------------------------------


     EDDAV:  cpu time  510.0111: real time  510.0143
       DOS:  cpu time    0.0014: real time    0.0014
    CHARGE:  cpu time   25.5725: real time   25.5722
    MIXING:  cpu time    0.4534: real time    0.4534
    --------------------------------------------
      LOOP:  cpu time  536.0384: real time  536.0414

 eigenvalue-minimisations  :  1040
 total energy-change (2. order) :-0.4564005E+02  (-0.3828865E+02)
 number of electron     559.9999849 magnetization 
 augmentation part      245.2505267 magnetization 

 Broyden mixing:
  rms(total) = 0.13906E+01    rms(broyden)= 0.13896E+01
  rms(prec ) = 0.14955E+01
  weight for this iteration     100.00

 Free energy of the ion-electron system (eV)
  ---------------------------------------------------
  alpha Z        PSCENC =        75.25431677
  Ewald energy   TEWEN  =    137667.78270540
  -Hartree energ DENC   =   -181036.42661728
  -exchange      EXHF   =         0.00000000
  -V(xc)+E(xc)   XCENC  =     -1704.15078140
  PAW double counting   =     44873.02882129   -41398.84523641
  entropy T*S    EENTRO =         0.53522084
  eigenvalues    EBANDS =     -3742.13169388
  atomic energy  EATOM  =     45086.50549395
  Solvation  Ediel_sol  =         0.00000000
  ---------------------------------------------------
  free energy    TOTEN  =      -178.44777071 eV

  energy without entropy =     -178.98299155  energy(sigma->0) =     -178.58157592


--------------------------------------------------------------------------------------------------------




--------------------------------------- Iteration      1(   6)  ---------------------------------------


    POTLOK:  cpu time   13.1443: real time   13.1450
    SETDIJ:  cpu time    0.1217: real time    0.1217
    EDDIAG:  cpu time   67.5774: real time   67.5817
  RMM-DIIS:  cpu time  190.6762: real time  190.6780
    ORTHCH:  cpu time   13.2026: real time   13.2026
       DOS:  cpu time    0.0015: real time    0.0014
    CHARGE:  cpu time   24.8510: real time   24.8508
    MIXING:  cpu time    0.4530: real time    0.4530
    --------------------------------------------
      LOOP:  cpu time  310.0277: real time  310.0342

 eigenvalue-minimisations  :   727
 total energy-change (2. order) : 0.2733831E+00  (-0.5169327E+01)
 number of electron     559.9999888 magnetization 
 augmentation part      240.4825831 magnetization 

 Broyden mixing:
  rms(total) = 0.22303E+01    rms(broyden)= 0.22301E+01
  rms(prec ) = 0.26009E+01
  weight for this iteration     100.00

 eigenvalues of (default mixing * dielectric matrix)
  average eigenvalue GAMMA=   0.3221
  0.3221

 Free energy of the ion-electron system (eV)
  ---------------------------------------------------
  alpha Z        PSCENC =        75.25431677
  Ewald energy   TEWEN  =    137667.78270540
  -Hartree energ DENC   =   -181448.03812888
  -exchange      EXHF   =         0.00000000
  -V(xc)+E(xc)   XCENC  =     -1697.84009112
  PAW double counting   =     45618.79266828   -42117.36366044
  entropy T*S    EENTRO =        -0.28328297
  eigenvalues    EBANDS =     -3362.98440864
  atomic energy  EATOM  =     45086.50549395
  Solvation  Ediel_sol  =         0.00000000
  ---------------------------------------------------
  free energy    TOTEN  =      -178.17438764 eV

  energy without entropy =     -177.89110467  energy(sigma->0) =     -178.10356690


--------------------------------------------------------------------------------------------------------




--------------------------------------- Iteration      1(   7)  ---------------------------------------


    POTLOK:  cpu time   12.9858: real time   12.9865
    SETDIJ:  cpu time    0.1211: real time    0.1211
    EDDIAG:  cpu time   67.8365: real time   67.8403
  RMM-DIIS:  cpu time  221.3370: real time  221.3524
    ORTHCH:  cpu time   13.5134: real time   13.5135
       DOS:  cpu time    0.0014: real time    0.0014
    CHARGE:  cpu time   25.5444: real time   25.5476
    MIXING:  cpu time    0.5056: real time    0.5056
    --------------------------------------------
      LOOP:  cpu time  341.8452: real time  341.8685

 eigenvalue-minimisations  :   858
 total energy-change (2. order) :-0.2119225E+01  (-0.1884734E+01)
 number of electron     559.9999840 magnetization 
 augmentation part      240.5704825 magnetization 

 Broyden mixing:
  rms(total) = 0.22798E+01    rms(broyden)= 0.22795E+01
  rms(prec ) = 0.27870E+01
  weight for this iteration     100.00

 eigenvalues of (default mixing * dielectric matrix)
  average eigenvalue GAMMA=   0.3066
  0.4766  0.1365

 Free energy of the ion-electron system (eV)
  ---------------------------------------------------
  alpha Z        PSCENC =        75.25431677
  Ewald energy   TEWEN  =    137667.78270540
  -Hartree energ DENC   =   -181528.76019278
  -exchange      EXHF   =         0.00000000
  -V(xc)+E(xc)   XCENC  =     -1698.03427595
  PAW double counting   =     45672.05607582   -42168.22064838
  entropy T*S    EENTRO =         0.01247774
  eigenvalues    EBANDS =     -3286.88956474
  atomic energy  EATOM  =     45086.50549395
  Solvation  Ediel_sol  =         0.00000000
  ---------------------------------------------------
  free energy    TOTEN  =      -180.29361217 eV

  energy without entropy =     -180.30608992  energy(sigma->0) =     -180.29673161


--------------------------------------------------------------------------------------------------------




--------------------------------------- Iteration      1(   8)  ---------------------------------------


    POTLOK:  cpu time   13.3282: real time   13.3305
    SETDIJ:  cpu time    0.1240: real time    0.1240
    EDDIAG:  cpu time   68.6040: real time   68.6093
  RMM-DIIS:  cpu time  201.4766: real time  201.4965
    ORTHCH:  cpu time   13.5897: real time   13.5910
       DOS:  cpu time    0.0014: real time    0.0014
    CHARGE:  cpu time   25.3987: real time   25.4009
    MIXING:  cpu time    0.5079: real time    0.5079
    --------------------------------------------
      LOOP:  cpu time  323.0305: real time  323.0616

 eigenvalue-minimisations  :   795
 total energy-change (2. order) :-0.2413106E+01  (-0.6237861E+00)
 number of electron     559.9999825 magnetization 
 augmentation part      240.1633261 magnetization 

 Broyden mixing:
  rms(total) = 0.26234E+01    rms(broyden)= 0.26231E+01
  rms(prec ) = 0.31146E+01
  weight for this iteration     100.00

 eigenvalues of (default mixing * dielectric matrix)
  average eigenvalue GAMMA=   0.3032
  0.6555  0.1271  0.1271

 Free energy of the ion-electron system (eV)
  ---------------------------------------------------
  alpha Z        PSCENC =        75.25431677
  Ewald energy   TEWEN  =    137667.78270540
  -Hartree energ DENC   =   -181572.81094378
  -exchange      EXHF   =         0.00000000
  -V(xc)+E(xc)   XCENC  =     -1698.02894138
  PAW double counting   =     45722.49239356   -42216.19768690
  entropy T*S    EENTRO =        -0.10536026
  eigenvalues    EBANDS =     -3247.59869565
  atomic energy  EATOM  =     45086.50549395
  Solvation  Ediel_sol  =         0.00000000
  ---------------------------------------------------
  free energy    TOTEN  =      -182.70671828 eV

  energy without entropy =     -182.60135803  energy(sigma->0) =     -182.68037822


--------------------------------------------------------------------------------------------------------




--------------------------------------- Iteration      1(   9)  ---------------------------------------


    POTLOK:  cpu time   12.8861: real time   12.8901
    SETDIJ:  cpu time    0.1216: real time    0.1216
    EDDIAG:  cpu time   67.0942: real time   67.1010
  RMM-DIIS:  cpu time  190.2319: real time  190.2495
    ORTHCH:  cpu time   13.3082: real time   13.3093
       DOS:  cpu time    0.0014: real time    0.0014
    CHARGE:  cpu time   25.0993: real time   25.1001
    MIXING:  cpu time    0.5242: real time    0.5242
    --------------------------------------------
      LOOP:  cpu time  309.2668: real time  309.2972

 eigenvalue-minimisations  :   733
 total energy-change (2. order) : 0.9813959E+00  (-0.4933206E+00)
 number of electron     559.9999835 magnetization 
 augmentation part      240.8284765 magnetization 

 Broyden mixing:
  rms(total) = 0.26330E+01    rms(broyden)= 0.26327E+01
  rms(prec ) = 0.30824E+01
  weight for this iteration     100.00

 eigenvalues of (default mixing * dielectric matrix)
  average eigenvalue GAMMA=   0.2815
  0.7482  0.1421  0.1421  0.0935

 Free energy of the ion-electron system (eV)
  ---------------------------------------------------
  alpha Z        PSCENC =        75.25431677
  Ewald energy   TEWEN  =    137667.78270540
  -Hartree energ DENC   =   -181594.15460702
  -exchange      EXHF   =         0.00000000
  -V(xc)+E(xc)   XCENC  =     -1697.99870175
  PAW double counting   =     45777.39662122   -42268.42556033
  entropy T*S    EENTRO =        -0.08691357
  eigenvalues    EBANDS =     -3227.99867709
  atomic energy  EATOM  =     45086.50549395
  Solvation  Ediel_sol  =         0.00000000
  ---------------------------------------------------
  free energy    TOTEN  =      -181.72532241 eV

  energy without entropy =     -181.63840884  energy(sigma->0) =     -181.70359402


--------------------------------------------------------------------------------------------------------




--------------------------------------- Iteration      1(  10)  ---------------------------------------


    POTLOK:  cpu time   13.0449: real time   13.0490
    SETDIJ:  cpu time    0.1257: real time    0.1257
    EDDIAG:  cpu time   67.9867: real time   67.9927
  RMM-DIIS:  cpu time  191.1757: real time  191.1886
    ORTHCH:  cpu time   13.4539: real time   13.4543
       DOS:  cpu time    0.0014: real time    0.0014
    CHARGE:  cpu time   25.0312: real time   25.0328
    MIXING:  cpu time    0.5637: real time    0.5637
    --------------------------------------------
      LOOP:  cpu time  311.3834: real time  311.4083

 eigenvalue-minimisations  :   739
 total energy-change (2. order) : 0.1554468E+01  (-0.2726726E+00)
 number of electron     559.9999832 magnetization 
 augmentation part      241.1707318 magnetization 

 Broyden mixing:
  rms(total) = 0.25498E+01    rms(broyden)= 0.25494E+01
  rms(prec ) = 0.30543E+01
  weight for this iteration     100.00

 eigenvalues of (default mixing * dielectric matrix)
  average eigenvalue GAMMA=   0.2571
  0.8011  0.1586  0.1586  0.0837  0.0837

 Free energy of the ion-electron system (eV)
  ---------------------------------------------------
  alpha Z        PSCENC =        75.25431677
  Ewald energy   TEWEN  =    137667.78270540
  -Hartree energ DENC   =   -181616.75497461
  -exchange      EXHF   =         0.00000000
  -V(xc)+E(xc)   XCENC  =     -1697.87714844
  PAW double counting   =     45814.16079173   -42303.50894368
  entropy T*S    EENTRO =        -0.06709772
  eigenvalues    EBANDS =     -3205.66599808
  atomic energy  EATOM  =     45086.50549395
  Solvation  Ediel_sol  =         0.00000000
  ---------------------------------------------------
  free energy    TOTEN  =      -180.17085469 eV

  energy without entropy =     -180.10375697  energy(sigma->0) =     -180.15408026


--------------------------------------------------------------------------------------------------------




--------------------------------------- Iteration      1(  11)  ---------------------------------------


    POTLOK:  cpu time   13.0394: real time   13.0427
    SETDIJ:  cpu time    0.1274: real time    0.1274
    EDDIAG:  cpu time   68.6787: real time   68.6840
  RMM-DIIS:  cpu time  191.1807: real time  191.1923
    ORTHCH:  cpu time   13.2204: real time   13.2225
       DOS:  cpu time    0.0014: real time    0.0014
    CHARGE:  cpu time   25.4636: real time   25.4661
    MIXING:  cpu time    0.6421: real time    0.6427
    --------------------------------------------
      LOOP:  cpu time  312.3537: real time  312.3791

 eigenvalue-minimisations  :   734
 total energy-change (2. order) : 0.2445298E+01  (-0.1610739E+00)
 number of electron     559.9999845 magnetization 
 augmentation part      241.4992698 magnetization 

 Broyden mixing:
  rms(total) = 0.16978E+01    rms(broyden)= 0.16974E+01
  rms(prec ) = 0.19363E+01
  weight for this iteration     100.00

 eigenvalues of (default mixing * dielectric matrix)
  average eigenvalue GAMMA=   0.2540
  0.8768  0.1935  0.1935  0.0969  0.0969  0.0662

 Free energy of the ion-electron system (eV)
  ---------------------------------------------------
  alpha Z        PSCENC =        75.25431677
  Ewald energy   TEWEN  =    137667.78270540
  -Hartree energ DENC   =   -181633.78273824
  -exchange      EXHF   =         0.00000000
  -V(xc)+E(xc)   XCENC  =     -1697.78637522
  PAW double counting   =     45838.27198805   -42326.46606525
  entropy T*S    EENTRO =        -0.12727618
  eigenvalues    EBANDS =     -3187.37760639
  atomic energy  EATOM  =     45086.50549395
  Solvation  Ediel_sol  =         0.00000000
  ---------------------------------------------------
  free energy    TOTEN  =      -177.72555710 eV

  energy without entropy =     -177.59828093  energy(sigma->0) =     -177.69373806


--------------------------------------------------------------------------------------------------------




--------------------------------------- Iteration      1(  12)  ---------------------------------------


    POTLOK:  cpu time   13.1944: real time   13.1957
    SETDIJ:  cpu time    0.1230: real time    0.1230
    EDDIAG:  cpu time   68.6590: real time   68.6621
  RMM-DIIS:  cpu time  186.5316: real time  186.5440
    ORTHCH:  cpu time   13.2991: real time   13.3011
       DOS:  cpu time    0.0014: real time    0.0014
    CHARGE:  cpu time   25.0523: real time   25.0545
    MIXING:  cpu time    0.6341: real time    0.6341
    --------------------------------------------
      LOOP:  cpu time  307.4950: real time  307.5159

 eigenvalue-minimisations  :   714
 total energy-change (2. order) : 0.1706515E+01  (-0.1625964E+00)
 number of electron     559.9999838 magnetization 
 augmentation part      241.7099140 magnetization 

 Broyden mixing:
  rms(total) = 0.13217E+01    rms(broyden)= 0.13213E+01
  rms(prec ) = 0.15235E+01
  weight for this iteration     100.00

 eigenvalues of (default mixing * dielectric matrix)
  average eigenvalue GAMMA=   0.2493
  0.9243  0.2248  0.2248  0.1036  0.1036  0.0983  0.0662

 Free energy of the ion-electron system (eV)
  ---------------------------------------------------
  alpha Z        PSCENC =        75.25431677
  Ewald energy   TEWEN  =    137667.78270540
  -Hartree energ DENC   =   -181655.19099596
  -exchange      EXHF   =         0.00000000
  -V(xc)+E(xc)   XCENC  =     -1697.56757033
  PAW double counting   =     45872.69300354   -42359.15309947
  entropy T*S    EENTRO =        -0.16460094
  eigenvalues    EBANDS =     -3166.17829542
  atomic energy  EATOM  =     45086.50549395
  Solvation  Ediel_sol  =         0.00000000
  ---------------------------------------------------
  free energy    TOTEN  =      -176.01904245 eV

  energy without entropy =     -175.85444152  energy(sigma->0) =     -175.97789222


--------------------------------------------------------------------------------------------------------




--------------------------------------- Iteration      1(  13)  ---------------------------------------


    POTLOK:  cpu time   12.9688: real time   12.9745
    SETDIJ:  cpu time    0.1205: real time    0.1205
    EDDIAG:  cpu time   67.7666: real time   67.7716
  RMM-DIIS:  cpu time  188.9108: real time  188.9265
    ORTHCH:  cpu time   13.6761: real time   13.6761
       DOS:  cpu time    0.0015: real time    0.0015
    CHARGE:  cpu time   24.5842: real time   24.5843
    MIXING:  cpu time    0.6650: real time    0.6650
    --------------------------------------------
      LOOP:  cpu time  308.6936: real time  308.7199

 eigenvalue-minimisations  :   726
 total energy-change (2. order) : 0.5236316E+00  (-0.9128895E-01)
 number of electron     559.9999837 magnetization 
 augmentation part      241.6938113 magnetization 

 Broyden mixing:
  rms(total) = 0.13678E+01    rms(broyden)= 0.13675E+01
  rms(prec ) = 0.16462E+01
  weight for this iteration     100.00

 eigenvalues of (default mixing * dielectric matrix)
  average eigenvalue GAMMA=   0.2546
  0.9706  0.2929  0.2929  0.1443  0.0947  0.0947  0.0889  0.0576

 Free energy of the ion-electron system (eV)
  ---------------------------------------------------
  alpha Z        PSCENC =        75.25431677
  Ewald energy   TEWEN  =    137667.78270540
  -Hartree energ DENC   =   -181673.55570483
  -exchange      EXHF   =         0.00000000
  -V(xc)+E(xc)   XCENC  =     -1697.34091032
  PAW double counting   =     45898.42194541   -42383.46852332
  entropy T*S    EENTRO =        -0.07964108
  eigenvalues    EBANDS =     -3149.01509290
  atomic energy  EATOM  =     45086.50549395
  Solvation  Ediel_sol  =         0.00000000
  ---------------------------------------------------
  free energy    TOTEN  =      -175.49541090 eV

  energy without entropy =     -175.41576982  energy(sigma->0) =     -175.47550063


--------------------------------------------------------------------------------------------------------




--------------------------------------- Iteration      1(  14)  ---------------------------------------


    POTLOK:  cpu time   12.5338: real time   12.5343
    SETDIJ:  cpu time    0.1212: real time    0.1212
    EDDIAG:  cpu time   65.7792: real time   65.7812
  RMM-DIIS:  cpu time  183.8912: real time  183.8984
    ORTHCH:  cpu time   13.3142: real time   13.3141
       DOS:  cpu time    0.0015: real time    0.0015
    CHARGE:  cpu time   24.8739: real time   24.8737
    MIXING:  cpu time    0.7141: real time    0.7141
    --------------------------------------------
      LOOP:  cpu time  301.2291: real time  301.2385

 eigenvalue-minimisations  :   721
 total energy-change (2. order) :-0.3731452E+00  (-0.7509441E-01)
 number of electron     559.9999841 magnetization 
 augmentation part      241.6538765 magnetization 

 Broyden mixing:
  rms(total) = 0.22526E+01    rms(broyden)= 0.22524E+01
  rms(prec ) = 0.26729E+01
  weight for this iteration     100.00

 eigenvalues of (default mixing * dielectric matrix)
  average eigenvalue GAMMA=   0.2576
  1.0319  0.3600  0.3600  0.1656  0.0990  0.0990  0.0988  0.0599  0.0440

 Free energy of the ion-electron system (eV)
  ---------------------------------------------------
  alpha Z        PSCENC =        75.25431677
  Ewald energy   TEWEN  =    137667.78270540
  -Hartree energ DENC   =   -181694.65361227
  -exchange      EXHF   =         0.00000000
  -V(xc)+E(xc)   XCENC  =     -1696.98002150
  PAW double counting   =     45928.94369168   -42412.22518743
  entropy T*S    EENTRO =         0.11583914
  eigenvalues    EBANDS =     -3130.61178181
  atomic energy  EATOM  =     45086.50549395
  Solvation  Ediel_sol  =         0.00000000
  ---------------------------------------------------
  free energy    TOTEN  =      -175.86855606 eV

  energy without entropy =     -175.98439521  energy(sigma->0) =     -175.89751585


--------------------------------------------------------------------------------------------------------




--------------------------------------- Iteration      1(  15)  ---------------------------------------


    POTLOK:  cpu time   13.0889: real time   13.0897
    SETDIJ:  cpu time    0.1210: real time    0.1209
    EDDIAG:  cpu time   67.4576: real time   67.4572
  RMM-DIIS:  cpu time  185.6118: real time  185.6181
    ORTHCH:  cpu time   13.4644: real time   13.4643
       DOS:  cpu time    0.0015: real time    0.0015
    CHARGE:  cpu time   25.3051: real time   25.3050
    MIXING:  cpu time    0.7588: real time    0.7588
    --------------------------------------------
      LOOP:  cpu time  305.8090: real time  305.8156

 eigenvalue-minimisations  :   711
 total energy-change (2. order) : 0.3259614E+00  (-0.9039568E-01)
 number of electron     559.9999838 magnetization 
 augmentation part      241.4841972 magnetization 

 Broyden mixing:
  rms(total) = 0.21261E+01    rms(broyden)= 0.21259E+01
  rms(prec ) = 0.24133E+01
  weight for this iteration     100.00

 eigenvalues of (default mixing * dielectric matrix)
  average eigenvalue GAMMA=   0.2652
  1.1579  0.5682  0.2686  0.1686  0.1067  0.1067  0.0981  0.0682  0.0682  0.0405

 Free energy of the ion-electron system (eV)
  ---------------------------------------------------
  alpha Z        PSCENC =        75.25431677
  Ewald energy   TEWEN  =    137667.78270540
  -Hartree energ DENC   =   -181725.07987825
  -exchange      EXHF   =         0.00000000
  -V(xc)+E(xc)   XCENC  =     -1696.51531397
  PAW double counting   =     45967.59077098   -42448.59278027
  entropy T*S    EENTRO =        -0.00255294
  eigenvalues    EBANDS =     -3102.48535631
  atomic energy  EATOM  =     45086.50549395
  Solvation  Ediel_sol  =         0.00000000
  ---------------------------------------------------
  free energy    TOTEN  =      -175.54259463 eV

  energy without entropy =     -175.54004169  energy(sigma->0) =     -175.54195639


--------------------------------------------------------------------------------------------------------




--------------------------------------- Iteration      1(  16)  ---------------------------------------


    POTLOK:  cpu time   13.3771: real time   13.3780
    SETDIJ:  cpu time    0.1213: real time    0.1213
    EDDIAG:  cpu time   67.2552: real time   67.2563
  RMM-DIIS:  cpu time  184.1071: real time  184.1237
    ORTHCH:  cpu time   13.3933: real time   13.3936
       DOS:  cpu time    0.0015: real time    0.0015
    CHARGE:  cpu time   25.2782: real time   25.2795
    MIXING:  cpu time    0.8120: real time    0.8121
    --------------------------------------------
      LOOP:  cpu time  304.3456: real time  304.3660

 eigenvalue-minimisations  :   706
 total energy-change (2. order) : 0.5004906E+00  (-0.1054868E+00)
 number of electron     559.9999861 magnetization 
 augmentation part      241.1661111 magnetization 

 Broyden mixing:
  rms(total) = 0.14044E+01    rms(broyden)= 0.14041E+01
  rms(prec ) = 0.15828E+01
  weight for this iteration     100.00

 eigenvalues of (default mixing * dielectric matrix)
  average eigenvalue GAMMA=   0.2842
  1.3607  0.7333  0.2015  0.1882  0.1882  0.0992  0.0992  0.0757  0.0757  0.0636
  0.0410

 Free energy of the ion-electron system (eV)
  ---------------------------------------------------
  alpha Z        PSCENC =        75.25431677
  Ewald energy   TEWEN  =    137667.78270540
  -Hartree energ DENC   =   -181764.21649870
  -exchange      EXHF   =         0.00000000
  -V(xc)+E(xc)   XCENC  =     -1695.97359169
  PAW double counting   =     46014.37343020   -42492.66623890
  entropy T*S    EENTRO =        -0.09252328
  eigenvalues    EBANDS =     -3066.00919780
  atomic energy  EATOM  =     45086.50549395
  Solvation  Ediel_sol  =         0.00000000
  ---------------------------------------------------
  free energy    TOTEN  =      -175.04210406 eV

  energy without entropy =     -174.94958077  energy(sigma->0) =     -175.01897324


--------------------------------------------------------------------------------------------------------




--------------------------------------- Iteration      1(  17)  ---------------------------------------


    POTLOK:  cpu time   13.0803: real time   13.0833
    SETDIJ:  cpu time    0.1191: real time    0.1191
    EDDIAG:  cpu time   67.3190: real time   67.3278
  RMM-DIIS:  cpu time  185.6282: real time  185.6533
    ORTHCH:  cpu time   13.2440: real time   13.2441
       DOS:  cpu time    0.0015: real time    0.0015
    CHARGE:  cpu time   25.0685: real time   25.0687
    MIXING:  cpu time    0.9165: real time    0.9166
    --------------------------------------------
      LOOP:  cpu time  305.3771: real time  305.4143

 eigenvalue-minimisations  :   707
 total energy-change (2. order) : 0.3141232E+00  (-0.8440807E-01)
 number of electron     559.9999854 magnetization 
 augmentation part      241.0174613 magnetization 

 Broyden mixing:
  rms(total) = 0.15399E+01    rms(broyden)= 0.15397E+01
  rms(prec ) = 0.17811E+01
  weight for this iteration     100.00

 eigenvalues of (default mixing * dielectric matrix)
  average eigenvalue GAMMA=   0.2836
  1.4521  0.7810  0.2252  0.2252  0.1898  0.1002  0.1002  0.0789  0.0789  0.0716
  0.0583  0.0413

 Free energy of the ion-electron system (eV)
  ---------------------------------------------------
  alpha Z        PSCENC =        75.25431677
  Ewald energy   TEWEN  =    137667.78270540
  -Hartree energ DENC   =   -181800.67639453
  -exchange      EXHF   =         0.00000000
  -V(xc)+E(xc)   XCENC  =     -1695.48758081
  PAW double counting   =     46056.61679669   -42532.39731419
  entropy T*S    EENTRO =        -0.02700013
  eigenvalues    EBANDS =     -3032.29900398
  atomic energy  EATOM  =     45086.50549395
  Solvation  Ediel_sol  =         0.00000000
  ---------------------------------------------------
  free energy    TOTEN  =      -174.72798082 eV

  energy without entropy =     -174.70098070  energy(sigma->0) =     -174.72123079


--------------------------------------------------------------------------------------------------------




--------------------------------------- Iteration      1(  18)  ---------------------------------------


    POTLOK:  cpu time   13.1659: real time   13.1673
    SETDIJ:  cpu time    0.1246: real time    0.1246
    EDDIAG:  cpu time   68.1501: real time   68.1509
  RMM-DIIS:  cpu time  183.8675: real time  183.8733
    ORTHCH:  cpu time   13.0465: real time   13.0502
       DOS:  cpu time    0.0015: real time    0.0015
    CHARGE:  cpu time   24.3237: real time   24.3269
    MIXING:  cpu time    0.9026: real time    0.9026
    --------------------------------------------
      LOOP:  cpu time  303.5824: real time  303.5973

 eigenvalue-minimisations  :   715
 total energy-change (2. order) : 0.3226246E+00  (-0.4773806E-01)
 number of electron     559.9999852 magnetization 
 augmentation part      241.0083069 magnetization 

 Broyden mixing:
  rms(total) = 0.94380E+00    rms(broyden)= 0.94362E+00
  rms(prec ) = 0.10789E+01
  weight for this iteration     100.00

 eigenvalues of (default mixing * dielectric matrix)
  average eigenvalue GAMMA=   0.2963
  1.5868  0.8559  0.2995  0.2995  0.1372  0.1372  0.1046  0.1046  0.0763  0.0763
  0.0780  0.0551  0.0414

 Free energy of the ion-electron system (eV)
  ---------------------------------------------------
  alpha Z        PSCENC =        75.25431677
  Ewald energy   TEWEN  =    137667.78270540
  -Hartree energ DENC   =   -181811.83057509
  -exchange      EXHF   =         0.00000000
  -V(xc)+E(xc)   XCENC  =     -1695.34794264
  PAW double counting   =     46068.60096356   -42543.55535031
  entropy T*S    EENTRO =        -0.04053488
  eigenvalues    EBANDS =     -3021.77443300
  atomic energy  EATOM  =     45086.50549395
  Solvation  Ediel_sol  =         0.00000000
  ---------------------------------------------------
  free energy    TOTEN  =      -174.40535624 eV

  energy without entropy =     -174.36482136  energy(sigma->0) =     -174.39522252


--------------------------------------------------------------------------------------------------------




--------------------------------------- Iteration      1(  19)  ---------------------------------------


    POTLOK:  cpu time   12.9168: real time   12.9222
    SETDIJ:  cpu time    0.1226: real time    0.1226
    EDDIAG:  cpu time   67.1144: real time   67.1186
  RMM-DIIS:  cpu time  186.6691: real time  186.6734
    ORTHCH:  cpu time   13.2097: real time   13.2096
       DOS:  cpu time    0.0015: real time    0.0015
    CHARGE:  cpu time   25.0927: real time   25.0928
    MIXING:  cpu time    0.9437: real time    0.9437
    --------------------------------------------
      LOOP:  cpu time  306.0704: real time  306.0844

 eigenvalue-minimisations  :   709
 total energy-change (2. order) :-0.4338287E-01  (-0.4719390E-01)
 number of electron     559.9999848 magnetization 
 augmentation part      241.0706953 magnetization 

 Broyden mixing:
  rms(total) = 0.10167E+01    rms(broyden)= 0.10165E+01
  rms(prec ) = 0.11763E+01
  weight for this iteration     100.00

 eigenvalues of (default mixing * dielectric matrix)
  average eigenvalue GAMMA=   0.3084
  1.6295  1.0352  0.3567  0.3567  0.1589  0.1589  0.1033  0.1033  0.0918  0.0918
  0.0674  0.0674  0.0556  0.0413

 Free energy of the ion-electron system (eV)
  ---------------------------------------------------
  alpha Z        PSCENC =        75.25431677
  Ewald energy   TEWEN  =    137667.78270540
  -Hartree energ DENC   =   -181827.59767871
  -exchange      EXHF   =         0.00000000
  -V(xc)+E(xc)   XCENC  =     -1695.16287353
  PAW double counting   =     46080.16710031   -42554.00147030
  entropy T*S    EENTRO =        -0.00830373
  eigenvalues    EBANDS =     -3007.38802927
  atomic energy  EATOM  =     45086.50549395
  Solvation  Ediel_sol  =         0.00000000
  ---------------------------------------------------
  free energy    TOTEN  =      -174.44873911 eV

  energy without entropy =     -174.44043538  energy(sigma->0) =     -174.44666318


--------------------------------------------------------------------------------------------------------




--------------------------------------- Iteration      1(  20)  ---------------------------------------


    POTLOK:  cpu time   12.8908: real time   12.8915
    SETDIJ:  cpu time    0.1189: real time    0.1189
    EDDIAG:  cpu time   67.7405: real time   67.7453
  RMM-DIIS:  cpu time  186.7821: real time  186.7833
    ORTHCH:  cpu time   13.2079: real time   13.2078
       DOS:  cpu time    0.0014: real time    0.0014
    CHARGE:  cpu time   24.8307: real time   24.8304
    MIXING:  cpu time    0.9935: real time    0.9935
    --------------------------------------------
      LOOP:  cpu time  306.5659: real time  306.5720

 eigenvalue-minimisations  :   712
 total energy-change (2. order) :-0.8632271E-01  (-0.3227390E-01)
 number of electron     559.9999848 magnetization 
 augmentation part      241.1180947 magnetization 

 Broyden mixing:
  rms(total) = 0.12212E+01    rms(broyden)= 0.12210E+01
  rms(prec ) = 0.14033E+01
  weight for this iteration     100.00

 eigenvalues of (default mixing * dielectric matrix)
  average eigenvalue GAMMA=   0.3103
  1.6790  1.1863  0.3731  0.3731  0.1754  0.1754  0.1030  0.1030  0.0911  0.0911
  0.0740  0.0658  0.0658  0.0568  0.0413

 Free energy of the ion-electron system (eV)
  ---------------------------------------------------
  alpha Z        PSCENC =        75.25431677
  Ewald energy   TEWEN  =    137667.78270540
  -Hartree energ DENC   =   -181844.54588402
  -exchange      EXHF   =         0.00000000
  -V(xc)+E(xc)   XCENC  =     -1695.01576319
  PAW double counting   =     46083.76130945   -42556.69039015
  entropy T*S    EENTRO =         0.03919887
  eigenvalues    EBANDS =     -2991.62604891
  atomic energy  EATOM  =     45086.50549395
  Solvation  Ediel_sol  =         0.00000000
  ---------------------------------------------------
  free energy    TOTEN  =      -174.53506181 eV

  energy without entropy =     -174.57426069  energy(sigma->0) =     -174.54486153


--------------------------------------------------------------------------------------------------------




--------------------------------------- Iteration      1(  21)  ---------------------------------------


    POTLOK:  cpu time   12.8895: real time   12.8920
    SETDIJ:  cpu time    0.1201: real time    0.1201
    EDDIAG:  cpu time   67.3827: real time   67.3910
  RMM-DIIS:  cpu time  183.8096: real time  183.8162
    ORTHCH:  cpu time   13.1918: real time   13.1918
       DOS:  cpu time    0.0015: real time    0.0015
    CHARGE:  cpu time   24.9390: real time   24.9430
    MIXING:  cpu time    1.0212: real time    1.0212
    --------------------------------------------
      LOOP:  cpu time  303.3554: real time  303.3767

 eigenvalue-minimisations  :   713
 total energy-change (2. order) : 0.3209920E+00  (-0.2731228E-01)
 number of electron     559.9999855 magnetization 
 augmentation part      241.1456301 magnetization 

 Broyden mixing:
  rms(total) = 0.80878E+00    rms(broyden)= 0.80864E+00
  rms(prec ) = 0.92104E+00
  weight for this iteration     100.00

 eigenvalues of (default mixing * dielectric matrix)
  average eigenvalue GAMMA=   0.3120
  1.8264  1.1489  0.4031  0.4031  0.2016  0.2016  0.1038  0.1038  0.1027  0.1027
  0.0954  0.0710  0.0710  0.0413  0.0575  0.0575

 Free energy of the ion-electron system (eV)
  ---------------------------------------------------
  alpha Z        PSCENC =        75.25431677
  Ewald energy   TEWEN  =    137667.78270540
  -Hartree energ DENC   =   -181860.09043190
  -exchange      EXHF   =         0.00000000
  -V(xc)+E(xc)   XCENC  =     -1694.85925619
  PAW double counting   =     46088.02209712   -42560.16540038
  entropy T*S    EENTRO =        -0.03478221
  eigenvalues    EBANDS =     -2976.62881235
  atomic energy  EATOM  =     45086.50549395
  Solvation  Ediel_sol  =         0.00000000
  ---------------------------------------------------
  free energy    TOTEN  =      -174.21406977 eV

  energy without entropy =     -174.17928757  energy(sigma->0) =     -174.20537422


--------------------------------------------------------------------------------------------------------




--------------------------------------- Iteration      1(  22)  ---------------------------------------


    POTLOK:  cpu time   12.5998: real time   12.6014
    SETDIJ:  cpu time    0.1186: real time    0.1186
    EDDIAG:  cpu time   67.3741: real time   67.3800
  RMM-DIIS:  cpu time  185.9040: real time  185.9035
    ORTHCH:  cpu time   13.1691: real time   13.1689
       DOS:  cpu time    0.0015: real time    0.0015
    CHARGE:  cpu time   25.0614: real time   25.0611
    MIXING:  cpu time    1.1558: real time    1.1558
    --------------------------------------------
      LOOP:  cpu time  305.3843: real time  305.3909

 eigenvalue-minimisations  :   708
 total energy-change (2. order) : 0.9729614E-01  (-0.1984833E-01)
 number of electron     559.9999861 magnetization 
 augmentation part      241.2161414 magnetization 

 Broyden mixing:
  rms(total) = 0.81222E+00    rms(broyden)= 0.81206E+00
  rms(prec ) = 0.95720E+00
  weight for this iteration     100.00

 eigenvalues of (default mixing * dielectric matrix)
  average eigenvalue GAMMA=   0.3196
  1.8999  1.2947  0.4270  0.4270  0.2280  0.2280  0.1045  0.1045  0.1250  0.1250
  0.0897  0.0897  0.0683  0.0683  0.0413  0.0560  0.0560

 Free energy of the ion-electron system (eV)
  ---------------------------------------------------
  alpha Z        PSCENC =        75.25431677
  Ewald energy   TEWEN  =    137667.78270540
  -Hartree energ DENC   =   -181869.44814757
  -exchange      EXHF   =         0.00000000
  -V(xc)+E(xc)   XCENC  =     -1694.74310401
  PAW double counting   =     46091.41082672   -42562.96488030
  entropy T*S    EENTRO =        -0.03857467
  eigenvalues    EBANDS =     -2967.87540993
  atomic energy  EATOM  =     45086.50549395
  Solvation  Ediel_sol  =         0.00000000
  ---------------------------------------------------
  free energy    TOTEN  =      -174.11677363 eV

  energy without entropy =     -174.07819896  energy(sigma->0) =     -174.10712997


--------------------------------------------------------------------------------------------------------




--------------------------------------- Iteration      1(  23)  ---------------------------------------


    POTLOK:  cpu time   12.9087: real time   12.9095
    SETDIJ:  cpu time    0.1227: real time    0.1227
    EDDIAG:  cpu time   68.1485: real time   68.1497
  RMM-DIIS:  cpu time  190.0640: real time  190.0638
    ORTHCH:  cpu time   13.1587: real time   13.1585
       DOS:  cpu time    0.0015: real time    0.0015
    CHARGE:  cpu time   24.9238: real time   24.9234
    MIXING:  cpu time    1.1808: real time    1.1808
    --------------------------------------------
      LOOP:  cpu time  310.5087: real time  310.5099

 eigenvalue-minimisations  :   717
 total energy-change (2. order) : 0.3413072E-01  (-0.2151900E-01)
 number of electron     559.9999854 magnetization 
 augmentation part      241.1467299 magnetization 

 Broyden mixing:
  rms(total) = 0.74049E+00    rms(broyden)= 0.74033E+00
  rms(prec ) = 0.88297E+00
  weight for this iteration     100.00

 eigenvalues of (default mixing * dielectric matrix)
  average eigenvalue GAMMA=   0.3264
  1.9530  1.4280  0.5793  0.3359  0.3359  0.1796  0.1796  0.1038  0.1038  0.1136
[...]
 -0.006  -0.012   0.004   0.004   0.006  -0.006  -0.011   0.004
 -0.011  -0.020   0.006   0.007   0.009  -0.010  -0.019   0.006
 -0.015  -0.005   0.013   0.000   0.022  -0.014  -0.005   0.012
  0.000  -0.023  -0.006  -0.015  -0.000   0.000  -0.022  -0.006
 -0.022   0.000   0.009  -0.005  -0.016  -0.022   0.000   0.008
 -0.017  -0.006   0.015   0.000   0.027  -0.017  -0.006   0.015
  0.000  -0.027  -0.007  -0.018   0.000   0.000  -0.027  -0.007
 -0.027   0.000   0.010  -0.006  -0.019  -0.026   0.000   0.010
 total augmentation occupancy for first ion, spin component:           1
  1.537  -0.031   0.004   0.017   0.023   0.076  -0.008  -0.002   0.035  -0.010   0.091  -0.031   0.012   0.002   0.002  -0.019
 -0.031   1.401   0.030   0.068   0.002  -0.007   0.071   0.011  -0.014  -0.008   0.213  -0.064   0.019   0.002   0.003  -0.006
  0.004   0.030   1.543   0.003   0.001  -0.002   0.012   0.074  -0.013   0.017  -0.053   0.018  -0.003  -0.007  -0.005   0.016
  0.017   0.068   0.003   1.336   0.045   0.033  -0.013  -0.012   0.091  -0.022  -0.080   0.020  -0.001  -0.008  -0.003   0.001
  0.023   0.002   0.001   0.045   1.440  -0.010  -0.009   0.016  -0.022   0.067  -0.096   0.032  -0.002  -0.010  -0.010   0.026
  0.076  -0.007  -0.002   0.033  -0.010   0.217   0.019  -0.002  -0.045   0.004  -0.048   0.002   0.017  -0.010   0.034  -0.004
 -0.008   0.071   0.012  -0.013  -0.009   0.019   0.262  -0.023  -0.004   0.006  -0.109   0.007  -0.001   0.051  -0.010  -0.000
 -0.002   0.011   0.074  -0.012   0.016  -0.002  -0.023   0.215   0.014  -0.020   0.028  -0.001  -0.012   0.009  -0.018   0.003
  0.035  -0.014  -0.013   0.091  -0.022  -0.045  -0.004   0.014   0.260   0.007   0.043  -0.004  -0.009   0.036   0.004   0.000
 -0.010  -0.008   0.017  -0.022   0.067   0.004   0.006  -0.020   0.007   0.258   0.046  -0.002  -0.038   0.002   0.049   0.007
  0.091   0.213  -0.053  -0.080  -0.096  -0.048  -0.109   0.028   0.043   0.046   0.950  -0.141   0.084   0.014   0.064  -0.013
 -0.031  -0.064   0.018   0.020   0.032   0.002   0.007  -0.001  -0.004  -0.002  -0.141   0.023  -0.014  -0.003  -0.010   0.003
  0.012   0.019  -0.003  -0.001  -0.002   0.017  -0.001  -0.012  -0.009  -0.038   0.084  -0.014   0.029  -0.008  -0.004  -0.003
  0.002   0.002  -0.007  -0.008  -0.010  -0.010   0.051   0.009   0.036   0.002   0.014  -0.003  -0.008   0.036   0.004   0.000
  0.002   0.003  -0.005  -0.003  -0.010   0.034  -0.010  -0.018   0.004   0.049   0.064  -0.010  -0.004   0.004   0.035  -0.000
 -0.019  -0.006   0.016   0.001   0.026  -0.004  -0.000   0.003   0.000   0.007  -0.013   0.003  -0.003   0.000  -0.000   0.001
  0.001  -0.028  -0.007  -0.018   0.001   0.001  -0.008  -0.001  -0.006  -0.000  -0.003   0.001   0.000  -0.003  -0.000   0.000
 -0.028   0.001   0.012  -0.005  -0.019  -0.006   0.001   0.003  -0.001  -0.007  -0.008   0.001  -0.000  -0.000  -0.003   0.000


------------------------ aborting loop because EDIFF is reached ----------------------------------------


    CHARGE:  cpu time   25.5501: real time   25.5498
    FORLOC:  cpu time    6.7105: real time    6.7105
    FORNL :  cpu time   66.3000: real time   66.3000
    STRESS:  cpu time  203.2112: real time  203.2103
    FORCOR:  cpu time   22.2351: real time   22.2350
    FORHAR:  cpu time    9.6726: real time    9.6726
    MIXING:  cpu time    3.7173: real time    3.7173
    OFIELD:  cpu time    0.0000: real time    0.0000

  FORCE on cell =-STRESS in cart. coord.  units (eV):
  Direction    XX          YY          ZZ          XY          YZ          ZX
  --------------------------------------------------------------------------------------
  Alpha Z    75.25432    75.25432    75.25432
  Ewald   43837.90917 43805.30942 50024.45843    22.14825   242.35578   374.54903
  Hartree 58751.88232 58722.09011 64571.81001    19.88944   220.69180   341.35465
  E(xc)   -2904.80551 -2904.83514 -2902.89384     0.03296     0.16767     0.25278
  Local  ************************************   -41.66577  -460.73064  -712.35415
  n-local  -881.89796  -881.72066  -894.48399    -0.14263    -1.03190    -1.58391
  augment  4104.09269  4104.10281  4103.08001    -0.06061    -0.08934    -0.12720
  Kinetic  7809.67789  7809.83854  7791.00481    -0.25030    -1.43653    -2.19284
  Fock        0.00000     0.00000     0.00000     0.00000     0.00000     0.00000
  -------------------------------------------------------------------------------------
  Total    -113.77195  -113.73628  -112.25295    -0.04866    -0.07316    -0.10166
  in kB      -6.75122    -6.74910    -6.66108    -0.00289    -0.00434    -0.00603
  external pressure =       -6.72 kB  Pullay stress =        0.00 kB


 VOLUME and BASIS-vectors are now :
 -----------------------------------------------------------------------------
  energy-cutoff  :      400.00
  volume of cell :    27000.00
      direct lattice vectors                 reciprocal lattice vectors
    30.000000000  0.000000000  0.000000000     0.033333333  0.000000000  0.000000000
     0.000000000 30.000000000  0.000000000     0.000000000  0.033333333  0.000000000
     0.000000000  0.000000000 30.000000000     0.000000000  0.000000000  0.033333333

  length of vectors
    30.000000000 30.000000000 30.000000000     0.033333333  0.033333333  0.033333333


 FORCES acting on ions
    electron-ion (+dipol)            ewald-force                    non-local-force                 convergence-correction
 -----------------------------------------------------------------------------------------------
   0.396E+03 0.985E+03 0.397E+03   -.394E+03 -.982E+03 -.397E+03   -.150E+01 -.182E+01 -.216E+00   -.392E-02 0.558E-03 0.146E-02
   -.982E+03 -.398E+03 0.404E+03   0.979E+03 0.396E+03 -.403E+03   0.182E+01 0.150E+01 -.216E+00   -.380E-02 0.633E-02 -.159E-02
   -.400E+03 0.983E+03 0.400E+03   0.398E+03 -.980E+03 -.399E+03   0.150E+01 -.182E+01 -.212E+00   0.406E-02 0.157E-02 -.531E-03
   0.983E+03 -.400E+03 0.398E+03   -.980E+03 0.398E+03 -.398E+03   -.182E+01 0.150E+01 -.211E+00   0.493E-02 0.588E-02 0.626E-02
   -.106E+02 0.625E+03 0.917E+03   0.106E+02 -.624E+03 -.913E+03   -.751E-02 -.237E+00 -.234E+01   0.258E-02 0.539E-02 -.308E-02
   -.489E+00 0.587E+03 -.966E+03   0.489E+00 -.587E+03 0.963E+03   0.203E-03 -.309E+00 0.235E+01   -.100E-02 -.503E-03 0.311E-02
   -.916E+00 0.114E+04 -.853E+01   0.918E+00 -.113E+04 0.852E+01   -.122E-02 -.311E+01 0.165E-02   -.381E-03 -.233E-02 0.627E-02
   0.114E+04 -.630E+00 -.907E+01   -.113E+04 0.626E+00 0.906E+01   -.310E+01 -.689E-03 0.255E-02   0.216E-02 0.469E-02 -.837E-03
   -.114E+04 -.469E+00 -.658E+01   0.113E+04 0.466E+00 0.658E+01   0.311E+01 -.916E-03 -.125E-02   0.136E-02 0.337E-02 0.180E-02
   -.753E+00 -.114E+04 -.693E+01   0.759E+00 0.113E+04 0.693E+01   -.139E-02 0.311E+01 -.395E-03   -.415E-02 -.673E-02 0.103E-02
   -.601E+03 0.594E+03 0.791E+03   0.599E+03 -.591E+03 -.788E+03   0.156E+01 -.156E+01 -.219E+01   0.275E-02 0.270E-02 -.386E-02
   -.580E+03 0.579E+03 -.814E+03   0.577E+03 -.577E+03 0.811E+03   0.156E+01 -.156E+01 0.220E+01   -.172E-02 0.145E-02 0.142E-02
   0.595E+03 -.603E+03 0.787E+03   -.592E+03 0.601E+03 -.784E+03   -.156E+01 0.156E+01 -.219E+01   0.231E-02 0.402E-02 0.828E-02
   0.579E+03 -.579E+03 -.814E+03   -.576E+03 0.577E+03 0.811E+03   -.156E+01 0.156E+01 0.220E+01   0.297E-02 0.377E-02 -.489E-02
   0.602E+03 0.604E+03 0.777E+03   -.599E+03 -.602E+03 -.774E+03   -.155E+01 -.155E+01 -.218E+01   -.386E-02 0.216E-02 -.578E-03
   0.579E+03 0.579E+03 -.814E+03   -.577E+03 -.577E+03 0.811E+03   -.156E+01 -.156E+01 0.220E+01   0.156E-02 -.885E-03 0.308E-02
   -.596E+03 -.595E+03 0.795E+03   0.593E+03 0.592E+03 -.792E+03   0.156E+01 0.156E+01 -.220E+01   -.231E-02 0.310E-03 0.441E-02
   -.579E+03 -.579E+03 -.814E+03   0.577E+03 0.577E+03 0.811E+03   0.156E+01 0.156E+01 0.220E+01   -.429E-02 0.701E-03 -.273E-02
   0.394E+03 0.974E+03 -.422E+03   -.392E+03 -.971E+03 0.421E+03   -.150E+01 -.182E+01 0.218E+00   -.389E-03 0.440E-03 0.591E-02
   -.974E+03 -.395E+03 -.421E+03   0.971E+03 0.393E+03 0.420E+03   0.182E+01 0.150E+01 0.227E+00   -.286E-02 0.277E-02 0.180E-02
   -.333E+03 0.326E+03 0.424E+03   0.333E+03 -.327E+03 -.425E+03   -.340E+00 0.340E+00 0.535E+00   -.154E-02 0.102E-01 -.959E-03
   0.984E+03 0.397E+03 0.396E+03   -.982E+03 -.395E+03 -.396E+03   -.182E+01 -.150E+01 -.214E+00   -.228E-02 0.549E-02 0.473E-02
   -.399E+03 -.982E+03 0.403E+03   0.397E+03 0.979E+03 -.403E+03   0.150E+01 0.182E+01 -.215E+00   -.735E-02 -.932E-03 0.768E-02
   -.395E+03 0.973E+03 -.421E+03   0.393E+03 -.970E+03 0.421E+03   0.150E+01 -.182E+01 0.223E+00   -.111E-02 0.606E-03 0.551E-02
   0.973E+03 -.395E+03 -.422E+03   -.970E+03 0.393E+03 0.421E+03   -.182E+01 0.150E+01 0.221E+00   0.329E-02 0.625E-02 -.429E-02
   -.983E+03 0.396E+03 0.403E+03   0.980E+03 -.394E+03 -.402E+03   0.182E+01 -.150E+01 -.217E+00   -.591E-03 0.369E-02 -.191E-02
   0.396E+03 -.983E+03 0.402E+03   -.393E+03 0.981E+03 -.401E+03   -.150E+01 0.182E+01 -.217E+00   0.107E-02 -.215E-02 0.109E-01
   0.326E+03 0.328E+03 0.417E+03   -.327E+03 -.328E+03 -.418E+03   0.357E+00 0.357E+00 0.493E+00   -.298E-03 0.123E-01 0.430E-02
   -.152E+01 0.643E+03 -.146E+02   0.152E+01 -.644E+03 0.146E+02   -.166E-03 0.732E+00 0.866E-02   -.614E-03 0.543E-02 0.424E-02
   -.619E+03 -.401E+01 0.936E+03   0.618E+03 0.401E+01 -.932E+03   0.292E+00 0.299E-03 -.235E+01   -.274E-02 0.598E-02 0.107E-02
   -.588E+03 -.295E+00 -.966E+03   0.587E+03 0.291E+00 0.962E+03   0.309E+00 0.124E-03 0.235E+01   -.142E-02 0.369E-02 0.177E-03
   0.627E+03 -.789E+01 0.910E+03   -.626E+03 0.789E+01 -.906E+03   -.210E+00 -.846E-02 -.235E+01   0.910E-03 0.781E-02 0.557E-02
   0.587E+03 -.326E+00 -.966E+03   -.586E+03 0.321E+00 0.963E+03   -.309E+00 0.126E-03 0.235E+01   0.600E-03 0.450E-02 0.652E-03
   0.764E+03 0.764E+03 -.127E+02   -.762E+03 -.762E+03 0.127E+02   -.114E+01 -.114E+01 -.338E-04   -.342E-02 0.372E-02 0.191E-02
   -.764E+03 -.764E+03 -.909E+01   0.763E+03 0.762E+03 0.911E+01   0.114E+01 0.114E+01 -.126E-01   -.863E-02 0.332E-02 -.491E-03
   -.765E+03 0.763E+03 -.103E+02   0.763E+03 -.761E+03 0.103E+02   0.114E+01 -.114E+01 -.912E-02   0.146E-02 0.114E-02 0.338E-02
   0.763E+03 -.765E+03 -.111E+02   -.761E+03 0.763E+03 0.111E+02   -.114E+01 0.114E+01 -.642E-02   0.790E-02 0.320E-02 -.133E-02
   -.271E+02 -.175E+02 0.956E+03   0.272E+02 0.175E+02 -.954E+03   -.148E+00 -.951E-01 -.171E+01   0.211E-02 0.773E-02 0.521E-02
   -.522E+00 -.340E+00 -.107E+04   0.519E+00 0.335E+00 0.107E+04   0.125E-02 0.764E-03 0.162E+01   0.946E-03 0.424E-02 0.132E-03
   0.973E+03 0.394E+03 -.422E+03   -.971E+03 -.392E+03 0.421E+03   -.182E+01 -.150E+01 0.218E+00   -.726E-03 0.404E-02 -.105E-02
   -.395E+03 -.974E+03 -.421E+03   0.393E+03 0.971E+03 0.420E+03   0.150E+01 0.182E+01 0.227E+00   -.917E-02 -.122E-03 -.630E-02
   -.323E+03 0.322E+03 -.460E+03   0.323E+03 -.322E+03 0.461E+03   -.366E+00 0.366E+00 -.520E+00   -.735E-03 0.426E-02 0.384E-02
   0.325E+03 -.332E+03 0.422E+03   -.326E+03 0.333E+03 -.422E+03   0.347E+00 -.346E+00 0.520E+00   0.176E-02 0.100E-01 0.830E-02
   0.321E+03 0.322E+03 -.461E+03   -.322E+03 -.322E+03 0.461E+03   0.365E+00 0.365E+00 -.523E+00   -.336E-04 0.359E-02 0.187E-02
   -.974E+03 0.394E+03 -.421E+03   0.971E+03 -.392E+03 0.420E+03   0.182E+01 -.150E+01 0.224E+00   0.127E-02 0.232E-02 0.323E-02
   0.394E+03 -.974E+03 -.421E+03   -.392E+03 0.971E+03 0.420E+03   -.150E+01 0.182E+01 0.222E+00   0.276E-02 -.274E-03 -.875E-02
   -.331E+03 -.330E+03 0.427E+03   0.332E+03 0.331E+03 -.428E+03   -.326E+00 -.325E+00 0.562E+00   -.628E-02 0.652E-02 0.253E-02
   0.643E+03 -.103E+01 -.152E+02   -.644E+03 0.102E+01 0.152E+02   0.731E+00 -.446E-04 0.117E-01   0.575E-03 0.115E-01 -.282E-02
   -.644E+03 -.829E+00 -.121E+02   0.645E+03 0.822E+00 0.121E+02   -.734E+00 -.367E-03 -.229E-02   -.420E-02 0.777E-02 0.345E-03
   -.687E+01 -.620E+03 0.933E+03   0.688E+01 0.619E+03 -.930E+03   -.144E-03 0.285E+00 -.234E+01   -.136E-02 0.104E-02 0.924E-02
   -.458E+00 -.588E+03 -.966E+03   0.459E+00 0.587E+03 0.962E+03   0.151E-03 0.309E+00 0.235E+01   -.165E-02 0.310E-02 -.605E-02
   -.181E+01 -.118E+01 -.176E+02   0.181E+01 0.117E+01 0.176E+02   -.108E-02 -.687E-03 0.234E-02   -.286E-02 0.139E-01 -.327E-02
   0.321E+03 -.323E+03 -.460E+03   -.322E+03 0.323E+03 0.461E+03   0.366E+00 -.366E+00 -.521E+00   0.117E-02 0.116E-01 -.573E-02
   -.323E+03 -.322E+03 -.460E+03   0.323E+03 0.323E+03 0.460E+03   -.367E+00 -.367E+00 -.518E+00   -.492E-02 0.796E-02 -.124E-02
   -.131E+01 -.644E+03 -.126E+02   0.132E+01 0.645E+03 0.126E+02   -.492E-03 -.734E+00 0.529E-04   -.618E-02 0.730E-02 -.118E-02
   0.103E+02 0.684E+01 0.159E+03   -.744E+01 -.502E+01 -.130E+03   -.246E+01 -.158E+01 -.260E+02   0.506E-03 0.128E-02 0.873E-04
   0.598E+02 0.386E+02 0.660E+03   -.658E+02 -.425E+02 -.723E+03   0.580E+01 0.373E+01 0.602E+02   0.389E-03 0.131E-02 -.403E-03
 -----------------------------------------------------------------------------------------------
   -.325E+01 -.235E+01 -.344E+02   0.426E-12 0.355E-13 -.455E-12   0.331E+01 0.212E+01 0.343E+02   -.454E-01 0.219E+00 0.658E-01
 
 
 POSITION                                       TOTAL-FORCE (eV/Angst)
 -----------------------------------------------------------------------------------
     13.37281      9.84801     12.50759         0.701407      1.106519      0.292159
     20.15199     16.62719     12.50759        -1.107427     -0.702328      0.291343
     16.62719      9.84801     12.50759        -0.704100      1.108714      0.290108
      9.84801     16.62719     12.50759         1.108304     -0.704131      0.290010
     15.00000     11.47521     10.20639         0.001668      0.386894      1.302415
     15.00000     11.47521     19.79360        -0.000502      0.411862     -1.281461
     15.00000      8.28283     15.00000        -0.000035      1.515395     -0.000176
      8.28283     15.00000     15.00000         1.515080      0.000201     -0.000551
     21.71717     15.00000     15.00000        -1.516266      0.000320      0.000344
     15.00000     21.71717     15.00000        -0.000027     -1.516252      0.000199
     18.35858     11.64142     10.25025        -0.756704      0.757729      1.072560
     18.35858     11.64142     19.74975        -0.756043      0.755379     -1.072840
     11.64142     18.35858     10.25025         0.757330     -0.755463      1.073384
     11.64142     18.35858     19.74975         0.755049     -0.755842     -1.073037
     11.64142     11.64142     10.25025         0.754619      0.753963      1.075585
     11.64142     11.64142     19.74975         0.755390      0.755971     -1.072842
     18.35858     18.35858     10.25025        -0.756955     -0.756645      1.071290
     18.35858     18.35858     19.74975        -0.755946     -0.755469     -1.072828
     13.37281      9.84801     17.49241         0.702594      1.107844     -0.291786
     20.15199     16.62719     17.49241        -1.107903     -0.702989     -0.293720
     16.73751     13.26249     12.54279         0.113523     -0.105565     -0.157500
      9.84801     13.37281     12.50759         1.106447      0.702743      0.291775
     16.62719     20.15199     12.50759        -0.703194     -1.107234      0.291236
     16.62719      9.84801     17.49241        -0.702860      1.108284     -0.292735
      9.84801     16.62719     17.49241         1.107957     -0.702313     -0.292128
     20.15199     13.37281     12.50759        -1.107269      0.701444      0.291810
     13.37281     20.15199     12.50759         0.701101     -1.107040      0.292309
     13.26249     13.26249     12.54279        -0.120524     -0.122020     -0.150377
     15.00000     11.52498     15.00000         0.000705     -0.225596      0.001573
     18.52479     15.00000     10.20639        -0.404486      0.000108      1.295381
     18.52479     15.00000     19.79360        -0.411609      0.000119     -1.281230
     11.47521     15.00000     10.20640         0.382998      0.001318      1.301078
     11.47521     15.00000     19.79360         0.411411      0.000013     -1.281287
     11.49535     11.49535     15.00000         0.826850      0.827036      0.002504
     18.50465     18.50465     15.00000        -0.825102     -0.825032      0.006119
     18.50465     11.49535     15.00000        -0.824677      0.825918      0.006221
     11.49535     18.50465     15.00000         0.826116     -0.824905      0.005313
     15.00000     15.00000     10.04368        -0.070483     -0.045412      0.710755
     15.00000     15.00000     19.95633        -0.001313     -0.000523     -1.180949
      9.84801     13.37281     17.49241         1.107529      0.702829     -0.291685
     16.62719     20.15199     17.49241        -0.703332     -1.107682     -0.293905
     16.73751     13.26249     17.45721         0.112376     -0.112355      0.156726
     13.26249     16.73751     12.54279        -0.111456      0.119584     -0.153799
     13.26249     13.26249     17.45721        -0.112782     -0.112493      0.156775
     20.15199     13.37281     17.49241        -1.107481      0.703080     -0.292719
     13.37281     20.15199     17.49241         0.702626     -1.107135     -0.292434
     16.73751     16.73751     12.54279         0.095438      0.094056     -0.170159
     11.52498     15.00000     15.00000        -0.225961      0.000649      0.001984
     18.47502     15.00000     15.00000         0.226121      0.000909     -0.000304
     15.00000     18.52480     10.20639         0.000102     -0.401277      1.296813
     15.00000     18.52480     19.79360        -0.000378     -0.411408     -1.281248
     15.00000     15.00000     15.00000        -0.000432      0.000065     -0.005209
     13.26249     16.73751     17.45721        -0.112768      0.112868      0.156779
     16.73751     16.73751     17.45721         0.112090      0.112500      0.156884
     15.00000     18.47502     15.00000         0.000970      0.226618      0.000191
     14.24828     14.51555      7.20931         0.361321      0.234892      2.909507
     14.14015     14.44587      6.08867        -0.239107     -0.168714     -2.514227
 -----------------------------------------------------------------------------------
    total drift:                                0.010415     -0.010286      0.004028


--------------------------------------------------------------------------------------------------------



  FREE ENERGIE OF THE ION-ELECTRON SYSTEM (eV)
  ---------------------------------------------------
  free  energy   TOTEN  =      -173.69148855 eV

  energy  without entropy=     -173.60048607  energy(sigma->0) =     -173.66873793
 


--------------------------------------------------------------------------------------------------------


    POTLOK:  cpu time   14.4487: real time   14.4485


--------------------------------------------------------------------------------------------------------


     LOOP+:  cpu time18376.0257: real time18376.9445
    4ORBIT:  cpu time    0.0000: real time    0.0000

 total amount of memory used by VASP MPI-rank0  5486942. kBytes
=======================================================================

   base      :      30000. kBytes
   nonlr-proj:      17127. kBytes
   fftplans  :     924480. kBytes
   grid      :    1872000. kBytes
   one-center:        886. kBytes
   wavefun   :    2642449. kBytes
 
  
  
 General timing and accounting informations for this job:
 ========================================================
  
                  Total CPU time used (sec):    18451.035
                            User time (sec):    17426.667
                          System time (sec):     1024.368
                         Elapsed time (sec):    18452.011
  
                   Maximum memory used (kb):     7179084.
                   Average memory used (kb):           0.
  
                          Minor page faults:    821459616
                          Major page faults:            0
                 Voluntary context switches:          446
