  57  57   0   0
  0.4736842E+03  0.3000000E-08  0.3000000E-08  0.3000000E-08  0.5000000E-15
  1.000000000000000E-004
  CAR 
 6_Pd100_top_free_z(O)                   
      1.23045096    -31.04368842  301     -4.12869252      1.00000000
    -31.044  0.0000E+00  0.0000E+00
    -30.936  0.0000E+00  0.0000E+00
    -30.829  0.0000E+00  0.0000E+00
    -30.721  0.4201E-27  0.4519E-28
    -30.613  0.2119E-23  0.2280E-24
    -30.506  0.5900E-20  0.6349E-21
    -30.398  0.9036E-17  0.9728E-18
    -30.291  0.7586E-14  0.8171E-15
    -30.183  0.3481E-11  0.3753E-12
    -30.075  0.8638E-09  0.9330E-10
    -29.968  0.1149E-06  0.1246E-07
    -29.860  0.8065E-05  0.8801E-06
    -29.753  0.2902E-03  0.3210E-04
    -29.645  0.5062E-02  0.5767E-03
    -29.538  0.3690E-01  0.4547E-02
    -29.430  0.4434E-01  0.9317E-02
    -29.322 -0.4500E+00 -0.3909E-01
    -29.215 -0.5199E+00 -0.9502E-01
    -29.107  0.4394E+01  0.3777E+00
    -29.000  0.9955E+01  0.1449E+01
    -28.892  0.5761E+01  0.2068E+01
    -28.784 -0.1038E+00  0.2057E+01
    -28.677 -0.5978E+00  0.1993E+01
    -28.569  0.1045E-01  0.1994E+01
    -28.462  0.4672E-01  0.1999E+01
    -28.354  0.7803E-02  0.2000E+01
    -28.247  0.5158E-03  0.2000E+01
    -28.139  0.1626E-04  0.2000E+01
    -28.031  0.2608E-06  0.2000E+01
    -27.924  0.2198E-08  0.2000E+01
    -27.816  0.9911E-11  0.2000E+01
    -27.709  0.2477E-13  0.2000E+01
    -27.601  0.0000E+00  0.2000E+01
    -27.494  0.0000E+00  0.2000E+01
    -27.386  0.0000E+00  0.2000E+01
    -27.278  0.0000E+00  0.2000E+01
    -27.171  0.0000E+00  0.2000E+01
    -27.063  0.0000E+00  0.2000E+01
    -26.956  0.0000E+00  0.2000E+01
    -26.848  0.0000E+00  0.2000E+01
    -26.740  0.0000E+00  0.2000E+01
    -26.633  0.0000E+00  0.2000E+01
    -26.525  0.0000E+00  0.2000E+01
    -26.418  0.0000E+00  0.2000E+01
    -26.310  0.0000E+00  0.2000E+01
    -26.203  0.0000E+00  0.2000E+01
    -26.095  0.0000E+00  0.2000E+01
    -25.987  0.0000E+00  0.2000E+01
    -25.880  0.0000E+00  0.2000E+01
    -25.772  0.0000E+00  0.2000E+01
    -25.665  0.0000E+00  0.2000E+01
    -25.557  0.0000E+00  0.2000E+01
    -25.450  0.0000E+00  0.2000E+01
    -25.342  0.0000E+00  0.2000E+01
    -25.234  0.0000E+00  0.2000E+01
    -25.127  0.0000E+00  0.2000E+01
    -25.019  0.0000E+00  0.2000E+01
    -24.912  0.0000E+00  0.2000E+01
    -24.804  0.0000E+00  0.2000E+01
    -24.696  0.0000E+00  0.2000E+01
    -24.589  0.0000E+00  0.2000E+01
    -24.481  0.0000E+00  0.2000E+01
    -24.374  0.0000E+00  0.2000E+01
    -24.266  0.0000E+00  0.2000E+01
    -24.159  0.0000E+00  0.2000E+01
    -24.051  0.0000E+00  0.2000E+01
    -23.943  0.0000E+00  0.2000E+01
    -23.836  0.0000E+00  0.2000E+01
    -23.728  0.0000E+00  0.2000E+01
    -23.621  0.0000E+00  0.2000E+01
    -23.513  0.0000E+00  0.2000E+01
    -23.405  0.0000E+00  0.2000E+01
    -23.298  0.0000E+00  0.2000E+01
    -23.190  0.0000E+00  0.2000E+01
    -23.083  0.0000E+00  0.2000E+01
    -22.975  0.0000E+00  0.2000E+01
    -22.868  0.0000E+00  0.2000E+01
    -22.760  0.0000E+00  0.2000E+01
    -22.652  0.0000E+00  0.2000E+01
    -22.545  0.0000E+00  0.2000E+01
    -22.437  0.0000E+00  0.2000E+01
    -22.330  0.0000E+00  0.2000E+01
    -22.222  0.0000E+00  0.2000E+01
    -22.115  0.0000E+00  0.2000E+01
    -22.007  0.0000E+00  0.2000E+01
    -21.899  0.0000E+00  0.2000E+01
    -21.792  0.0000E+00  0.2000E+01
    -21.684  0.0000E+00  0.2000E+01
    -21.577  0.0000E+00  0.2000E+01
    -21.469  0.0000E+00  0.2000E+01
    -21.361  0.0000E+00  0.2000E+01
    -21.254  0.0000E+00  0.2000E+01
    -21.146  0.0000E+00  0.2000E+01
    -21.039  0.0000E+00  0.2000E+01
    -20.931  0.0000E+00  0.2000E+01
    -20.824  0.0000E+00  0.2000E+01
    -20.716  0.0000E+00  0.2000E+01
    -20.608  0.0000E+00  0.2000E+01
    -20.501  0.0000E+00  0.2000E+01
    -20.393  0.0000E+00  0.2000E+01
    -20.286  0.0000E+00  0.2000E+01
    -20.178  0.0000E+00  0.2000E+01
    -20.070  0.0000E+00  0.2000E+01
    -19.963  0.0000E+00  0.2000E+01
    -19.855  0.0000E+00  0.2000E+01
    -19.748  0.0000E+00  0.2000E+01
    -19.640  0.0000E+00  0.2000E+01
    -19.533  0.0000E+00  0.2000E+01
    -19.425  0.0000E+00  0.2000E+01
    -19.317  0.0000E+00  0.2000E+01
    -19.210  0.0000E+00  0.2000E+01
    -19.102  0.0000E+00  0.2000E+01
    -18.995  0.0000E+00  0.2000E+01
    -18.887  0.0000E+00  0.2000E+01
    -18.780  0.0000E+00  0.2000E+01
    -18.672  0.0000E+00  0.2000E+01
    -18.564  0.0000E+00  0.2000E+01
    -18.457  0.0000E+00  0.2000E+01
    -18.349  0.0000E+00  0.2000E+01
    -18.242  0.0000E+00  0.2000E+01
    -18.134  0.0000E+00  0.2000E+01
    -18.026  0.0000E+00  0.2000E+01
    -17.919  0.0000E+00  0.2000E+01
    -17.811  0.0000E+00  0.2000E+01
    -17.704  0.0000E+00  0.2000E+01
    -17.596  0.0000E+00  0.2000E+01
    -17.489  0.0000E+00  0.2000E+01
    -17.381  0.0000E+00  0.2000E+01
    -17.273  0.0000E+00  0.2000E+01
    -17.166  0.0000E+00  0.2000E+01
    -17.058  0.0000E+00  0.2000E+01
    -16.951  0.0000E+00  0.2000E+01
    -16.843  0.0000E+00  0.2000E+01
    -16.735  0.0000E+00  0.2000E+01
    -16.628  0.0000E+00  0.2000E+01
    -16.520  0.0000E+00  0.2000E+01
    -16.413  0.0000E+00  0.2000E+01
    -16.305  0.0000E+00  0.2000E+01
    -16.198  0.0000E+00  0.2000E+01
    -16.090  0.0000E+00  0.2000E+01
    -15.982  0.0000E+00  0.2000E+01
    -15.875  0.0000E+00  0.2000E+01
    -15.767  0.0000E+00  0.2000E+01
    -15.660  0.0000E+00  0.2000E+01
    -15.552  0.0000E+00  0.2000E+01
    -15.445  0.0000E+00  0.2000E+01
    -15.337  0.0000E+00  0.2000E+01
    -15.229  0.3581E-25  0.2000E+01
    -15.122  0.1332E-21  0.2000E+01
    -15.014  0.2731E-18  0.2000E+01
    -14.907  0.3075E-15  0.2000E+01
    -14.799  0.1893E-12  0.2000E+01
    -14.691  0.6352E-10  0.2000E+01
    -14.584  0.1147E-07  0.2000E+01
    -14.476  0.1102E-05  0.2000E+01
    -14.369  0.5517E-04  0.2000E+01
    -14.261  0.1384E-02  0.2000E+01
    -14.154  0.1592E-01  0.2002E+01
    -14.046  0.6187E-01  0.2009E+01
    -13.938 -0.1131E+00  0.1996E+01
    -13.831 -0.7981E+00  0.1910E+01
    -13.723  0.1226E+01  0.2042E+01
    -13.616  0.8076E+01  0.2911E+01
    -13.508  0.8938E+01  0.3873E+01
    -13.400  0.2109E+01  0.4100E+01
    -13.293 -0.8124E+00  0.4012E+01
    -13.185 -0.2029E+00  0.3991E+01
    -13.078  0.6418E-01  0.3997E+01
    -12.970  0.2145E-01  0.4000E+01
    -12.863  0.2140E-02  0.4000E+01
    -12.755  0.9562E-04  0.4000E+01
    -12.647  0.2121E-05  0.4000E+01
    -12.540  0.2439E-07  0.4000E+01
    -12.432  0.3824E-09  0.4000E+01
    -12.325  0.3932E-07  0.4000E+01
    -12.217  0.3517E-05  0.4000E+01
    -12.110  0.1634E-03  0.4000E+01
    -12.002  0.3780E-02  0.4000E+01
    -11.894  0.3945E-01  0.4005E+01
    -11.787  0.1280E+00  0.4018E+01
    -11.679 -0.3495E+00  0.3981E+01
    -11.572 -0.1631E+01  0.3805E+01
    -11.464  0.3675E+01  0.4201E+01
    -11.356  0.1742E+02  0.6074E+01
    -11.249  0.1669E+02  0.7870E+01
    -11.141  0.2935E+01  0.8186E+01
    -11.034 -0.1619E+01  0.8012E+01
    -10.926 -0.2744E+00  0.7982E+01
    -10.819  0.1260E+00  0.7996E+01
    -10.711  0.3482E-01  0.8000E+01
    -10.603  0.3164E-02  0.8000E+01
    -10.496  0.5881E-03  0.8000E+01
    -10.388  0.7147E-02  0.8001E+01
    -10.281  0.4465E-01  0.8006E+01
    -10.173  0.1927E-01  0.8008E+01
    -10.065 -0.5675E+00  0.7947E+01
     -9.958 -0.2083E+00  0.7924E+01
     -9.850  0.5475E+01  0.8513E+01
     -9.743  0.9989E+01  0.9588E+01
     -9.635  0.4679E+01  0.1009E+02
     -9.528 -0.4498E+00  0.1004E+02
     -9.420 -0.4811E+00  0.9991E+01
     -9.312  0.3890E-01  0.9995E+01
     -9.205  0.3892E-01  0.9999E+01
     -9.097  0.5555E-02  0.1000E+02
     -8.990  0.3280E-03  0.1000E+02
     -8.882  0.9356E-05  0.1000E+02
     -8.775  0.1367E-06  0.1000E+02
     -8.667  0.1052E-08  0.1000E+02
     -8.559  0.4338E-11  0.1000E+02
     -8.452  0.1032E-13  0.1000E+02
     -8.344  0.0000E+00  0.1000E+02
     -8.237  0.1041E-24  0.1000E+02
     -8.129  0.3594E-21  0.1000E+02
     -8.021  0.6834E-18  0.1000E+02
     -7.914  0.7134E-15  0.1000E+02
     -7.806  0.4080E-12  0.1000E+02
     -7.699  0.1264E-09  0.1000E+02
     -7.591  0.2110E-07  0.1000E+02
     -7.484  0.1870E-05  0.1000E+02
     -7.376  0.8607E-04  0.1000E+02
     -7.268  0.1970E-02  0.1000E+02
     -7.161  0.2029E-01  0.1000E+02
     -7.053  0.6414E-01  0.1001E+02
     -6.946 -0.1839E+00  0.9990E+01
     -6.838 -0.8151E+00  0.9902E+01
     -6.731  0.1936E+01  0.1011E+02
     -6.623  0.8871E+01  0.1106E+02
     -6.515  0.8441E+01  0.1197E+02
     -6.408  0.4833E+00  0.1202E+02
     -6.300 -0.2920E+01  0.1171E+02
     -6.193  0.9434E+01  0.1273E+02
     -6.085  0.2816E+02  0.1575E+02
     -5.977  0.1895E+02  0.1779E+02
     -5.870  0.7987E+01  0.1865E+02
     -5.762  0.3125E+02  0.2201E+02
     -5.655  0.8359E+02  0.3101E+02
     -5.547  0.1904E+03  0.5149E+02
     -5.440  0.2991E+03  0.8367E+02
     -5.332  0.2836E+03  0.1142E+03
     -5.224  0.2100E+03  0.1368E+03
     -5.117  0.2344E+03  0.1620E+03
     -5.009  0.3359E+03  0.1981E+03
     -4.902  0.3671E+03  0.2376E+03
     -4.794  0.3037E+03  0.2703E+03
     -4.686  0.3139E+03  0.3041E+03
     -4.579  0.4022E+03  0.3473E+03
     -4.471  0.4184E+03  0.3923E+03
     -4.364  0.4442E+03  0.4401E+03
     -4.256  0.5484E+03  0.4991E+03
     -4.149  0.5004E+03  0.5530E+03
     -4.041  0.2307E+03  0.5778E+03
     -3.933  0.3432E+02  0.5815E+03
     -3.826  0.2039E+02  0.5837E+03
     -3.718  0.3115E+02  0.5870E+03
     -3.611  0.1025E+02  0.5881E+03
     -3.503  0.1346E+02  0.5896E+03
     -3.396  0.2763E+02  0.5925E+03
     -3.288  0.1265E+02  0.5939E+03
     -3.180 -0.2870E+01  0.5936E+03
     -3.073  0.2442E+02  0.5962E+03
     -2.965  0.6440E+02  0.6032E+03
     -2.858  0.5117E+02  0.6087E+03
     -2.750  0.1216E+02  0.6100E+03
     -2.642  0.3404E+01  0.6103E+03
     -2.535  0.2275E+02  0.6128E+03
     -2.427  0.2498E+02  0.6155E+03
     -2.320  0.7827E+01  0.6163E+03
     -2.212  0.1177E+02  0.6176E+03
     -2.105  0.2892E+02  0.6207E+03
     -1.997  0.3397E+02  0.6243E+03
     -1.889  0.4178E+02  0.6288E+03
     -1.782  0.5231E+02  0.6345E+03
     -1.674  0.4390E+02  0.6392E+03
     -1.567  0.3433E+02  0.6429E+03
     -1.459  0.3762E+02  0.6469E+03
     -1.351  0.2545E+02  0.6497E+03
     -1.244  0.3739E+01  0.6501E+03
     -1.136  0.9814E+01  0.6511E+03
     -1.029  0.4131E+02  0.6556E+03
     -0.921  0.6847E+02  0.6629E+03
     -0.814  0.5802E+02  0.6692E+03
     -0.706  0.2482E+02  0.6718E+03
     -0.598  0.3327E+01  0.6722E+03
     -0.491 -0.1759E+01  0.6720E+03
     -0.383 -0.4143E+00  0.6720E+03
     -0.276  0.1969E+00  0.6720E+03
     -0.168  0.7452E-01  0.6720E+03
     -0.061  0.8844E-02  0.6720E+03
      0.047  0.4722E-03  0.6720E+03
      0.155  0.1250E-04  0.6720E+03
      0.262  0.1715E-06  0.6720E+03
      0.370  0.1248E-08  0.6720E+03
      0.477  0.4883E-11  0.6720E+03
      0.585  0.1032E-13  0.6720E+03
      0.693  0.0000E+00  0.6720E+03
      0.800  0.0000E+00  0.6720E+03
      0.908  0.0000E+00  0.6720E+03
      1.015  0.0000E+00  0.6720E+03
      1.123  0.0000E+00  0.6720E+03
      1.230  0.0000E+00  0.6720E+03
