  57  57   0   0
  0.4736842E+03  0.3000000E-08  0.3000000E-08  0.3000000E-08  0.5000000E-15
  1.000000000000000E-004
  CAR 
 6_Pd100_top_free_z(O)                   
      1.25287687    -30.31964740  301     -4.18229614      1.00000000
    -30.320  0.0000E+00  0.0000E+00
    -30.214  0.0000E+00  0.0000E+00
    -30.109  0.0000E+00  0.0000E+00
    -30.004  0.2412E-27  0.2539E-28
    -29.899  0.1057E-23  0.1112E-24
    -29.793  0.2621E-20  0.2759E-21
    -29.688  0.3671E-17  0.3866E-18
    -29.583  0.2894E-14  0.3049E-15
    -29.478  0.1280E-11  0.1350E-12
    -29.372  0.3150E-09  0.3329E-10
    -29.267  0.4277E-07  0.4535E-08
    -29.162  0.3161E-05  0.3372E-06
    -29.057  0.1243E-03  0.1342E-04
    -28.952  0.2487E-02  0.2751E-03
    -28.846  0.2287E-01  0.2683E-02
    -28.741  0.6455E-01  0.9476E-02
    -28.636 -0.1976E+00 -0.1132E-01
    -28.531 -0.8214E+00 -0.9777E-01
    -28.425  0.1803E+01  0.9193E-01
    -28.320  0.8588E+01  0.9957E+00
    -28.215  0.8629E+01  0.1904E+01
    -28.110  0.1847E+01  0.2098E+01
    -28.004 -0.8209E+00  0.2012E+01
    -27.899 -0.2024E+00  0.1990E+01
    -27.794  0.6451E-01  0.1997E+01
    -27.689  0.2319E-01  0.2000E+01
    -27.583  0.2538E-02  0.2000E+01
    -27.478  0.1275E-03  0.2000E+01
    -27.373  0.3260E-05  0.2000E+01
    -27.268  0.4433E-07  0.2000E+01
    -27.162  0.3280E-09  0.2000E+01
    -27.057  0.1340E-11  0.2000E+01
    -26.952  0.2110E-14  0.2000E+01
    -26.847  0.0000E+00  0.2000E+01
    -26.741  0.0000E+00  0.2000E+01
    -26.636  0.0000E+00  0.2000E+01
    -26.531  0.0000E+00  0.2000E+01
    -26.426  0.0000E+00  0.2000E+01
    -26.320  0.0000E+00  0.2000E+01
    -26.215  0.0000E+00  0.2000E+01
    -26.110  0.0000E+00  0.2000E+01
    -26.005  0.0000E+00  0.2000E+01
    -25.899  0.0000E+00  0.2000E+01
    -25.794  0.0000E+00  0.2000E+01
    -25.689  0.0000E+00  0.2000E+01
    -25.584  0.0000E+00  0.2000E+01
    -25.479  0.0000E+00  0.2000E+01
    -25.373  0.0000E+00  0.2000E+01
    -25.268  0.0000E+00  0.2000E+01
    -25.163  0.0000E+00  0.2000E+01
    -25.058  0.0000E+00  0.2000E+01
    -24.952  0.0000E+00  0.2000E+01
    -24.847  0.0000E+00  0.2000E+01
    -24.742  0.0000E+00  0.2000E+01
    -24.637  0.0000E+00  0.2000E+01
    -24.531  0.0000E+00  0.2000E+01
    -24.426  0.0000E+00  0.2000E+01
    -24.321  0.0000E+00  0.2000E+01
    -24.216  0.0000E+00  0.2000E+01
    -24.110  0.0000E+00  0.2000E+01
    -24.005  0.0000E+00  0.2000E+01
    -23.900  0.0000E+00  0.2000E+01
    -23.795  0.0000E+00  0.2000E+01
    -23.689  0.0000E+00  0.2000E+01
    -23.584  0.0000E+00  0.2000E+01
    -23.479  0.0000E+00  0.2000E+01
    -23.374  0.0000E+00  0.2000E+01
    -23.268  0.0000E+00  0.2000E+01
    -23.163  0.0000E+00  0.2000E+01
    -23.058  0.0000E+00  0.2000E+01
    -22.953  0.0000E+00  0.2000E+01
    -22.847  0.0000E+00  0.2000E+01
    -22.742  0.0000E+00  0.2000E+01
    -22.637  0.0000E+00  0.2000E+01
    -22.532  0.0000E+00  0.2000E+01
    -22.427  0.0000E+00  0.2000E+01
    -22.321  0.0000E+00  0.2000E+01
    -22.216  0.0000E+00  0.2000E+01
    -22.111  0.0000E+00  0.2000E+01
    -22.006  0.0000E+00  0.2000E+01
    -21.900  0.0000E+00  0.2000E+01
    -21.795  0.0000E+00  0.2000E+01
    -21.690  0.0000E+00  0.2000E+01
    -21.585  0.0000E+00  0.2000E+01
    -21.479  0.0000E+00  0.2000E+01
    -21.374  0.0000E+00  0.2000E+01
    -21.269  0.0000E+00  0.2000E+01
    -21.164  0.0000E+00  0.2000E+01
    -21.058  0.0000E+00  0.2000E+01
    -20.953  0.0000E+00  0.2000E+01
    -20.848  0.0000E+00  0.2000E+01
    -20.743  0.0000E+00  0.2000E+01
    -20.637  0.0000E+00  0.2000E+01
    -20.532  0.0000E+00  0.2000E+01
    -20.427  0.0000E+00  0.2000E+01
    -20.322  0.0000E+00  0.2000E+01
    -20.216  0.0000E+00  0.2000E+01
    -20.111  0.0000E+00  0.2000E+01
    -20.006  0.0000E+00  0.2000E+01
    -19.901  0.0000E+00  0.2000E+01
    -19.795  0.0000E+00  0.2000E+01
    -19.690  0.0000E+00  0.2000E+01
    -19.585  0.0000E+00  0.2000E+01
    -19.480  0.0000E+00  0.2000E+01
    -19.375  0.0000E+00  0.2000E+01
    -19.269  0.0000E+00  0.2000E+01
    -19.164  0.0000E+00  0.2000E+01
    -19.059  0.0000E+00  0.2000E+01
    -18.954  0.0000E+00  0.2000E+01
    -18.848  0.0000E+00  0.2000E+01
    -18.743  0.0000E+00  0.2000E+01
    -18.638  0.0000E+00  0.2000E+01
    -18.533  0.0000E+00  0.2000E+01
    -18.427  0.0000E+00  0.2000E+01
    -18.322  0.0000E+00  0.2000E+01
    -18.217  0.0000E+00  0.2000E+01
    -18.112  0.0000E+00  0.2000E+01
    -18.006  0.0000E+00  0.2000E+01
    -17.901  0.0000E+00  0.2000E+01
    -17.796  0.0000E+00  0.2000E+01
    -17.691  0.0000E+00  0.2000E+01
    -17.585  0.0000E+00  0.2000E+01
    -17.480  0.0000E+00  0.2000E+01
    -17.375  0.0000E+00  0.2000E+01
    -17.270  0.0000E+00  0.2000E+01
    -17.164  0.0000E+00  0.2000E+01
    -17.059  0.0000E+00  0.2000E+01
    -16.954  0.0000E+00  0.2000E+01
    -16.849  0.0000E+00  0.2000E+01
    -16.743  0.0000E+00  0.2000E+01
    -16.638  0.0000E+00  0.2000E+01
    -16.533  0.0000E+00  0.2000E+01
    -16.428  0.0000E+00  0.2000E+01
    -16.322  0.0000E+00  0.2000E+01
    -16.217  0.0000E+00  0.2000E+01
    -16.112  0.0000E+00  0.2000E+01
    -16.007  0.0000E+00  0.2000E+01
    -15.902  0.0000E+00  0.2000E+01
    -15.796  0.0000E+00  0.2000E+01
    -15.691  0.0000E+00  0.2000E+01
    -15.586  0.0000E+00  0.2000E+01
    -15.481  0.0000E+00  0.2000E+01
    -15.375  0.0000E+00  0.2000E+01
    -15.270  0.0000E+00  0.2000E+01
    -15.165  0.0000E+00  0.2000E+01
    -15.060  0.1724E-27  0.2000E+01
    -14.954  0.7720E-24  0.2000E+01
    -14.849  0.1957E-20  0.2000E+01
    -14.744  0.2803E-17  0.2000E+01
    -14.639  0.2259E-14  0.2000E+01
    -14.533  0.1023E-11  0.2000E+01
    -14.428  0.2574E-09  0.2000E+01
    -14.323  0.3577E-07  0.2000E+01
    -14.218  0.2707E-05  0.2000E+01
    -14.112  0.1091E-03  0.2000E+01
    -14.007  0.2245E-02  0.2000E+01
    -13.902  0.2135E-01  0.2002E+01
    -13.797  0.6457E-01  0.2009E+01
    -13.691 -0.1741E+00  0.1991E+01
    -13.586 -0.8209E+00  0.1905E+01
    -13.481  0.1585E+01  0.2071E+01
    -13.376  0.8373E+01  0.2953E+01
    -13.270  0.8829E+01  0.3882E+01
    -13.165  0.2074E+01  0.4100E+01
    -13.060 -0.8156E+00  0.4014E+01
    -12.955 -0.2273E+00  0.3990E+01
    -12.850  0.6402E-01  0.3997E+01
    -12.744  0.2479E-01  0.4000E+01
    -12.639  0.2808E-02  0.4000E+01
    -12.534  0.1450E-03  0.4000E+01
    -12.429  0.3803E-05  0.4000E+01
    -12.323  0.5295E-07  0.4000E+01
    -12.218  0.4014E-09  0.4000E+01
    -12.113  0.1280E-09  0.4000E+01
    -12.008  0.1903E-07  0.4000E+01
    -11.902  0.1565E-05  0.4000E+01
    -11.797  0.6884E-04  0.4000E+01
    -11.692  0.1558E-02  0.4000E+01
    -11.587  0.1668E-01  0.4002E+01
    -11.481  0.6408E-01  0.4009E+01
    -11.376 -0.8037E-01  0.4000E+01
    -11.271 -0.6951E+00  0.3927E+01
    -11.166  0.8435E+00  0.4016E+01
    -11.060  0.6456E+01  0.4695E+01
    -10.955  0.9707E+01  0.5717E+01
    -10.850  0.1332E+02  0.7118E+01
    -10.745  0.1775E+02  0.8986E+01
    -10.639  0.1023E+02  0.1006E+02
    -10.534  0.4184E+00  0.1011E+02
    -10.429 -0.1069E+01  0.9994E+01
    -10.324 -0.6159E-01  0.9988E+01
    -10.218  0.9285E-01  0.9997E+01
    -10.113  0.2185E-01  0.1000E+02
    -10.008  0.1981E-02  0.1000E+02
     -9.903  0.8709E-04  0.1000E+02
     -9.798  0.1996E-05  0.1000E+02
     -9.692  0.2463E-07  0.1000E+02
     -9.587  0.1667E-09  0.1000E+02
     -9.482  0.6224E-12  0.1000E+02
     -9.377  0.2110E-14  0.1000E+02
     -9.271  0.0000E+00  0.1000E+02
     -9.166  0.0000E+00  0.1000E+02
     -9.061  0.0000E+00  0.1000E+02
     -8.956  0.0000E+00  0.1000E+02
     -8.850  0.0000E+00  0.1000E+02
     -8.745  0.0000E+00  0.1000E+02
     -8.640  0.0000E+00  0.1000E+02
     -8.535  0.0000E+00  0.1000E+02
     -8.429  0.0000E+00  0.1000E+02
     -8.324  0.9569E-26  0.1000E+02
     -8.219  0.3282E-22  0.1000E+02
     -8.114  0.6367E-19  0.1000E+02
     -8.008  0.6965E-16  0.1000E+02
     -7.903  0.4280E-13  0.1000E+02
     -7.798  0.1473E-10  0.1000E+02
     -7.693  0.2810E-08  0.1000E+02
     -7.587  0.2943E-06  0.1000E+02
     -7.482  0.1664E-04  0.1000E+02
     -7.377  0.4931E-03  0.1000E+02
     -7.272  0.7220E-02  0.1000E+02
     -7.166  0.4465E-01  0.1001E+02
     -7.061  0.3979E-01  0.1001E+02
     -6.956 -0.4545E+00  0.9962E+01
     -6.851 -0.3711E+00  0.9923E+01
     -6.745  0.4036E+01  0.1035E+02
     -6.640  0.9512E+01  0.1135E+02
     -6.535  0.1203E+02  0.1261E+02
     -6.430  0.1454E+02  0.1414E+02
     -6.325  0.1300E+02  0.1551E+02
     -6.219  0.1909E+02  0.1752E+02
     -6.114  0.2793E+02  0.2046E+02
     -6.009  0.1401E+02  0.2194E+02
     -5.904  0.1002E+02  0.2299E+02
     -5.798  0.3927E+02  0.2712E+02
     -5.693  0.9634E+02  0.3726E+02
     -5.588  0.1988E+03  0.5818E+02
     -5.483  0.2928E+03  0.8900E+02
     -5.377  0.2799E+03  0.1185E+03
     -5.272  0.2195E+03  0.1416E+03
     -5.167  0.2387E+03  0.1667E+03
     -5.062  0.3258E+03  0.2010E+03
     -4.956  0.3643E+03  0.2393E+03
     -4.851  0.3140E+03  0.2723E+03
     -4.746  0.3093E+03  0.3049E+03
     -4.641  0.3843E+03  0.3453E+03
     -4.535  0.4125E+03  0.3888E+03
     -4.430  0.4315E+03  0.4342E+03
     -4.325  0.5331E+03  0.4903E+03
     -4.220  0.5275E+03  0.5458E+03
     -4.114  0.2826E+03  0.5755E+03
     -4.009  0.5493E+02  0.5813E+03
     -3.904  0.8585E+01  0.5822E+03
     -3.799  0.2568E+02  0.5849E+03
     -3.693  0.2074E+02  0.5871E+03
     -3.588  0.1880E+02  0.5891E+03
     -3.483  0.2889E+02  0.5921E+03
     -3.378  0.1776E+02  0.5940E+03
     -3.273 -0.2996E+01  0.5937E+03
     -3.167  0.9092E+01  0.5946E+03
     -3.062  0.5088E+02  0.6000E+03
     -2.957  0.5865E+02  0.6062E+03
     -2.852  0.2359E+02  0.6086E+03
     -2.746  0.5032E+01  0.6092E+03
     -2.641  0.1440E+02  0.6107E+03
     -2.536  0.2920E+02  0.6138E+03
     -2.431  0.2466E+02  0.6164E+03
     -2.325  0.9805E+01  0.6174E+03
     -2.220  0.9268E+01  0.6184E+03
     -2.115  0.2667E+02  0.6212E+03
     -2.010  0.4405E+02  0.6258E+03
     -1.904  0.4589E+02  0.6306E+03
     -1.799  0.3672E+02  0.6345E+03
     -1.694  0.3533E+02  0.6382E+03
     -1.589  0.3535E+02  0.6419E+03
     -1.483  0.2114E+02  0.6442E+03
     -1.378  0.1767E+02  0.6460E+03
     -1.273  0.2827E+02  0.6490E+03
     -1.168  0.2659E+02  0.6518E+03
     -1.062  0.3410E+02  0.6554E+03
     -0.957  0.5963E+02  0.6617E+03
     -0.852  0.5941E+02  0.6679E+03
     -0.747  0.3158E+02  0.6712E+03
     -0.641  0.8441E+01  0.6721E+03
     -0.536 -0.4478E+00  0.6721E+03
     -0.431 -0.9002E+00  0.6720E+03
     -0.326  0.2931E-01  0.6720E+03
     -0.221  0.1225E+00  0.6720E+03
     -0.115  0.2885E-01  0.6720E+03
     -0.010  0.2792E-02  0.6720E+03
      0.095  0.1325E-03  0.6720E+03
      0.200  0.3282E-05  0.6720E+03
      0.306  0.4375E-07  0.6720E+03
      0.411  0.3194E-09  0.6720E+03
      0.516  0.1291E-11  0.6720E+03
      0.621  0.2110E-14  0.6720E+03
      0.727  0.0000E+00  0.6720E+03
      0.832  0.0000E+00  0.6720E+03
      0.937  0.0000E+00  0.6720E+03
      1.042  0.0000E+00  0.6720E+03
      1.148  0.0000E+00  0.6720E+03
      1.253  0.0000E+00  0.6720E+03
