   57   57    1    1
  0.4736842E+03  0.3000000E-08  0.3000000E-08  0.3000000E-08  0.5000000E-15
  1.000000000000000E-004
  CAR 
 6_Pd100_top_free_z(O)                   
    560      1    336
 
  0.0000000E+00  0.0000000E+00  0.0000000E+00  0.1000000E+01
    1      -28.321006   1.000000
    2      -13.549985   1.000000
    3      -11.307727   1.000000
    4      -10.931245   1.000000
    5      -10.758914   1.000000
    6       -6.762674   1.000000
    7       -6.708698   1.000000
    8       -6.672135   1.000000
    9       -6.231351   1.000000
   10       -6.146809   1.000000
   11       -6.144945   1.000000
   12       -5.962271   1.000000
   13       -5.916286   1.000000
   14       -5.905311   1.000000
   15       -5.822362   1.000000
   16       -5.807821   1.000000
   17       -5.774404   1.000000
   18       -5.743852   1.000000
   19       -5.709392   1.000000
   20       -5.702034   1.000000
   21       -5.694552   1.000000
   22       -5.651299   1.000000
   23       -5.641979   1.000000
   24       -5.626998   1.000000
   25       -5.614826   1.000000
   26       -5.609011   1.000000
   27       -5.602867   1.000000
   28       -5.584867   1.000000
   29       -5.567161   1.000000
   30       -5.566194   1.000000
   31       -5.558604   1.000000
   32       -5.544431   1.000000
   33       -5.537448   1.000000
   34       -5.536600   1.000000
   35       -5.531799   1.000000
   36       -5.530439   1.000000
   37       -5.528519   1.000000
   38       -5.524976   1.000000
   39       -5.512471   1.000000
   40       -5.499223   1.000000
   41       -5.492413   1.000000
   42       -5.491236   1.000000
   43       -5.488172   1.000000
   44       -5.485202   1.000000
   45       -5.483132   1.000000
   46       -5.471534   1.000000
   47       -5.450710   1.000000
   48       -5.450012   1.000000
   49       -5.446541   1.000000
   50       -5.444168   1.000000
   51       -5.440750   1.000000
   52       -5.439357   1.000000
   53       -5.431581   1.000000
   54       -5.424383   1.000000
   55       -5.422070   1.000000
   56       -5.418023   1.000000
   57       -5.404804   1.000000
   58       -5.375905   1.000000
   59       -5.360286   1.000000
   60       -5.348317   1.000000
   61       -5.344335   1.000000
   62       -5.338856   1.000000
   63       -5.334962   1.000000
   64       -5.328606   1.000000
   65       -5.321195   1.000000
   66       -5.317495   1.000000
   67       -5.314393   1.000000
   68       -5.309279   1.000000
   69       -5.303228   1.000000
   70       -5.247527   1.000000
   71       -5.228105   1.000000
   72       -5.227728   1.000000
   73       -5.217306   1.000000
   74       -5.212562   1.000000
   75       -5.203591   1.000000
   76       -5.199362   1.000000
   77       -5.196778   1.000000
   78       -5.190297   1.000000
   79       -5.187801   1.000000
   80       -5.182536   1.000000
   81       -5.174132   1.000000
   82       -5.170512   1.000000
   83       -5.154729   1.000000
   84       -5.151957   1.000000
   85       -5.142824   1.000000
   86       -5.133037   1.000000
   87       -5.129984   1.000000
   88       -5.121069   1.000000
   89       -5.105402   1.000000
   90       -5.100889   1.000000
   91       -5.092880   1.000000
   92       -5.074621   1.000000
   93       -5.072897   1.000000
   94       -5.071182   1.000000
   95       -5.068768   1.000000
   96       -5.066464   1.000000
   97       -5.061186   1.000000
   98       -5.058976   1.000000
   99       -5.048530   1.000000
  100       -5.047157   1.000000
  101       -5.043911   1.000000
  102       -5.037232   1.000000
  103       -5.030712   1.000000
  104       -5.021509   1.000000
  105       -5.020887   1.000000
  106       -5.018585   1.000000
  107       -5.012017   1.000000
  108       -5.008869   1.000000
  109       -5.007257   1.000000
  110       -4.996543   1.000000
  111       -4.995065   1.000000
  112       -4.988597   1.000000
  113       -4.979957   0.999999
  114       -4.979298   0.999999
  115       -4.975441   0.999999
  116       -4.970515   0.999999
  117       -4.967874   0.999999
  118       -4.954056   0.999999
  119       -4.950811   0.999999
  120       -4.945787   0.999998
  121       -4.932841   0.999997
  122       -4.929794   0.999997
  123       -4.927096   0.999997
  124       -4.921299   0.999996
  125       -4.919831   0.999996
  126       -4.917606   0.999996
  127       -4.907621   0.999994
  128       -4.890493   0.999989
  129       -4.870690   0.999981
  130       -4.860545   0.999974
  131       -4.859546   0.999973
  132       -4.857666   0.999972
  133       -4.855659   0.999970
  134       -4.851813   0.999967
  135       -4.847354   0.999962
  136       -4.831908   0.999942
  137       -4.820887   0.999921
  138       -4.810384   0.999896
  139       -4.805637   0.999882
  140       -4.795368   0.999847
  141       -4.794652   0.999845
  142       -4.782482   0.999790
  143       -4.771885   0.999730
  144       -4.766530   0.999694
  145       -4.757673   0.999626
  146       -4.755948   0.999611
  147       -4.751195   0.999567
  148       -4.740929   0.999460
  149       -4.735412   0.999393
  150       -4.721381   0.999193
  151       -4.708372   0.998962
  152       -4.704535   0.998886
  153       -4.701293   0.998818
  154       -4.698537   0.998757
  155       -4.691687   0.998597
  156       -4.689544   0.998544
  157       -4.688322   0.998514
  158       -4.686093   0.998456
  159       -4.684227   0.998407
  160       -4.678566   0.998252
  161       -4.670561   0.998016
  162       -4.665277   0.997850
  163       -4.664079   0.997811
  164       -4.663803   0.997802
  165       -4.663412   0.997789
  166       -4.661927   0.997741
  167       -4.658379   0.997622
  168       -4.652327   0.997413
  169       -4.650869   0.997361
  170       -4.636645   0.996840
  171       -4.634402   0.996755
  172       -4.626830   0.996471
  173       -4.620463   0.996233
  174       -4.616674   0.996095
  175       -4.613030   0.995965
  176       -4.611178   0.995901
  177       -4.607190   0.995766
  178       -4.606392   0.995740
  179       -4.603995   0.995663
  180       -4.593232   0.995358
  181       -4.592342   0.995337
  182       -4.586215   0.995207
  183       -4.581955   0.995139
  184       -4.579131   0.995105
  185       -4.574852   0.995072
  186       -4.569945   0.995067
  187       -4.568830   0.995071
  188       -4.566674   0.995085
  189       -4.564384   0.995108
  190       -4.557612   0.995234
  191       -4.551254   0.995439
  192       -4.536870   0.996274
  193       -4.529402   0.996945
  194       -4.525319   0.997389
  195       -4.522289   0.997757
  196       -4.517420   0.998417
  197       -4.511197   0.999394
  198       -4.510616   0.999494
  199       -4.495914   1.002475
  200       -4.493491   1.003057
  201       -4.490187   1.003893
  202       -4.484789   1.005366
  203       -4.477760   1.007484
  204       -4.475645   1.008165
  205       -4.472589   1.009185
  206       -4.467516   1.010969
  207       -4.464524   1.012074
  208       -4.462552   1.012823
  209       -4.457339   1.014879
  210       -4.452907   1.016709
  211       -4.442045   1.021476
  212       -4.440061   1.022383
  213       -4.439303   1.022732
  214       -4.428756   1.027705
  215       -4.426988   1.028553
  216       -4.424586   1.029709
  217       -4.423367   1.030295
  218       -4.421789   1.031056
  219       -4.421236   1.031322
  220       -4.404490   1.039196
  221       -4.392635   1.044198
  222       -4.387802   1.045992
  223       -4.380769   1.048259
  224       -4.379508   1.048616
  225       -4.373751   1.050024
  226       -4.361179   1.051597
  227       -4.355149   1.051470
  228       -4.353541   1.051326
  229       -4.351860   1.051123
  230       -4.350242   1.050874
  231       -4.349513   1.050745
  232       -4.348739   1.050597
  233       -4.344616   1.049591
  234       -4.343212   1.049163
  235       -4.341430   1.048556
  236       -4.340689   1.048282
  237       -4.338176   1.047257
  238       -4.337222   1.046828
  239       -4.333896   1.045153
  240       -4.328087   1.041537
  241       -4.324722   1.039019
  242       -4.318267   1.033267
  243       -4.315646   1.030571
  244       -4.308685   1.022346
  245       -4.306417   1.019322
  246       -4.304322   1.016372
  247       -4.300066   1.009914
  248       -4.297675   1.006006
  249       -4.296898   1.004691
  250       -4.288430   0.988941
  251       -4.283769   0.979134
  252       -4.279291   0.968933
  253       -4.277548   0.964756
  254       -4.274794   0.957914
  255       -4.272132   0.951021
  256       -4.268778   0.941950
  257       -4.267138   0.937353
  258       -4.264332   0.929249
  259       -4.262095   0.922568
  260       -4.260389   0.917345
  261       -4.258838   0.912499
  262       -4.256965   0.906522
  263       -4.254872   0.899686
  264       -4.254177   0.897380
  265       -4.253300   0.894443
  266       -4.243826   0.860891
  267       -4.241359   0.851617
  268       -4.239543   0.844653
  269       -4.236135   0.831268
  270       -4.236067   0.830997
  271       -4.232630   0.817094
  272       -4.226697   0.792178
  273       -4.219516   0.760567
  274       -4.209644   0.714756
  275       -4.200865   0.672053
  276       -4.198703   0.661291
  277       -4.193124   0.633137
  278       -4.192354   0.629215
  279       -4.191175   0.623187
  280       -4.187029   0.601843
  281       -4.176590   0.547297
  282       -4.167113   0.497245
  283       -4.155276   0.434834
  284       -4.146452   0.388935
  285       -4.144342   0.378095
  286       -4.144156   0.377144
  287       -4.136535   0.338563
  288       -4.132675   0.319417
  289       -4.127397   0.293734
  290       -3.978540  -0.051565
  291       -3.870525  -0.011993
  292       -3.844798  -0.003820
  293       -3.830371  -0.000544
  294       -3.715153   0.003779
  295       -3.527259   0.000111
  296       -3.503635   0.000059
  297       -3.380912   0.000001
  298       -3.088738   0.000000
  299       -3.077004   0.000000
  300       -3.068446   0.000000
  301       -3.047867   0.000000
  302       -3.033406   0.000000
  303       -2.960501   0.000000
  304       -2.954080   0.000000
  305       -2.786702   0.000000
  306       -2.559362   0.000000
  307       -2.534433   0.000000
  308       -2.512554   0.000000
  309       -2.326096   0.000000
  310       -2.131793   0.000000
  311       -2.127101   0.000000
  312       -2.084059   0.000000
  313       -2.033793   0.000000
  314       -1.962614   0.000000
  315       -1.941918   0.000000
  316       -1.890423   0.000000
  317       -1.792854   0.000000
  318       -1.717186   0.000000
  319       -1.676070   0.000000
  320       -1.654727   0.000000
  321       -1.643510   0.000000
  322       -1.573735   0.000000
  323       -1.544286   0.000000
  324       -1.357741   0.000000
  325       -1.251506   0.000000
  326       -1.201982   0.000000
  327       -1.117348   0.000000
  328       -1.012396   0.000000
  329       -0.999144   0.000000
  330       -0.980043   0.000000
  331       -0.959651   0.000000
  332       -0.944600   0.000000
  333       -0.916997   0.000000
  334       -0.899965   0.000000
  335       -0.818766   0.000000
  336       -0.789280   0.000000
