  57  57   0   0
  0.4736842E+03  0.3000000E-08  0.3000000E-08  0.3000000E-08  0.5000000E-15
  1.000000000000000E-004
  CAR 
 6_Pd100_top_free_z(O)                   
      1.40607486    -31.14713807  301     -4.13507440      1.00000000
    -31.147  0.0000E+00  0.0000E+00
    -31.039  0.0000E+00  0.0000E+00
    -30.930  0.0000E+00  0.0000E+00
    -30.822  0.5235E-27  0.5680E-28
    -30.713  0.2792E-23  0.3030E-24
    -30.605  0.8132E-20  0.8827E-21
    -30.496  0.1289E-16  0.1400E-17
    -30.388  0.1109E-13  0.1205E-14
    -30.279  0.5155E-11  0.5606E-12
    -30.171  0.1282E-08  0.1397E-09
    -30.062  0.1689E-06  0.1846E-07
    -29.954  0.1158E-04  0.1275E-05
    -29.845  0.4013E-03  0.4482E-04
    -29.736  0.6595E-02  0.7605E-03
    -29.628  0.4321E-01  0.5449E-02
    -29.519  0.2267E-01  0.7908E-02
    -29.411 -0.5597E+00 -0.5283E-01
    -29.302 -0.2055E+00 -0.7513E-01
    -29.194  0.5534E+01  0.5253E+00
    -29.085  0.9967E+01  0.1607E+01
    -28.977  0.4492E+01  0.2094E+01
    -28.868 -0.5082E+00  0.2039E+01
    -28.760 -0.4466E+00  0.1991E+01
    -28.651  0.4566E-01  0.1996E+01
    -28.543  0.3579E-01  0.1999E+01
    -28.434  0.4713E-02  0.2000E+01
    -28.326  0.2573E-03  0.2000E+01
    -28.217  0.6744E-05  0.2000E+01
    -28.109  0.8977E-07  0.2000E+01
    -28.000  0.6240E-09  0.2000E+01
    -27.892  0.2302E-11  0.2000E+01
    -27.783  0.4093E-14  0.2000E+01
    -27.675  0.0000E+00  0.2000E+01
    -27.566  0.0000E+00  0.2000E+01
    -27.458  0.0000E+00  0.2000E+01
    -27.349  0.0000E+00  0.2000E+01
    -27.241  0.0000E+00  0.2000E+01
    -27.132  0.0000E+00  0.2000E+01
    -27.024  0.0000E+00  0.2000E+01
    -26.915  0.0000E+00  0.2000E+01
    -26.807  0.0000E+00  0.2000E+01
    -26.698  0.0000E+00  0.2000E+01
    -26.590  0.0000E+00  0.2000E+01
    -26.481  0.0000E+00  0.2000E+01
    -26.373  0.0000E+00  0.2000E+01
    -26.264  0.0000E+00  0.2000E+01
    -26.156  0.0000E+00  0.2000E+01
    -26.047  0.0000E+00  0.2000E+01
    -25.939  0.0000E+00  0.2000E+01
    -25.830  0.0000E+00  0.2000E+01
    -25.722  0.0000E+00  0.2000E+01
    -25.613  0.0000E+00  0.2000E+01
    -25.505  0.0000E+00  0.2000E+01
    -25.396  0.0000E+00  0.2000E+01
    -25.288  0.0000E+00  0.2000E+01
    -25.179  0.0000E+00  0.2000E+01
    -25.071  0.0000E+00  0.2000E+01
    -24.962  0.0000E+00  0.2000E+01
    -24.854  0.0000E+00  0.2000E+01
    -24.745  0.0000E+00  0.2000E+01
    -24.636  0.0000E+00  0.2000E+01
    -24.528  0.0000E+00  0.2000E+01
    -24.419  0.0000E+00  0.2000E+01
    -24.311  0.0000E+00  0.2000E+01
    -24.202  0.0000E+00  0.2000E+01
    -24.094  0.0000E+00  0.2000E+01
    -23.985  0.0000E+00  0.2000E+01
    -23.877  0.0000E+00  0.2000E+01
    -23.768  0.0000E+00  0.2000E+01
    -23.660  0.0000E+00  0.2000E+01
    -23.551  0.0000E+00  0.2000E+01
    -23.443  0.0000E+00  0.2000E+01
    -23.334  0.0000E+00  0.2000E+01
    -23.226  0.0000E+00  0.2000E+01
    -23.117  0.0000E+00  0.2000E+01
    -23.009  0.0000E+00  0.2000E+01
    -22.900  0.0000E+00  0.2000E+01
    -22.792  0.0000E+00  0.2000E+01
    -22.683  0.0000E+00  0.2000E+01
    -22.575  0.0000E+00  0.2000E+01
    -22.466  0.0000E+00  0.2000E+01
    -22.358  0.0000E+00  0.2000E+01
    -22.249  0.0000E+00  0.2000E+01
    -22.141  0.0000E+00  0.2000E+01
    -22.032  0.0000E+00  0.2000E+01
    -21.924  0.0000E+00  0.2000E+01
    -21.815  0.0000E+00  0.2000E+01
    -21.707  0.0000E+00  0.2000E+01
    -21.598  0.0000E+00  0.2000E+01
    -21.490  0.0000E+00  0.2000E+01
    -21.381  0.0000E+00  0.2000E+01
    -21.273  0.0000E+00  0.2000E+01
    -21.164  0.0000E+00  0.2000E+01
    -21.056  0.0000E+00  0.2000E+01
    -20.947  0.0000E+00  0.2000E+01
    -20.839  0.0000E+00  0.2000E+01
    -20.730  0.0000E+00  0.2000E+01
    -20.622  0.0000E+00  0.2000E+01
    -20.513  0.0000E+00  0.2000E+01
    -20.405  0.0000E+00  0.2000E+01
    -20.296  0.0000E+00  0.2000E+01
    -20.188  0.0000E+00  0.2000E+01
    -20.079  0.0000E+00  0.2000E+01
    -19.971  0.0000E+00  0.2000E+01
    -19.862  0.0000E+00  0.2000E+01
    -19.754  0.0000E+00  0.2000E+01
    -19.645  0.0000E+00  0.2000E+01
    -19.536  0.0000E+00  0.2000E+01
    -19.428  0.0000E+00  0.2000E+01
    -19.319  0.0000E+00  0.2000E+01
    -19.211  0.0000E+00  0.2000E+01
    -19.102  0.0000E+00  0.2000E+01
    -18.994  0.0000E+00  0.2000E+01
    -18.885  0.0000E+00  0.2000E+01
    -18.777  0.0000E+00  0.2000E+01
    -18.668  0.0000E+00  0.2000E+01
    -18.560  0.0000E+00  0.2000E+01
    -18.451  0.0000E+00  0.2000E+01
    -18.343  0.0000E+00  0.2000E+01
    -18.234  0.0000E+00  0.2000E+01
    -18.126  0.0000E+00  0.2000E+01
    -18.017  0.0000E+00  0.2000E+01
    -17.909  0.0000E+00  0.2000E+01
    -17.800  0.0000E+00  0.2000E+01
    -17.692  0.0000E+00  0.2000E+01
    -17.583  0.0000E+00  0.2000E+01
    -17.475  0.0000E+00  0.2000E+01
    -17.366  0.0000E+00  0.2000E+01
    -17.258  0.0000E+00  0.2000E+01
    -17.149  0.0000E+00  0.2000E+01
    -17.041  0.0000E+00  0.2000E+01
    -16.932  0.0000E+00  0.2000E+01
    -16.824  0.0000E+00  0.2000E+01
    -16.715  0.0000E+00  0.2000E+01
    -16.607  0.0000E+00  0.2000E+01
    -16.498  0.0000E+00  0.2000E+01
    -16.390  0.0000E+00  0.2000E+01
    -16.281  0.0000E+00  0.2000E+01
    -16.173  0.0000E+00  0.2000E+01
    -16.064  0.0000E+00  0.2000E+01
    -15.956  0.0000E+00  0.2000E+01
    -15.847  0.0000E+00  0.2000E+01
    -15.739  0.0000E+00  0.2000E+01
    -15.630  0.0000E+00  0.2000E+01
    -15.522  0.0000E+00  0.2000E+01
    -15.413  0.0000E+00  0.2000E+01
    -15.305  0.3620E-25  0.2000E+01
    -15.196  0.1440E-21  0.2000E+01
    -15.088  0.3125E-18  0.2000E+01
    -14.979  0.3686E-15  0.2000E+01
    -14.871  0.2352E-12  0.2000E+01
    -14.762  0.8088E-10  0.2000E+01
    -14.654  0.1481E-07  0.2000E+01
    -14.545  0.1425E-05  0.2000E+01
    -14.436  0.7056E-04  0.2000E+01
    -14.328  0.1722E-02  0.2000E+01
    -14.219  0.1880E-01  0.2002E+01
    -14.111  0.6371E-01  0.2009E+01
    -14.002 -0.1700E+00  0.1991E+01
    -13.894 -0.8137E+00  0.1902E+01
    -13.785  0.1890E+01  0.2108E+01
    -13.677  0.8790E+01  0.3061E+01
    -13.568  0.8191E+01  0.3950E+01
    -13.460  0.1289E+01  0.4090E+01
    -13.351 -0.7971E+00  0.4004E+01
    -13.243 -0.1106E+00  0.3992E+01
    -13.134  0.6132E-01  0.3998E+01
    -13.026  0.1522E-01  0.4000E+01
    -12.917  0.1268E-02  0.4000E+01
    -12.809  0.4803E-04  0.4000E+01
    -12.700  0.9022E-06  0.4000E+01
    -12.592  0.8753E-08  0.4000E+01
    -12.483  0.2945E-08  0.4000E+01
    -12.375  0.3761E-06  0.4000E+01
    -12.266  0.2538E-04  0.4000E+01
    -12.158  0.8644E-03  0.4000E+01
    -12.049  0.1394E-01  0.4002E+01
    -11.941  0.8890E-01  0.4011E+01
    -11.832  0.3516E-01  0.4015E+01
    -11.724 -0.1156E+01  0.3890E+01
    -11.615 -0.2846E+00  0.3859E+01
    -11.507  0.1141E+02  0.5097E+01
    -11.398  0.1988E+02  0.7254E+01
    -11.290  0.8644E+01  0.8192E+01
    -11.181 -0.1091E+01  0.8074E+01
    -11.073 -0.8560E+00  0.7981E+01
    -10.964  0.9660E-01  0.7991E+01
    -10.856  0.6922E-01  0.7999E+01
    -10.747  0.8914E-02  0.8000E+01
    -10.639  0.4786E-03  0.8000E+01
    -10.530  0.1236E-04  0.8000E+01
    -10.422  0.2415E-06  0.8000E+01
    -10.313  0.6056E-05  0.8000E+01
    -10.205  0.2354E-03  0.8000E+01
    -10.096  0.4403E-02  0.8001E+01
     -9.988  0.3438E-01  0.8004E+01
     -9.879  0.4891E-01  0.8010E+01
     -9.771 -0.4244E+00  0.7963E+01
     -9.662 -0.5540E+00  0.7903E+01
     -9.554  0.4289E+01  0.8369E+01
     -9.445  0.9938E+01  0.9447E+01
     -9.336  0.5738E+01  0.1007E+02
     -9.228 -0.1317E+00  0.1006E+02
     -9.119 -0.5815E+00  0.9993E+01
     -9.011  0.1676E-01  0.9994E+01
     -8.902  0.4469E-01  0.9999E+01
     -8.794  0.7032E-02  0.1000E+02
     -8.685  0.4372E-03  0.1000E+02
     -8.577  0.1286E-04  0.1000E+02
     -8.468  0.1909E-06  0.1000E+02
     -8.360  0.1475E-08  0.1000E+02
     -8.251  0.6032E-11  0.1000E+02
     -8.143  0.1228E-13  0.1000E+02
     -8.034  0.3331E-18  0.1000E+02
     -7.926  0.3907E-15  0.1000E+02
     -7.817  0.2480E-12  0.1000E+02
     -7.709  0.8483E-10  0.1000E+02
     -7.600  0.1544E-07  0.1000E+02
     -7.492  0.1478E-05  0.1000E+02
     -7.383  0.7276E-04  0.1000E+02
     -7.275  0.1765E-02  0.1000E+02
     -7.166  0.1912E-01  0.1000E+02
     -7.058  0.6381E-01  0.1001E+02
     -6.949 -0.1752E+00  0.9990E+01
     -6.841 -0.8131E+00  0.9902E+01
     -6.732  0.1951E+01  0.1011E+02
     -6.624  0.8916E+01  0.1108E+02
     -6.515  0.8319E+01  0.1198E+02
     -6.407  0.3309E+00  0.1202E+02
     -6.298 -0.2845E+01  0.1171E+02
     -6.190  0.9926E+01  0.1279E+02
     -6.081  0.2827E+02  0.1586E+02
     -5.973  0.1802E+02  0.1781E+02
     -5.864  0.8741E+01  0.1876E+02
     -5.756  0.3524E+02  0.2258E+02
     -5.647  0.9073E+02  0.3243E+02
     -5.539  0.2006E+03  0.5419E+02
     -5.430  0.3021E+03  0.8698E+02
     -5.322  0.2742E+03  0.1167E+03
     -5.213  0.2075E+03  0.1392E+03
     -5.105  0.2472E+03  0.1661E+03
     -4.996  0.3453E+03  0.2035E+03
     -4.888  0.3558E+03  0.2421E+03
     -4.779  0.2933E+03  0.2740E+03
     -4.671  0.3314E+03  0.3099E+03
     -4.562  0.4222E+03  0.3557E+03
     -4.454  0.4257E+03  0.4019E+03
     -4.345  0.4638E+03  0.4523E+03
     -4.236  0.5610E+03  0.5131E+03
     -4.128  0.4528E+03  0.5623E+03
     -4.019  0.1637E+03  0.5800E+03
     -3.911  0.1215E+02  0.5814E+03
     -3.802  0.2362E+02  0.5839E+03
     -3.694  0.2990E+02  0.5872E+03
     -3.585  0.1091E+02  0.5884E+03
     -3.477  0.2038E+02  0.5906E+03
     -3.368  0.2627E+02  0.5934E+03
     -3.260  0.4205E+01  0.5939E+03
     -3.151  0.6696E+00  0.5939E+03
     -3.043  0.3934E+02  0.5982E+03
     -2.934  0.6696E+02  0.6055E+03
     -2.826  0.3976E+02  0.6098E+03
     -2.717  0.2918E+01  0.6101E+03
     -2.609  0.1233E+01  0.6102E+03
     -2.500  0.2353E+02  0.6128E+03
     -2.392  0.2859E+02  0.6159E+03
     -2.283  0.1513E+02  0.6175E+03
     -2.175  0.1714E+02  0.6194E+03
     -2.066  0.3416E+02  0.6231E+03
     -1.958  0.4004E+02  0.6275E+03
     -1.849  0.3629E+02  0.6314E+03
     -1.741  0.3962E+02  0.6357E+03
     -1.632  0.4569E+02  0.6406E+03
     -1.524  0.4159E+02  0.6452E+03
     -1.415  0.2862E+02  0.6483E+03
     -1.307  0.1781E+02  0.6502E+03
     -1.198  0.2015E+02  0.6524E+03
     -1.090  0.2459E+02  0.6551E+03
     -0.981  0.4069E+02  0.6595E+03
     -0.873  0.6074E+02  0.6661E+03
     -0.764  0.3596E+02  0.6700E+03
     -0.656  0.7077E+01  0.6707E+03
     -0.547  0.6775E+01  0.6715E+03
     -0.439  0.5284E+01  0.6720E+03
     -0.330  0.6389E-01  0.6720E+03
     -0.222 -0.4919E+00  0.6720E+03
     -0.113  0.2913E-01  0.6720E+03
     -0.005  0.4350E-01  0.6720E+03
      0.104  0.6602E-02  0.6720E+03
      0.212  0.4014E-03  0.6720E+03
      0.321  0.1158E-04  0.6720E+03
      0.429  0.1689E-06  0.6720E+03
      0.538  0.1282E-08  0.6720E+03
      0.646  0.5157E-11  0.6720E+03
      0.755  0.1023E-13  0.6720E+03
      0.864  0.0000E+00  0.6720E+03
      0.972  0.0000E+00  0.6720E+03
      1.081  0.0000E+00  0.6720E+03
      1.189  0.0000E+00  0.6720E+03
      1.298  0.0000E+00  0.6720E+03
      1.406  0.0000E+00  0.6720E+03
