  57  57   0   0
  0.4736842E+03  0.3000000E-08  0.3000000E-08  0.3000000E-08  0.5000000E-15
  1.000000000000000E-004
  CAR 
 6_Pd100_top_free_z(O)                   
      1.51023987    -30.94651438  301     -4.14335673      1.00000000
    -30.947  0.0000E+00  0.0000E+00
    -30.838  0.0000E+00  0.0000E+00
    -30.730  0.0000E+00  0.0000E+00
    -30.622  0.4851E-27  0.5249E-28
    -30.514  0.2538E-23  0.2747E-24
    -30.406  0.7279E-20  0.7878E-21
    -30.297  0.1141E-16  0.1235E-17
    -30.189  0.9728E-14  0.1054E-14
    -30.081  0.4502E-11  0.4881E-12
    -29.973  0.1119E-08  0.1215E-09
    -29.865  0.1479E-06  0.1612E-07
    -29.756  0.1023E-04  0.1123E-05
    -29.648  0.3591E-03  0.3997E-04
    -29.540  0.6026E-02  0.6919E-03
    -29.432  0.4101E-01  0.5129E-02
    -29.324  0.3125E-01  0.8509E-02
    -29.215 -0.5220E+00 -0.4797E-01
    -29.107 -0.3287E+00 -0.8353E-01
    -28.999  0.5139E+01  0.4725E+00
    -28.891  0.9999E+01  0.1554E+01
    -28.783  0.4929E+01  0.2087E+01
    -28.675 -0.3906E+00  0.2045E+01
    -28.566 -0.4992E+00  0.1991E+01
    -28.458  0.3605E-01  0.1995E+01
    -28.350  0.3950E-01  0.1999E+01
    -28.242  0.5634E-02  0.2000E+01
    -28.134  0.3285E-03  0.2000E+01
    -28.025  0.9176E-05  0.2000E+01
    -27.917  0.1303E-06  0.2000E+01
    -27.809  0.9683E-09  0.2000E+01
    -27.701  0.3830E-11  0.2000E+01
    -27.593  0.8209E-14  0.2000E+01
    -27.484  0.0000E+00  0.2000E+01
    -27.376  0.0000E+00  0.2000E+01
    -27.268  0.0000E+00  0.2000E+01
    -27.160  0.0000E+00  0.2000E+01
    -27.052  0.0000E+00  0.2000E+01
    -26.944  0.0000E+00  0.2000E+01
    -26.835  0.0000E+00  0.2000E+01
    -26.727  0.0000E+00  0.2000E+01
    -26.619  0.0000E+00  0.2000E+01
    -26.511  0.0000E+00  0.2000E+01
    -26.403  0.0000E+00  0.2000E+01
    -26.294  0.0000E+00  0.2000E+01
    -26.186  0.0000E+00  0.2000E+01
    -26.078  0.0000E+00  0.2000E+01
    -25.970  0.0000E+00  0.2000E+01
    -25.862  0.0000E+00  0.2000E+01
    -25.753  0.0000E+00  0.2000E+01
    -25.645  0.0000E+00  0.2000E+01
    -25.537  0.0000E+00  0.2000E+01
    -25.429  0.0000E+00  0.2000E+01
    -25.321  0.0000E+00  0.2000E+01
    -25.212  0.0000E+00  0.2000E+01
    -25.104  0.0000E+00  0.2000E+01
    -24.996  0.0000E+00  0.2000E+01
    -24.888  0.0000E+00  0.2000E+01
    -24.780  0.0000E+00  0.2000E+01
    -24.672  0.0000E+00  0.2000E+01
    -24.563  0.0000E+00  0.2000E+01
    -24.455  0.0000E+00  0.2000E+01
    -24.347  0.0000E+00  0.2000E+01
    -24.239  0.0000E+00  0.2000E+01
    -24.131  0.0000E+00  0.2000E+01
    -24.022  0.0000E+00  0.2000E+01
    -23.914  0.0000E+00  0.2000E+01
    -23.806  0.0000E+00  0.2000E+01
    -23.698  0.0000E+00  0.2000E+01
    -23.590  0.0000E+00  0.2000E+01
    -23.481  0.0000E+00  0.2000E+01
    -23.373  0.0000E+00  0.2000E+01
    -23.265  0.0000E+00  0.2000E+01
    -23.157  0.0000E+00  0.2000E+01
    -23.049  0.0000E+00  0.2000E+01
    -22.941  0.0000E+00  0.2000E+01
    -22.832  0.0000E+00  0.2000E+01
    -22.724  0.0000E+00  0.2000E+01
    -22.616  0.0000E+00  0.2000E+01
    -22.508  0.0000E+00  0.2000E+01
    -22.400  0.0000E+00  0.2000E+01
    -22.291  0.0000E+00  0.2000E+01
    -22.183  0.0000E+00  0.2000E+01
    -22.075  0.0000E+00  0.2000E+01
    -21.967  0.0000E+00  0.2000E+01
    -21.859  0.0000E+00  0.2000E+01
    -21.750  0.0000E+00  0.2000E+01
    -21.642  0.0000E+00  0.2000E+01
    -21.534  0.0000E+00  0.2000E+01
    -21.426  0.0000E+00  0.2000E+01
    -21.318  0.0000E+00  0.2000E+01
    -21.209  0.0000E+00  0.2000E+01
    -21.101  0.0000E+00  0.2000E+01
    -20.993  0.0000E+00  0.2000E+01
    -20.885  0.0000E+00  0.2000E+01
    -20.777  0.0000E+00  0.2000E+01
    -20.669  0.0000E+00  0.2000E+01
    -20.560  0.0000E+00  0.2000E+01
    -20.452  0.0000E+00  0.2000E+01
    -20.344  0.0000E+00  0.2000E+01
    -20.236  0.0000E+00  0.2000E+01
    -20.128  0.0000E+00  0.2000E+01
    -20.019  0.0000E+00  0.2000E+01
    -19.911  0.0000E+00  0.2000E+01
    -19.803  0.0000E+00  0.2000E+01
    -19.695  0.0000E+00  0.2000E+01
    -19.587  0.0000E+00  0.2000E+01
    -19.478  0.0000E+00  0.2000E+01
    -19.370  0.0000E+00  0.2000E+01
    -19.262  0.0000E+00  0.2000E+01
    -19.154  0.0000E+00  0.2000E+01
    -19.046  0.0000E+00  0.2000E+01
    -18.938  0.0000E+00  0.2000E+01
    -18.829  0.0000E+00  0.2000E+01
    -18.721  0.0000E+00  0.2000E+01
    -18.613  0.0000E+00  0.2000E+01
    -18.505  0.0000E+00  0.2000E+01
    -18.397  0.0000E+00  0.2000E+01
    -18.288  0.0000E+00  0.2000E+01
    -18.180  0.0000E+00  0.2000E+01
    -18.072  0.0000E+00  0.2000E+01
    -17.964  0.0000E+00  0.2000E+01
    -17.856  0.0000E+00  0.2000E+01
    -17.747  0.0000E+00  0.2000E+01
    -17.639  0.0000E+00  0.2000E+01
    -17.531  0.0000E+00  0.2000E+01
    -17.423  0.0000E+00  0.2000E+01
    -17.315  0.0000E+00  0.2000E+01
    -17.206  0.0000E+00  0.2000E+01
    -17.098  0.0000E+00  0.2000E+01
    -16.990  0.0000E+00  0.2000E+01
    -16.882  0.0000E+00  0.2000E+01
    -16.774  0.0000E+00  0.2000E+01
    -16.666  0.0000E+00  0.2000E+01
    -16.557  0.0000E+00  0.2000E+01
    -16.449  0.0000E+00  0.2000E+01
    -16.341  0.0000E+00  0.2000E+01
    -16.233  0.0000E+00  0.2000E+01
    -16.125  0.0000E+00  0.2000E+01
    -16.016  0.0000E+00  0.2000E+01
    -15.908  0.0000E+00  0.2000E+01
    -15.800  0.0000E+00  0.2000E+01
    -15.692  0.0000E+00  0.2000E+01
    -15.584  0.0000E+00  0.2000E+01
    -15.475  0.0000E+00  0.2000E+01
    -15.367  0.0000E+00  0.2000E+01
    -15.259  0.0000E+00  0.2000E+01
    -15.151  0.1672E-25  0.2000E+01
    -15.043  0.6861E-22  0.2000E+01
    -14.935  0.1541E-18  0.2000E+01
    -14.826  0.1888E-15  0.2000E+01
    -14.718  0.1257E-12  0.2000E+01
    -14.610  0.4531E-10  0.2000E+01
    -14.502  0.8734E-08  0.2000E+01
    -14.394  0.8904E-06  0.2000E+01
    -14.285  0.4701E-04  0.2000E+01
    -14.177  0.1237E-02  0.2000E+01
    -14.069  0.1487E-01  0.2002E+01
    -13.961  0.6090E-01  0.2008E+01
    -13.853 -0.1019E+00  0.1997E+01
    -13.744 -0.7911E+00  0.1912E+01
    -13.636  0.1168E+01  0.2038E+01
    -13.528  0.8034E+01  0.2907E+01
    -13.420  0.8937E+01  0.3874E+01
    -13.312  0.2082E+01  0.4099E+01
    -13.203 -0.8122E+00  0.4012E+01
    -13.095 -0.1930E+00  0.3991E+01
    -12.987  0.6406E-01  0.3998E+01
    -12.879  0.2041E-01  0.4000E+01
    -12.771  0.1959E-02  0.4000E+01
    -12.663  0.8391E-04  0.4000E+01
    -12.554  0.1774E-05  0.4000E+01
    -12.446  0.1933E-07  0.4000E+01
    -12.338  0.1483E-08  0.4000E+01
    -12.230  0.1898E-06  0.4000E+01
    -12.122  0.1380E-04  0.4000E+01
    -12.013  0.5129E-03  0.4000E+01
    -11.905  0.9228E-02  0.4001E+01
    -11.797  0.6954E-01  0.4009E+01
    -11.689  0.9220E-01  0.4019E+01
    -11.581 -0.8490E+00  0.3927E+01
    -11.472 -0.1063E+01  0.3812E+01
    -11.364  0.8490E+01  0.4730E+01
    -11.256  0.1972E+02  0.6864E+01
    -11.148  0.1166E+02  0.8126E+01
    -11.040 -0.9947E-01  0.8115E+01
    -10.932 -0.1188E+01  0.7987E+01
    -10.823  0.1578E-01  0.7988E+01
    -10.715  0.9201E-01  0.7998E+01
    -10.607  0.1538E-01  0.8000E+01
    -10.499  0.1011E-02  0.8000E+01
    -10.391  0.3883E-04  0.8000E+01
    -10.282  0.2729E-03  0.8000E+01
    -10.174  0.4887E-02  0.8001E+01
    -10.066  0.3642E-01  0.8004E+01
     -9.958  0.4460E-01  0.8009E+01
     -9.850 -0.4515E+00  0.7960E+01
     -9.741 -0.5040E+00  0.7906E+01
     -9.633  0.4493E+01  0.8392E+01
     -9.525  0.9967E+01  0.9470E+01
     -9.417  0.5577E+01  0.1007E+02
     -9.309 -0.1840E+00  0.1005E+02
     -9.200 -0.5692E+00  0.9992E+01
     -9.092  0.1970E-01  0.9994E+01
     -8.984  0.4417E-01  0.9999E+01
     -8.876  0.6917E-02  0.1000E+02
     -8.768  0.4315E-03  0.1000E+02
     -8.660  0.1280E-04  0.1000E+02
     -8.551  0.1923E-06  0.1000E+02
     -8.443  0.1509E-08  0.1000E+02
     -8.335  0.6295E-11  0.1000E+02
     -8.227  0.1437E-13  0.1000E+02
     -8.119  0.1595E-20  0.1000E+02
     -8.010  0.2816E-17  0.1000E+02
     -7.902  0.2707E-14  0.1000E+02
     -7.794  0.1415E-11  0.1000E+02
     -7.686  0.3973E-09  0.1000E+02
     -7.578  0.5954E-07  0.1000E+02
     -7.469  0.4685E-05  0.1000E+02
     -7.361  0.1886E-03  0.1000E+02
     -7.253  0.3687E-02  0.1000E+02
     -7.145  0.3074E-01  0.1000E+02
     -7.037  0.5615E-01  0.1001E+02
     -6.929 -0.3617E+00  0.9971E+01
     -6.820 -0.6666E+00  0.9899E+01
     -6.712  0.3689E+01  0.1030E+02
     -6.604  0.9911E+01  0.1137E+02
     -6.496  0.6508E+01  0.1207E+02
     -6.388 -0.1351E+01  0.1193E+02
     -6.279 -0.1489E+01  0.1177E+02
     -6.171  0.1546E+02  0.1344E+02
     -6.063  0.2868E+02  0.1654E+02
     -5.955  0.1328E+02  0.1798E+02
     -5.847  0.1261E+02  0.1934E+02
     -5.738  0.4584E+02  0.2430E+02
     -5.630  0.1107E+03  0.3628E+02
     -5.522  0.2302E+03  0.6118E+02
     -5.414  0.3083E+03  0.9453E+02
     -5.306  0.2558E+03  0.1222E+03
     -5.197  0.2072E+03  0.1446E+03
     -5.089  0.2698E+03  0.1738E+03
     -4.981  0.3569E+03  0.2124E+03
     -4.873  0.3442E+03  0.2497E+03
     -4.765  0.2981E+03  0.2819E+03
     -4.657  0.3577E+03  0.3206E+03
     -4.548  0.4236E+03  0.3665E+03
     -4.440  0.4186E+03  0.4117E+03
     -4.332  0.4832E+03  0.4640E+03
     -4.224  0.5614E+03  0.5247E+03
     -4.116  0.3999E+03  0.5680E+03
     -4.007  0.1180E+03  0.5808E+03
     -3.899  0.6935E+01  0.5815E+03
     -3.791  0.2607E+02  0.5843E+03
     -3.683  0.2660E+02  0.5872E+03
     -3.575  0.1242E+02  0.5886E+03
     -3.466  0.2367E+02  0.5911E+03
     -3.358  0.2341E+02  0.5937E+03
     -3.250  0.1058E+01  0.5938E+03
     -3.142  0.5582E+01  0.5944E+03
     -3.034  0.4649E+02  0.5994E+03
     -2.926  0.6287E+02  0.6062E+03
     -2.817  0.3221E+02  0.6097E+03
     -2.709  0.2844E+01  0.6100E+03
     -2.601  0.4491E+01  0.6105E+03
     -2.493  0.2420E+02  0.6131E+03
     -2.385  0.2864E+02  0.6162E+03
     -2.276  0.2000E+02  0.6184E+03
     -2.168  0.1915E+02  0.6204E+03
     -2.060  0.3044E+02  0.6237E+03
     -1.952  0.3850E+02  0.6279E+03
     -1.844  0.3848E+02  0.6321E+03
     -1.735  0.3726E+02  0.6361E+03
     -1.627  0.3856E+02  0.6403E+03
     -1.519  0.3824E+02  0.6444E+03
     -1.411  0.2854E+02  0.6475E+03
     -1.303  0.2233E+02  0.6499E+03
     -1.194  0.2527E+02  0.6526E+03
     -1.086  0.2520E+02  0.6554E+03
     -0.978  0.3741E+02  0.6594E+03
     -0.870  0.5102E+02  0.6649E+03
     -0.762  0.2998E+02  0.6682E+03
     -0.654  0.9874E+01  0.6692E+03
     -0.545  0.1057E+02  0.6704E+03
     -0.437  0.1114E+02  0.6716E+03
     -0.329  0.4561E+01  0.6721E+03
     -0.221 -0.3890E+00  0.6720E+03
     -0.113 -0.4554E+00  0.6720E+03
     -0.004  0.4707E-01  0.6720E+03
      0.104  0.4234E-01  0.6720E+03
      0.212  0.6077E-02  0.6720E+03
      0.320  0.3601E-03  0.6720E+03
      0.428  0.1024E-04  0.6720E+03
      0.537  0.1480E-06  0.6720E+03
      0.645  0.1119E-08  0.6720E+03
      0.753  0.4501E-11  0.6720E+03
      0.861  0.1026E-13  0.6720E+03
      0.969  0.0000E+00  0.6720E+03
      1.077  0.0000E+00  0.6720E+03
      1.186  0.0000E+00  0.6720E+03
      1.294  0.0000E+00  0.6720E+03
      1.402  0.0000E+00  0.6720E+03
      1.510  0.0000E+00  0.6720E+03
