 vasp.5.4.4.18Apr17-6-g9f103f2a35 (build Sep 03 2018 23:53:05) complex          
  
 executed on             LinuxIFC date 2021.11.27  01:34:41
 running on    1 total cores
 distrk:  each k-point on    1 cores,    1 groups
 distr:  one band on NCORES_PER_BAND=   1 cores,    1 groups


--------------------------------------------------------------------------------------------------------


 INCAR:
 POTCAR:    PAW_PBE Pd 04Jan2005                  
 POTCAR:    PAW_PBE C 08Apr2002                   
 POTCAR:    PAW_PBE O 08Apr2002                   
 POTCAR:    PAW_PBE Pd 04Jan2005                  
   VRHFIN =Pd : s1 d9                                                           
   LEXCH  = PE                                                                  
   EATOM  =   809.7530 eV,   59.5152 Ry                                         
                                                                                
   TITEL  = PAW_PBE Pd 04Jan2005                                                
   LULTRA =        F    use ultrasoft PP ?                                      
   IUNSCR =        1    unscreen: 0-lin 1-nonlin 2-no                           
   RPACOR =    2.000    partial core radius                                     
   POMASS =  106.420; ZVAL   =   10.000    mass and valenz                      
   RCORE  =    2.600    outmost cutoff radius                                   
   RWIGS  =    2.710; RWIGS  =    1.434    wigner-seitz radius (au A)           
   ENMAX  =  250.925; ENMIN  =  188.194 eV                                      
   ICORE  =        3    local potential                                         
   LCOR   =        T    correct aug charges                                     
   LPAW   =        T    paw PP                                                  
   EAUG   =  416.230                                                            
   DEXC   =    0.000                                                            
   RMAX   =    2.653    core radius for proj-oper                               
   RAUG   =    1.300    factor for augmentation sphere                          
   RDEP   =    2.734    radius for radial grids                                 
   RDEPT  =    2.103    core radius for aug-charge                              
                                                                                
   Atomic configuration                                                         
   12 entries                                                                   
     n  l   j            E        occ.                                          
     1  0  0.50    -24164.6631   2.0000                                         
     2  0  0.50     -3530.9218   2.0000                                         
     2  1  1.50     -3165.6822   6.0000                                         
     3  0  0.50      -639.4577   2.0000                                         
     3  1  1.50      -519.4532   6.0000                                         
     3  2  2.50      -328.9757  10.0000                                         
     4  0  0.50       -88.7014   2.0000                                         
     4  1  1.50       -54.4540   6.0000                                         
     4  2  2.50        -6.6878   9.0000                                         
     5  0  0.50        -4.3543   1.0000                                         
     5  1  0.50        -1.3606   0.0000                                         
     4  3  2.50        -1.3606   0.0000                                         
   Description                                                                  
     l       E           TYP  RCUT    TYP  RCUT                                 
     2     -6.6878251     23  2.400                                             
     2     -8.0484077     23  2.400                                             
     0     -4.3542939     23  2.400                                             
     0      4.3406793     23  2.400                                             
     1     -4.0817478     23  2.600                                             
     1     15.8380318     23  2.600                                             
     3     -4.0817478     23  2.400                                             
  local pseudopotential read in
  partial core-charges read in
  partial kinetic energy density read in
  atomic valenz-charges read in
  non local Contribution for L=           2  read in
    real space projection operators read in
  non local Contribution for L=           2  read in
    real space projection operators read in
  non local Contribution for L=           0  read in
    real space projection operators read in
  non local Contribution for L=           0  read in
    real space projection operators read in
  non local Contribution for L=           1  read in
    real space projection operators read in
  non local Contribution for L=           1  read in
    real space projection operators read in
    PAW grid and wavefunctions read in
 
   number of l-projection  operators is LMAX  =           6
   number of lm-projection operators is LMMAX =          18
 
 POTCAR:    PAW_PBE C 08Apr2002                   
   VRHFIN =C: s2p2                                                              
   LEXCH  = PE                                                                  
   EATOM  =   147.1560 eV,   10.8157 Ry                                         
                                                                                
   TITEL  = PAW_PBE C 08Apr2002                                                 
   LULTRA =        F    use ultrasoft PP ?                                      
   IUNSCR =        1    unscreen: 0-lin 1-nonlin 2-no                           
   RPACOR =    1.200    partial core radius                                     
   POMASS =   12.011; ZVAL   =    4.000    mass and valenz                      
   RCORE  =    1.500    outmost cutoff radius                                   
   RWIGS  =    1.630; RWIGS  =    0.863    wigner-seitz radius (au A)           
   ENMAX  =  400.000; ENMIN  =  300.000 eV                                      
   ICORE  =        2    local potential                                         
   LCOR   =        T    correct aug charges                                     
   LPAW   =        T    paw PP                                                  
   EAUG   =  644.873                                                            
   DEXC   =    0.000                                                            
   RMAX   =    1.529    core radius for proj-oper                               
   RAUG   =    1.300    factor for augmentation sphere                          
   RDEP   =    1.501    radius for radial grids                                 
   RDEPT  =    1.300    core radius for aug-charge                              
                                                                                
   Atomic configuration                                                         
    4 entries                                                                   
     n  l   j            E        occ.                                          
     1  0  0.50      -273.3789   2.0000                                         
     2  0  0.50       -13.7508   2.0000                                         
     2  1  0.50        -5.2854   2.0000                                         
     3  2  1.50        -5.4423   0.0000                                         
   Description                                                                  
     l       E           TYP  RCUT    TYP  RCUT                                 
     0    -13.7508458     23  1.200                                             
     0     -8.2022199     23  1.200                                             
     1     -5.2854383     23  1.500                                             
     1     34.0145650     23  1.500                                             
     2     -5.4423304      7  1.500                                             
  local pseudopotential read in
  partial core-charges read in
  partial kinetic energy density read in
  atomic valenz-charges read in
  non local Contribution for L=           0  read in
    real space projection operators read in
  non local Contribution for L=           0  read in
    real space projection operators read in
  non local Contribution for L=           1  read in
    real space projection operators read in
  non local Contribution for L=           1  read in
    real space projection operators read in
    PAW grid and wavefunctions read in
 
   number of l-projection  operators is LMAX  =           4
   number of lm-projection operators is LMMAX =           8
 
 POTCAR:    PAW_PBE O 08Apr2002                   
   VRHFIN =O: s2p4                                                              
   LEXCH  = PE                                                                  
   EATOM  =   432.3788 eV,   31.7789 Ry                                         
                                                                                
   TITEL  = PAW_PBE O 08Apr2002                                                 
   LULTRA =        F    use ultrasoft PP ?                                      
   IUNSCR =        1    unscreen: 0-lin 1-nonlin 2-no                           
   RPACOR =    1.200    partial core radius                                     
   POMASS =   16.000; ZVAL   =    6.000    mass and valenz                      
   RCORE  =    1.520    outmost cutoff radius                                   
   RWIGS  =    1.550; RWIGS  =    0.820    wigner-seitz radius (au A)           
   ENMAX  =  400.000; ENMIN  =  300.000 eV                                      
   ICORE  =        2    local potential                                         
   LCOR   =        T    correct aug charges                                     
   LPAW   =        T    paw PP                                                  
   EAUG   =  605.392                                                            
   DEXC   =    0.000                                                            
   RMAX   =    1.553    core radius for proj-oper                               
   RAUG   =    1.300    factor for augmentation sphere                          
   RDEP   =    1.550    radius for radial grids                                 
   RDEPT  =    1.329    core radius for aug-charge                              
                                                                                
   Atomic configuration                                                         
    4 entries                                                                   
     n  l   j            E        occ.                                          
     1  0  0.50      -514.6923   2.0000                                         
     2  0  0.50       -23.9615   2.0000                                         
     2  1  0.50        -9.0305   4.0000                                         
     3  2  1.50        -9.5241   0.0000                                         
   Description                                                                  
     l       E           TYP  RCUT    TYP  RCUT                                 
     0    -23.9615318     23  1.200                                             
     0     -9.5240782     23  1.200                                             
     1     -9.0304911     23  1.520                                             
     1      8.1634956     23  1.520                                             
     2     -9.5240782      7  1.500                                             
  local pseudopotential read in
  partial core-charges read in
  partial kinetic energy density read in
  kinetic energy density of atom read in
  atomic valenz-charges read in
  non local Contribution for L=           0  read in
    real space projection operators read in
  non local Contribution for L=           0  read in
    real space projection operators read in
  non local Contribution for L=           1  read in
    real space projection operators read in
  non local Contribution for L=           1  read in
    real space projection operators read in
    PAW grid and wavefunctions read in
 
   number of l-projection  operators is LMAX  =           4
   number of lm-projection operators is LMMAX =           8
 
 Optimization of the real space projectors (new method)

 maximal supplied QI-value         = 14.36
 optimisation between [QCUT,QGAM] = [ 10.20, 20.39] = [ 29.12,116.47] Ry 
 Optimized for a Real-space Cutoff    1.51 Angstroem

   l    n(q)    QCUT    max X(q) W(low)/X(q) W(high)/X(q)  e(spline) 
   2      8    10.197    59.108    0.26E-03    0.14E-03    0.96E-07
   2      8    10.197    58.101    0.27E-03    0.14E-03    0.98E-07
   0      9    10.197   102.235    0.54E-04    0.60E-05    0.72E-07
   0      9    10.197    58.388    0.52E-04    0.60E-05    0.68E-07
   1      9    10.197    22.191    0.18E-03    0.25E-03    0.79E-07
   1      9    10.197    15.590    0.15E-03    0.21E-03    0.69E-07
 Optimization of the real space projectors (new method)

 maximal supplied QI-value         = 25.13
 optimisation between [QCUT,QGAM] = [ 10.05, 20.36] = [ 28.30,116.06] Ry 
 Optimized for a Real-space Cutoff    1.30 Angstroem

   l    n(q)    QCUT    max X(q) W(low)/X(q) W(high)/X(q)  e(spline) 
   0      8    10.053   115.676    0.49E-03    0.72E-03    0.18E-06
   0      8    10.053    87.132    0.49E-03    0.71E-03    0.18E-06
   1      7    10.053     4.429    0.32E-03    0.31E-03    0.18E-06
   1      7    10.053     2.733    0.23E-03    0.19E-03    0.20E-06
 Optimization of the real space projectors (new method)

 maximal supplied QI-value         = 24.76
 optimisation between [QCUT,QGAM] = [ 10.15, 20.30] = [ 28.85,115.39] Ry 
 Optimized for a Real-space Cutoff    1.38 Angstroem

   l    n(q)    QCUT    max X(q) W(low)/X(q) W(high)/X(q)  e(spline) 
   0      8    10.150    20.381    0.22E-03    0.32E-03    0.29E-06
   0      8    10.150    15.268    0.23E-03    0.35E-03    0.30E-06
   1      8    10.150     5.964    0.46E-03    0.53E-03    0.21E-06
   1      8    10.150     5.382    0.38E-03    0.45E-03    0.19E-06

 ----------------------------------------------------------------------------- 
|                                                                             |
|  ADVICE TO THIS USER RUNNING 'VASP/VAMP'   (HEAR YOUR MASTER'S VOICE ...):  |
|                                                                             |
|      You enforced a specific xc-type in the INCAR file,                     |
|      a different type was found on the POTCAR file                          |
|          I HOPE YOU KNOW, WHAT YOU ARE  DOING                               |
|                                                                             |
 ----------------------------------------------------------------------------- 

  PAW_PBE Pd 04Jan2005                  :
 energy of atom  1       EATOM= -809.7530
 kinetic energy error for atom=    0.0091 (will be added to EATOM!!)
  PAW_PBE C 08Apr2002                   :
 energy of atom  2       EATOM= -147.1560
 kinetic energy error for atom=    0.0288 (will be added to EATOM!!)
  PAW_PBE O 08Apr2002                   :
 energy of atom  3       EATOM= -432.3788
 kinetic energy error for atom=    0.1156 (will be added to EATOM!!)
 
 
 POSCAR: Pd55PES                                 
  positions in cartesian coordinates
  No initial velocities read in
 exchange correlation table for  LEXCH =        9
   RHO(1)=    0.500       N(1)  =     2000
   RHO(2)=  100.500       N(2)  =     4000
 


--------------------------------------------------------------------------------------------------------


 ion  position               nearest neighbor table
   1  0.446  0.328  0.417-   3 3.25   5 3.25   7 3.36  15 3.36  29 3.42  28 3.42
   2  0.672  0.554  0.417-  26 3.25  30 3.25  17 3.36   9 3.36  47 3.42  49 3.42
   3  0.554  0.328  0.417-   1 3.25   5 3.25   7 3.36  11 3.36  29 3.42  21 3.42
   4  0.328  0.554  0.417-  32 3.25  22 3.25  13 3.36   8 3.36  43 3.42  48 3.42
   5  0.500  0.383  0.340-   1 3.25   3 3.25  11 3.36  15 3.36  21 3.42  28 3.42
   6  0.500  0.383  0.660-  24 3.25  19 3.25  16 3.36  12 3.36  42 3.42  44 3.42
   7  0.500  0.276  0.500-  29 3.24   3 3.36   1 3.36  19 3.36  24 3.36
   8  0.276  0.500  0.500-  48 3.24  22 3.36  40 3.36   4 3.36  25 3.36
   9  0.724  0.500  0.500-  49 3.24  26 3.36  45 3.36   2 3.36  20 3.36
  10  0.500  0.724  0.500-  56 2.63  55 3.24  23 3.36  27 3.36  41 3.36  46 3.36
  11  0.612  0.388  0.342-  21 3.24   5 3.36   3 3.36  30 3.36  26 3.36
  12  0.612  0.388  0.658-  42 3.24  24 3.36  45 3.36   6 3.36  31 3.36
  13  0.388  0.612  0.342-  43 3.24  32 3.36  50 3.36   4 3.36  27 3.36
  14  0.388  0.612  0.658-  53 3.24  25 3.36  33 3.36  51 3.36  46 3.36
  15  0.388  0.388  0.342-  28 3.24   5 3.36   1 3.36  32 3.36  22 3.36
  16  0.388  0.388  0.658-  44 3.24  19 3.36  40 3.36   6 3.36  33 3.36
  17  0.612  0.612  0.342-  47 3.24  30 3.36  50 3.36   2 3.36  23 3.36
  18  0.612  0.612  0.658-  54 3.24  31 3.36  20 3.36  51 3.36  41 3.36
  19  0.446  0.328  0.583-   6 3.25  24 3.25  16 3.36   7 3.36  44 3.42  29 3.42
  20  0.672  0.554  0.583-  31 3.25  45 3.25  18 3.36   9 3.36  54 3.42  49 3.42
  21  0.558  0.442  0.418-  11 3.24   5 3.42   3 3.42  30 3.42  26 3.42
  22  0.328  0.446  0.417-   4 3.25  32 3.25   8 3.36  15 3.36  48 3.42  28 3.42
  23  0.554  0.672  0.417-  56 2.65  27 3.25  50 3.25  10 3.36  17 3.36  55 3.42  47 3.42
  24  0.554  0.328  0.583-   6 3.25  19 3.25  12 3.36   7 3.36  42 3.42  29 3.42
  25  0.328  0.554  0.583-  33 3.25  40 3.25  14 3.36   8 3.36  53 3.42  48 3.42
  26  0.672  0.446  0.417-   2 3.25  30 3.25   9 3.36  11 3.36  49 3.42  21 3.42
  27  0.446  0.672  0.417-  23 3.25  50 3.25  10 3.36  13 3.36  55 3.42  43 3.42
  28  0.442  0.442  0.418-  15 3.24   5 3.42   1 3.42  32 3.42  22 3.42
  29  0.500  0.384  0.500-   7 3.24   3 3.42   1 3.42  24 3.42  19 3.42
  30  0.617  0.500  0.340-   2 3.25  26 3.25  17 3.36  11 3.36  47 3.42  21 3.42
  31  0.617  0.500  0.660-  20 3.25  45 3.25  18 3.36  12 3.36  54 3.42  42 3.42
  32  0.383  0.500  0.340-   4 3.25  22 3.25  13 3.36  15 3.36  43 3.42  28 3.42
  33  0.383  0.500  0.660-  25 3.25  40 3.25  14 3.36  16 3.36  53 3.42  44 3.42
  34  0.383  0.383  0.500-
  35  0.617  0.617  0.500-
  36  0.617  0.383  0.500-
  37  0.383  0.617  0.500-
  38  0.500  0.500  0.335-
  39  0.500  0.500  0.665-
  40  0.328  0.446  0.583-  33 3.25  25 3.25  16 3.36   8 3.36  44 3.42  48 3.42
  41  0.554  0.672  0.583-  46 3.25  51 3.25  10 3.36  18 3.36  54 3.42  55 3.42
  42  0.558  0.442  0.582-  12 3.24   6 3.42  24 3.42  31 3.42  45 3.42
  43  0.442  0.558  0.418-  13 3.24   4 3.42  32 3.42  27 3.42  50 3.42
  44  0.442  0.442  0.582-  16 3.24   6 3.42  19 3.42  33 3.42  40 3.42
  45  0.672  0.446  0.583-  20 3.25  31 3.25   9 3.36  12 3.36  49 3.42  42 3.42
  46  0.446  0.672  0.583-  41 3.25  51 3.25  10 3.36  14 3.36  53 3.42  55 3.42
  47  0.558  0.558  0.418-  17 3.24   2 3.42  30 3.42  23 3.42  50 3.42
  48  0.384  0.500  0.500-   8 3.24   4 3.42  22 3.42  25 3.42  40 3.42
  49  0.616  0.500  0.500-   9 3.24   2 3.42  26 3.42  20 3.42  45 3.42
  50  0.500  0.617  0.340-  27 3.25  23 3.25  13 3.36  17 3.36  43 3.42  47 3.42
  51  0.500  0.617  0.660-  41 3.25  46 3.25  14 3.36  18 3.36  53 3.42  54 3.42
  52  0.500  0.500  0.500-
  53  0.442  0.558  0.582-  14 3.24  25 3.42  33 3.42  51 3.42  46 3.42
  54  0.558  0.558  0.582-  18 3.24  31 3.42  20 3.42  51 3.42  41 3.42
  55  0.500  0.616  0.500-  10 3.24  23 3.42  27 3.42  41 3.42  46 3.42
  56  0.542  0.758  0.431-  57 1.13  10 2.63  23 2.65
  57  0.548  0.794  0.421-  56 1.13
 
  LATTYP: Found a simple cubic cell.
 ALAT       =    30.0000000000
  
  Lattice vectors:
  
 A1 = (  30.0000000000,   0.0000000000,   0.0000000000)
 A2 = (   0.0000000000,  30.0000000000,   0.0000000000)
 A3 = (   0.0000000000,   0.0000000000,  30.0000000000)


Analysis of symmetry for initial positions (statically):
=====================================================================
 Subroutine PRICEL returns:
 Original cell was already a primitive cell.
 

 Routine SETGRP: Setting up the symmetry group for a 
 simple cubic supercell.


 Subroutine GETGRP returns: Found  1 space group operations
 (whereof  1 operations were pure point group operations)
 out of a pool of 48 trial point group operations.


The static configuration has the point symmetry C_1 .


Analysis of symmetry for dynamics (positions and initial velocities):
=====================================================================
 Subroutine PRICEL returns:
 Original cell was already a primitive cell.
 

 Routine SETGRP: Setting up the symmetry group for a 
 simple cubic supercell.


 Subroutine GETGRP returns: Found  1 space group operations
 (whereof  1 operations were pure point group operations)
 out of a pool of 48 trial point group operations.


The dynamic configuration has the point symmetry C_1 .


Analysis of constrained symmetry for selective dynamics:
=====================================================================
 Subroutine PRICEL returns:
 Original cell was already a primitive cell.
 

 Routine SETGRP: Setting up the symmetry group for a 
 simple cubic supercell.


 Subroutine GETGRP returns: Found  1 space group operations
 (whereof  1 operations were pure point group operations)
 out of a pool of 48 trial point group operations.


The constrained configuration has the point symmetry C_1 .


 Subroutine INISYM returns: Found  1 space group operations
 (whereof  1 operations are pure point group operations),
 and found     1 'primitive' translations

 
 
 KPOINTS: K-points                                

Automatic generation of k-mesh.
Space group operators:
 irot       det(A)        alpha          n_x          n_y          n_z        tau_x        tau_y        tau_z
    1     1.000000     0.000000     1.000000     0.000000     0.000000     0.000000     0.000000     0.000000
 
 Subroutine IBZKPT returns following result:
 ===========================================
 
 Found      1 irreducible k-points:
 
 Following reciprocal coordinates:
            Coordinates               Weight
  0.000000  0.000000  0.000000      1.000000
 
 Following cartesian coordinates:
            Coordinates               Weight
  0.000000  0.000000  0.000000      1.000000
 


--------------------------------------------------------------------------------------------------------




 Dimension of arrays:
   k-points           NKPTS =      1   k-points in BZ     NKDIM =      1   number of bands    NBANDS=    336
   number of dos      NEDOS =    301   number of ions     NIONS =     57
   non local maximal  LDIM  =      6   non local SUM 2l+1 LMDIM =     18
   total plane-waves  NPLWV = ******
   max r-space proj   IRMAX =   1847   max aug-charges    IRDMAX=   6262
   dimension x,y,z NGX =   150 NGY =  150 NGZ =  150
   dimension x,y,z NGXF=   300 NGYF=  300 NGZF=  300
   support grid    NGXF=   300 NGYF=  300 NGZF=  300
   ions per type =              55   1   1
   NGX,Y,Z   is equivalent  to a cutoff of   8.31,  8.31,  8.31 a.u.
   NGXF,Y,Z  is equivalent  to a cutoff of  16.62, 16.62, 16.62 a.u.

 SYSTEM =  6_Pd100_top_free_z(O)                   
 POSCAR =  Pd55PES                                 

 Startparameter for this run:
   NWRITE =      2    write-flag & timer
   PREC   = normal    normal or accurate (medium, high low for compatibility)
   ISTART =      0    job   : 0-new  1-cont  2-samecut
   ICHARG =      2    charge: 1-file 2-atom 10-const
   ISPIN  =      1    spin polarized calculation?
   LNONCOLLINEAR =      F non collinear calculations
   LSORBIT =      F    spin-orbit coupling
   INIWAV =      1    electr: 0-lowe 1-rand  2-diag
   LASPH  =      F    aspherical Exc in radial PAW
   METAGGA=      F    non-selfconsistent MetaGGA calc.

 Electronic Relaxation 1
   ENCUT  =  400.0 eV  29.40 Ry    5.42 a.u.  48.92 48.92 48.92*2*pi/ulx,y,z
   ENINI  =  400.0     initial cutoff
   ENAUG  =  644.9 eV  augmentation charge cutoff
   NELM   =    100;   NELMIN=  6; NELMDL= -5     # of ELM steps 
   EDIFF  = 0.1E-03   stopping-criterion for ELM
   LREAL  =      T    real-space projection
   NLSPLINE    = F    spline interpolate recip. space projectors
   LCOMPAT=      F    compatible to vasp.4.4
   GGA_COMPAT  = T    GGA compatible to vasp.4.4-vasp.4.6
   LMAXPAW     = -100 max onsite density
   LMAXMIX     =    2 max onsite mixed and CHGCAR
   VOSKOWN=      0    Vosko Wilk Nusair interpolation
   ROPT   =   -0.00050  -0.00050  -0.00050
 Ionic relaxation
   EDIFFG = -.5E-01   stopping-criterion for IOM
   NSW    =      0    number of steps for IOM
   NBLOCK =      1;   KBLOCK =      1    inner block; outer block 
   IBRION =     -1    ionic relax: 0-MD 1-quasi-New 2-CG
   NFREE  =      1    steps in history (QN), initial steepest desc. (CG)
   ISIF   =      2    stress and relaxation
   IWAVPR =     10    prediction:  0-non 1-charg 2-wave 3-comb
   ISYM   =      2    0-nonsym 1-usesym 2-fastsym
   LCORR  =      T    Harris-Foulkes like correction to forces

   POTIM  = 0.5000    time-step for ionic-motion
   TEIN   =    0.0    initial temperature
   TEBEG  =    0.0;   TEEND  =   0.0 temperature during run
   SMASS  =  -3.00    Nose mass-parameter (am)
   estimated Nose-frequenzy (Omega)   =  0.10E-29 period in steps =****** mass=  -0.206E-25a.u.
   SCALEE = 1.0000    scale energy and forces
   NPACO  =    256;   APACO  = 16.0  distance and # of slots for P.C.
   PSTRESS=    0.0 pullay stress

  Mass of Ions in am
   POMASS = 106.42 12.01 16.00
  Ionic Valenz
   ZVAL   =  10.00  4.00  6.00
  Atomic Wigner-Seitz radii
   RWIGS  =  -1.00 -1.00 -1.00
  virtual crystal weights 
   VCA    =   1.00  1.00  1.00
   NELECT =     560.0000    total number of electrons
   NUPDOWN=      -1.0000    fix difference up-down

 DOS related values:
   EMIN   =  10.00;   EMAX   =-10.00  energy-range for DOS
   EFERMI =   0.00
   ISMEAR =     2;   SIGMA  =   0.20  broadening in eV -4-tet -1-fermi 0-gaus

 Electronic relaxation 2 (details)
   IALGO  =     68    algorithm
   LDIAG  =      T    sub-space diagonalisation (order eigenvalues)
   LSUBROT=      F    optimize rotation matrix (better conditioning)
   TURBO    =      0    0=normal 1=particle mesh
   IRESTART =      0    0=no restart 2=restart with 2 vectors
   NREBOOT  =      0    no. of reboots
   NMIN     =      0    reboot dimension
   EREF     =   0.00    reference energy to select bands
   IMIX   =      4    mixing-type and parameters
     AMIX     =   0.40;   BMIX     =  1.00
     AMIX_MAG =   1.60;   BMIX_MAG =  1.00
     AMIN     =   0.10
     WC   =   100.;   INIMIX=   1;  MIXPRE=   1;  MAXMIX= -45

 Intra band minimization:
   WEIMIN = 0.0000     energy-eigenvalue tresh-hold
   EBREAK =  0.74E-07  absolut break condition
   DEPER  =   0.30     relativ break condition  

   TIME   =   0.40     timestep for ELM

  volume/ion in A,a.u.               =     473.68      3196.58
  Fermi-wavevector in a.u.,A,eV,Ry     =   0.449797  0.849992  2.752691  0.202317
  Thomas-Fermi vector in A             =   1.430086
 
 Write flags
   LWAVE        =      F    write WAVECAR
   LDOWNSAMPLE  =      F    k-point downsampling of WAVECAR
   LCHARG       =      F    write CHGCAR
   LVTOT        =      F    write LOCPOT, total local potential
   LVHAR        =      F    write LOCPOT, Hartree potential only
   LELF         =      F    write electronic localiz. function (ELF)
   LORBIT       =      0    0 simple, 1 ext, 2 COOP (PROOUT), +10 PAW based schemes


 Dipole corrections
   LMONO  =      F    monopole corrections only (constant potential shift)
   LDIPOL =      F    correct potential (dipole corrections)
   IDIPOL =      0    1-x, 2-y, 3-z, 4-all directions 
   EPSILON=  1.0000000 bulk dielectric constant

 Exchange correlation treatment:
   GGA     =    RP    GGA type
   LEXCH   =     9    internal setting for exchange type
   VOSKOWN=      0    Vosko Wilk Nusair interpolation
   LHFCALC =     F    Hartree Fock is set to
   LHFONE  =     F    Hartree Fock one center treatment
   AEXX    =    0.0000 exact exchange contribution

 Linear response parameters
   LEPSILON=     F    determine dielectric tensor
   LRPA    =     F    only Hartree local field effects (RPA)
   LNABLA  =     F    use nabla operator in PAW spheres
   LVEL    =     F    velocity operator in full k-point grid
   LINTERFAST=   F  fast interpolation
   KINTER  =     0    interpolate to denser k-point grid
   CSHIFT  =0.1000    complex shift for real part using Kramers Kronig
   OMEGAMAX=  -1.0    maximum frequency
   DEG_THRESHOLD= 0.2000000E-02 threshold for treating states as degnerate
   RTIME   =   -0.100 relaxation time in fs
  (WPLASMAI=    0.000 imaginary part of plasma frequency in eV, 0.658/RTIME)
   DFIELD  = 0.0000000 0.0000000 0.0000000 field for delta impulse in time
 
 Orbital magnetization related:
   ORBITALMAG=     F  switch on orbital magnetization
   LCHIMAG   =     F  perturbation theory with respect to B field
   DQ        =  0.001000  dq finite difference perturbation B field
   LLRAUG    =     F  two centre corrections for induced B field



--------------------------------------------------------------------------------------------------------


 Static calculation
 charge density and potential will be updated during run
 non-spin polarized calculation
 RMM-DIIS sequential band-by-band and
  variant of blocked Davidson during initial phase
 perform sub-space diagonalisation
    before iterative eigenvector-optimisation
 modified Broyden-mixing scheme, WC =      100.0
 initial mixing is a Kerker type mixing with AMIX =  0.4000 and BMIX =      1.0000
 Hartree-type preconditioning will be used
 using additional bands           56
 real space projection scheme for non local part
 use partial core corrections
 calculate Harris-corrections to forces 
   (improved forces if not selfconsistent)
 use gradient corrections 
 use of overlap-Matrix (Vanderbilt PP)
 Methfessel and Paxton  Order N= 2 SIGMA  =   0.20


--------------------------------------------------------------------------------------------------------


  energy-cutoff  :      400.00
  volume of cell :    27000.00
      direct lattice vectors                 reciprocal lattice vectors
    30.000000000  0.000000000  0.000000000     0.033333333  0.000000000  0.000000000
     0.000000000 30.000000000  0.000000000     0.000000000  0.033333333  0.000000000
     0.000000000  0.000000000 30.000000000     0.000000000  0.000000000  0.033333333

  length of vectors
    30.000000000 30.000000000 30.000000000     0.033333333  0.033333333  0.033333333


 
 k-points in units of 2pi/SCALE and weight: K-points                                
   0.00000000  0.00000000  0.00000000       1.000
 
 k-points in reciprocal lattice and weights: K-points                                
   0.00000000  0.00000000  0.00000000       1.000
 
 position of ions in fractional coordinates (direct lattice) 
   0.44576020  0.32826710  0.41691983
   0.67173288  0.55423978  0.41691983
   0.55423980  0.32826710  0.41691983
   0.32826712  0.55423978  0.41691983
   0.50000000  0.38250690  0.34021317
   0.50000000  0.38250690  0.65978680
   0.50000000  0.27609440  0.50000000
   0.27609443  0.49999998  0.50000000
   0.72390557  0.49999998  0.50000000
   0.50000000  0.72390555  0.50000000
   0.61195280  0.38804720  0.34167483
   0.61195280  0.38804720  0.65832513
   0.38804722  0.61195278  0.34167483
   0.38804722  0.61195278  0.65832513
   0.38804720  0.38804720  0.34167483
   0.38804720  0.38804720  0.65832513
   0.61195278  0.61195278  0.34167483
   0.61195278  0.61195278  0.65832513
   0.44576020  0.32826710  0.58308023
   0.67173288  0.55423978  0.58308023
   0.55791699  0.44208301  0.41809300
   0.32826705  0.44576024  0.41691983
   0.55423973  0.67173293  0.41691983
   0.55423980  0.32826710  0.58308023
   0.32826712  0.55423978  0.58308023
   0.67173295  0.44576024  0.41691983
   0.44576027  0.67173293  0.41691983
   0.44208301  0.44208301  0.41809300
   0.50000000  0.38416601  0.50000000
   0.61749315  0.50000005  0.34021317
   0.61749315  0.50000005  0.65978680
   0.38250685  0.50000005  0.34021317
   0.38250685  0.50000005  0.65978680
   0.38317830  0.38317830  0.50000000
   0.61682172  0.61682172  0.50000000
   0.61682170  0.38317830  0.50000000
   0.38317828  0.61682172  0.50000000
   0.50000000  0.50000000  0.33478917
   0.50000000  0.50000000  0.66521087
   0.32826705  0.44576024  0.58308023
   0.55423973  0.67173293  0.58308023
   0.55791699  0.44208301  0.58190703
   0.44208298  0.55791702  0.41809300
   0.44208301  0.44208301  0.58190703
   0.67173295  0.44576024  0.58308023
   0.44576027  0.67173293  0.58308023
   0.55791702  0.55791702  0.41809300
   0.38416599  0.50000002  0.50000000
   0.61583401  0.50000002  0.50000000
   0.50000000  0.61749319  0.34021317
   0.50000000  0.61749319  0.65978680
   0.50000000  0.50000000  0.50000000
   0.44208298  0.55791702  0.58190703
   0.55791702  0.55791702  0.58190703
   0.50000000  0.61583404  0.50000000
   0.54184380  0.75803463  0.43084803
   0.54766237  0.79391553  0.42123213
 
 position of ions in cartesian coordinates  (Angst):
  13.37280588  9.84801292 12.50759500
  20.15198637 16.62719342 12.50759500
  16.62719412  9.84801292 12.50759500
   9.84801363 16.62719342 12.50759500
  15.00000000 11.47520705 10.20639500
  15.00000000 11.47520705 19.79360400
  15.00000000  8.28283206 15.00000000
   8.28283277 14.99999929 15.00000000
  21.71716723 14.99999929 15.00000000
  15.00000000 21.71716652 14.99999999
  18.35858397 11.64141603 10.25024500
  18.35858397 11.64141603 19.74975399
  11.64141674 18.35858326 10.25024500
  11.64141674 18.35858326 19.74975400
  11.64141603 11.64141603 10.25024500
  11.64141603 11.64141603 19.74975400
  18.35858326 18.35858326 10.25024500
  18.35858326 18.35858326 19.74975400
  13.37280588  9.84801291 17.49240700
  20.15198638 16.62719341 17.49240700
  16.73750985 13.26249015 12.54279000
   9.84801151 13.37280729 12.50759500
  16.62719200 20.15198779 12.50759500
  16.62719412  9.84801292 17.49240700
   9.84801363 16.62719342 17.49240700
  20.15198849 13.37280729 12.50759500
  13.37280800 20.15198779 12.50759500
  13.26249015 13.26249015 12.54279000
  15.00000000 11.52498029 15.00000000
  18.52479437 15.00000140 10.20639500
  18.52479437 15.00000141 19.79360400
  11.47520562 15.00000141 10.20639501
  11.47520563 15.00000141 19.79360400
  11.49534898 11.49534898 15.00000000
  18.50465172 18.50465172 15.00000000
  18.50465102 11.49534898 15.00000000
  11.49534828 18.50465172 15.00000000
  15.00000000 15.00000000 10.04367500
  15.00000000 15.00000000 19.95632599
   9.84801151 13.37280729 17.49240700
  16.62719200 20.15198779 17.49240700
  16.73750985 13.26249015 17.45721100
  13.26248944 16.73751056 12.54279001
  13.26249015 13.26249015 17.45721100
  20.15198849 13.37280729 17.49240699
  13.37280800 20.15198779 17.49240700
  16.73751056 16.73751056 12.54279000
  11.52497959 15.00000071 15.00000000
  18.47502041 15.00000071 15.00000000
  14.99999999 18.52479579 10.20639500
  15.00000000 18.52479578 19.79360400
  15.00000000 15.00000000 15.00000000
  13.26248944 16.73751057 17.45721101
  16.73751056 16.73751057 17.45721100
  15.00000000 18.47502112 15.00000000
  16.25531400 22.74103900 12.92544100
  16.42987100 23.81746600 12.63696400
 


--------------------------------------------------------------------------------------------------------


 k-point  1 :   0.0000 0.0000 0.0000  plane waves:  490521

 maximum and minimum number of plane-waves per node :    490521   490521

 maximum number of plane-waves:    490521
 maximum index in each direction: 
   IXMAX=   48   IYMAX=   48   IZMAX=   48
   IXMIN=  -48   IYMIN=  -48   IZMIN=  -48


 serial   3D FFT for wavefunctions
 parallel 3D FFT for charge:
    minimum data exchange during FFTs selected (reduces bandwidth)


 total amount of memory used by VASP MPI-rank0  5486941. kBytes
=======================================================================

   base      :      30000. kBytes
   nonlr-proj:      17126. kBytes
   fftplans  :     924480. kBytes
   grid      :    1872000. kBytes
   one-center:        886. kBytes
   wavefun   :    2642449. kBytes
 
     INWAV:  cpu time    0.0001: real time    0.0004
 Broyden mixing: mesh for mixing (old mesh)
   NGX = 97   NGY = 97   NGZ = 97
  (NGX  =300   NGY  =300   NGZ  =300)
  gives a total of 912673 points

 initial charge density was supplied:
 charge density of overlapping atoms calculated
 number of electron     560.0000000 magnetization 
 keeping initial charge density in first step


--------------------------------------------------------------------------------------------------------


 Maximum index for non-local projection operator         1763
 Maximum index for augmentation-charges         5898 (set IRDMAX)


--------------------------------------------------------------------------------------------------------


 First call to EWALD:  gamma=   0.059
 Maximum number of real-space cells 3x 3x 3
 Maximum number of reciprocal cells 3x 3x 3

    FEWALD:  cpu time    0.0147: real time    0.0147


--------------------------------------- Iteration      1(   1)  ---------------------------------------


    POTLOK:  cpu time   14.8160: real time   14.8198
    SETDIJ:  cpu time    0.1201: real time    0.1201
     EDDAV:  cpu time  370.0295: real time  370.1313
       DOS:  cpu time    0.0013: real time    0.0013
    --------------------------------------------
      LOOP:  cpu time  384.9668: real time  385.0724

 eigenvalue-minimisations  :   688
 total energy-change (2. order) : 0.4383676E+04  (-0.1004924E+05)
 number of electron     560.0000000 magnetization 
 augmentation part      560.0000000 magnetization 

 Free energy of the ion-electron system (eV)
  ---------------------------------------------------
  alpha Z        PSCENC =        75.25431677
  Ewald energy   TEWEN  =    137671.30692908
  -Hartree energ DENC   =   -181037.89734022
  -exchange      EXHF   =         0.00000000
  -V(xc)+E(xc)   XCENC  =     -1703.68383312
  PAW double counting   =     44873.02882129   -41398.84523641
  entropy T*S    EENTRO =         0.01522277
  eigenvalues    EBANDS =       817.99145295
  atomic energy  EATOM  =     45086.50549395
  Solvation  Ediel_sol  =         0.00000000
  ---------------------------------------------------
  free energy    TOTEN  =      4383.67582705 eV

  energy without entropy =     4383.66060429  energy(sigma->0) =     4383.67202136


--------------------------------------------------------------------------------------------------------




--------------------------------------- Iteration      1(   2)  ---------------------------------------


     EDDAV:  cpu time  588.8087: real time  588.8241
       DOS:  cpu time    0.0013: real time    0.0013
    --------------------------------------------
      LOOP:  cpu time  588.8099: real time  588.8254

 eigenvalue-minimisations  :  1208
 total energy-change (2. order) :-0.2359287E+04  (-0.2120784E+04)
 number of electron     560.0000000 magnetization 
 augmentation part      560.0000000 magnetization 

 Free energy of the ion-electron system (eV)
  ---------------------------------------------------
  alpha Z        PSCENC =        75.25431677
  Ewald energy   TEWEN  =    137671.30692908
  -Hartree energ DENC   =   -181037.89734022
  -exchange      EXHF   =         0.00000000
  -V(xc)+E(xc)   XCENC  =     -1703.68383312
  PAW double counting   =     44873.02882129   -41398.84523641
  entropy T*S    EENTRO =        -0.04605509
  eigenvalues    EBANDS =     -1541.23467679
  atomic energy  EATOM  =     45086.50549395
  Solvation  Ediel_sol  =         0.00000000
  ---------------------------------------------------
  free energy    TOTEN  =      2024.38841946 eV

  energy without entropy =     2024.43447455  energy(sigma->0) =     2024.39993324


--------------------------------------------------------------------------------------------------------




--------------------------------------- Iteration      1(   3)  ---------------------------------------


     EDDAV:  cpu time  504.3210: real time  504.3485
       DOS:  cpu time    0.0011: real time    0.0011
    --------------------------------------------
      LOOP:  cpu time  504.3221: real time  504.3496

 eigenvalue-minimisations  :  1000
 total energy-change (2. order) :-0.1781689E+04  (-0.1675509E+04)
 number of electron     560.0000000 magnetization 
 augmentation part      560.0000000 magnetization 

 Free energy of the ion-electron system (eV)
  ---------------------------------------------------
  alpha Z        PSCENC =        75.25431677
  Ewald energy   TEWEN  =    137671.30692908
  -Hartree energ DENC   =   -181037.89734022
  -exchange      EXHF   =         0.00000000
  -V(xc)+E(xc)   XCENC  =     -1703.68383312
  PAW double counting   =     44873.02882129   -41398.84523641
  entropy T*S    EENTRO =        -0.02320025
  eigenvalues    EBANDS =     -3322.94667855
  atomic energy  EATOM  =     45086.50549395
  Solvation  Ediel_sol  =         0.00000000
  ---------------------------------------------------
  free energy    TOTEN  =       242.69927253 eV

  energy without entropy =      242.72247278  energy(sigma->0) =      242.70507260


--------------------------------------------------------------------------------------------------------




--------------------------------------- Iteration      1(   4)  ---------------------------------------


     EDDAV:  cpu time  433.9227: real time  433.9426
       DOS:  cpu time    0.0012: real time    0.0012
    --------------------------------------------
      LOOP:  cpu time  433.9239: real time  433.9438

 eigenvalue-minimisations  :   832
 total energy-change (2. order) :-0.3751732E+03  (-0.3193919E+03)
 number of electron     560.0000000 magnetization 
 augmentation part      560.0000000 magnetization 

 Free energy of the ion-electron system (eV)
  ---------------------------------------------------
  alpha Z        PSCENC =        75.25431677
  Ewald energy   TEWEN  =    137671.30692908
  -Hartree energ DENC   =   -181037.89734022
  -exchange      EXHF   =         0.00000000
  -V(xc)+E(xc)   XCENC  =     -1703.68383312
  PAW double counting   =     44873.02882129   -41398.84523641
  entropy T*S    EENTRO =        -0.02802730
  eigenvalues    EBANDS =     -3698.11508160
  atomic energy  EATOM  =     45086.50549395
  Solvation  Ediel_sol  =         0.00000000
  ---------------------------------------------------
  free energy    TOTEN  =      -132.47395757 eV

  energy without entropy =     -132.44593027  energy(sigma->0) =     -132.46695074


--------------------------------------------------------------------------------------------------------




--------------------------------------- Iteration      1(   5)  ---------------------------------------


     EDDAV:  cpu time  523.2553: real time  523.2670
       DOS:  cpu time    0.0014: real time    0.0014
    CHARGE:  cpu time   25.7794: real time   25.7797
    MIXING:  cpu time    0.4482: real time    0.4482
    --------------------------------------------
      LOOP:  cpu time  549.4844: real time  549.4964

 eigenvalue-minimisations  :  1048
 total energy-change (2. order) :-0.4637039E+02  (-0.3894411E+02)
 number of electron     559.9999852 magnetization 
 augmentation part      245.2178724 magnetization 

 Broyden mixing:
  rms(total) = 0.13786E+01    rms(broyden)= 0.13776E+01
  rms(prec ) = 0.14837E+01
  weight for this iteration     100.00

 Free energy of the ion-electron system (eV)
  ---------------------------------------------------
  alpha Z        PSCENC =        75.25431677
  Ewald energy   TEWEN  =    137671.30692908
  -Hartree energ DENC   =   -181037.89734022
  -exchange      EXHF   =         0.00000000
  -V(xc)+E(xc)   XCENC  =     -1703.68383312
  PAW double counting   =     44873.02882129   -41398.84523641
  entropy T*S    EENTRO =         0.52822669
  eigenvalues    EBANDS =     -3745.04172445
  atomic energy  EATOM  =     45086.50549395
  Solvation  Ediel_sol  =         0.00000000
  ---------------------------------------------------
  free energy    TOTEN  =      -178.84434642 eV

  energy without entropy =     -179.37257311  energy(sigma->0) =     -178.97640309


--------------------------------------------------------------------------------------------------------




--------------------------------------- Iteration      1(   6)  ---------------------------------------


    POTLOK:  cpu time   13.4266: real time   13.4302
    SETDIJ:  cpu time    0.1195: real time    0.1196
    EDDIAG:  cpu time   69.2232: real time   69.2252
  RMM-DIIS:  cpu time  191.1648: real time  191.1727
    ORTHCH:  cpu time   13.4053: real time   13.4055
       DOS:  cpu time    0.0014: real time    0.0014
    CHARGE:  cpu time   26.0827: real time   26.0827
    MIXING:  cpu time    0.4627: real time    0.4627
    --------------------------------------------
      LOOP:  cpu time  313.8862: real time  313.9000

 eigenvalue-minimisations  :   723
 total energy-change (2. order) : 0.4583294E+00  (-0.5035737E+01)
 number of electron     559.9999882 magnetization 
 augmentation part      240.6417899 magnetization 

 Broyden mixing:
  rms(total) = 0.20152E+01    rms(broyden)= 0.20150E+01
  rms(prec ) = 0.23420E+01
  weight for this iteration     100.00

 eigenvalues of (default mixing * dielectric matrix)
  average eigenvalue GAMMA=   0.3557
  0.3557

 Free energy of the ion-electron system (eV)
  ---------------------------------------------------
  alpha Z        PSCENC =        75.25431677
  Ewald energy   TEWEN  =    137671.30692908
  -Hartree energ DENC   =   -181447.69426968
  -exchange      EXHF   =         0.00000000
  -V(xc)+E(xc)   XCENC  =     -1697.42901248
  PAW double counting   =     45614.89636818   -42113.57174190
  entropy T*S    EENTRO =        -0.27410772
  eigenvalues    EBANDS =     -3367.37999324
  atomic energy  EATOM  =     45086.50549395
  Solvation  Ediel_sol  =         0.00000000
  ---------------------------------------------------
  free energy    TOTEN  =      -178.38601705 eV

  energy without entropy =     -178.11190932  energy(sigma->0) =     -178.31749012


--------------------------------------------------------------------------------------------------------




--------------------------------------- Iteration      1(   7)  ---------------------------------------


    POTLOK:  cpu time   14.0481: real time   14.0582
    SETDIJ:  cpu time    0.1321: real time    0.1321
    EDDIAG:  cpu time   70.3762: real time   70.3892
  RMM-DIIS:  cpu time  224.0659: real time  224.0853
    ORTHCH:  cpu time   14.0372: real time   14.0379
       DOS:  cpu time    0.0016: real time    0.0016
    CHARGE:  cpu time   25.6244: real time   25.6262
    MIXING:  cpu time    0.4842: real time    0.4842
    --------------------------------------------
      LOOP:  cpu time  348.7696: real time  348.8147

 eigenvalue-minimisations  :   849
 total energy-change (2. order) :-0.2083539E+01  (-0.1859351E+01)
 number of electron     559.9999842 magnetization 
 augmentation part      240.5026068 magnetization 

 Broyden mixing:
  rms(total) = 0.20517E+01    rms(broyden)= 0.20514E+01
  rms(prec ) = 0.24883E+01
  weight for this iteration     100.00

 eigenvalues of (default mixing * dielectric matrix)
  average eigenvalue GAMMA=   0.3466
  0.5420  0.1512

 Free energy of the ion-electron system (eV)
  ---------------------------------------------------
  alpha Z        PSCENC =        75.25431677
  Ewald energy   TEWEN  =    137671.30692908
  -Hartree energ DENC   =   -181537.75255072
  -exchange      EXHF   =         0.00000000
  -V(xc)+E(xc)   XCENC  =     -1697.60893013
  PAW double counting   =     45678.16135020   -42173.98249065
  entropy T*S    EENTRO =        -0.12865443
  eigenvalues    EBANDS =     -3282.22501973
  atomic energy  EATOM  =     45086.50549395
  Solvation  Ediel_sol  =         0.00000000
  ---------------------------------------------------
  free energy    TOTEN  =      -180.46955566 eV

  energy without entropy =     -180.34090124  energy(sigma->0) =     -180.43739206


--------------------------------------------------------------------------------------------------------




--------------------------------------- Iteration      1(   8)  ---------------------------------------


    POTLOK:  cpu time   13.6185: real time   13.6214
    SETDIJ:  cpu time    0.1252: real time    0.1252
    EDDIAG:  cpu time   69.1830: real time   69.1907
  RMM-DIIS:  cpu time  210.9801: real time  211.0036
    ORTHCH:  cpu time   13.3021: real time   13.3020
       DOS:  cpu time    0.0014: real time    0.0014
    CHARGE:  cpu time   25.8597: real time   25.8596
    MIXING:  cpu time    0.5268: real time    0.5268
    --------------------------------------------
      LOOP:  cpu time  333.5966: real time  333.6306

 eigenvalue-minimisations  :   793
 total energy-change (2. order) :-0.2940037E+01  (-0.6315867E+00)
 number of electron     559.9999830 magnetization 
 augmentation part      240.2193122 magnetization 

 Broyden mixing:
  rms(total) = 0.28876E+01    rms(broyden)= 0.28873E+01
  rms(prec ) = 0.34228E+01
  weight for this iteration     100.00

 eigenvalues of (default mixing * dielectric matrix)
  average eigenvalue GAMMA=   0.3139
  0.6833  0.1471  0.1113

 Free energy of the ion-electron system (eV)
  ---------------------------------------------------
  alpha Z        PSCENC =        75.25431677
  Ewald energy   TEWEN  =    137671.30692908
  -Hartree energ DENC   =   -181576.26875506
  -exchange      EXHF   =         0.00000000
  -V(xc)+E(xc)   XCENC  =     -1697.56408340
  PAW double counting   =     45739.82369373   -42232.68850991
  entropy T*S    EENTRO =        -0.05079455
  eigenvalues    EBANDS =     -3249.72788286
  atomic energy  EATOM  =     45086.50549395
  Solvation  Ediel_sol  =         0.00000000
  ---------------------------------------------------
  free energy    TOTEN  =      -183.40959225 eV

  energy without entropy =     -183.35879770  energy(sigma->0) =     -183.39689361


--------------------------------------------------------------------------------------------------------




--------------------------------------- Iteration      1(   9)  ---------------------------------------


    POTLOK:  cpu time   13.2810: real time   13.2819
    SETDIJ:  cpu time    0.1279: real time    0.1279
    EDDIAG:  cpu time   68.9496: real time   68.9533
  RMM-DIIS:  cpu time  193.7265: real time  193.7294
    ORTHCH:  cpu time   13.5842: real time   13.5842
       DOS:  cpu time    0.0014: real time    0.0014
    CHARGE:  cpu time   26.3866: real time   26.3868
    MIXING:  cpu time    0.5488: real time    0.5488
    --------------------------------------------
      LOOP:  cpu time  316.6059: real time  316.6138

 eigenvalue-minimisations  :   735
 total energy-change (2. order) : 0.2152000E+01  (-0.4532357E+00)
 number of electron     559.9999848 magnetization 
 augmentation part      240.9830992 magnetization 

 Broyden mixing:
  rms(total) = 0.23251E+01    rms(broyden)= 0.23248E+01
  rms(prec ) = 0.26728E+01
  weight for this iteration     100.00

 eigenvalues of (default mixing * dielectric matrix)
  average eigenvalue GAMMA=   0.3005
  0.8006  0.1539  0.1539  0.0936

 Free energy of the ion-electron system (eV)
  ---------------------------------------------------
  alpha Z        PSCENC =        75.25431677
  Ewald energy   TEWEN  =    137671.30692908
  -Hartree energ DENC   =   -181592.36627815
  -exchange      EXHF   =         0.00000000
  -V(xc)+E(xc)   XCENC  =     -1697.50548702
  PAW double counting   =     45788.23120401   -42278.84053843
  entropy T*S    EENTRO =        -0.16545182
  eigenvalues    EBANDS =     -3233.67778109
  atomic energy  EATOM  =     45086.50549395
  Solvation  Ediel_sol  =         0.00000000
  ---------------------------------------------------
  free energy    TOTEN  =      -181.25759271 eV

  energy without entropy =     -181.09214089  energy(sigma->0) =     -181.21622975


--------------------------------------------------------------------------------------------------------




--------------------------------------- Iteration      1(  10)  ---------------------------------------


    POTLOK:  cpu time   13.5671: real time   13.5682
    SETDIJ:  cpu time    0.1197: real time    0.1198
    EDDIAG:  cpu time   68.5159: real time   68.5171
  RMM-DIIS:  cpu time  192.1618: real time  192.1648
    ORTHCH:  cpu time   13.6292: real time   13.6291
       DOS:  cpu time    0.0015: real time    0.0015
    CHARGE:  cpu time   25.8928: real time   25.8928
    MIXING:  cpu time    0.5808: real time    0.5808
    --------------------------------------------
      LOOP:  cpu time  314.4689: real time  314.4740

 eigenvalue-minimisations  :   730
 total energy-change (2. order) : 0.1939375E+01  (-0.2834364E+00)
 number of electron     559.9999859 magnetization 
 augmentation part      241.3024182 magnetization 

 Broyden mixing:
  rms(total) = 0.22628E+01    rms(broyden)= 0.22626E+01
  rms(prec ) = 0.27026E+01
  weight for this iteration     100.00

 eigenvalues of (default mixing * dielectric matrix)
  average eigenvalue GAMMA=   0.2693
  0.8420  0.1576  0.1576  0.1120  0.0772

 Free energy of the ion-electron system (eV)
  ---------------------------------------------------
  alpha Z        PSCENC =        75.25431677
  Ewald energy   TEWEN  =    137671.30692908
  -Hartree energ DENC   =   -181621.78077713
  -exchange      EXHF   =         0.00000000
  -V(xc)+E(xc)   XCENC  =     -1697.35460451
  PAW double counting   =     45834.37475576   -42322.91863346
  entropy T*S    EENTRO =        -0.08110646
  eigenvalues    EBANDS =     -3204.62459158
  atomic energy  EATOM  =     45086.50549395
  Solvation  Ediel_sol  =         0.00000000
  ---------------------------------------------------
  free energy    TOTEN  =      -179.31821758 eV

  energy without entropy =     -179.23711112  energy(sigma->0) =     -179.29794096


--------------------------------------------------------------------------------------------------------




--------------------------------------- Iteration      1(  11)  ---------------------------------------


    POTLOK:  cpu time   13.3109: real time   13.3118
    SETDIJ:  cpu time    0.1217: real time    0.1217
    EDDIAG:  cpu time   67.6093: real time   67.6114
  RMM-DIIS:  cpu time  194.1285: real time  194.1386
    ORTHCH:  cpu time   13.5363: real time   13.5363
       DOS:  cpu time    0.0014: real time    0.0014
    CHARGE:  cpu time   25.3089: real time   25.3090
    MIXING:  cpu time    0.6230: real time    0.6230
    --------------------------------------------
      LOOP:  cpu time  314.6400: real time  314.6532

 eigenvalue-minimisations  :   737
 total energy-change (2. order) : 0.1838161E+01  (-0.1335129E+00)
 number of electron     559.9999857 magnetization 
 augmentation part      241.5288840 magnetization 

 Broyden mixing:
  rms(total) = 0.17153E+01    rms(broyden)= 0.17150E+01
  rms(prec ) = 0.19851E+01
  weight for this iteration     100.00

 eigenvalues of (default mixing * dielectric matrix)
  average eigenvalue GAMMA=   0.2579
  0.9055  0.1795  0.1795  0.1090  0.1090  0.0648

 Free energy of the ion-electron system (eV)
  ---------------------------------------------------
  alpha Z        PSCENC =        75.25431677
  Ewald energy   TEWEN  =    137671.30692908
  -Hartree energ DENC   =   -181638.15557276
  -exchange      EXHF   =         0.00000000
  -V(xc)+E(xc)   XCENC  =     -1697.24167815
  PAW double counting   =     45856.92546669   -42344.39065844
  entropy T*S    EENTRO =        -0.12279808
  eigenvalues    EBANDS =     -3187.56155557
  atomic energy  EATOM  =     45086.50549395
  Solvation  Ediel_sol  =         0.00000000
  ---------------------------------------------------
  free energy    TOTEN  =      -177.48005651 eV

  energy without entropy =     -177.35725843  energy(sigma->0) =     -177.44935699


--------------------------------------------------------------------------------------------------------




--------------------------------------- Iteration      1(  12)  ---------------------------------------


    POTLOK:  cpu time   13.2133: real time   13.2139
    SETDIJ:  cpu time    0.1229: real time    0.1229
    EDDIAG:  cpu time   67.7916: real time   67.7919
  RMM-DIIS:  cpu time  192.1258: real time  192.1280
    ORTHCH:  cpu time   13.5674: real time   13.5673
       DOS:  cpu time    0.0016: real time    0.0016
    CHARGE:  cpu time   25.8485: real time   25.8484
    MIXING:  cpu time    0.6482: real time    0.6482
    --------------------------------------------
      LOOP:  cpu time  313.3192: real time  313.3221

 eigenvalue-minimisations  :   723
 total energy-change (2. order) : 0.1156715E+01  (-0.1267603E+00)
 number of electron     559.9999862 magnetization 
 augmentation part      241.6520512 magnetization 

 Broyden mixing:
  rms(total) = 0.13797E+01    rms(broyden)= 0.13794E+01
  rms(prec ) = 0.16158E+01
  weight for this iteration     100.00

 eigenvalues of (default mixing * dielectric matrix)
  average eigenvalue GAMMA=   0.2472
  0.9351  0.2051  0.2051  0.1199  0.1199  0.0852  0.0599

 Free energy of the ion-electron system (eV)
  ---------------------------------------------------
  alpha Z        PSCENC =        75.25431677
  Ewald energy   TEWEN  =    137671.30692908
  -Hartree energ DENC   =   -181655.60454308
  -exchange      EXHF   =         0.00000000
  -V(xc)+E(xc)   XCENC  =     -1697.05426994
  PAW double counting   =     45885.37259690   -42371.40036611
  entropy T*S    EENTRO =        -0.12098311
  eigenvalues    EBANDS =     -3170.58251605
  atomic energy  EATOM  =     45086.50549395
  Solvation  Ediel_sol  =         0.00000000
  ---------------------------------------------------
  free energy    TOTEN  =      -176.32334160 eV

  energy without entropy =     -176.20235849  energy(sigma->0) =     -176.29309582


--------------------------------------------------------------------------------------------------------




--------------------------------------- Iteration      1(  13)  ---------------------------------------


    POTLOK:  cpu time   13.1203: real time   13.1217
    SETDIJ:  cpu time    0.1231: real time    0.1231
    EDDIAG:  cpu time   68.6222: real time   68.6249
  RMM-DIIS:  cpu time  189.5166: real time  189.5213
    ORTHCH:  cpu time   13.6360: real time   13.6359
       DOS:  cpu time    0.0015: real time    0.0015
    CHARGE:  cpu time   25.5247: real time   25.5245
    MIXING:  cpu time    0.6924: real time    0.6924
    --------------------------------------------
      LOOP:  cpu time  311.2368: real time  311.2453

 eigenvalue-minimisations  :   719
 total energy-change (2. order) : 0.5608999E+00  (-0.7935415E-01)
 number of electron     559.9999848 magnetization 
 augmentation part      241.7225433 magnetization 

 Broyden mixing:
  rms(total) = 0.14313E+01    rms(broyden)= 0.14311E+01
  rms(prec ) = 0.17118E+01
  weight for this iteration     100.00

 eigenvalues of (default mixing * dielectric matrix)
  average eigenvalue GAMMA=   0.2461
  0.9599  0.2705  0.2705  0.1210  0.1210  0.0871  0.0871  0.0515

 Free energy of the ion-electron system (eV)
  ---------------------------------------------------
  alpha Z        PSCENC =        75.25431677
  Ewald energy   TEWEN  =    137671.30692908
  -Hartree energ DENC   =   -181670.27106931
  -exchange      EXHF   =         0.00000000
  -V(xc)+E(xc)   XCENC  =     -1696.84852037
  PAW double counting   =     45907.30965695   -42392.15893998
  entropy T*S    EENTRO =        -0.06154127
  eigenvalues    EBANDS =     -3156.79876751
  atomic energy  EATOM  =     45086.50549395
  Solvation  Ediel_sol  =         0.00000000
  ---------------------------------------------------
  free energy    TOTEN  =      -175.76244169 eV

  energy without entropy =     -175.70090042  energy(sigma->0) =     -175.74705637


--------------------------------------------------------------------------------------------------------




--------------------------------------- Iteration      1(  14)  ---------------------------------------


    POTLOK:  cpu time   13.2662: real time   13.2670
    SETDIJ:  cpu time    0.1207: real time    0.1207
    EDDIAG:  cpu time   68.3198: real time   68.3207
  RMM-DIIS:  cpu time  192.3473: real time  192.3499
    ORTHCH:  cpu time   13.4979: real time   13.4978
       DOS:  cpu time    0.0014: real time    0.0014
    CHARGE:  cpu time   25.7236: real time   25.7285
    MIXING:  cpu time    0.6950: real time    0.6950
    --------------------------------------------
      LOOP:  cpu time  313.9720: real time  313.9810

 eigenvalue-minimisations  :   726
 total energy-change (2. order) :-0.1893197E+00  (-0.5867068E-01)
 number of electron     559.9999859 magnetization 
 augmentation part      241.5911124 magnetization 

 Broyden mixing:
  rms(total) = 0.17563E+01    rms(broyden)= 0.17561E+01
  rms(prec ) = 0.20972E+01
  weight for this iteration     100.00

 eigenvalues of (default mixing * dielectric matrix)
  average eigenvalue GAMMA=   0.2591
  1.0446  0.4181  0.3065  0.1064  0.1064  0.1242  0.1242  0.0574  0.0445

 Free energy of the ion-electron system (eV)
  ---------------------------------------------------
  alpha Z        PSCENC =        75.25431677
  Ewald energy   TEWEN  =    137671.30692908
  -Hartree energ DENC   =   -181688.74914601
  -exchange      EXHF   =         0.00000000
  -V(xc)+E(xc)   XCENC  =     -1696.60460296
  PAW double counting   =     45931.08891087   -42414.58538452
  entropy T*S    EENTRO =        -0.03127773
  eigenvalues    EBANDS =     -3140.13700080
  atomic energy  EATOM  =     45086.50549395
  Solvation  Ediel_sol  =         0.00000000
  ---------------------------------------------------
  free energy    TOTEN  =      -175.95176135 eV

  energy without entropy =     -175.92048362  energy(sigma->0) =     -175.94394192


--------------------------------------------------------------------------------------------------------




--------------------------------------- Iteration      1(  15)  ---------------------------------------


    POTLOK:  cpu time   13.2270: real time   13.2282
    SETDIJ:  cpu time    0.1233: real time    0.1233
    EDDIAG:  cpu time   68.2184: real time   68.2191
  RMM-DIIS:  cpu time  189.3501: real time  189.3518
    ORTHCH:  cpu time   13.3645: real time   13.3643
       DOS:  cpu time    0.0015: real time    0.0015
    CHARGE:  cpu time   25.0823: real time   25.0823
    MIXING:  cpu time    0.7653: real time    0.7653
    --------------------------------------------
      LOOP:  cpu time  310.1323: real time  310.1358

 eigenvalue-minimisations  :   715
 total energy-change (2. order) :-0.4275798E+00  (-0.1026100E+00)
 number of electron     559.9999837 magnetization 
 augmentation part      241.3537612 magnetization 

 Broyden mixing:
  rms(total) = 0.22890E+01    rms(broyden)= 0.22888E+01
  rms(prec ) = 0.26945E+01
  weight for this iteration     100.00

 eigenvalues of (default mixing * dielectric matrix)
  average eigenvalue GAMMA=   0.2594
  1.1008  0.6156  0.2475  0.1220  0.1220  0.1138  0.1138  0.0579  0.0579  0.0427

 Free energy of the ion-electron system (eV)
  ---------------------------------------------------
  alpha Z        PSCENC =        75.25431677
  Ewald energy   TEWEN  =    137671.30692908
  -Hartree energ DENC   =   -181728.01158857
  -exchange      EXHF   =         0.00000000
  -V(xc)+E(xc)   XCENC  =     -1696.03860444
  PAW double counting   =     45982.78023139   -42463.35083322
  entropy T*S    EENTRO =         0.07640399
  eigenvalues    EBANDS =     -3104.90169015
  atomic energy  EATOM  =     45086.50549395
  Solvation  Ediel_sol  =         0.00000000
  ---------------------------------------------------
  free energy    TOTEN  =      -176.37934120 eV

  energy without entropy =     -176.45574520  energy(sigma->0) =     -176.39844220


--------------------------------------------------------------------------------------------------------




--------------------------------------- Iteration      1(  16)  ---------------------------------------


    POTLOK:  cpu time   13.0144: real time   13.0180
    SETDIJ:  cpu time    0.1220: real time    0.1220
    EDDIAG:  cpu time   68.9907: real time   68.9991
  RMM-DIIS:  cpu time  189.5564: real time  189.5581
    ORTHCH:  cpu time   13.4484: real time   13.4484
       DOS:  cpu time    0.0015: real time    0.0015
    CHARGE:  cpu time   25.3798: real time   25.3799
    MIXING:  cpu time    0.8458: real time    0.8458
    --------------------------------------------
      LOOP:  cpu time  311.3590: real time  311.3728

 eigenvalue-minimisations  :   722
 total energy-change (2. order) : 0.6756675E+00  (-0.6636736E-01)
 number of electron     559.9999854 magnetization 
 augmentation part      241.1465814 magnetization 

 Broyden mixing:
  rms(total) = 0.12710E+01    rms(broyden)= 0.12708E+01
  rms(prec ) = 0.14615E+01
  weight for this iteration     100.00

 eigenvalues of (default mixing * dielectric matrix)
  average eigenvalue GAMMA=   0.2873
  1.3846  0.7807  0.1817  0.1817  0.1813  0.0999  0.0999  0.0929  0.0670  0.0507
  0.0400

 Free energy of the ion-electron system (eV)
  ---------------------------------------------------
  alpha Z        PSCENC =        75.25431677
  Ewald energy   TEWEN  =    137671.30692908
  -Hartree energ DENC   =   -181752.05409361
  -exchange      EXHF   =         0.00000000
  -V(xc)+E(xc)   XCENC  =     -1695.72251197
  PAW double counting   =     46010.44653802   -42489.43887198
  entropy T*S    EENTRO =        -0.12753160
  eigenvalues    EBANDS =     -3081.87394232
  atomic energy  EATOM  =     45086.50549395
  Solvation  Ediel_sol  =         0.00000000
  ---------------------------------------------------
  free energy    TOTEN  =      -175.70367367 eV

  energy without entropy =     -175.57614207  energy(sigma->0) =     -175.67179077


--------------------------------------------------------------------------------------------------------




--------------------------------------- Iteration      1(  17)  ---------------------------------------


    POTLOK:  cpu time   13.2787: real time   13.2822
    SETDIJ:  cpu time    0.1239: real time    0.1239
    EDDIAG:  cpu time   69.4638: real time   69.4639
  RMM-DIIS:  cpu time  184.7794: real time  184.7814
    ORTHCH:  cpu time   13.6720: real time   13.6719
       DOS:  cpu time    0.0014: real time    0.0014
    CHARGE:  cpu time   25.8075: real time   25.8075
    MIXING:  cpu time    0.8595: real time    0.8595
    --------------------------------------------
      LOOP:  cpu time  307.9862: real time  307.9917

 eigenvalue-minimisations  :   707
 total energy-change (2. order) : 0.4313402E+00  (-0.8950000E-01)
 number of electron     559.9999851 magnetization 
 augmentation part      241.0022100 magnetization 

 Broyden mixing:
  rms(total) = 0.12415E+01    rms(broyden)= 0.12412E+01
  rms(prec ) = 0.14033E+01
  weight for this iteration     100.00

 eigenvalues of (default mixing * dielectric matrix)
  average eigenvalue GAMMA=   0.2966
  1.5829  0.8205  0.2309  0.2309  0.1055  0.1055  0.1157  0.1157  0.0922  0.0684
  0.0511  0.0397

 Free energy of the ion-electron system (eV)
  ---------------------------------------------------
  alpha Z        PSCENC =        75.25431677
  Ewald energy   TEWEN  =    137671.30692908
  -Hartree energ DENC   =   -181796.39955100
  -exchange      EXHF   =         0.00000000
  -V(xc)+E(xc)   XCENC  =     -1695.10412676
  PAW double counting   =     46067.23078877   -42542.96885428
  entropy T*S    EENTRO =        -0.09647906
  eigenvalues    EBANDS =     -3041.00085092
  atomic energy  EATOM  =     45086.50549395
  Solvation  Ediel_sol  =         0.00000000
  ---------------------------------------------------
  free energy    TOTEN  =      -175.27233345 eV

  energy without entropy =     -175.17585440  energy(sigma->0) =     -175.24821369


--------------------------------------------------------------------------------------------------------




--------------------------------------- Iteration      1(  18)  ---------------------------------------


    POTLOK:  cpu time   13.2462: real time   13.2486
    SETDIJ:  cpu time    0.1279: real time    0.1279
    EDDIAG:  cpu time   69.3544: real time   69.3553
  RMM-DIIS:  cpu time  184.5790: real time  184.5875
    ORTHCH:  cpu time   13.6157: real time   13.6160
       DOS:  cpu time    0.0015: real time    0.0015
    CHARGE:  cpu time   25.5191: real time   25.5196
    MIXING:  cpu time    0.9296: real time    0.9296
    --------------------------------------------
      LOOP:  cpu time  307.3735: real time  307.3860

 eigenvalue-minimisations  :   704
 total energy-change (2. order) : 0.2415757E+00  (-0.5670730E-01)
 number of electron     559.9999874 magnetization 
 augmentation part      241.0356948 magnetization 

 Broyden mixing:
  rms(total) = 0.12324E+01    rms(broyden)= 0.12322E+01
  rms(prec ) = 0.14011E+01
  weight for this iteration     100.00

 eigenvalues of (default mixing * dielectric matrix)
  average eigenvalue GAMMA=   0.3020
  1.6810  0.8699  0.2912  0.2912  0.1330  0.1330  0.1059  0.1059  0.0879  0.0766
  0.0600  0.0515  0.0396

 Free energy of the ion-electron system (eV)
  ---------------------------------------------------
  alpha Z        PSCENC =        75.25431677
  Ewald energy   TEWEN  =    137671.30692908
  -Hartree energ DENC   =   -181813.50318523
  -exchange      EXHF   =         0.00000000
  -V(xc)+E(xc)   XCENC  =     -1694.86217207
  PAW double counting   =     46089.26805683   -42563.62644945
  entropy T*S    EENTRO =         0.00243774
  eigenvalues    EBANDS =     -3025.37618542
  atomic energy  EATOM  =     45086.50549395
  Solvation  Ediel_sol  =         0.00000000
  ---------------------------------------------------
  free energy    TOTEN  =      -175.03075780 eV

  energy without entropy =     -175.03319554  energy(sigma->0) =     -175.03136724


--------------------------------------------------------------------------------------------------------




--------------------------------------- Iteration      1(  19)  ---------------------------------------


    POTLOK:  cpu time   13.1825: real time   13.1864
    SETDIJ:  cpu time    0.1196: real time    0.1196
    EDDIAG:  cpu time   68.5358: real time   68.5371
  RMM-DIIS:  cpu time  184.8686: real time  184.8737
    ORTHCH:  cpu time   13.2799: real time   13.2800
       DOS:  cpu time    0.0015: real time    0.0015
    CHARGE:  cpu time   25.6879: real time   25.6898
    MIXING:  cpu time    1.0011: real time    1.0011
    --------------------------------------------
      LOOP:  cpu time  306.6767: real time  306.6891

 eigenvalue-minimisations  :   706
 total energy-change (2. order) : 0.1954223E+00  (-0.4009430E-01)
 number of electron     559.9999872 magnetization 
 augmentation part      241.0548362 magnetization 

 Broyden mixing:
  rms(total) = 0.84911E+00    rms(broyden)= 0.84894E+00
  rms(prec ) = 0.95612E+00
  weight for this iteration     100.00

 eigenvalues of (default mixing * dielectric matrix)
  average eigenvalue GAMMA=   0.3258
  1.8162  1.0988  0.3604  0.3604  0.1515  0.1515  0.1044  0.1044  0.0977  0.0977
  0.0668  0.0615  0.0513  0.0396

 Free energy of the ion-electron system (eV)
  ---------------------------------------------------
  alpha Z        PSCENC =        75.25431677
  Ewald energy   TEWEN  =    137671.30692908
  -Hartree energ DENC   =   -181824.34369369
  -exchange      EXHF   =         0.00000000
  -V(xc)+E(xc)   XCENC  =     -1694.76063373
  PAW double counting   =     46096.33218273   -42570.04614687
  entropy T*S    EENTRO =        -0.01390455
  eigenvalues    EBANDS =     -3015.06987922
  atomic energy  EATOM  =     45086.50549395
  Solvation  Ediel_sol  =         0.00000000
  ---------------------------------------------------
  free energy    TOTEN  =      -174.83533553 eV

  energy without entropy =     -174.82143099  energy(sigma->0) =     -174.83185940


--------------------------------------------------------------------------------------------------------




--------------------------------------- Iteration      1(  20)  ---------------------------------------


    POTLOK:  cpu time   13.2237: real time   13.2267
    SETDIJ:  cpu time    0.1229: real time    0.1229
    EDDIAG:  cpu time   69.1975: real time   69.1989
  RMM-DIIS:  cpu time  188.9027: real time  188.9110
    ORTHCH:  cpu time   13.3100: real time   13.3115
       DOS:  cpu time    0.0015: real time    0.0015
    CHARGE:  cpu time   25.8536: real time   25.8539
    MIXING:  cpu time    1.0061: real time    1.0061
    --------------------------------------------
      LOOP:  cpu time  311.6179: real time  311.6325

 eigenvalue-minimisations  :   710
 total energy-change (2. order) :-0.7533725E-01  (-0.4549781E-01)
 number of electron     559.9999860 magnetization 
 augmentation part      241.0957265 magnetization 

 Broyden mixing:
  rms(total) = 0.10331E+01    rms(broyden)= 0.10329E+01
  rms(prec ) = 0.11849E+01
  weight for this iteration     100.00

 eigenvalues of (default mixing * dielectric matrix)
  average eigenvalue GAMMA=   0.3280
  1.9514  1.1869  0.3653  0.3653  0.1673  0.1673  0.1038  0.1038  0.1002  0.1002
  0.0897  0.0636  0.0636  0.0512  0.0396

 Free energy of the ion-electron system (eV)
  ---------------------------------------------------
  alpha Z        PSCENC =        75.25431677
  Ewald energy   TEWEN  =    137671.30692908
  -Hartree energ DENC   =   -181851.93475997
  -exchange      EXHF   =         0.00000000
  -V(xc)+E(xc)   XCENC  =     -1694.54605677
  PAW double counting   =     46104.42383721   -42576.81694950
  entropy T*S    EENTRO =        -0.06238034
  eigenvalues    EBANDS =     -2989.04110322
  atomic energy  EATOM  =     45086.50549395
  Solvation  Ediel_sol  =         0.00000000
  ---------------------------------------------------
  free energy    TOTEN  =      -174.91067278 eV

  energy without entropy =     -174.84829245  energy(sigma->0) =     -174.89507770


--------------------------------------------------------------------------------------------------------




--------------------------------------- Iteration      1(  21)  ---------------------------------------


    POTLOK:  cpu time   13.3166: real time   13.3182
    SETDIJ:  cpu time    0.1246: real time    0.1246
    EDDIAG:  cpu time   68.9441: real time   68.9459
  RMM-DIIS:  cpu time  186.3767: real time  186.3792
    ORTHCH:  cpu time   13.9985: real time   13.9987
       DOS:  cpu time    0.0016: real time    0.0016
    CHARGE:  cpu time   25.7648: real time   25.7650
    MIXING:  cpu time    1.1332: real time    1.1332
    --------------------------------------------
      LOOP:  cpu time  309.6600: real time  309.6664

 eigenvalue-minimisations  :   706
 total energy-change (2. order) : 0.2456694E+00  (-0.2805675E-01)
 number of electron     559.9999863 magnetization 
 augmentation part      241.1677172 magnetization 

 Broyden mixing:
  rms(total) = 0.79883E+00    rms(broyden)= 0.79858E+00
  rms(prec ) = 0.91228E+00
  weight for this iteration     100.00

 eigenvalues of (default mixing * dielectric matrix)
  average eigenvalue GAMMA=   0.3251
  1.9924  1.2632  0.4266  0.2538  0.2538  0.1500  0.1500  0.1051  0.1051  0.1032
  0.1032  0.0834  0.0605  0.0605  0.0512  0.0396

 Free energy of the ion-electron system (eV)
  ---------------------------------------------------
  alpha Z        PSCENC =        75.25431677
  Ewald energy   TEWEN  =    137671.30692908
  -Hartree energ DENC   =   -181867.36464310
  -exchange      EXHF   =         0.00000000
  -V(xc)+E(xc)   XCENC  =     -1694.36231574
  PAW double counting   =     46109.92693365   -42581.45349235
  entropy T*S    EENTRO =        -0.07218963
  eigenvalues    EBANDS =     -2974.40603597
  atomic energy  EATOM  =     45086.50549395
  Solvation  Ediel_sol  =         0.00000000
  ---------------------------------------------------
  free energy    TOTEN  =      -174.66500333 eV

  energy without entropy =     -174.59281371  energy(sigma->0) =     -174.64695593


--------------------------------------------------------------------------------------------------------




--------------------------------------- Iteration      1(  22)  ---------------------------------------


    POTLOK:  cpu time   13.3096: real time   13.3105
    SETDIJ:  cpu time    0.1231: real time    0.1231
    EDDIAG:  cpu time   68.5687: real time   68.5706
  RMM-DIIS:  cpu time  184.4395: real time  184.4433
    ORTHCH:  cpu time   13.8329: real time   13.8329
       DOS:  cpu time    0.0015: real time    0.0015
    CHARGE:  cpu time   26.6365: real time   26.6367
    MIXING:  cpu time    1.2152: real time    1.2152
    --------------------------------------------
      LOOP:  cpu time  308.1269: real time  308.1338

 eigenvalue-minimisations  :   702
 total energy-change (2. order) : 0.9962582E-01  (-0.1755122E-01)
 number of electron     559.9999867 magnetization 
 augmentation part      241.1797519 magnetization 

 Broyden mixing:
  rms(total) = 0.76945E+00    rms(broyden)= 0.76931E+00
  rms(prec ) = 0.89678E+00
  weight for this iteration     100.00

 eigenvalues of (default mixing * dielectric matrix)
  average eigenvalue GAMMA=   0.3324
  2.0722  1.3176  0.5836  0.2880  0.2880  0.1590  0.1366  0.1366  0.1048  0.1048
  0.0913  0.0913  0.0396  0.0647  0.0647  0.0511  0.0577

 Free energy of the ion-electron system (eV)
  ---------------------------------------------------
  alpha Z        PSCENC =        75.25431677
  Ewald energy   TEWEN  =    137671.30692908
  -Hartree energ DENC   =   -181878.65089127
  -exchange      EXHF   =         0.00000000
  -V(xc)+E(xc)   XCENC  =     -1694.24987369
  PAW double counting   =     46109.38832746   -42580.43426532
  entropy T*S    EENTRO =        -0.08712262
  eigenvalues    EBANDS =     -2963.59829187
  atomic energy  EATOM  =     45086.50549395
  Solvation  Ediel_sol  =         0.00000000
  ---------------------------------------------------
  free energy    TOTEN  =      -174.56537752 eV

  energy without entropy =     -174.47825489  energy(sigma->0) =     -174.54359686


--------------------------------------------------------------------------------------------------------




--------------------------------------- Iteration      1(  23)  ---------------------------------------


    POTLOK:  cpu time   13.4561: real time   13.4599
    SETDIJ:  cpu time    0.1234: real time    0.1234
    EDDIAG:  cpu time   68.5408: real time   68.5439
  RMM-DIIS:  cpu time  184.4138: real time  184.4189
    ORTHCH:  cpu time   13.5020: real time   13.5018
       DOS:  cpu time    0.0014: real time    0.0014
    CHARGE:  cpu time   26.3287: real time   26.3284
    MIXING:  cpu time    1.2572: real time    1.2572
    --------------------------------------------
      LOOP:  cpu time  307.6234: real time  307.6351

 eigenvalue-minimisations  :   700
 total energy-change (2. order) : 0.1006004E+00  (-0.1546252E-01)
 number of electron     559.9999866 magnetization 
 augmentation part      241.1854181 magnetization 

 Broyden mixing:
  rms(total) = 0.54263E+00    rms(broyden)= 0.54251E+00
  rms(prec ) = 0.62335E+00
  weight for this iteration     100.00

 eigenvalues of (default mixing * dielectric matrix)
  average eigenvalue GAMMA=   0.3443
[...]
 -0.006  -0.012   0.004   0.004   0.005  -0.006  -0.012   0.004
 -0.011  -0.020   0.006   0.007   0.009  -0.010  -0.020   0.006
 -0.015  -0.005   0.013   0.000   0.022  -0.014  -0.004   0.012
  0.000  -0.023  -0.006  -0.015  -0.000   0.000  -0.022  -0.006
 -0.022   0.000   0.009  -0.005  -0.016  -0.022   0.000   0.008
 -0.017  -0.006   0.015   0.000   0.027  -0.017  -0.006   0.015
  0.000  -0.028  -0.007  -0.018  -0.000   0.000  -0.027  -0.007
 -0.027   0.000   0.010  -0.006  -0.019  -0.026   0.000   0.010
 total augmentation occupancy for first ion, spin component:           1
  1.537  -0.030   0.007   0.017   0.026   0.076  -0.008  -0.002   0.035  -0.010   0.087  -0.029   0.012   0.002   0.002  -0.019
 -0.030   1.406   0.029   0.072  -0.001  -0.007   0.070   0.011  -0.015  -0.008   0.219  -0.066   0.019   0.001   0.003  -0.006
  0.007   0.029   1.542   0.000  -0.001  -0.002   0.012   0.073  -0.012   0.018  -0.048   0.017  -0.004  -0.007  -0.005   0.016
  0.017   0.072   0.000   1.338   0.043   0.033  -0.014  -0.012   0.091  -0.023  -0.079   0.021  -0.001  -0.009  -0.004   0.001
  0.026  -0.001  -0.001   0.043   1.440  -0.011  -0.008   0.017  -0.022   0.067  -0.089   0.029  -0.003  -0.009  -0.010   0.027
  0.076  -0.007  -0.002   0.033  -0.011   0.217   0.018  -0.001  -0.045   0.004  -0.048   0.002   0.017  -0.010   0.035  -0.004
 -0.008   0.070   0.012  -0.014  -0.008   0.018   0.263  -0.023  -0.003   0.006  -0.109   0.007  -0.001   0.052  -0.010  -0.000
 -0.002   0.011   0.073  -0.012   0.017  -0.001  -0.023   0.214   0.014  -0.020   0.027  -0.001  -0.012   0.009  -0.018   0.003
  0.035  -0.015  -0.012   0.091  -0.022  -0.045  -0.003   0.014   0.260   0.007   0.042  -0.004  -0.009   0.036   0.004   0.000
 -0.010  -0.008   0.018  -0.023   0.067   0.004   0.006  -0.020   0.007   0.258   0.046  -0.003  -0.038   0.002   0.049   0.007
  0.087   0.219  -0.048  -0.079  -0.089  -0.048  -0.109   0.027   0.042   0.046   0.947  -0.140   0.084   0.013   0.064  -0.012
 -0.029  -0.066   0.017   0.021   0.029   0.002   0.007  -0.001  -0.004  -0.003  -0.140   0.023  -0.014  -0.003  -0.010   0.003
  0.012   0.019  -0.004  -0.001  -0.003   0.017  -0.001  -0.012  -0.009  -0.038   0.084  -0.014   0.029  -0.008  -0.004  -0.003
  0.002   0.001  -0.007  -0.009  -0.009  -0.010   0.052   0.009   0.036   0.002   0.013  -0.003  -0.008   0.036   0.004   0.000
  0.002   0.003  -0.005  -0.004  -0.010   0.035  -0.010  -0.018   0.004   0.049   0.064  -0.010  -0.004   0.004   0.035  -0.000
 -0.019  -0.006   0.016   0.001   0.027  -0.004  -0.000   0.003   0.000   0.007  -0.012   0.003  -0.003   0.000  -0.000   0.001
  0.001  -0.028  -0.007  -0.018   0.001   0.001  -0.008  -0.001  -0.006  -0.000  -0.003   0.001   0.000  -0.003  -0.000   0.000
 -0.029   0.001   0.012  -0.005  -0.019  -0.006   0.001   0.003  -0.001  -0.007  -0.008   0.001  -0.000  -0.000  -0.003   0.000


------------------------ aborting loop because EDIFF is reached ----------------------------------------


    CHARGE:  cpu time   26.2799: real time   26.2799
    FORLOC:  cpu time    6.8171: real time    6.8171
    FORNL :  cpu time   67.4127: real time   67.4130
    STRESS:  cpu time  205.5866: real time  205.5929
    FORCOR:  cpu time   22.7749: real time   22.7770
    FORHAR:  cpu time    9.9430: real time    9.9431
    MIXING:  cpu time    3.3594: real time    3.3595
    OFIELD:  cpu time    0.0000: real time    0.0000

  FORCE on cell =-STRESS in cart. coord.  units (eV):
  Direction    XX          YY          ZZ          XY          YZ          ZX
  --------------------------------------------------------------------------------------
  Alpha Z    75.25432    75.25432    75.25432
  Ewald   43745.63810 49720.01718 44205.54610   712.13729 -1032.42987  -303.09848
  Hartree 58664.83390 64287.79012 59084.64583   650.35292  -944.48938  -262.75539
  E(xc)   -2904.95657 -2902.92454 -2904.68784     0.34678    -0.54416    -0.39194
  Local  ************************************ -1357.25140  1968.88269   562.99213
  n-local  -882.76540  -891.80217  -883.64525    -0.64581     1.00392     1.31895
  augment  4104.39120  4102.60241  4104.46658    -0.71298     0.94942     0.56089
  Kinetic  7810.64999  7790.08073  7809.58571    -3.66831     5.90979     2.16001
  Fock        0.00000     0.00000     0.00000     0.00000     0.00000     0.00000
  -------------------------------------------------------------------------------------
  Total    -114.11349  -112.79992  -114.81161     0.55849    -0.71758     0.78617
  in kB      -6.77148    -6.69354    -6.81291     0.03314    -0.04258     0.04665
  external pressure =       -6.76 kB  Pullay stress =        0.00 kB


 VOLUME and BASIS-vectors are now :
 -----------------------------------------------------------------------------
  energy-cutoff  :      400.00
  volume of cell :    27000.00
      direct lattice vectors                 reciprocal lattice vectors
    30.000000000  0.000000000  0.000000000     0.033333333  0.000000000  0.000000000
     0.000000000 30.000000000  0.000000000     0.000000000  0.033333333  0.000000000
     0.000000000  0.000000000 30.000000000     0.000000000  0.000000000  0.033333333

  length of vectors
    30.000000000 30.000000000 30.000000000     0.033333333  0.033333333  0.033333333


 FORCES acting on ions
    electron-ion (+dipol)            ewald-force                    non-local-force                 convergence-correction
 -----------------------------------------------------------------------------------------------
   0.395E+03 0.973E+03 0.416E+03   -.393E+03 -.970E+03 -.415E+03   -.149E+01 -.183E+01 -.213E+00   -.407E-02 0.465E-02 0.440E-02
   -.981E+03 -.374E+03 0.416E+03   0.978E+03 0.372E+03 -.416E+03   0.183E+01 0.149E+01 -.225E+00   0.390E-02 -.153E-02 0.400E-02
   -.394E+03 0.973E+03 0.416E+03   0.392E+03 -.970E+03 -.415E+03   0.149E+01 -.184E+01 -.213E+00   -.100E-02 -.362E-04 0.421E-03
   0.980E+03 -.383E+03 0.416E+03   -.977E+03 0.381E+03 -.416E+03   -.182E+01 0.149E+01 -.224E+00   -.547E-02 -.835E-02 0.533E-02
   0.102E+01 0.591E+03 0.965E+03   -.102E+01 -.590E+03 -.962E+03   0.489E-03 -.304E+00 -.236E+01   -.166E-02 -.373E-02 0.225E-02
   0.685E+00 0.589E+03 -.967E+03   -.684E+00 -.588E+03 0.963E+03   0.146E-02 -.316E+00 0.235E+01   -.192E-02 -.925E-04 -.347E-02
   0.755E+00 0.113E+04 -.123E+01   -.749E+00 -.113E+04 0.123E+01   -.187E-02 -.311E+01 -.646E-02   -.298E-02 0.530E-02 0.607E-02
   0.114E+04 0.562E+01 -.172E+01   -.113E+04 -.561E+01 0.172E+01   -.311E+01 0.629E-03 -.108E-02   0.156E-02 -.937E-02 0.185E-02
   -.114E+04 0.940E+01 -.277E+01   0.113E+04 -.939E+01 0.277E+01   0.311E+01 0.240E-02 -.315E-02   0.120E-02 -.590E-02 0.923E-02
   0.696E+02 -.106E+04 -.115E+03   -.689E+02 0.105E+04 0.114E+03   -.187E+00 0.216E+01 0.319E+00   -.160E-02 0.125E-02 0.524E-02
   -.579E+03 0.583E+03 0.813E+03   0.577E+03 -.581E+03 -.810E+03   0.156E+01 -.155E+01 -.220E+01   -.303E-02 -.481E-02 0.826E-03
   -.578E+03 0.581E+03 -.815E+03   0.576E+03 -.578E+03 0.811E+03   0.155E+01 -.156E+01 0.220E+01   -.487E-02 0.168E-02 -.309E-02
   0.594E+03 -.560E+03 0.820E+03   -.591E+03 0.558E+03 -.817E+03   -.156E+01 0.154E+01 -.222E+01   -.551E-02 0.123E-02 -.317E-02
   0.584E+03 -.571E+03 -.821E+03   -.582E+03 0.568E+03 0.817E+03   -.154E+01 0.157E+01 0.217E+01   0.142E-02 -.214E-02 0.154E-02
   0.580E+03 0.582E+03 0.813E+03   -.578E+03 -.580E+03 -.810E+03   -.156E+01 -.156E+01 -.220E+01   -.208E-02 -.197E-02 0.629E-02
   0.579E+03 0.580E+03 -.814E+03   -.577E+03 -.578E+03 0.811E+03   -.155E+01 -.156E+01 0.220E+01   0.760E-02 -.479E-03 -.588E-02
   -.591E+03 -.545E+03 0.828E+03   0.589E+03 0.542E+03 -.825E+03   0.160E+01 0.158E+01 -.226E+01   0.374E-02 0.136E-02 -.246E-02
   -.581E+03 -.568E+03 -.825E+03   0.579E+03 0.566E+03 0.821E+03   0.156E+01 0.155E+01 0.218E+01   -.264E-03 -.361E-02 0.343E-02
   0.395E+03 0.972E+03 -.418E+03   -.393E+03 -.969E+03 0.417E+03   -.151E+01 -.182E+01 0.223E+00   -.273E-02 0.922E-02 0.559E-02
   -.977E+03 -.382E+03 -.424E+03   0.974E+03 0.380E+03 0.423E+03   0.181E+01 0.150E+01 0.220E+00   0.174E-02 -.932E-02 0.331E-02
   -.321E+03 0.331E+03 0.453E+03   0.321E+03 -.332E+03 -.453E+03   -.370E+00 0.404E+00 0.510E+00   -.425E-02 -.824E-02 0.312E-02
   0.975E+03 0.400E+03 0.416E+03   -.972E+03 -.397E+03 -.415E+03   -.182E+01 -.149E+01 -.229E+00   -.492E-04 -.111E-01 0.741E-02
   -.408E+03 -.825E+03 0.430E+03   0.406E+03 0.824E+03 -.430E+03   0.106E+01 0.128E+01 0.135E+00   0.273E-02 0.449E-02 0.553E-02
   -.394E+03 0.972E+03 -.418E+03   0.391E+03 -.969E+03 0.417E+03   0.150E+01 -.182E+01 0.226E+00   -.481E-02 0.754E-02 0.975E-02
   0.977E+03 -.386E+03 -.421E+03   -.974E+03 0.384E+03 0.420E+03   -.181E+01 0.151E+01 0.206E+00   0.288E-02 -.479E-02 0.441E-02
   -.974E+03 0.402E+03 0.416E+03   0.971E+03 -.400E+03 -.415E+03   0.182E+01 -.149E+01 -.227E+00   0.120E-02 -.597E-02 0.379E-02
   0.445E+03 -.917E+03 0.421E+03   -.443E+03 0.914E+03 -.420E+03   -.126E+01 0.194E+01 -.140E+00   -.231E-02 0.495E-02 0.652E-02
   0.324E+03 0.330E+03 0.453E+03   -.324E+03 -.330E+03 -.453E+03   0.370E+00 0.389E+00 0.517E+00   -.637E-02 -.110E-01 0.721E-02
   0.106E+01 0.643E+03 -.172E+01   -.105E+01 -.644E+03 0.172E+01   -.470E-02 0.716E+00 -.668E-02   -.783E-02 -.208E-03 0.960E-02
   -.590E+03 0.142E+02 0.968E+03   0.589E+03 -.142E+02 -.964E+03   0.308E+00 -.357E-02 -.234E+01   0.296E-03 -.635E-02 -.300E-02
   -.588E+03 0.691E+01 -.969E+03   0.587E+03 -.691E+01 0.966E+03   0.289E+00 0.905E-02 0.234E+01   -.682E-03 -.127E-01 -.103E-02
   0.592E+03 0.996E+01 0.967E+03   -.591E+03 -.996E+01 -.963E+03   -.306E+00 0.774E-02 -.234E+01   -.428E-02 -.118E-01 0.195E-02
   0.589E+03 0.539E+01 -.968E+03   -.588E+03 -.537E+01 0.965E+03   -.297E+00 -.636E-02 0.235E+01   0.377E-02 -.701E-02 -.508E-03
   0.762E+03 0.764E+03 -.139E+01   -.760E+03 -.762E+03 0.137E+01   -.114E+01 -.115E+01 0.920E-02   -.180E-02 -.870E-03 0.615E-02
   -.776E+03 -.724E+03 -.166E+02   0.774E+03 0.722E+03 0.166E+02   0.114E+01 0.120E+01 -.255E-01   0.164E-02 0.122E-02 0.472E-02
   -.761E+03 0.765E+03 -.168E+01   0.759E+03 -.763E+03 0.166E+01   0.114E+01 -.115E+01 0.702E-02   -.747E-03 -.135E-02 0.973E-02
   0.777E+03 -.742E+03 -.819E+01   -.775E+03 0.740E+03 0.818E+01   -.118E+01 0.114E+01 0.564E-03   -.131E-02 0.913E-03 0.932E-02
   0.259E+01 0.149E+02 0.107E+04   -.259E+01 -.149E+02 -.107E+04   -.373E-02 -.307E-01 -.160E+01   -.469E-03 -.104E-01 -.979E-03
   0.128E+01 0.697E+01 -.107E+04   -.128E+01 -.698E+01 0.107E+04   0.110E-02 0.119E-01 0.161E+01   -.272E-02 -.111E-01 -.176E-03
   0.974E+03 0.398E+03 -.418E+03   -.971E+03 -.396E+03 0.418E+03   -.181E+01 -.151E+01 0.212E+00   0.714E-02 -.874E-02 -.512E-04
   -.396E+03 -.947E+03 -.451E+03   0.394E+03 0.944E+03 0.451E+03   0.154E+01 0.187E+01 0.201E+00   -.332E-02 0.205E-03 0.211E-02
   -.321E+03 0.328E+03 -.457E+03   0.321E+03 -.329E+03 0.457E+03   -.370E+00 0.372E+00 -.525E+00   -.150E-02 -.913E-02 0.108E-01
   0.331E+03 -.297E+03 0.453E+03   -.332E+03 0.298E+03 -.454E+03   0.355E+00 -.399E+00 0.522E+00   -.147E-02 -.736E-02 0.805E-02
   0.323E+03 0.327E+03 -.456E+03   -.323E+03 -.328E+03 0.457E+03   0.364E+00 0.376E+00 -.528E+00   -.169E-02 -.114E-01 0.606E-02
   -.973E+03 0.400E+03 -.419E+03   0.970E+03 -.398E+03 0.419E+03   0.181E+01 -.150E+01 0.211E+00   -.231E-02 -.612E-02 0.664E-02
   0.409E+03 -.954E+03 -.440E+03   -.407E+03 0.951E+03 0.440E+03   -.159E+01 0.181E+01 0.335E+00   -.389E-02 -.222E-02 0.453E-02
   -.322E+03 -.289E+03 0.454E+03   0.323E+03 0.290E+03 -.454E+03   -.366E+00 -.525E+00 0.554E+00   0.175E-03 -.446E-02 0.633E-02
   0.644E+03 0.104E+02 -.304E+01   -.645E+03 -.103E+02 0.303E+01   0.733E+00 0.784E-02 0.394E-02   -.187E-02 -.152E-01 0.691E-02
   -.642E+03 0.148E+02 -.427E+01   0.643E+03 -.148E+02 0.426E+01   -.724E+00 -.547E-02 0.312E-02   0.102E-02 -.812E-02 0.108E-01
   0.107E+02 -.548E+03 0.984E+03   -.107E+02 0.547E+03 -.980E+03   0.618E-02 0.383E+00 -.234E+01   0.861E-03 0.960E-03 -.316E-02
   0.285E+01 -.576E+03 -.978E+03   -.282E+01 0.575E+03 0.974E+03   -.189E-01 0.288E+00 0.237E+01   -.658E-02 -.325E-02 0.249E-02
   0.273E+01 0.158E+02 -.452E+01   -.273E+01 -.158E+02 0.451E+01   0.437E-02 0.130E-02 -.452E-02   -.377E-02 -.966E-02 0.929E-02
   0.327E+03 -.307E+03 -.462E+03   -.327E+03 0.308E+03 0.463E+03   0.354E+00 -.395E+00 -.513E+00   -.208E-02 -.499E-02 0.676E-02
   -.321E+03 -.304E+03 -.464E+03   0.322E+03 0.305E+03 0.465E+03   -.359E+00 -.403E+00 -.497E+00   -.294E-02 -.779E-02 0.481E-02
   0.115E+02 -.597E+03 -.189E+02   -.115E+02 0.598E+03 0.191E+02   0.441E-01 -.575E+00 -.947E-01   -.223E-02 -.427E-03 0.876E-02
   -.553E+02 -.183E+03 0.638E+02   0.514E+02 0.157E+03 -.570E+02   0.304E+01 0.205E+02 -.517E+01   0.479E-03 0.167E-02 0.809E-03
   -.131E+03 -.658E+03 0.194E+03   0.141E+03 0.719E+03 -.210E+03   -.934E+01 -.579E+02 0.153E+02   0.449E-03 0.185E-02 0.834E-03
 -----------------------------------------------------------------------------------------------
   0.675E+01 0.389E+02 -.110E+02   0.995E-12 0.171E-11 -.114E-11   -.669E+01 -.387E+02 0.108E+02   -.647E-01 -.205E+00 0.218E+00
 
 
 POSITION                                       TOTAL-FORCE (eV/Angst)
 -----------------------------------------------------------------------------------
     13.37281      9.84801     12.50759         0.700179      1.116455      0.286685
     20.15199     16.62719     12.50759        -1.112120     -0.704719      0.291235
     16.62719      9.84801     12.50759        -0.698151      1.114676      0.285897
      9.84801     16.62719     12.50759         1.107543     -0.704286      0.290667
     15.00000     11.47521     10.20639         0.001672      0.405661      1.279964
     15.00000     11.47521     19.79360         0.000159      0.411475     -1.280189
     15.00000      8.28283     15.00000         0.001336      1.514413      0.000935
      8.28283     15.00000     15.00000         1.519329      0.000123      0.003274
     21.71717     15.00000     15.00000        -1.517695      0.000266      0.002052
     15.00000     21.71717     15.00000         0.436327     -1.058725     -0.729180
     18.35858     11.64142     10.25025        -0.760911      0.752370      1.076676
     18.35858     11.64142     19.74975        -0.753320      0.760142     -1.072082
     11.64142     18.35858     10.25025         0.760401     -0.740668      1.091220
     11.64142     18.35858     19.74975         0.739323     -0.774476     -1.062558
     11.64142     11.64142     10.25025         0.758250      0.755623      1.072831
     11.64142     11.64142     19.74975         0.755777      0.760263     -1.072839
     18.35858     18.35858     10.25025        -0.762251     -0.763949      1.082042
     18.35858     18.35858     19.74975        -0.755689     -0.760692     -1.070078
     13.37281      9.84801     17.49241         0.705565      1.109337     -0.289764
     20.15199     16.62719     17.49241        -1.108843     -0.712740     -0.287921
     16.73751     13.26249     12.54279         0.115171     -0.136193     -0.166289
      9.84801     13.37281     12.50759         1.108857      0.702131      0.292634
     16.62719     20.15199     12.50759        -0.758774     -0.060030      0.298606
     16.62719      9.84801     17.49241        -0.704999      1.110349     -0.290992
      9.84801     16.62719     17.49241         1.110407     -0.708912     -0.287072
     20.15199     13.37281     12.50759        -1.108063      0.702400      0.293347
     13.37281     20.15199     12.50759         0.627333     -1.151974      0.232316
     13.26249     13.26249     12.54279        -0.111454     -0.119713     -0.156383
     15.00000     11.52498     15.00000        -0.002497     -0.224388      0.006278
     18.52479     15.00000     10.20639        -0.417477      0.002429      1.282454
     18.52479     15.00000     19.79360        -0.409067     -0.003725     -1.286749
     11.47521     15.00000     10.20640         0.414983     -0.002357      1.280692
     11.47521     15.00000     19.79360         0.411597      0.005602     -1.287154
     11.49535     11.49535     15.00000         0.828400      0.829381     -0.000126
     18.50465     18.50465     15.00000        -0.811358     -0.854244      0.017157
     18.50465     11.49535     15.00000        -0.826902      0.829664      0.000583
     11.49535     18.50465     15.00000         0.824901     -0.833039      0.000019
     15.00000     15.00000     10.04368         0.001068      0.016585      1.179943
     15.00000     15.00000     19.95633         0.000665     -0.006217     -1.176773
      9.84801     13.37281     17.49241         1.106619      0.708613     -0.290141
     16.62719     20.15199     17.49241        -0.706055     -1.130830     -0.241765
     16.73751     13.26249     17.45721         0.115647     -0.114664      0.155244
     13.26249     16.73751     12.54279        -0.110741      0.111194     -0.153614
     13.26249     13.26249     17.45721        -0.113224     -0.113189      0.157410
     20.15199     13.37281     17.49241        -1.109216      0.706323     -0.289120
     13.37281     20.15199     17.49241         0.713422     -1.091988     -0.275184
     16.73751     16.73751     12.54279         0.113586      0.159800     -0.150469
     11.52498     15.00000     15.00000        -0.229010      0.002898      0.001179
     18.47502     15.00000     15.00000         0.229292      0.003949     -0.002137
     15.00000     18.52480     10.20639        -0.002827     -0.459033      1.265574
     15.00000     18.52480     19.79360         0.006915     -0.394690     -1.294321
     15.00000     15.00000     15.00000        -0.000298      0.000439     -0.005652
     13.26249     16.73751     17.45721        -0.114856      0.107952      0.153768
     16.73751     16.73751     17.45721         0.109948      0.112485      0.155891
     15.00000     18.47502     15.00000        -0.016380      0.136028      0.049933
     16.25531     22.74104     12.92544        -0.894025     -4.723550      1.680115
     16.42987     23.81747     12.63696         0.591530      3.399969     -1.048068
 -----------------------------------------------------------------------------------
    total drift:                               -0.006647     -0.002046     -0.008619


--------------------------------------------------------------------------------------------------------



  FREE ENERGIE OF THE ION-ELECTRON SYSTEM (eV)
  ---------------------------------------------------
  free  energy   TOTEN  =      -174.23985991 eV

  energy  without entropy=     -174.13254014  energy(sigma->0) =     -174.21302997
 


--------------------------------------------------------------------------------------------------------


    POTLOK:  cpu time   14.0943: real time   14.0945


--------------------------------------------------------------------------------------------------------


     LOOP+:  cpu time18534.8107: real time18535.5787
    4ORBIT:  cpu time    0.0000: real time    0.0000

 total amount of memory used by VASP MPI-rank0  5486941. kBytes
=======================================================================

   base      :      30000. kBytes
   nonlr-proj:      17126. kBytes
   fftplans  :     924480. kBytes
   grid      :    1872000. kBytes
   one-center:        886. kBytes
   wavefun   :    2642449. kBytes
 
  
  
 General timing and accounting informations for this job:
 ========================================================
  
                  Total CPU time used (sec):    18610.502
                            User time (sec):    17563.095
                          System time (sec):     1047.406
                         Elapsed time (sec):    18611.362
  
                   Maximum memory used (kb):     7178648.
                   Average memory used (kb):           0.
  
                          Minor page faults:    827115204
                          Major page faults:            0
                 Voluntary context switches:          544
