 vasp.5.4.4.18Apr17-6-g9f103f2a35 (build Sep 03 2018 23:53:05) complex          
  
 executed on             LinuxIFC date 2021.12.01  10:27:46
 running on    1 total cores
 distrk:  each k-point on    1 cores,    1 groups
 distr:  one band on NCORES_PER_BAND=   1 cores,    1 groups


--------------------------------------------------------------------------------------------------------


 INCAR:
 POTCAR:    PAW_PBE Pd 04Jan2005                  
 POTCAR:    PAW_PBE C 08Apr2002                   
 POTCAR:    PAW_PBE O 08Apr2002                   
 POTCAR:    PAW_PBE Pd 04Jan2005                  
   VRHFIN =Pd : s1 d9                                                           
   LEXCH  = PE                                                                  
   EATOM  =   809.7530 eV,   59.5152 Ry                                         
                                                                                
   TITEL  = PAW_PBE Pd 04Jan2005                                                
   LULTRA =        F    use ultrasoft PP ?                                      
   IUNSCR =        1    unscreen: 0-lin 1-nonlin 2-no                           
   RPACOR =    2.000    partial core radius                                     
   POMASS =  106.420; ZVAL   =   10.000    mass and valenz                      
   RCORE  =    2.600    outmost cutoff radius                                   
   RWIGS  =    2.710; RWIGS  =    1.434    wigner-seitz radius (au A)           
   ENMAX  =  250.925; ENMIN  =  188.194 eV                                      
   ICORE  =        3    local potential                                         
   LCOR   =        T    correct aug charges                                     
   LPAW   =        T    paw PP                                                  
   EAUG   =  416.230                                                            
   DEXC   =    0.000                                                            
   RMAX   =    2.653    core radius for proj-oper                               
   RAUG   =    1.300    factor for augmentation sphere                          
   RDEP   =    2.734    radius for radial grids                                 
   RDEPT  =    2.103    core radius for aug-charge                              
                                                                                
   Atomic configuration                                                         
   12 entries                                                                   
     n  l   j            E        occ.                                          
     1  0  0.50    -24164.6631   2.0000                                         
     2  0  0.50     -3530.9218   2.0000                                         
     2  1  1.50     -3165.6822   6.0000                                         
     3  0  0.50      -639.4577   2.0000                                         
     3  1  1.50      -519.4532   6.0000                                         
     3  2  2.50      -328.9757  10.0000                                         
     4  0  0.50       -88.7014   2.0000                                         
     4  1  1.50       -54.4540   6.0000                                         
     4  2  2.50        -6.6878   9.0000                                         
     5  0  0.50        -4.3543   1.0000                                         
     5  1  0.50        -1.3606   0.0000                                         
     4  3  2.50        -1.3606   0.0000                                         
   Description                                                                  
     l       E           TYP  RCUT    TYP  RCUT                                 
     2     -6.6878251     23  2.400                                             
     2     -8.0484077     23  2.400                                             
     0     -4.3542939     23  2.400                                             
     0      4.3406793     23  2.400                                             
     1     -4.0817478     23  2.600                                             
     1     15.8380318     23  2.600                                             
     3     -4.0817478     23  2.400                                             
  local pseudopotential read in
  partial core-charges read in
  partial kinetic energy density read in
  atomic valenz-charges read in
  non local Contribution for L=           2  read in
    real space projection operators read in
  non local Contribution for L=           2  read in
    real space projection operators read in
  non local Contribution for L=           0  read in
    real space projection operators read in
  non local Contribution for L=           0  read in
    real space projection operators read in
  non local Contribution for L=           1  read in
    real space projection operators read in
  non local Contribution for L=           1  read in
    real space projection operators read in
    PAW grid and wavefunctions read in
 
   number of l-projection  operators is LMAX  =           6
   number of lm-projection operators is LMMAX =          18
 
 POTCAR:    PAW_PBE C 08Apr2002                   
   VRHFIN =C: s2p2                                                              
   LEXCH  = PE                                                                  
   EATOM  =   147.1560 eV,   10.8157 Ry                                         
                                                                                
   TITEL  = PAW_PBE C 08Apr2002                                                 
   LULTRA =        F    use ultrasoft PP ?                                      
   IUNSCR =        1    unscreen: 0-lin 1-nonlin 2-no                           
   RPACOR =    1.200    partial core radius                                     
   POMASS =   12.011; ZVAL   =    4.000    mass and valenz                      
   RCORE  =    1.500    outmost cutoff radius                                   
   RWIGS  =    1.630; RWIGS  =    0.863    wigner-seitz radius (au A)           
   ENMAX  =  400.000; ENMIN  =  300.000 eV                                      
   ICORE  =        2    local potential                                         
   LCOR   =        T    correct aug charges                                     
   LPAW   =        T    paw PP                                                  
   EAUG   =  644.873                                                            
   DEXC   =    0.000                                                            
   RMAX   =    1.529    core radius for proj-oper                               
   RAUG   =    1.300    factor for augmentation sphere                          
   RDEP   =    1.501    radius for radial grids                                 
   RDEPT  =    1.300    core radius for aug-charge                              
                                                                                
   Atomic configuration                                                         
    4 entries                                                                   
     n  l   j            E        occ.                                          
     1  0  0.50      -273.3789   2.0000                                         
     2  0  0.50       -13.7508   2.0000                                         
     2  1  0.50        -5.2854   2.0000                                         
     3  2  1.50        -5.4423   0.0000                                         
   Description                                                                  
     l       E           TYP  RCUT    TYP  RCUT                                 
     0    -13.7508458     23  1.200                                             
     0     -8.2022199     23  1.200                                             
     1     -5.2854383     23  1.500                                             
     1     34.0145650     23  1.500                                             
     2     -5.4423304      7  1.500                                             
  local pseudopotential read in
  partial core-charges read in
  partial kinetic energy density read in
  atomic valenz-charges read in
  non local Contribution for L=           0  read in
    real space projection operators read in
  non local Contribution for L=           0  read in
    real space projection operators read in
  non local Contribution for L=           1  read in
    real space projection operators read in
  non local Contribution for L=           1  read in
    real space projection operators read in
    PAW grid and wavefunctions read in
 
   number of l-projection  operators is LMAX  =           4
   number of lm-projection operators is LMMAX =           8
 
 POTCAR:    PAW_PBE O 08Apr2002                   
   VRHFIN =O: s2p4                                                              
   LEXCH  = PE                                                                  
   EATOM  =   432.3788 eV,   31.7789 Ry                                         
                                                                                
   TITEL  = PAW_PBE O 08Apr2002                                                 
   LULTRA =        F    use ultrasoft PP ?                                      
   IUNSCR =        1    unscreen: 0-lin 1-nonlin 2-no                           
   RPACOR =    1.200    partial core radius                                     
   POMASS =   16.000; ZVAL   =    6.000    mass and valenz                      
   RCORE  =    1.520    outmost cutoff radius                                   
   RWIGS  =    1.550; RWIGS  =    0.820    wigner-seitz radius (au A)           
   ENMAX  =  400.000; ENMIN  =  300.000 eV                                      
   ICORE  =        2    local potential                                         
   LCOR   =        T    correct aug charges                                     
   LPAW   =        T    paw PP                                                  
   EAUG   =  605.392                                                            
   DEXC   =    0.000                                                            
   RMAX   =    1.553    core radius for proj-oper                               
   RAUG   =    1.300    factor for augmentation sphere                          
   RDEP   =    1.550    radius for radial grids                                 
   RDEPT  =    1.329    core radius for aug-charge                              
                                                                                
   Atomic configuration                                                         
    4 entries                                                                   
     n  l   j            E        occ.                                          
     1  0  0.50      -514.6923   2.0000                                         
     2  0  0.50       -23.9615   2.0000                                         
     2  1  0.50        -9.0305   4.0000                                         
     3  2  1.50        -9.5241   0.0000                                         
   Description                                                                  
     l       E           TYP  RCUT    TYP  RCUT                                 
     0    -23.9615318     23  1.200                                             
     0     -9.5240782     23  1.200                                             
     1     -9.0304911     23  1.520                                             
     1      8.1634956     23  1.520                                             
     2     -9.5240782      7  1.500                                             
  local pseudopotential read in
  partial core-charges read in
  partial kinetic energy density read in
  kinetic energy density of atom read in
  atomic valenz-charges read in
  non local Contribution for L=           0  read in
    real space projection operators read in
  non local Contribution for L=           0  read in
    real space projection operators read in
  non local Contribution for L=           1  read in
    real space projection operators read in
  non local Contribution for L=           1  read in
    real space projection operators read in
    PAW grid and wavefunctions read in
 
   number of l-projection  operators is LMAX  =           4
   number of lm-projection operators is LMMAX =           8
 
 Optimization of the real space projectors (new method)

 maximal supplied QI-value         = 14.36
 optimisation between [QCUT,QGAM] = [ 10.20, 20.39] = [ 29.12,116.47] Ry 
 Optimized for a Real-space Cutoff    1.51 Angstroem

   l    n(q)    QCUT    max X(q) W(low)/X(q) W(high)/X(q)  e(spline) 
   2      8    10.197    59.108    0.26E-03    0.14E-03    0.96E-07
   2      8    10.197    58.101    0.27E-03    0.14E-03    0.98E-07
   0      9    10.197   102.235    0.54E-04    0.60E-05    0.72E-07
   0      9    10.197    58.388    0.52E-04    0.60E-05    0.68E-07
   1      9    10.197    22.191    0.18E-03    0.25E-03    0.79E-07
   1      9    10.197    15.590    0.15E-03    0.21E-03    0.69E-07
 Optimization of the real space projectors (new method)

 maximal supplied QI-value         = 25.13
 optimisation between [QCUT,QGAM] = [ 10.05, 20.36] = [ 28.30,116.06] Ry 
 Optimized for a Real-space Cutoff    1.30 Angstroem

   l    n(q)    QCUT    max X(q) W(low)/X(q) W(high)/X(q)  e(spline) 
   0      8    10.053   115.676    0.49E-03    0.72E-03    0.18E-06
   0      8    10.053    87.132    0.49E-03    0.71E-03    0.18E-06
   1      7    10.053     4.429    0.32E-03    0.31E-03    0.18E-06
   1      7    10.053     2.733    0.23E-03    0.19E-03    0.20E-06
 Optimization of the real space projectors (new method)

 maximal supplied QI-value         = 24.76
 optimisation between [QCUT,QGAM] = [ 10.15, 20.30] = [ 28.85,115.39] Ry 
 Optimized for a Real-space Cutoff    1.38 Angstroem

   l    n(q)    QCUT    max X(q) W(low)/X(q) W(high)/X(q)  e(spline) 
   0      8    10.150    20.381    0.22E-03    0.32E-03    0.29E-06
   0      8    10.150    15.268    0.23E-03    0.35E-03    0.30E-06
   1      8    10.150     5.964    0.46E-03    0.53E-03    0.21E-06
   1      8    10.150     5.382    0.38E-03    0.45E-03    0.19E-06

 ----------------------------------------------------------------------------- 
|                                                                             |
|  ADVICE TO THIS USER RUNNING 'VASP/VAMP'   (HEAR YOUR MASTER'S VOICE ...):  |
|                                                                             |
|      You enforced a specific xc-type in the INCAR file,                     |
|      a different type was found on the POTCAR file                          |
|          I HOPE YOU KNOW, WHAT YOU ARE  DOING                               |
|                                                                             |
 ----------------------------------------------------------------------------- 

  PAW_PBE Pd 04Jan2005                  :
 energy of atom  1       EATOM= -809.7530
 kinetic energy error for atom=    0.0091 (will be added to EATOM!!)
  PAW_PBE C 08Apr2002                   :
 energy of atom  2       EATOM= -147.1560
 kinetic energy error for atom=    0.0288 (will be added to EATOM!!)
  PAW_PBE O 08Apr2002                   :
 energy of atom  3       EATOM= -432.3788
 kinetic energy error for atom=    0.1156 (will be added to EATOM!!)
 
 
 POSCAR: Pd55PES                                 
  positions in cartesian coordinates
  No initial velocities read in
 exchange correlation table for  LEXCH =        9
   RHO(1)=    0.500       N(1)  =     2000
   RHO(2)=  100.500       N(2)  =     4000
 


--------------------------------------------------------------------------------------------------------


 ion  position               nearest neighbor table
   1  0.446  0.328  0.417-   3 3.25   5 3.25   7 3.36  15 3.36  29 3.42  28 3.42
   2  0.672  0.554  0.417-  26 3.25  30 3.25  17 3.36   9 3.36  47 3.42  49 3.42
   3  0.554  0.328  0.417-   1 3.25   5 3.25   7 3.36  11 3.36  29 3.42  21 3.42
   4  0.328  0.554  0.417-  32 3.25  22 3.25  13 3.36   8 3.36  43 3.42  48 3.42
   5  0.500  0.383  0.340-   1 3.25   3 3.25  11 3.36  15 3.36  21 3.42  28 3.42
   6  0.500  0.383  0.660-  24 3.25  19 3.25  16 3.36  12 3.36  42 3.42  44 3.42
   7  0.500  0.276  0.500-  29 3.24   3 3.36   1 3.36  19 3.36  24 3.36
   8  0.276  0.500  0.500-  48 3.24  22 3.36  40 3.36   4 3.36  25 3.36
   9  0.724  0.500  0.500-  49 3.24  26 3.36  45 3.36   2 3.36  20 3.36
  10  0.500  0.724  0.500-  55 3.24  27 3.36  23 3.36  46 3.36  41 3.36
  11  0.612  0.388  0.342-  21 3.24   5 3.36   3 3.36  30 3.36  26 3.36
  12  0.612  0.388  0.658-  42 3.24  24 3.36  45 3.36   6 3.36  31 3.36
  13  0.388  0.612  0.342-  43 3.24  32 3.36  50 3.36   4 3.36  27 3.36
  14  0.388  0.612  0.658-  53 3.24  25 3.36  33 3.36  51 3.36  46 3.36
  15  0.388  0.388  0.342-  28 3.24   5 3.36   1 3.36  32 3.36  22 3.36
  16  0.388  0.388  0.658-  44 3.24  19 3.36  40 3.36   6 3.36  33 3.36
  17  0.612  0.612  0.342-  47 3.24  30 3.36  50 3.36   2 3.36  23 3.36
  18  0.612  0.612  0.658-  54 3.24  31 3.36  20 3.36  51 3.36  41 3.36
  19  0.446  0.328  0.583-   6 3.25  24 3.25  16 3.36   7 3.36  44 3.42  29 3.42
  20  0.672  0.554  0.583-  31 3.25  45 3.25  18 3.36   9 3.36  54 3.42  49 3.42
  21  0.558  0.442  0.418-  11 3.24   5 3.42   3 3.42  30 3.42  26 3.42
  22  0.328  0.446  0.417-   4 3.25  32 3.25   8 3.36  15 3.36  48 3.42  28 3.42
  23  0.554  0.672  0.417-  27 3.25  50 3.25  10 3.36  17 3.36  55 3.42  47 3.42
  24  0.554  0.328  0.583-   6 3.25  19 3.25  12 3.36   7 3.36  42 3.42  29 3.42
  25  0.328  0.554  0.583-  33 3.25  40 3.25  14 3.36   8 3.36  53 3.42  48 3.42
  26  0.672  0.446  0.417-   2 3.25  30 3.25   9 3.36  11 3.36  49 3.42  21 3.42
  27  0.446  0.672  0.417-  23 3.25  50 3.25  10 3.36  13 3.36  55 3.42  43 3.42
  28  0.442  0.442  0.418-  15 3.24   5 3.42   1 3.42  32 3.42  22 3.42
  29  0.500  0.384  0.500-   7 3.24   3 3.42   1 3.42  24 3.42  19 3.42
  30  0.617  0.500  0.340-   2 3.25  26 3.25  17 3.36  11 3.36  47 3.42  21 3.42
  31  0.617  0.500  0.660-  20 3.25  45 3.25  18 3.36  12 3.36  54 3.42  42 3.42
  32  0.383  0.500  0.340-   4 3.25  22 3.25  13 3.36  15 3.36  43 3.42  28 3.42
  33  0.383  0.500  0.660-  25 3.25  40 3.25  14 3.36  16 3.36  53 3.42  44 3.42
  34  0.383  0.383  0.500-
  35  0.617  0.617  0.500-
  36  0.617  0.383  0.500-
  37  0.383  0.617  0.500-
  38  0.500  0.500  0.335-
  39  0.500  0.500  0.665-
  40  0.328  0.446  0.583-  33 3.25  25 3.25  16 3.36   8 3.36  44 3.42  48 3.42
  41  0.554  0.672  0.583-  46 3.25  51 3.25  10 3.36  18 3.36  54 3.42  55 3.42
  42  0.558  0.442  0.582-  12 3.24   6 3.42  24 3.42  31 3.42  45 3.42
  43  0.442  0.558  0.418-  13 3.24   4 3.42  32 3.42  27 3.42  50 3.42
  44  0.442  0.442  0.582-  16 3.24   6 3.42  19 3.42  33 3.42  40 3.42
  45  0.672  0.446  0.583-  20 3.25  31 3.25   9 3.36  12 3.36  49 3.42  42 3.42
  46  0.446  0.672  0.583-  41 3.25  51 3.25  10 3.36  14 3.36  53 3.42  55 3.42
  47  0.558  0.558  0.418-  17 3.24   2 3.42  30 3.42  23 3.42  50 3.42
  48  0.384  0.500  0.500-   8 3.24   4 3.42  22 3.42  25 3.42  40 3.42
  49  0.616  0.500  0.500-   9 3.24   2 3.42  26 3.42  20 3.42  45 3.42
  50  0.500  0.617  0.340-  27 3.25  23 3.25  13 3.36  17 3.36  43 3.42  47 3.42
  51  0.500  0.617  0.660-  41 3.25  46 3.25  14 3.36  18 3.36  53 3.42  54 3.42
  52  0.500  0.500  0.500-
  53  0.442  0.558  0.582-  14 3.24  25 3.42  33 3.42  51 3.42  46 3.42
  54  0.558  0.558  0.582-  18 3.24  31 3.42  20 3.42  51 3.42  41 3.42
  55  0.500  0.616  0.500-  10 3.24  23 3.42  27 3.42  41 3.42  46 3.42
  56  0.416  0.246  0.625-  57 1.13
  57  0.405  0.214  0.641-  56 1.13
 
  LATTYP: Found a simple cubic cell.
 ALAT       =    30.0000000000
  
  Lattice vectors:
  
 A1 = (  30.0000000000,   0.0000000000,   0.0000000000)
 A2 = (   0.0000000000,  30.0000000000,   0.0000000000)
 A3 = (   0.0000000000,   0.0000000000,  30.0000000000)


Analysis of symmetry for initial positions (statically):
=====================================================================
 Subroutine PRICEL returns:
 Original cell was already a primitive cell.
 

 Routine SETGRP: Setting up the symmetry group for a 
 simple cubic supercell.


 Subroutine GETGRP returns: Found  1 space group operations
 (whereof  1 operations were pure point group operations)
 out of a pool of 48 trial point group operations.


The static configuration has the point symmetry C_1 .


Analysis of symmetry for dynamics (positions and initial velocities):
=====================================================================
 Subroutine PRICEL returns:
 Original cell was already a primitive cell.
 

 Routine SETGRP: Setting up the symmetry group for a 
 simple cubic supercell.


 Subroutine GETGRP returns: Found  1 space group operations
 (whereof  1 operations were pure point group operations)
 out of a pool of 48 trial point group operations.


The dynamic configuration has the point symmetry C_1 .


Analysis of constrained symmetry for selective dynamics:
=====================================================================
 Subroutine PRICEL returns:
 Original cell was already a primitive cell.
 

 Routine SETGRP: Setting up the symmetry group for a 
 simple cubic supercell.


 Subroutine GETGRP returns: Found  1 space group operations
 (whereof  1 operations were pure point group operations)
 out of a pool of 48 trial point group operations.


The constrained configuration has the point symmetry C_1 .


 Subroutine INISYM returns: Found  1 space group operations
 (whereof  1 operations are pure point group operations),
 and found     1 'primitive' translations

 
 
 KPOINTS: K-points                                

Automatic generation of k-mesh.
Space group operators:
 irot       det(A)        alpha          n_x          n_y          n_z        tau_x        tau_y        tau_z
    1     1.000000     0.000000     1.000000     0.000000     0.000000     0.000000     0.000000     0.000000
 
 Subroutine IBZKPT returns following result:
 ===========================================
 
 Found      1 irreducible k-points:
 
 Following reciprocal coordinates:
            Coordinates               Weight
  0.000000  0.000000  0.000000      1.000000
 
 Following cartesian coordinates:
            Coordinates               Weight
  0.000000  0.000000  0.000000      1.000000
 


--------------------------------------------------------------------------------------------------------




 Dimension of arrays:
   k-points           NKPTS =      1   k-points in BZ     NKDIM =      1   number of bands    NBANDS=    336
   number of dos      NEDOS =    301   number of ions     NIONS =     57
   non local maximal  LDIM  =      6   non local SUM 2l+1 LMDIM =     18
   total plane-waves  NPLWV = ******
   max r-space proj   IRMAX =   1847   max aug-charges    IRDMAX=   6262
   dimension x,y,z NGX =   150 NGY =  150 NGZ =  150
   dimension x,y,z NGXF=   300 NGYF=  300 NGZF=  300
   support grid    NGXF=   300 NGYF=  300 NGZF=  300
   ions per type =              55   1   1
   NGX,Y,Z   is equivalent  to a cutoff of   8.31,  8.31,  8.31 a.u.
   NGXF,Y,Z  is equivalent  to a cutoff of  16.62, 16.62, 16.62 a.u.

 SYSTEM =  6_Pd100_top_free_z(O)                   
 POSCAR =  Pd55PES                                 

 Startparameter for this run:
   NWRITE =      2    write-flag & timer
   PREC   = normal    normal or accurate (medium, high low for compatibility)
   ISTART =      0    job   : 0-new  1-cont  2-samecut
   ICHARG =      2    charge: 1-file 2-atom 10-const
   ISPIN  =      1    spin polarized calculation?
   LNONCOLLINEAR =      F non collinear calculations
   LSORBIT =      F    spin-orbit coupling
   INIWAV =      1    electr: 0-lowe 1-rand  2-diag
   LASPH  =      F    aspherical Exc in radial PAW
   METAGGA=      F    non-selfconsistent MetaGGA calc.

 Electronic Relaxation 1
   ENCUT  =  400.0 eV  29.40 Ry    5.42 a.u.  48.92 48.92 48.92*2*pi/ulx,y,z
   ENINI  =  400.0     initial cutoff
   ENAUG  =  644.9 eV  augmentation charge cutoff
   NELM   =    100;   NELMIN=  6; NELMDL= -5     # of ELM steps 
   EDIFF  = 0.1E-03   stopping-criterion for ELM
   LREAL  =      T    real-space projection
   NLSPLINE    = F    spline interpolate recip. space projectors
   LCOMPAT=      F    compatible to vasp.4.4
   GGA_COMPAT  = T    GGA compatible to vasp.4.4-vasp.4.6
   LMAXPAW     = -100 max onsite density
   LMAXMIX     =    2 max onsite mixed and CHGCAR
   VOSKOWN=      0    Vosko Wilk Nusair interpolation
   ROPT   =   -0.00050  -0.00050  -0.00050
 Ionic relaxation
   EDIFFG = -.5E-01   stopping-criterion for IOM
   NSW    =      0    number of steps for IOM
   NBLOCK =      1;   KBLOCK =      1    inner block; outer block 
   IBRION =     -1    ionic relax: 0-MD 1-quasi-New 2-CG
   NFREE  =      1    steps in history (QN), initial steepest desc. (CG)
   ISIF   =      2    stress and relaxation
   IWAVPR =     10    prediction:  0-non 1-charg 2-wave 3-comb
   ISYM   =      2    0-nonsym 1-usesym 2-fastsym
   LCORR  =      T    Harris-Foulkes like correction to forces

   POTIM  = 0.5000    time-step for ionic-motion
   TEIN   =    0.0    initial temperature
   TEBEG  =    0.0;   TEEND  =   0.0 temperature during run
   SMASS  =  -3.00    Nose mass-parameter (am)
   estimated Nose-frequenzy (Omega)   =  0.10E-29 period in steps =****** mass=  -0.206E-25a.u.
   SCALEE = 1.0000    scale energy and forces
   NPACO  =    256;   APACO  = 16.0  distance and # of slots for P.C.
   PSTRESS=    0.0 pullay stress

  Mass of Ions in am
   POMASS = 106.42 12.01 16.00
  Ionic Valenz
   ZVAL   =  10.00  4.00  6.00
  Atomic Wigner-Seitz radii
   RWIGS  =  -1.00 -1.00 -1.00
  virtual crystal weights 
   VCA    =   1.00  1.00  1.00
   NELECT =     560.0000    total number of electrons
   NUPDOWN=      -1.0000    fix difference up-down

 DOS related values:
   EMIN   =  10.00;   EMAX   =-10.00  energy-range for DOS
   EFERMI =   0.00
   ISMEAR =     2;   SIGMA  =   0.20  broadening in eV -4-tet -1-fermi 0-gaus

 Electronic relaxation 2 (details)
   IALGO  =     68    algorithm
   LDIAG  =      T    sub-space diagonalisation (order eigenvalues)
   LSUBROT=      F    optimize rotation matrix (better conditioning)
   TURBO    =      0    0=normal 1=particle mesh
   IRESTART =      0    0=no restart 2=restart with 2 vectors
   NREBOOT  =      0    no. of reboots
   NMIN     =      0    reboot dimension
   EREF     =   0.00    reference energy to select bands
   IMIX   =      4    mixing-type and parameters
     AMIX     =   0.40;   BMIX     =  1.00
     AMIX_MAG =   1.60;   BMIX_MAG =  1.00
     AMIN     =   0.10
     WC   =   100.;   INIMIX=   1;  MIXPRE=   1;  MAXMIX= -45

 Intra band minimization:
   WEIMIN = 0.0000     energy-eigenvalue tresh-hold
   EBREAK =  0.74E-07  absolut break condition
   DEPER  =   0.30     relativ break condition  

   TIME   =   0.40     timestep for ELM

  volume/ion in A,a.u.               =     473.68      3196.58
  Fermi-wavevector in a.u.,A,eV,Ry     =   0.449797  0.849992  2.752691  0.202317
  Thomas-Fermi vector in A             =   1.430086
 
 Write flags
   LWAVE        =      F    write WAVECAR
   LDOWNSAMPLE  =      F    k-point downsampling of WAVECAR
   LCHARG       =      F    write CHGCAR
   LVTOT        =      F    write LOCPOT, total local potential
   LVHAR        =      F    write LOCPOT, Hartree potential only
   LELF         =      F    write electronic localiz. function (ELF)
   LORBIT       =      0    0 simple, 1 ext, 2 COOP (PROOUT), +10 PAW based schemes


 Dipole corrections
   LMONO  =      F    monopole corrections only (constant potential shift)
   LDIPOL =      F    correct potential (dipole corrections)
   IDIPOL =      0    1-x, 2-y, 3-z, 4-all directions 
   EPSILON=  1.0000000 bulk dielectric constant

 Exchange correlation treatment:
   GGA     =    RP    GGA type
   LEXCH   =     9    internal setting for exchange type
   VOSKOWN=      0    Vosko Wilk Nusair interpolation
   LHFCALC =     F    Hartree Fock is set to
   LHFONE  =     F    Hartree Fock one center treatment
   AEXX    =    0.0000 exact exchange contribution

 Linear response parameters
   LEPSILON=     F    determine dielectric tensor
   LRPA    =     F    only Hartree local field effects (RPA)
   LNABLA  =     F    use nabla operator in PAW spheres
   LVEL    =     F    velocity operator in full k-point grid
   LINTERFAST=   F  fast interpolation
   KINTER  =     0    interpolate to denser k-point grid
   CSHIFT  =0.1000    complex shift for real part using Kramers Kronig
   OMEGAMAX=  -1.0    maximum frequency
   DEG_THRESHOLD= 0.2000000E-02 threshold for treating states as degnerate
   RTIME   =   -0.100 relaxation time in fs
  (WPLASMAI=    0.000 imaginary part of plasma frequency in eV, 0.658/RTIME)
   DFIELD  = 0.0000000 0.0000000 0.0000000 field for delta impulse in time
 
 Orbital magnetization related:
   ORBITALMAG=     F  switch on orbital magnetization
   LCHIMAG   =     F  perturbation theory with respect to B field
   DQ        =  0.001000  dq finite difference perturbation B field
   LLRAUG    =     F  two centre corrections for induced B field



--------------------------------------------------------------------------------------------------------


 Static calculation
 charge density and potential will be updated during run
 non-spin polarized calculation
 RMM-DIIS sequential band-by-band and
  variant of blocked Davidson during initial phase
 perform sub-space diagonalisation
    before iterative eigenvector-optimisation
 modified Broyden-mixing scheme, WC =      100.0
 initial mixing is a Kerker type mixing with AMIX =  0.4000 and BMIX =      1.0000
 Hartree-type preconditioning will be used
 using additional bands           56
 real space projection scheme for non local part
 use partial core corrections
 calculate Harris-corrections to forces 
   (improved forces if not selfconsistent)
 use gradient corrections 
 use of overlap-Matrix (Vanderbilt PP)
 Methfessel and Paxton  Order N= 2 SIGMA  =   0.20


--------------------------------------------------------------------------------------------------------


  energy-cutoff  :      400.00
  volume of cell :    27000.00
      direct lattice vectors                 reciprocal lattice vectors
    30.000000000  0.000000000  0.000000000     0.033333333  0.000000000  0.000000000
     0.000000000 30.000000000  0.000000000     0.000000000  0.033333333  0.000000000
     0.000000000  0.000000000 30.000000000     0.000000000  0.000000000  0.033333333

  length of vectors
    30.000000000 30.000000000 30.000000000     0.033333333  0.033333333  0.033333333


 
 k-points in units of 2pi/SCALE and weight: K-points                                
   0.00000000  0.00000000  0.00000000       1.000
 
 k-points in reciprocal lattice and weights: K-points                                
   0.00000000  0.00000000  0.00000000       1.000
 
 position of ions in fractional coordinates (direct lattice) 
   0.44576020  0.32826710  0.41691983
   0.67173288  0.55423978  0.41691983
   0.55423980  0.32826710  0.41691983
   0.32826712  0.55423978  0.41691983
   0.50000000  0.38250690  0.34021317
   0.50000000  0.38250690  0.65978680
   0.50000000  0.27609440  0.50000000
   0.27609443  0.49999998  0.50000000
   0.72390557  0.49999998  0.50000000
   0.50000000  0.72390555  0.50000000
   0.61195280  0.38804720  0.34167483
   0.61195280  0.38804720  0.65832513
   0.38804722  0.61195278  0.34167483
   0.38804722  0.61195278  0.65832513
   0.38804720  0.38804720  0.34167483
   0.38804720  0.38804720  0.65832513
   0.61195278  0.61195278  0.34167483
   0.61195278  0.61195278  0.65832513
   0.44576020  0.32826710  0.58308023
   0.67173288  0.55423978  0.58308023
   0.55791699  0.44208301  0.41809300
   0.32826705  0.44576024  0.41691983
   0.55423973  0.67173293  0.41691983
   0.55423980  0.32826710  0.58308023
   0.32826712  0.55423978  0.58308023
   0.67173295  0.44576024  0.41691983
   0.44576027  0.67173293  0.41691983
   0.44208301  0.44208301  0.41809300
   0.50000000  0.38416601  0.50000000
   0.61749315  0.50000005  0.34021317
   0.61749315  0.50000005  0.65978680
   0.38250685  0.50000005  0.34021317
   0.38250685  0.50000005  0.65978680
   0.38317830  0.38317830  0.50000000
   0.61682172  0.61682172  0.50000000
   0.61682170  0.38317830  0.50000000
   0.38317828  0.61682172  0.50000000
   0.50000000  0.50000000  0.33478917
   0.50000000  0.50000000  0.66521087
   0.32826705  0.44576024  0.58308023
   0.55423973  0.67173293  0.58308023
   0.55791699  0.44208301  0.58190703
   0.44208298  0.55791702  0.41809300
   0.44208301  0.44208301  0.58190703
   0.67173295  0.44576024  0.58308023
   0.44576027  0.67173293  0.58308023
   0.55791702  0.55791702  0.41809300
   0.38416599  0.50000002  0.50000000
   0.61583401  0.50000002  0.50000000
   0.50000000  0.61749319  0.34021317
   0.50000000  0.61749319  0.65978680
   0.50000000  0.50000000  0.50000000
   0.44208298  0.55791702  0.58190703
   0.55791702  0.55791702  0.58190703
   0.50000000  0.61583404  0.50000000
   0.41608720  0.24592527  0.62532950
   0.40540890  0.21359307  0.64127827
 
 position of ions in cartesian coordinates  (Angst):
  13.37280588  9.84801292 12.50759500
  20.15198637 16.62719342 12.50759500
  16.62719412  9.84801292 12.50759500
   9.84801363 16.62719342 12.50759500
  15.00000000 11.47520705 10.20639500
  15.00000000 11.47520705 19.79360400
  15.00000000  8.28283206 15.00000000
   8.28283277 14.99999929 15.00000000
  21.71716723 14.99999929 15.00000000
  15.00000000 21.71716652 14.99999999
  18.35858397 11.64141603 10.25024500
  18.35858397 11.64141603 19.74975399
  11.64141674 18.35858326 10.25024500
  11.64141674 18.35858326 19.74975400
  11.64141603 11.64141603 10.25024500
  11.64141603 11.64141603 19.74975400
  18.35858326 18.35858326 10.25024500
  18.35858326 18.35858326 19.74975400
  13.37280588  9.84801291 17.49240700
  20.15198638 16.62719341 17.49240700
  16.73750985 13.26249015 12.54279000
   9.84801151 13.37280729 12.50759500
  16.62719200 20.15198779 12.50759500
  16.62719412  9.84801292 17.49240700
   9.84801363 16.62719342 17.49240700
  20.15198849 13.37280729 12.50759500
  13.37280800 20.15198779 12.50759500
  13.26249015 13.26249015 12.54279000
  15.00000000 11.52498029 15.00000000
  18.52479437 15.00000140 10.20639500
  18.52479437 15.00000141 19.79360400
  11.47520562 15.00000141 10.20639501
  11.47520563 15.00000141 19.79360400
  11.49534898 11.49534898 15.00000000
  18.50465172 18.50465172 15.00000000
  18.50465102 11.49534898 15.00000000
  11.49534828 18.50465172 15.00000000
  15.00000000 15.00000000 10.04367500
  15.00000000 15.00000000 19.95632599
   9.84801151 13.37280729 17.49240700
  16.62719200 20.15198779 17.49240700
  16.73750985 13.26249015 17.45721100
  13.26248944 16.73751056 12.54279001
  13.26249015 13.26249015 17.45721100
  20.15198849 13.37280729 17.49240699
  13.37280800 20.15198779 17.49240700
  16.73751056 16.73751056 12.54279000
  11.52497959 15.00000071 15.00000000
  18.47502041 15.00000071 15.00000000
  14.99999999 18.52479579 10.20639500
  15.00000000 18.52479578 19.79360400
  15.00000000 15.00000000 15.00000000
  13.26248944 16.73751057 17.45721101
  16.73751056 16.73751057 17.45721100
  15.00000000 18.47502112 15.00000000
  12.48261600  7.37775800 18.75988500
  12.16226700  6.40779200 19.23834800
 


--------------------------------------------------------------------------------------------------------


 k-point  1 :   0.0000 0.0000 0.0000  plane waves:  490521

 maximum and minimum number of plane-waves per node :    490521   490521

 maximum number of plane-waves:    490521
 maximum index in each direction: 
   IXMAX=   48   IYMAX=   48   IZMAX=   48
   IXMIN=  -48   IYMIN=  -48   IZMIN=  -48


 serial   3D FFT for wavefunctions
 parallel 3D FFT for charge:
    minimum data exchange during FFTs selected (reduces bandwidth)


 total amount of memory used by VASP MPI-rank0  5486941. kBytes
=======================================================================

   base      :      30000. kBytes
   nonlr-proj:      17126. kBytes
   fftplans  :     924480. kBytes
   grid      :    1872000. kBytes
   one-center:        886. kBytes
   wavefun   :    2642449. kBytes
 
     INWAV:  cpu time    0.0001: real time    0.0005
 Broyden mixing: mesh for mixing (old mesh)
   NGX = 97   NGY = 97   NGZ = 97
  (NGX  =300   NGY  =300   NGZ  =300)
  gives a total of 912673 points

 initial charge density was supplied:
 charge density of overlapping atoms calculated
 number of electron     560.0000000 magnetization 
 keeping initial charge density in first step


--------------------------------------------------------------------------------------------------------


 Maximum index for non-local projection operator         1763
 Maximum index for augmentation-charges         5898 (set IRDMAX)


--------------------------------------------------------------------------------------------------------


 First call to EWALD:  gamma=   0.059
 Maximum number of real-space cells 3x 3x 3
 Maximum number of reciprocal cells 3x 3x 3

    FEWALD:  cpu time    0.0161: real time    0.0161


--------------------------------------- Iteration      1(   1)  ---------------------------------------


    POTLOK:  cpu time   14.8427: real time   14.8461
    SETDIJ:  cpu time    0.1159: real time    0.1159
     EDDAV:  cpu time  442.1086: real time  442.1956
       DOS:  cpu time    0.0014: real time    0.0014
    --------------------------------------------
      LOOP:  cpu time  457.0686: real time  457.1590

 eigenvalue-minimisations  :   688
 total energy-change (2. order) : 0.4381244E+04  (-0.1004709E+05)
 number of electron     560.0000000 magnetization 
 augmentation part      560.0000000 magnetization 

 Free energy of the ion-electron system (eV)
  ---------------------------------------------------
  alpha Z        PSCENC =        75.25431677
  Ewald energy   TEWEN  =    136963.23867602
  -Hartree energ DENC   =   -180331.83296188
  -exchange      EXHF   =         0.00000000
  -V(xc)+E(xc)   XCENC  =     -1704.14599812
  PAW double counting   =     44873.02882129   -41398.84523641
  entropy T*S    EENTRO =         0.01366254
  eigenvalues    EBANDS =       818.02688327
  atomic energy  EATOM  =     45086.50549395
  Solvation  Ediel_sol  =         0.00000000
  ---------------------------------------------------
  free energy    TOTEN  =      4381.24365744 eV

  energy without entropy =     4381.22999490  energy(sigma->0) =     4381.24024180


--------------------------------------------------------------------------------------------------------




--------------------------------------- Iteration      1(   2)  ---------------------------------------


     EDDAV:  cpu time  760.7850: real time  760.8141
       DOS:  cpu time    0.0014: real time    0.0014
    --------------------------------------------
      LOOP:  cpu time  760.7863: real time  760.8155

 eigenvalue-minimisations  :  1208
 total energy-change (2. order) :-0.2350147E+04  (-0.2111556E+04)
 number of electron     560.0000000 magnetization 
 augmentation part      560.0000000 magnetization 

 Free energy of the ion-electron system (eV)
  ---------------------------------------------------
  alpha Z        PSCENC =        75.25431677
  Ewald energy   TEWEN  =    136963.23867602
  -Hartree energ DENC   =   -180331.83296188
  -exchange      EXHF   =         0.00000000
  -V(xc)+E(xc)   XCENC  =     -1704.14599812
  PAW double counting   =     44873.02882129   -41398.84523641
  entropy T*S    EENTRO =        -0.06046168
  eigenvalues    EBANDS =     -1532.04610929
  atomic energy  EATOM  =     45086.50549395
  Solvation  Ediel_sol  =         0.00000000
  ---------------------------------------------------
  free energy    TOTEN  =      2031.09654066 eV

  energy without entropy =     2031.15700234  energy(sigma->0) =     2031.11165608


--------------------------------------------------------------------------------------------------------




--------------------------------------- Iteration      1(   3)  ---------------------------------------


     EDDAV:  cpu time  607.7714: real time  607.7922
       DOS:  cpu time    0.0012: real time    0.0012
    --------------------------------------------
      LOOP:  cpu time  607.7726: real time  607.7934

 eigenvalue-minimisations  :  1000
 total energy-change (2. order) :-0.1790766E+04  (-0.1678588E+04)
 number of electron     560.0000000 magnetization 
 augmentation part      560.0000000 magnetization 

 Free energy of the ion-electron system (eV)
  ---------------------------------------------------
  alpha Z        PSCENC =        75.25431677
  Ewald energy   TEWEN  =    136963.23867602
  -Hartree energ DENC   =   -180331.83296188
  -exchange      EXHF   =         0.00000000
  -V(xc)+E(xc)   XCENC  =     -1704.14599812
  PAW double counting   =     44873.02882129   -41398.84523641
  entropy T*S    EENTRO =        -0.00192303
  eigenvalues    EBANDS =     -3322.87044703
  atomic energy  EATOM  =     45086.50549395
  Solvation  Ediel_sol  =         0.00000000
  ---------------------------------------------------
  free energy    TOTEN  =       240.33074157 eV

  energy without entropy =      240.33266460  energy(sigma->0) =      240.33122233


--------------------------------------------------------------------------------------------------------




--------------------------------------- Iteration      1(   4)  ---------------------------------------


     EDDAV:  cpu time  512.1713: real time  512.1898
       DOS:  cpu time    0.0013: real time    0.0013
    --------------------------------------------
      LOOP:  cpu time  512.1727: real time  512.1911

 eigenvalue-minimisations  :   824
 total energy-change (2. order) :-0.3723799E+03  (-0.3138575E+03)
 number of electron     560.0000000 magnetization 
 augmentation part      560.0000000 magnetization 

 Free energy of the ion-electron system (eV)
  ---------------------------------------------------
  alpha Z        PSCENC =        75.25431677
  Ewald energy   TEWEN  =    136963.23867602
  -Hartree energ DENC   =   -180331.83296188
  -exchange      EXHF   =         0.00000000
  -V(xc)+E(xc)   XCENC  =     -1704.14599812
  PAW double counting   =     44873.02882129   -41398.84523641
  entropy T*S    EENTRO =        -0.04836079
  eigenvalues    EBANDS =     -3695.20393612
  atomic energy  EATOM  =     45086.50549395
  Solvation  Ediel_sol  =         0.00000000
  ---------------------------------------------------
  free energy    TOTEN  =      -132.04918529 eV

  energy without entropy =     -132.00082449  energy(sigma->0) =     -132.03709509


--------------------------------------------------------------------------------------------------------




--------------------------------------- Iteration      1(   5)  ---------------------------------------


     EDDAV:  cpu time  616.0724: real time  616.1009
       DOS:  cpu time    0.0015: real time    0.0015
    CHARGE:  cpu time   30.1476: real time   30.1483
    MIXING:  cpu time    0.4506: real time    0.4506
    --------------------------------------------
      LOOP:  cpu time  646.6721: real time  646.7013

 eigenvalue-minimisations  :  1032
 total energy-change (2. order) :-0.4637509E+02  (-0.3864485E+02)
 number of electron     559.9999847 magnetization 
 augmentation part      245.2683450 magnetization 

 Broyden mixing:
  rms(total) = 0.13881E+01    rms(broyden)= 0.13872E+01
  rms(prec ) = 0.14933E+01
  weight for this iteration     100.00

 Free energy of the ion-electron system (eV)
  ---------------------------------------------------
  alpha Z        PSCENC =        75.25431677
  Ewald energy   TEWEN  =    136963.23867602
  -Hartree energ DENC   =   -180331.83296188
  -exchange      EXHF   =         0.00000000
  -V(xc)+E(xc)   XCENC  =     -1704.14599812
  PAW double counting   =     44873.02882129   -41398.84523641
  entropy T*S    EENTRO =         0.54085098
  eigenvalues    EBANDS =     -3742.16824171
  atomic energy  EATOM  =     45086.50549395
  Solvation  Ediel_sol  =         0.00000000
  ---------------------------------------------------
  free energy    TOTEN  =      -178.42427911 eV

  energy without entropy =     -178.96513009  energy(sigma->0) =     -178.55949185


--------------------------------------------------------------------------------------------------------




--------------------------------------- Iteration      1(   6)  ---------------------------------------


    POTLOK:  cpu time   14.9325: real time   14.9348
    SETDIJ:  cpu time    0.1253: real time    0.1253
    EDDIAG:  cpu time   88.5314: real time   88.5356
  RMM-DIIS:  cpu time  213.2127: real time  213.2248
    ORTHCH:  cpu time   23.3746: real time   23.3752
       DOS:  cpu time    0.0016: real time    0.0016
    CHARGE:  cpu time   28.6304: real time   28.6310
    MIXING:  cpu time    0.5300: real time    0.5300
    --------------------------------------------
      LOOP:  cpu time  369.3385: real time  369.3584

 eigenvalue-minimisations  :   724
 total energy-change (2. order) : 0.1593123E+00  (-0.5272273E+01)
 number of electron     559.9999856 magnetization 
 augmentation part      240.6314262 magnetization 

 Broyden mixing:
  rms(total) = 0.22756E+01    rms(broyden)= 0.22755E+01
  rms(prec ) = 0.26390E+01
  weight for this iteration     100.00

 eigenvalues of (default mixing * dielectric matrix)
  average eigenvalue GAMMA=   0.3138
  0.3138

 Free energy of the ion-electron system (eV)
  ---------------------------------------------------
  alpha Z        PSCENC =        75.25431677
  Ewald energy   TEWEN  =    136963.23867602
  -Hartree energ DENC   =   -180746.13473476
  -exchange      EXHF   =         0.00000000
  -V(xc)+E(xc)   XCENC  =     -1697.84517816
  PAW double counting   =     45621.28864097   -42119.79339005
  entropy T*S    EENTRO =        -0.26254566
  eigenvalues    EBANDS =     -3360.51624588
  atomic energy  EATOM  =     45086.50549395
  Solvation  Ediel_sol  =         0.00000000
  ---------------------------------------------------
  free energy    TOTEN  =      -178.26496680 eV

  energy without entropy =     -178.00242113  energy(sigma->0) =     -178.19933038


--------------------------------------------------------------------------------------------------------




--------------------------------------- Iteration      1(   7)  ---------------------------------------


    POTLOK:  cpu time   14.7356: real time   14.7379
    SETDIJ:  cpu time    0.1190: real time    0.1190
    EDDIAG:  cpu time   89.6704: real time   89.6746
  RMM-DIIS:  cpu time  270.3148: real time  270.3287
    ORTHCH:  cpu time   24.8145: real time   24.8150
       DOS:  cpu time    0.0016: real time    0.0016
    CHARGE:  cpu time   34.0351: real time   34.0358
    MIXING:  cpu time    0.6336: real time    0.6336
    --------------------------------------------
      LOOP:  cpu time  434.3245: real time  434.3463

 eigenvalue-minimisations  :   851
 total energy-change (2. order) :-0.2219705E+01  (-0.1830148E+01)
 number of electron     559.9999835 magnetization 
 augmentation part      240.5608403 magnetization 

 Broyden mixing:
  rms(total) = 0.24720E+01    rms(broyden)= 0.24718E+01
  rms(prec ) = 0.30182E+01
  weight for this iteration     100.00

 eigenvalues of (default mixing * dielectric matrix)
  average eigenvalue GAMMA=   0.2936
  0.4599  0.1274

 Free energy of the ion-electron system (eV)
  ---------------------------------------------------
  alpha Z        PSCENC =        75.25431677
  Ewald energy   TEWEN  =    136963.23867602
  -Hartree energ DENC   =   -180824.46982290
  -exchange      EXHF   =         0.00000000
  -V(xc)+E(xc)   XCENC  =     -1698.00359401
  PAW double counting   =     45675.55527780   -42171.59974123
  entropy T*S    EENTRO =         0.09250180
  eigenvalues    EBANDS =     -3287.05778010
  atomic energy  EATOM  =     45086.50549395
  Solvation  Ediel_sol  =         0.00000000
  ---------------------------------------------------
  free energy    TOTEN  =      -180.48467190 eV

  energy without entropy =     -180.57717370  energy(sigma->0) =     -180.50779735


--------------------------------------------------------------------------------------------------------




--------------------------------------- Iteration      1(   8)  ---------------------------------------


    POTLOK:  cpu time   18.6448: real time   18.6470
    SETDIJ:  cpu time    0.1216: real time    0.1216
    EDDIAG:  cpu time   92.9786: real time   92.9836
  RMM-DIIS:  cpu time  244.5453: real time  244.5570
    ORTHCH:  cpu time   22.2278: real time   22.2282
       DOS:  cpu time    0.0015: real time    0.0015
    CHARGE:  cpu time   28.7127: real time   28.7132
    MIXING:  cpu time    0.5413: real time    0.5413
    --------------------------------------------
      LOOP:  cpu time  407.7736: real time  407.7935

 eigenvalue-minimisations  :   801
 total energy-change (2. order) :-0.2197349E+01  (-0.6069952E+00)
 number of electron     559.9999835 magnetization 
 augmentation part      240.1152163 magnetization 

 Broyden mixing:
  rms(total) = 0.25969E+01    rms(broyden)= 0.25966E+01
  rms(prec ) = 0.30863E+01
  weight for this iteration     100.00

 eigenvalues of (default mixing * dielectric matrix)
  average eigenvalue GAMMA=   0.2968
  0.6463  0.1221  0.1221

 Free energy of the ion-electron system (eV)
  ---------------------------------------------------
  alpha Z        PSCENC =        75.25431677
  Ewald energy   TEWEN  =    136963.23867602
  -Hartree energ DENC   =   -180871.26361061
  -exchange      EXHF   =         0.00000000
  -V(xc)+E(xc)   XCENC  =     -1698.01071089
  PAW double counting   =     45722.57135376   -42216.35973668
  entropy T*S    EENTRO =        -0.06837117
  eigenvalues    EBANDS =     -3244.54943236
  atomic energy  EATOM  =     45086.50549395
  Solvation  Ediel_sol  =         0.00000000
  ---------------------------------------------------
  free energy    TOTEN  =      -182.68202123 eV

  energy without entropy =     -182.61365006  energy(sigma->0) =     -182.66492843


--------------------------------------------------------------------------------------------------------




--------------------------------------- Iteration      1(   9)  ---------------------------------------


    POTLOK:  cpu time   13.7728: real time   13.7750
    SETDIJ:  cpu time    0.1174: real time    0.1174
    EDDIAG:  cpu time   85.0768: real time   85.0801
  RMM-DIIS:  cpu time  210.1180: real time  210.1276
    ORTHCH:  cpu time   22.2229: real time   22.2234
       DOS:  cpu time    0.0015: real time    0.0015
    CHARGE:  cpu time   27.9691: real time   27.9697
    MIXING:  cpu time    0.5922: real time    0.5922
    --------------------------------------------
      LOOP:  cpu time  359.8707: real time  359.8869

 eigenvalue-minimisations  :   732
 total energy-change (2. order) : 0.2025495E+00  (-0.5093179E+00)
 number of electron     559.9999854 magnetization 
 augmentation part      240.5922178 magnetization 

 Broyden mixing:
  rms(total) = 0.25253E+01    rms(broyden)= 0.25250E+01
  rms(prec ) = 0.28764E+01
  weight for this iteration     100.00

 eigenvalues of (default mixing * dielectric matrix)
  average eigenvalue GAMMA=   0.2935
  0.7891  0.1455  0.1455  0.0939

 Free energy of the ion-electron system (eV)
  ---------------------------------------------------
  alpha Z        PSCENC =        75.25431677
  Ewald energy   TEWEN  =    136963.23867602
  -Hartree energ DENC   =   -180890.08644468
  -exchange      EXHF   =         0.00000000
  -V(xc)+E(xc)   XCENC  =     -1697.97957463
  PAW double counting   =     45778.18862943   -42269.25083586
  entropy T*S    EENTRO =        -0.36697897
  eigenvalues    EBANDS =     -3227.98275377
  atomic energy  EATOM  =     45086.50549395
  Solvation  Ediel_sol  =         0.00000000
  ---------------------------------------------------
  free energy    TOTEN  =      -182.47947173 eV

  energy without entropy =     -182.11249277  energy(sigma->0) =     -182.38772699


--------------------------------------------------------------------------------------------------------




--------------------------------------- Iteration      1(  10)  ---------------------------------------


    POTLOK:  cpu time   13.7108: real time   13.7131
    SETDIJ:  cpu time    0.1176: real time    0.1176
    EDDIAG:  cpu time   84.8897: real time   84.8932
  RMM-DIIS:  cpu time  206.6580: real time  206.6682
    ORTHCH:  cpu time   22.2010: real time   22.2015
       DOS:  cpu time    0.0016: real time    0.0016
    CHARGE:  cpu time   27.6917: real time   27.6923
    MIXING:  cpu time    0.5982: real time    0.5983
    --------------------------------------------
      LOOP:  cpu time  355.8686: real time  355.8857

 eigenvalue-minimisations  :   723
 total energy-change (2. order) : 0.3982118E+01  (-0.3403031E+00)
 number of electron     559.9999827 magnetization 
 augmentation part      241.3083431 magnetization 

 Broyden mixing:
  rms(total) = 0.18961E+01    rms(broyden)= 0.18957E+01
  rms(prec ) = 0.21500E+01
  weight for this iteration     100.00

 eigenvalues of (default mixing * dielectric matrix)
  average eigenvalue GAMMA=   0.2775
  0.8572  0.1695  0.1695  0.0984  0.0927

 Free energy of the ion-electron system (eV)
  ---------------------------------------------------
  alpha Z        PSCENC =        75.25431677
  Ewald energy   TEWEN  =    136963.23867602
  -Hartree energ DENC   =   -180921.97078119
  -exchange      EXHF   =         0.00000000
  -V(xc)+E(xc)   XCENC  =     -1697.88170549
  PAW double counting   =     45827.67721082   -42316.51727569
  entropy T*S    EENTRO =        -0.05989827
  eigenvalues    EBANDS =     -3194.74339028
  atomic energy  EATOM  =     45086.50549395
  Solvation  Ediel_sol  =         0.00000000
  ---------------------------------------------------
  free energy    TOTEN  =      -178.49735338 eV

  energy without entropy =     -178.43745510  energy(sigma->0) =     -178.48237881


--------------------------------------------------------------------------------------------------------




--------------------------------------- Iteration      1(  11)  ---------------------------------------


    POTLOK:  cpu time   13.6801: real time   13.6820
    SETDIJ:  cpu time    0.1177: real time    0.1177
    EDDIAG:  cpu time   85.1336: real time   85.1380
  RMM-DIIS:  cpu time  204.7718: real time  204.7810
    ORTHCH:  cpu time   22.1892: real time   22.1896
       DOS:  cpu time    0.0016: real time    0.0016
    CHARGE:  cpu time   27.9877: real time   27.9883
    MIXING:  cpu time    0.6674: real time    0.6674
    --------------------------------------------
      LOOP:  cpu time  354.5490: real time  354.5656

 eigenvalue-minimisations  :   724
 total energy-change (2. order) : 0.1919036E+01  (-0.1823460E+00)
 number of electron     559.9999872 magnetization 
 augmentation part      241.5947828 magnetization 

 Broyden mixing:
  rms(total) = 0.13585E+01    rms(broyden)= 0.13582E+01
  rms(prec ) = 0.15702E+01
  weight for this iteration     100.00

 eigenvalues of (default mixing * dielectric matrix)
  average eigenvalue GAMMA=   0.2723
  0.9074  0.2078  0.2078  0.1168  0.1168  0.0770

 Free energy of the ion-electron system (eV)
  ---------------------------------------------------
  alpha Z        PSCENC =        75.25431677
  Ewald energy   TEWEN  =    136963.23867602
  -Hartree energ DENC   =   -180939.53353496
  -exchange      EXHF   =         0.00000000
  -V(xc)+E(xc)   XCENC  =     -1697.70336085
  PAW double counting   =     45859.86960261   -42347.09331507
  entropy T*S    EENTRO =        -0.14890322
  eigenvalues    EBANDS =     -3176.96729265
  atomic energy  EATOM  =     45086.50549395
  Solvation  Ediel_sol  =         0.00000000
  ---------------------------------------------------
  free energy    TOTEN  =      -176.57831740 eV

  energy without entropy =     -176.42941418  energy(sigma->0) =     -176.54109160


--------------------------------------------------------------------------------------------------------




--------------------------------------- Iteration      1(  12)  ---------------------------------------


    POTLOK:  cpu time   13.6271: real time   13.6294
    SETDIJ:  cpu time    0.1263: real time    0.1263
    EDDIAG:  cpu time   84.6200: real time   84.6257
  RMM-DIIS:  cpu time  202.9270: real time  202.9366
    ORTHCH:  cpu time   22.1931: real time   22.1936
       DOS:  cpu time    0.0016: real time    0.0016
    CHARGE:  cpu time   28.0011: real time   28.0017
    MIXING:  cpu time    0.7181: real time    0.7181
    --------------------------------------------
      LOOP:  cpu time  352.2143: real time  352.2330

 eigenvalue-minimisations  :   721
 total energy-change (2. order) : 0.1664595E+00  (-0.1141142E+00)
 number of electron     559.9999871 magnetization 
 augmentation part      241.6428041 magnetization 

 Broyden mixing:
  rms(total) = 0.18898E+01    rms(broyden)= 0.18895E+01
  rms(prec ) = 0.23056E+01
  weight for this iteration     100.00

 eigenvalues of (default mixing * dielectric matrix)
  average eigenvalue GAMMA=   0.2544
  0.9287  0.2367  0.2367  0.1202  0.1202  0.0760  0.0621

 Free energy of the ion-electron system (eV)
  ---------------------------------------------------
  alpha Z        PSCENC =        75.25431677
  Ewald energy   TEWEN  =    136963.23867602
  -Hartree energ DENC   =   -180958.84116367
  -exchange      EXHF   =         0.00000000
  -V(xc)+E(xc)   XCENC  =     -1697.45755769
  PAW double counting   =     45888.68107479   -42374.34545853
  entropy T*S    EENTRO =         0.00028646
  eigenvalues    EBANDS =     -3159.44752602
  atomic energy  EATOM  =     45086.50549395
  Solvation  Ediel_sol  =         0.00000000
  ---------------------------------------------------
  free energy    TOTEN  =      -176.41185791 eV

  energy without entropy =     -176.41214437  energy(sigma->0) =     -176.41192953


--------------------------------------------------------------------------------------------------------




--------------------------------------- Iteration      1(  13)  ---------------------------------------


    POTLOK:  cpu time   13.5978: real time   13.5998
    SETDIJ:  cpu time    0.1181: real time    0.1181
    EDDIAG:  cpu time   84.1481: real time   84.1512
  RMM-DIIS:  cpu time  205.6126: real time  205.6218
    ORTHCH:  cpu time   22.1746: real time   22.1751
       DOS:  cpu time    0.0016: real time    0.0016
    CHARGE:  cpu time   27.7857: real time   27.7863
    MIXING:  cpu time    0.7117: real time    0.7118
    --------------------------------------------
      LOOP:  cpu time  354.1503: real time  354.1657

 eigenvalue-minimisations  :   729
 total energy-change (2. order) : 0.1000212E+01  (-0.6078697E-01)
 number of electron     559.9999865 magnetization 
 augmentation part      241.6705280 magnetization 

 Broyden mixing:
  rms(total) = 0.12901E+01    rms(broyden)= 0.12898E+01
  rms(prec ) = 0.14827E+01
  weight for this iteration     100.00

 eigenvalues of (default mixing * dielectric matrix)
  average eigenvalue GAMMA=   0.2656
  0.9987  0.3119  0.3119  0.1514  0.1124  0.1124  0.0792  0.0467

 Free energy of the ion-electron system (eV)
  ---------------------------------------------------
  alpha Z        PSCENC =        75.25431677
  Ewald energy   TEWEN  =    136963.23867602
  -Hartree energ DENC   =   -180973.70905273
  -exchange      EXHF   =         0.00000000
  -V(xc)+E(xc)   XCENC  =     -1697.28009794
  PAW double counting   =     45906.01421640   -42390.73008567
  entropy T*S    EENTRO =        -0.13518674
  eigenvalues    EBANDS =     -3144.56992567
  atomic energy  EATOM  =     45086.50549395
  Solvation  Ediel_sol  =         0.00000000
  ---------------------------------------------------
  free energy    TOTEN  =      -175.41164562 eV

  energy without entropy =     -175.27645888  energy(sigma->0) =     -175.37784893


--------------------------------------------------------------------------------------------------------




--------------------------------------- Iteration      1(  14)  ---------------------------------------


    POTLOK:  cpu time   13.5792: real time   13.5818
    SETDIJ:  cpu time    0.1177: real time    0.1177
    EDDIAG:  cpu time   85.1087: real time   85.1130
  RMM-DIIS:  cpu time  209.7525: real time  209.7637
    ORTHCH:  cpu time   22.8314: real time   22.8318
       DOS:  cpu time    0.0017: real time    0.0017
    CHARGE:  cpu time   29.0748: real time   29.0756
    MIXING:  cpu time    0.8039: real time    0.8040
    --------------------------------------------
      LOOP:  cpu time  361.2698: real time  361.2892

 eigenvalue-minimisations  :   712
 total energy-change (2. order) : 0.3202252E-01  (-0.9915270E-01)
 number of electron     559.9999830 magnetization 
 augmentation part      241.4929054 magnetization 

 Broyden mixing:
  rms(total) = 0.15046E+01    rms(broyden)= 0.15044E+01
  rms(prec ) = 0.17739E+01
  weight for this iteration     100.00

 eigenvalues of (default mixing * dielectric matrix)
  average eigenvalue GAMMA=   0.2704
  1.0728  0.3805  0.3805  0.1503  0.1190  0.1190  0.0821  0.0821  0.0474

 Free energy of the ion-electron system (eV)
  ---------------------------------------------------
  alpha Z        PSCENC =        75.25431677
  Ewald energy   TEWEN  =    136963.23867602
  -Hartree energ DENC   =   -181006.69722198
  -exchange      EXHF   =         0.00000000
  -V(xc)+E(xc)   XCENC  =     -1696.81838653
  PAW double counting   =     45947.63270265   -42429.91517056
  entropy T*S    EENTRO =        -0.12030754
  eigenvalues    EBANDS =     -3114.45972588
  atomic energy  EATOM  =     45086.50549395
  Solvation  Ediel_sol  =         0.00000000
  ---------------------------------------------------
  free energy    TOTEN  =      -175.37962310 eV

  energy without entropy =     -175.25931556  energy(sigma->0) =     -175.34954622


--------------------------------------------------------------------------------------------------------




--------------------------------------- Iteration      1(  15)  ---------------------------------------


    POTLOK:  cpu time   14.1090: real time   14.1114
    SETDIJ:  cpu time    0.1181: real time    0.1181
    EDDIAG:  cpu time   86.0181: real time   86.0222
  RMM-DIIS:  cpu time  212.6989: real time  212.7113
    ORTHCH:  cpu time   23.3299: real time   23.3304
       DOS:  cpu time    0.0016: real time    0.0016
    CHARGE:  cpu time   29.3668: real time   29.3674
    MIXING:  cpu time    0.9532: real time    0.9532
    --------------------------------------------
      LOOP:  cpu time  366.5957: real time  366.6159

 eigenvalue-minimisations  :   719
 total energy-change (2. order) :-0.3844529E+00  (-0.7694232E-01)
 number of electron     559.9999829 magnetization 
 augmentation part      241.1883096 magnetization 

 Broyden mixing:
  rms(total) = 0.18002E+01    rms(broyden)= 0.18000E+01
  rms(prec ) = 0.21833E+01
  weight for this iteration     100.00

 eigenvalues of (default mixing * dielectric matrix)
  average eigenvalue GAMMA=   0.2757
  1.1732  0.5904  0.2796  0.1618  0.1360  0.1360  0.0912  0.0727  0.0727  0.0434

 Free energy of the ion-electron system (eV)
  ---------------------------------------------------
  alpha Z        PSCENC =        75.25431677
  Ewald energy   TEWEN  =    136963.23867602
  -Hartree energ DENC   =   -181038.49872972
  -exchange      EXHF   =         0.00000000
  -V(xc)+E(xc)   XCENC  =     -1696.37583649
  PAW double counting   =     45984.84483743   -42464.86413483
  entropy T*S    EENTRO =        -0.04263431
  eigenvalues    EBANDS =     -3085.82606479
  atomic energy  EATOM  =     45086.50549395
  Solvation  Ediel_sol  =         0.00000000
  ---------------------------------------------------
  free energy    TOTEN  =      -175.76407598 eV

  energy without entropy =     -175.72144167  energy(sigma->0) =     -175.75341740


--------------------------------------------------------------------------------------------------------




--------------------------------------- Iteration      1(  16)  ---------------------------------------


    POTLOK:  cpu time   15.0905: real time   15.0930
    SETDIJ:  cpu time    0.1200: real time    0.1200
    EDDIAG:  cpu time   88.2624: real time   88.2660
  RMM-DIIS:  cpu time  236.0648: real time  236.0771
    ORTHCH:  cpu time   24.3815: real time   24.3827
       DOS:  cpu time    0.0015: real time    0.0015
    CHARGE:  cpu time   34.7122: real time   34.7136
    MIXING:  cpu time    1.1874: real time    1.1874
    --------------------------------------------
      LOOP:  cpu time  399.8202: real time  399.8412

 eigenvalue-minimisations  :   721
 total energy-change (2. order) : 0.6376349E+00  (-0.7973205E-01)
 number of electron     559.9999844 magnetization 
 augmentation part      241.0699955 magnetization 

 Broyden mixing:
  rms(total) = 0.14959E+01    rms(broyden)= 0.14957E+01
  rms(prec ) = 0.17417E+01
  weight for this iteration     100.00

 eigenvalues of (default mixing * dielectric matrix)
  average eigenvalue GAMMA=   0.2939
  1.3597  0.7610  0.2172  0.2172  0.2031  0.1067  0.1067  0.0783  0.0783  0.0610
  0.0436

 Free energy of the ion-electron system (eV)
  ---------------------------------------------------
  alpha Z        PSCENC =        75.25431677
  Ewald energy   TEWEN  =    136963.23867602
  -Hartree energ DENC   =   -181068.80405128
  -exchange      EXHF   =         0.00000000
  -V(xc)+E(xc)   XCENC  =     -1695.87162037
  PAW double counting   =     46023.27131424   -42500.90865643
  entropy T*S    EENTRO =        -0.10893840
  eigenvalues    EBANDS =     -3057.70297556
  atomic energy  EATOM  =     45086.50549395
  Solvation  Ediel_sol  =         0.00000000
  ---------------------------------------------------
  free energy    TOTEN  =      -175.12644106 eV

  energy without entropy =     -175.01750266  energy(sigma->0) =     -175.09920646


--------------------------------------------------------------------------------------------------------




--------------------------------------- Iteration      1(  17)  ---------------------------------------


    POTLOK:  cpu time   16.5323: real time   16.5335
    SETDIJ:  cpu time    0.1318: real time    0.1318
    EDDIAG:  cpu time  101.6859: real time  101.6901
  RMM-DIIS:  cpu time  246.0166: real time  246.0288
    ORTHCH:  cpu time   21.7822: real time   21.7826
       DOS:  cpu time    0.0015: real time    0.0015
    CHARGE:  cpu time   26.3151: real time   26.3157
    MIXING:  cpu time    0.8212: real time    0.8212
    --------------------------------------------
      LOOP:  cpu time  413.2868: real time  413.3053

 eigenvalue-minimisations  :   711
 total energy-change (2. order) : 0.2008664E+00  (-0.7369670E-01)
 number of electron     559.9999855 magnetization 
 augmentation part      240.9805415 magnetization 

 Broyden mixing:
  rms(total) = 0.15654E+01    rms(broyden)= 0.15651E+01
  rms(prec ) = 0.18541E+01
  weight for this iteration     100.00

 eigenvalues of (default mixing * dielectric matrix)
  average eigenvalue GAMMA=   0.2936
  1.4308  0.7955  0.2734  0.2734  0.1940  0.1130  0.1130  0.0804  0.0804  0.0750
  0.0509  0.0443

 Free energy of the ion-electron system (eV)
  ---------------------------------------------------
  alpha Z        PSCENC =        75.25431677
  Ewald energy   TEWEN  =    136963.23867602
  -Hartree energ DENC   =   -181099.82243325
  -exchange      EXHF   =         0.00000000
  -V(xc)+E(xc)   XCENC  =     -1695.43032268
  PAW double counting   =     46059.71834851   -42535.09416212
  entropy T*S    EENTRO =         0.03815904
  eigenvalues    EBANDS =     -3029.33365084
  atomic energy  EATOM  =     45086.50549395
  Solvation  Ediel_sol  =         0.00000000
  ---------------------------------------------------
  free energy    TOTEN  =      -174.92557461 eV

  energy without entropy =     -174.96373365  energy(sigma->0) =     -174.93511437


--------------------------------------------------------------------------------------------------------




--------------------------------------- Iteration      1(  18)  ---------------------------------------


    POTLOK:  cpu time   13.1741: real time   13.1762
    SETDIJ:  cpu time    0.1172: real time    0.1172
    EDDIAG:  cpu time   81.3431: real time   81.3482
  RMM-DIIS:  cpu time  192.5867: real time  192.5958
    ORTHCH:  cpu time   21.7888: real time   21.7893
       DOS:  cpu time    0.0016: real time    0.0016
    CHARGE:  cpu time   26.3212: real time   26.3218
    MIXING:  cpu time    0.8764: real time    0.8764
    --------------------------------------------
      LOOP:  cpu time  336.2092: real time  336.2265

 eigenvalue-minimisations  :   714
 total energy-change (2. order) : 0.2360696E+00  (-0.4180681E-01)
 number of electron     559.9999874 magnetization 
 augmentation part      241.0102381 magnetization 

 Broyden mixing:
  rms(total) = 0.13837E+01    rms(broyden)= 0.13835E+01
  rms(prec ) = 0.15830E+01
  weight for this iteration     100.00

 eigenvalues of (default mixing * dielectric matrix)
  average eigenvalue GAMMA=   0.2966
  1.4930  0.8810  0.3315  0.3315  0.1738  0.1192  0.1192  0.0855  0.0855  0.0725
  0.0725  0.0449  0.0459

 Free energy of the ion-electron system (eV)
  ---------------------------------------------------
  alpha Z        PSCENC =        75.25431677
  Ewald energy   TEWEN  =    136963.23867602
  -Hartree energ DENC   =   -181107.07506360
  -exchange      EXHF   =         0.00000000
  -V(xc)+E(xc)   XCENC  =     -1695.34202884
  PAW double counting   =     46066.22328333   -42541.06848004
  entropy T*S    EENTRO =         0.01382442
  eigenvalues    EBANDS =     -3022.43952704
  atomic energy  EATOM  =     45086.50549395
  Solvation  Ediel_sol  =         0.00000000
  ---------------------------------------------------
  free energy    TOTEN  =      -174.68950503 eV

  energy without entropy =     -174.70332945  energy(sigma->0) =     -174.69296114


--------------------------------------------------------------------------------------------------------




--------------------------------------- Iteration      1(  19)  ---------------------------------------


    POTLOK:  cpu time   13.1874: real time   13.1901
    SETDIJ:  cpu time    0.1174: real time    0.1175
    EDDIAG:  cpu time   81.2874: real time   81.2907
  RMM-DIIS:  cpu time  192.4605: real time  192.4687
    ORTHCH:  cpu time   21.7957: real time   21.7961
       DOS:  cpu time    0.0016: real time    0.0016
    CHARGE:  cpu time   26.3432: real time   26.3437
    MIXING:  cpu time    0.9160: real time    0.9160
    --------------------------------------------
      LOOP:  cpu time  336.1092: real time  336.1243

 eigenvalue-minimisations  :   713
 total energy-change (2. order) : 0.1741040E+00  (-0.4214788E-01)
 number of electron     559.9999878 magnetization 
 augmentation part      241.0677618 magnetization 

 Broyden mixing:
  rms(total) = 0.98027E+00    rms(broyden)= 0.98010E+00
  rms(prec ) = 0.11084E+01
  weight for this iteration     100.00

 eigenvalues of (default mixing * dielectric matrix)
  average eigenvalue GAMMA=   0.3125
  1.5890  1.0908  0.3765  0.3765  0.1608  0.1608  0.1100  0.1100  0.0846  0.0846
  0.0708  0.0708  0.0451  0.0451

 Free energy of the ion-electron system (eV)
  ---------------------------------------------------
  alpha Z        PSCENC =        75.25431677
  Ewald energy   TEWEN  =    136963.23867602
  -Hartree energ DENC   =   -181117.13566779
  -exchange      EXHF   =         0.00000000
  -V(xc)+E(xc)   XCENC  =     -1695.25386908
  PAW double counting   =     46071.71573408   -42545.92976495
  entropy T*S    EENTRO =        -0.02233767
  eigenvalues    EBANDS =     -3012.88798232
  atomic energy  EATOM  =     45086.50549395
  Solvation  Ediel_sol  =         0.00000000
  ---------------------------------------------------
  free energy    TOTEN  =      -174.51540101 eV

  energy without entropy =     -174.49306334  energy(sigma->0) =     -174.50981659


--------------------------------------------------------------------------------------------------------




--------------------------------------- Iteration      1(  20)  ---------------------------------------


    POTLOK:  cpu time   13.1411: real time   13.1429
    SETDIJ:  cpu time    0.1175: real time    0.1176
    EDDIAG:  cpu time   81.3402: real time   81.3434
  RMM-DIIS:  cpu time  192.4507: real time  192.4588
    ORTHCH:  cpu time   21.7919: real time   21.7923
       DOS:  cpu time    0.0016: real time    0.0016
    CHARGE:  cpu time   26.3551: real time   26.3556
    MIXING:  cpu time    0.9712: real time    0.9712
    --------------------------------------------
      LOOP:  cpu time  336.1693: real time  336.1834

 eigenvalue-minimisations  :   711
 total energy-change (2. order) :-0.2595697E-01  (-0.3811192E-01)
 number of electron     559.9999858 magnetization 
 augmentation part      241.1842608 magnetization 

 Broyden mixing:
  rms(total) = 0.11584E+01    rms(broyden)= 0.11583E+01
  rms(prec ) = 0.13367E+01
  weight for this iteration     100.00

 eigenvalues of (default mixing * dielectric matrix)
  average eigenvalue GAMMA=   0.3116
  1.6942  1.1280  0.3914  0.3914  0.1845  0.1845  0.1123  0.1123  0.0836  0.0836
  0.0735  0.0735  0.0707  0.0451  0.0451

 Free energy of the ion-electron system (eV)
  ---------------------------------------------------
  alpha Z        PSCENC =        75.25431677
  Ewald energy   TEWEN  =    136963.23867602
  -Hartree energ DENC   =   -181136.67603803
  -exchange      EXHF   =         0.00000000
  -V(xc)+E(xc)   XCENC  =     -1695.07160913
  PAW double counting   =     46079.26539558   -42552.38199199
  entropy T*S    EENTRO =         0.02054799
  eigenvalues    EBANDS =     -2994.69614913
  atomic energy  EATOM  =     45086.50549395
  Solvation  Ediel_sol  =         0.00000000
  ---------------------------------------------------
  free energy    TOTEN  =      -174.54135798 eV

  energy without entropy =     -174.56190597  energy(sigma->0) =     -174.54649498


--------------------------------------------------------------------------------------------------------




--------------------------------------- Iteration      1(  21)  ---------------------------------------


    POTLOK:  cpu time   13.1517: real time   13.1538
    SETDIJ:  cpu time    0.1173: real time    0.1173
    EDDIAG:  cpu time   81.2339: real time   81.2373
  RMM-DIIS:  cpu time  195.5093: real time  195.5183
    ORTHCH:  cpu time   21.7906: real time   21.7910
       DOS:  cpu time    0.0016: real time    0.0016
    CHARGE:  cpu time   26.3411: real time   26.3417
    MIXING:  cpu time    1.0247: real time    1.0247
    --------------------------------------------
      LOOP:  cpu time  339.1704: real time  339.1858

 eigenvalue-minimisations  :   722
 total energy-change (2. order) : 0.3111790E+00  (-0.2140987E-01)
 number of electron     559.9999846 magnetization 
 augmentation part      241.1925688 magnetization 

 Broyden mixing:
  rms(total) = 0.99614E+00    rms(broyden)= 0.99599E+00
  rms(prec ) = 0.11536E+01
  weight for this iteration     100.00

 eigenvalues of (default mixing * dielectric matrix)
  average eigenvalue GAMMA=   0.3160
  1.8534  1.1124  0.4250  0.4250  0.2201  0.2201  0.1157  0.1157  0.0928  0.0928
  0.0850  0.0759  0.0759  0.0549  0.0454  0.0454

 Free energy of the ion-electron system (eV)
  ---------------------------------------------------
  alpha Z        PSCENC =        75.25431677
  Ewald energy   TEWEN  =    136963.23867602
  -Hartree energ DENC   =   -181149.68528769
  -exchange      EXHF   =         0.00000000
  -V(xc)+E(xc)   XCENC  =     -1694.93594634
  PAW double counting   =     46085.13714649   -42557.59523366
  entropy T*S    EENTRO =        -0.01616089
  eigenvalues    EBANDS =     -2982.13318359
  atomic energy  EATOM  =     45086.50549395
  Solvation  Ediel_sol  =         0.00000000
  ---------------------------------------------------
  free energy    TOTEN  =      -174.23017894 eV

  energy without entropy =     -174.21401806  energy(sigma->0) =     -174.22613872


--------------------------------------------------------------------------------------------------------




--------------------------------------- Iteration      1(  22)  ---------------------------------------


    POTLOK:  cpu time   13.1429: real time   13.1449
    SETDIJ:  cpu time    0.1173: real time    0.1173
    EDDIAG:  cpu time   81.2320: real time   81.2348
  RMM-DIIS:  cpu time  192.9202: real time  192.9289
    ORTHCH:  cpu time   21.7851: real time   21.7855
       DOS:  cpu time    0.0016: real time    0.0016
    CHARGE:  cpu time   26.3157: real time   26.3162
    MIXING:  cpu time    1.0832: real time    1.0832
    --------------------------------------------
      LOOP:  cpu time  336.5979: real time  336.6124

 eigenvalue-minimisations  :   715
 total energy-change (2. order) : 0.7988688E-01  (-0.2267823E-01)
 number of electron     559.9999859 magnetization 
 augmentation part      241.1782098 magnetization 

 Broyden mixing:
  rms(total) = 0.88860E+00    rms(broyden)= 0.88848E+00
  rms(prec ) = 0.10435E+01
  weight for this iteration     100.00

 eigenvalues of (default mixing * dielectric matrix)
  average eigenvalue GAMMA=   0.3256
  2.0521  1.1153  0.4780  0.4780  0.2486  0.2486  0.1191  0.1191  0.1054  0.1054
  0.0917  0.0917  0.0712  0.0712  0.0460  0.0468  0.0468

 Free energy of the ion-electron system (eV)
  ---------------------------------------------------
  alpha Z        PSCENC =        75.25431677
  Ewald energy   TEWEN  =    136963.23867602
  -Hartree energ DENC   =   -181163.30703090
  -exchange      EXHF   =         0.00000000
  -V(xc)+E(xc)   XCENC  =     -1694.80489331
  PAW double counting   =     46090.69244625   -42562.45489014
  entropy T*S    EENTRO =        -0.01417465
  eigenvalues    EBANDS =     -2969.26023606
  atomic energy  EATOM  =     45086.50549395
  Solvation  Ediel_sol  =         0.00000000
  ---------------------------------------------------
  free energy    TOTEN  =      -174.15029207 eV

  energy without entropy =     -174.13611742  energy(sigma->0) =     -174.14674841


--------------------------------------------------------------------------------------------------------




--------------------------------------- Iteration      1(  23)  ---------------------------------------


    POTLOK:  cpu time   13.1516: real time   13.1540
    SETDIJ:  cpu time    0.1174: real time    0.1174
    EDDIAG:  cpu time   81.2510: real time   81.2538
  RMM-DIIS:  cpu time  193.1333: real time  193.1417
    ORTHCH:  cpu time   21.7960: real time   21.7965
       DOS:  cpu time    0.0016: real time    0.0016
    CHARGE:  cpu time   26.3752: real time   26.3758
    MIXING:  cpu time    1.1377: real time    1.1377
    --------------------------------------------
      LOOP:  cpu time  336.9639: real time  336.9784

 eigenvalue-minimisations  :   715
 total energy-change (2. order) : 0.8082779E-01  (-0.2490940E-01)
 number of electron     559.9999861 magnetization 
 augmentation part      241.1905712 magnetization 

 Broyden mixing:
  rms(total) = 0.76512E+00    rms(broyden)= 0.76494E+00
  rms(prec ) = 0.88421E+00
  weight for this iteration     100.00

 eigenvalues of (default mixing * dielectric matrix)
  average eigenvalue GAMMA=   0.3240
  2.1691  1.1809  0.4020  0.4020  0.3925  0.1973  0.1973  0.1166  0.1166  0.1226
[...]
 -0.006  -0.012   0.004   0.004   0.005  -0.006  -0.011   0.004
 -0.011  -0.020   0.006   0.007   0.009  -0.010  -0.019   0.006
 -0.015  -0.005   0.013   0.000   0.022  -0.014  -0.005   0.012
  0.000  -0.023  -0.006  -0.015  -0.000   0.000  -0.022  -0.006
 -0.022   0.000   0.009  -0.005  -0.016  -0.022   0.000   0.008
 -0.018  -0.006   0.015   0.000   0.027  -0.017  -0.006   0.015
  0.000  -0.027  -0.007  -0.018   0.000   0.000  -0.027  -0.007
 -0.027   0.000   0.010  -0.006  -0.019  -0.026   0.000   0.010
 total augmentation occupancy for first ion, spin component:           1
  1.537  -0.030   0.006   0.017   0.024   0.076  -0.008  -0.002   0.035  -0.010   0.092  -0.030   0.012   0.002   0.002  -0.019
 -0.030   1.401   0.027   0.070   0.000  -0.007   0.071   0.011  -0.014  -0.008   0.215  -0.065   0.019   0.002   0.002  -0.006
  0.006   0.027   1.544   0.001   0.002  -0.002   0.013   0.073  -0.012   0.017  -0.053   0.018  -0.003  -0.006  -0.005   0.016
  0.017   0.070   0.001   1.338   0.044   0.033  -0.014  -0.012   0.091  -0.022  -0.081   0.021  -0.001  -0.008  -0.003   0.001
  0.024   0.000   0.002   0.044   1.440  -0.010  -0.009   0.016  -0.022   0.067  -0.095   0.031  -0.002  -0.010  -0.009   0.026
  0.076  -0.007  -0.002   0.033  -0.010   0.217   0.018  -0.002  -0.045   0.004  -0.048   0.002   0.017  -0.010   0.034  -0.004
 -0.008   0.071   0.013  -0.014  -0.009   0.018   0.262  -0.023  -0.003   0.006  -0.109   0.007  -0.001   0.051  -0.010  -0.000
 -0.002   0.011   0.073  -0.012   0.016  -0.002  -0.023   0.215   0.014  -0.020   0.028  -0.001  -0.012   0.009  -0.018   0.003
  0.035  -0.014  -0.012   0.091  -0.022  -0.045  -0.003   0.014   0.260   0.007   0.043  -0.004  -0.009   0.036   0.004   0.000
 -0.010  -0.008   0.017  -0.022   0.067   0.004   0.006  -0.020   0.007   0.258   0.046  -0.002  -0.038   0.002   0.049   0.007
  0.092   0.215  -0.053  -0.081  -0.095  -0.048  -0.109   0.028   0.043   0.046   0.951  -0.141   0.084   0.014   0.064  -0.013
 -0.030  -0.065   0.018   0.021   0.031   0.002   0.007  -0.001  -0.004  -0.002  -0.141   0.023  -0.014  -0.003  -0.010   0.003
  0.012   0.019  -0.003  -0.001  -0.002   0.017  -0.001  -0.012  -0.009  -0.038   0.084  -0.014   0.029  -0.008  -0.004  -0.003
  0.002   0.002  -0.006  -0.008  -0.010  -0.010   0.051   0.009   0.036   0.002   0.014  -0.003  -0.008   0.036   0.004   0.000
  0.002   0.002  -0.005  -0.003  -0.009   0.034  -0.010  -0.018   0.004   0.049   0.064  -0.010  -0.004   0.004   0.035  -0.000
 -0.019  -0.006   0.016   0.001   0.026  -0.004  -0.000   0.003   0.000   0.007  -0.013   0.003  -0.003   0.000  -0.000   0.001
  0.001  -0.028  -0.007  -0.018   0.001   0.001  -0.008  -0.002  -0.006  -0.000  -0.003   0.001   0.000  -0.003  -0.000   0.000
 -0.028   0.001   0.012  -0.005  -0.019  -0.006   0.001   0.003  -0.001  -0.007  -0.008   0.001  -0.000  -0.000  -0.003   0.000


------------------------ aborting loop because EDIFF is reached ----------------------------------------


    CHARGE:  cpu time   29.4650: real time   29.4656
    FORLOC:  cpu time    6.8461: real time    6.8463
    FORNL :  cpu time   74.7970: real time   74.7987
    STRESS:  cpu time  264.7734: real time  264.7792
    FORCOR:  cpu time   25.7470: real time   25.7479
    FORHAR:  cpu time   10.6022: real time   10.6026
    MIXING:  cpu time    4.7322: real time    4.7323
    OFIELD:  cpu time    0.0001: real time    0.0000

  FORCE on cell =-STRESS in cart. coord.  units (eV):
  Direction    XX          YY          ZZ          XY          YZ          ZX
  --------------------------------------------------------------------------------------
  Alpha Z    75.25432    75.25432    75.25432
  Ewald   43917.29163 48459.17550 44586.66608  1098.34034 -1535.43758  -638.50606
  Hartree 58807.00322 63092.64619 59441.76313  1005.50086 -1407.00466  -586.92736
  E(xc)   -2904.59855 -2903.22337 -2904.38426     0.51339    -0.74803    -0.28191
  Local  ************************************ -2095.71367  2930.67041  1220.93660
  n-local  -882.28909  -890.50037  -883.50344    -3.19894     4.42837     1.73293
  augment  4104.18751  4103.18058  4103.93881    -0.28757     0.44780     0.27937
  Kinetic  7808.00186  7794.75776  7805.86824    -4.85009     7.19690     2.64305
  Fock        0.00000     0.00000     0.00000     0.00000     0.00000     0.00000
  -------------------------------------------------------------------------------------
  Total    -113.72575  -112.84295  -113.66552     0.30431    -0.44679    -0.12339
  in kB      -6.74847    -6.69609    -6.74490     0.01806    -0.02651    -0.00732
  external pressure =       -6.73 kB  Pullay stress =        0.00 kB


 VOLUME and BASIS-vectors are now :
 -----------------------------------------------------------------------------
  energy-cutoff  :      400.00
  volume of cell :    27000.00
      direct lattice vectors                 reciprocal lattice vectors
    30.000000000  0.000000000  0.000000000     0.033333333  0.000000000  0.000000000
     0.000000000 30.000000000  0.000000000     0.000000000  0.033333333  0.000000000
     0.000000000  0.000000000 30.000000000     0.000000000  0.000000000  0.033333333

  length of vectors
    30.000000000 30.000000000 30.000000000     0.033333333  0.033333333  0.033333333


 FORCES acting on ions
    electron-ion (+dipol)            ewald-force                    non-local-force                 convergence-correction
 -----------------------------------------------------------------------------------------------
   0.390E+03 0.959E+03 0.439E+03   -.388E+03 -.956E+03 -.438E+03   -.149E+01 -.182E+01 -.231E+00   -.133E-02 -.903E-03 -.345E-02
   -.973E+03 -.397E+03 0.418E+03   0.970E+03 0.395E+03 -.418E+03   0.181E+01 0.150E+01 -.226E+00   -.843E-03 0.503E-02 0.589E-02
   -.403E+03 0.963E+03 0.430E+03   0.401E+03 -.960E+03 -.430E+03   0.150E+01 -.181E+01 -.235E+00   0.150E-02 0.358E-04 -.121E-02
   0.972E+03 -.399E+03 0.420E+03   -.969E+03 0.397E+03 -.420E+03   -.182E+01 0.149E+01 -.217E+00   -.510E-02 0.316E-04 -.171E-02
   -.318E+01 0.580E+03 0.973E+03   0.318E+01 -.579E+03 -.969E+03   0.148E-02 -.314E+00 -.234E+01   -.885E-03 0.228E-02 -.470E-02
   -.239E+02 0.545E+03 -.971E+03   0.240E+02 -.544E+03 0.967E+03   -.372E-01 -.341E+00 0.231E+01   0.522E-02 -.112E-02 0.232E-02
   -.294E+02 0.112E+04 0.439E+02   0.295E+02 -.111E+04 -.439E+02   -.220E-01 -.307E+01 0.274E-01   0.239E-02 -.162E-02 0.299E-02
   0.114E+04 -.994E+01 0.527E+01   -.113E+04 0.994E+01 -.527E+01   -.311E+01 -.858E-03 0.585E-03   -.373E-02 0.171E-02 -.509E-03
   -.114E+04 -.391E+01 0.219E+01   0.113E+04 0.391E+01 -.220E+01   0.311E+01 0.103E-02 0.126E-02   -.154E-02 0.762E-03 0.546E-02
   -.129E+01 -.113E+04 0.188E+01   0.129E+01 0.113E+04 -.188E+01   -.614E-03 0.311E+01 0.366E-02   0.443E-02 -.221E-02 0.197E-03
   -.582E+03 0.574E+03 0.817E+03   0.580E+03 -.571E+03 -.814E+03   0.155E+01 -.156E+01 -.220E+01   -.132E-03 -.912E-03 -.186E-02
   -.595E+03 0.564E+03 -.814E+03   0.592E+03 -.561E+03 0.810E+03   0.156E+01 -.155E+01 0.220E+01   0.882E-04 0.193E-02 -.285E-02
   0.578E+03 -.580E+03 0.815E+03   -.575E+03 0.578E+03 -.811E+03   -.155E+01 0.156E+01 -.220E+01   -.249E-02 -.394E-03 -.224E-02
   0.578E+03 -.584E+03 -.812E+03   -.576E+03 0.582E+03 0.809E+03   -.156E+01 0.155E+01 0.220E+01   -.191E-03 0.115E-02 -.129E-02
   0.578E+03 0.571E+03 0.822E+03   -.576E+03 -.569E+03 -.818E+03   -.156E+01 -.156E+01 -.220E+01   -.164E-02 0.185E-02 -.373E-02
   0.586E+03 0.520E+03 -.821E+03   -.583E+03 -.518E+03 0.818E+03   -.152E+01 -.157E+01 0.214E+01   0.119E-02 0.162E-03 0.377E-02
   -.579E+03 -.579E+03 0.814E+03   0.577E+03 0.577E+03 -.810E+03   0.156E+01 0.155E+01 -.220E+01   -.127E-02 0.520E-02 0.447E-02
   -.581E+03 -.582E+03 -.812E+03   0.578E+03 0.579E+03 0.809E+03   0.156E+01 0.156E+01 0.220E+01   0.138E-02 -.760E-04 -.375E-02
   0.357E+03 0.868E+03 -.364E+03   -.355E+03 -.865E+03 0.363E+03   -.149E+01 -.187E+01 0.305E+00   0.408E-02 -.703E-03 0.504E-02
   -.974E+03 -.398E+03 -.415E+03   0.971E+03 0.396E+03 0.414E+03   0.182E+01 0.149E+01 0.225E+00   -.765E-03 -.156E-02 -.184E-02
   -.326E+03 0.313E+03 0.460E+03   0.326E+03 -.313E+03 -.461E+03   -.377E+00 0.359E+00 0.538E+00   0.140E-02 0.236E-02 -.155E-02
   0.974E+03 0.384E+03 0.425E+03   -.971E+03 -.382E+03 -.425E+03   -.181E+01 -.150E+01 -.216E+00   -.459E-02 0.147E-02 -.381E-02
   -.395E+03 -.972E+03 0.418E+03   0.393E+03 0.969E+03 -.417E+03   0.150E+01 0.182E+01 -.224E+00   0.326E-02 0.164E-02 0.651E-02
   -.430E+03 0.945E+03 -.403E+03   0.428E+03 -.942E+03 0.402E+03   0.144E+01 -.183E+01 0.220E+00   0.363E-02 0.232E-02 0.543E-02
   0.973E+03 -.404E+03 -.414E+03   -.970E+03 0.402E+03 0.413E+03   -.182E+01 0.149E+01 0.225E+00   -.232E-02 0.264E-02 0.152E-02
   -.975E+03 0.389E+03 0.420E+03   0.972E+03 -.387E+03 -.419E+03   0.182E+01 -.150E+01 -.221E+00   0.301E-02 0.101E-02 0.417E-02
   0.393E+03 -.972E+03 0.418E+03   -.391E+03 0.969E+03 -.418E+03   -.149E+01 0.182E+01 -.226E+00   0.663E-02 0.491E-02 0.488E-02
   0.319E+03 0.310E+03 0.463E+03   -.319E+03 -.310E+03 -.464E+03   0.368E+00 0.375E+00 0.517E+00   -.450E-03 -.812E-03 -.779E-02
   -.123E+02 0.616E+03 0.183E+02   0.123E+02 -.617E+03 -.183E+02   0.467E-01 0.748E+00 -.669E-01   0.490E-02 -.114E-02 0.390E-02
   -.588E+03 -.347E+01 0.967E+03   0.588E+03 0.346E+01 -.963E+03   0.315E+00 0.954E-02 -.234E+01   -.203E-02 0.258E-02 0.691E-03
   -.593E+03 -.887E+01 -.964E+03   0.592E+03 0.888E+01 0.961E+03   0.312E+00 -.277E-02 0.234E+01   0.366E-02 -.207E-02 -.396E-02
   0.586E+03 -.520E+01 0.969E+03   -.585E+03 0.521E+01 -.965E+03   -.308E+00 -.308E-02 -.234E+01   -.186E-02 -.112E-02 -.415E-02
   0.588E+03 -.187E+02 -.965E+03   -.587E+03 0.187E+02 0.962E+03   -.315E+00 0.148E-01 0.234E+01   -.154E-02 0.209E-02 0.193E-02
   0.764E+03 0.732E+03 0.235E+02   -.762E+03 -.730E+03 -.235E+02   -.115E+01 -.116E+01 0.110E-01   -.412E-02 -.189E-02 -.440E-03
   -.762E+03 -.763E+03 0.196E+01   0.760E+03 0.761E+03 -.196E+01   0.114E+01 0.114E+01 -.133E-03   -.182E-02 0.383E-02 0.307E-03
   -.771E+03 0.750E+03 0.797E+01   0.769E+03 -.748E+03 -.797E+01   0.115E+01 -.113E+01 -.479E-02   0.346E-02 0.228E-02 0.696E-02
   0.760E+03 -.765E+03 0.281E+01   -.758E+03 0.763E+03 -.281E+01   -.114E+01 0.114E+01 -.213E-02   -.325E-03 0.505E-02 0.343E-02
   -.176E+01 -.467E+01 0.107E+04   0.177E+01 0.467E+01 -.107E+04   -.123E-02 0.206E-02 -.161E+01   -.803E-03 -.181E-03 -.392E-02
   -.559E+01 -.160E+02 -.107E+04   0.559E+01 0.160E+02 0.107E+04   0.498E-02 0.120E-01 0.161E+01   0.329E-02 -.120E-02 0.694E-03
   0.979E+03 0.370E+03 -.410E+03   -.976E+03 -.367E+03 0.409E+03   -.182E+01 -.149E+01 0.224E+00   -.433E-02 0.211E-02 0.229E-02
   -.396E+03 -.972E+03 -.415E+03   0.394E+03 0.970E+03 0.414E+03   0.149E+01 0.182E+01 0.218E+00   0.643E-03 0.771E-03 -.626E-02
   -.332E+03 0.304E+03 -.448E+03   0.333E+03 -.304E+03 0.449E+03   -.358E+00 0.380E+00 -.523E+00   0.775E-02 -.152E-02 0.525E-02
   0.320E+03 -.326E+03 0.457E+03   -.320E+03 0.327E+03 -.458E+03   0.370E+00 -.367E+00 0.523E+00   0.192E-02 0.355E-02 -.309E-02
   0.316E+03 0.291E+03 -.445E+03   -.316E+03 -.291E+03 0.446E+03   0.353E+00 0.435E+00 -.501E+00   0.297E-02 -.530E-03 0.643E-02
   -.979E+03 0.386E+03 -.414E+03   0.976E+03 -.384E+03 0.413E+03   0.181E+01 -.149E+01 0.225E+00   0.678E-03 0.191E-02 0.192E-02
   0.393E+03 -.973E+03 -.415E+03   -.391E+03 0.970E+03 0.414E+03   -.149E+01 0.182E+01 0.219E+00   0.392E-02 0.213E-02 -.317E-02
   -.323E+03 -.325E+03 0.456E+03   0.324E+03 0.326E+03 -.457E+03   -.364E+00 -.369E+00 0.519E+00   0.405E-02 0.835E-02 0.265E-02
   0.639E+03 -.133E+02 0.697E+01   -.640E+03 0.133E+02 -.697E+01   0.730E+00 0.763E-02 -.626E-02   -.702E-02 0.337E-02 0.153E-02
   -.643E+03 -.708E+01 0.381E+01   0.644E+03 0.708E+01 -.382E+01   -.734E+00 -.573E-02 0.381E-02   0.504E-02 0.457E-02 0.581E-02
   -.108E+01 -.588E+03 0.966E+03   0.107E+01 0.587E+03 -.963E+03   -.278E-02 0.314E+00 -.234E+01   0.518E-02 0.198E-02 0.155E-02
   -.210E+01 -.591E+03 -.964E+03   0.210E+01 0.591E+03 0.960E+03   0.404E-05 0.308E+00 0.234E+01   0.132E-02 0.267E-02 -.291E-02
   -.417E+01 -.117E+02 0.617E+01   0.416E+01 0.117E+02 -.617E+01   -.901E-03 0.653E-03 -.102E-02   0.777E-02 0.467E-02 0.290E-02
   0.319E+03 -.331E+03 -.450E+03   -.320E+03 0.332E+03 0.451E+03   0.371E+00 -.389E+00 -.522E+00   0.102E-02 0.691E-02 0.247E-02
   -.325E+03 -.328E+03 -.451E+03   0.325E+03 0.329E+03 0.452E+03   -.371E+00 -.375E+00 -.521E+00   0.575E-02 0.432E-02 -.163E-02
   -.180E+01 -.642E+03 0.263E+01   0.180E+01 0.643E+03 -.264E+01   -.600E-04 -.726E+00 0.390E-02   0.817E-02 0.999E-02 0.201E-02
   0.497E+02 0.105E+03 -.515E+02   -.415E+02 -.805E+02 0.392E+02   -.734E+01 -.223E+02 0.110E+02   0.231E-04 -.659E-03 0.102E-02
   0.191E+03 0.522E+03 -.266E+03   -.209E+03 -.576E+03 0.293E+03   0.173E+02 0.523E+02 -.258E+02   -.410E-04 -.269E-03 0.808E-03
 -----------------------------------------------------------------------------------------------
   -.999E+01 -.301E+02 0.147E+02   0.767E-12 -.114E-11 -.119E-11   0.994E+01 0.300E+02 -.148E+02   0.585E-01 0.887E-01 0.354E-01
 
 
 POSITION                                       TOTAL-FORCE (eV/Angst)
 -----------------------------------------------------------------------------------
     13.37281      9.84801     12.50759         0.703001      1.108239      0.290592
     20.15199     16.62719     12.50759        -1.107979     -0.704955      0.294751
     16.62719      9.84801     12.50759        -0.705486      1.105412      0.297412
      9.84801     16.62719     12.50759         1.108686     -0.704351      0.290302
     15.00000     11.47521     10.20639        -0.000483      0.414395      1.281794
     15.00000     11.47521     19.79360         0.018497      0.442581     -1.269178
     15.00000      8.28283     15.00000         0.016939      1.521787     -0.021707
      8.28283     15.00000     15.00000         1.517675      0.000656     -0.000875
     21.71717     15.00000     15.00000        -1.517433     -0.000256     -0.000805
     15.00000     21.71717     15.00000        -0.000058     -1.516412     -0.000834
     18.35858     11.64142     10.25025        -0.755086      0.760944      1.072539
     18.35858     11.64142     19.74975        -0.761185      0.753277     -1.072808
     11.64142     18.35858     10.25025         0.753914     -0.758732      1.072637
     11.64142     18.35858     19.74975         0.759215     -0.752931     -1.074530
     11.64142     11.64142     10.25025         0.756303      0.757815      1.072671
     11.64142     11.64142     19.74975         0.749737      0.783989     -1.061057
     18.35858     18.35858     10.25025        -0.756887     -0.754903      1.072009
     18.35858     18.35858     19.74975        -0.757500     -0.755945     -1.072487
     13.37281      9.84801     17.49241         0.513454      0.630933     -0.070966
     20.15199     16.62719     17.49241        -1.107994     -0.702876     -0.292263
     16.73751     13.26249     12.54279         0.119689     -0.108106     -0.165287
      9.84801     13.37281     12.50759         1.109279      0.710029      0.288387
     16.62719     20.15199     12.50759        -0.703573     -1.108663      0.292518
     16.62719      9.84801     17.49241        -0.673036      1.122824     -0.299932
      9.84801     16.62719     17.49241         1.108570     -0.704218     -0.292479
     20.15199     13.37281     12.50759        -1.107838      0.703354      0.290417
     13.37281     20.15199     12.50759         0.703769     -1.108449      0.292731
     13.26249     13.26249     12.54279        -0.113222     -0.115018     -0.156168
     15.00000     11.52498     15.00000        -0.016906     -0.232717      0.027283
     18.52479     15.00000     10.20639        -0.415303     -0.004815      1.280767
     18.52479     15.00000     19.79360        -0.414132      0.001507     -1.281287
     11.47521     15.00000     10.20640         0.412409      0.001255      1.281959
     11.47521     15.00000     19.79360         0.415334     -0.006958     -1.280254
     11.49535     11.49535     15.00000         0.830351      0.843665     -0.009201
     18.50465     18.50465     15.00000        -0.829866     -0.829469     -0.000028
     18.50465     11.49535     15.00000        -0.830847      0.827274      0.004615
     11.49535     18.50465     15.00000         0.828595     -0.828534      0.000155
     15.00000     15.00000     10.04368        -0.000173     -0.000149      1.178272
     15.00000     15.00000     19.95633         0.001534     -0.004653     -1.178101
      9.84801     13.37281     17.49241         1.106372      0.704874     -0.292332
     16.62719     20.15199     17.49241        -0.702719     -1.110373     -0.290734
     16.73751     13.26249     17.45721         0.109542     -0.113122      0.156516
     13.26249     16.73751     12.54279        -0.113515      0.113036     -0.159004
     13.26249     13.26249     17.45721        -0.103015     -0.130875      0.146183
     20.15199     13.37281     17.49241        -1.108135      0.704757     -0.293284
     13.37281     20.15199     17.49241         0.700420     -1.111520     -0.289364
     16.73751     16.73751     12.54279         0.110675      0.114369     -0.156302
     11.52498     15.00000     15.00000        -0.230766     -0.002601      0.001429
     18.47502     15.00000     15.00000         0.230029      0.000010     -0.000927
     15.00000     18.52480     10.20639         0.000311     -0.414413      1.281616
     15.00000     18.52480     19.79360        -0.001218     -0.412377     -1.280705
     15.00000     15.00000     15.00000        -0.001007     -0.006979      0.004611
     13.26249     16.73751     17.45721        -0.111558      0.124125      0.159518
     16.73751     16.73751     17.45721         0.111536      0.112932      0.157902
     15.00000     18.47502     15.00000         0.001089      0.229837     -0.002331
     12.48262      7.37776     18.75988         0.846681      2.558094     -1.284757
     12.16227      6.40779     19.23835        -0.696684     -2.146599      1.060400
 -----------------------------------------------------------------------------------
    total drift:                                0.006844     -0.001928     -0.005298


--------------------------------------------------------------------------------------------------------



  FREE ENERGIE OF THE ION-ELECTRON SYSTEM (eV)
  ---------------------------------------------------
  free  energy   TOTEN  =      -173.72596315 eV

  energy  without entropy=     -173.61441322  energy(sigma->0) =     -173.69807566
 


--------------------------------------------------------------------------------------------------------


    POTLOK:  cpu time   16.0311: real time   16.0317


--------------------------------------------------------------------------------------------------------


     LOOP+:  cpu time21926.0000: real time21927.1408
    4ORBIT:  cpu time    0.0000: real time    0.0000

 total amount of memory used by VASP MPI-rank0  5486941. kBytes
=======================================================================

   base      :      30000. kBytes
   nonlr-proj:      17126. kBytes
   fftplans  :     924480. kBytes
   grid      :    1872000. kBytes
   one-center:        886. kBytes
   wavefun   :    2642449. kBytes
 
  
  
 General timing and accounting informations for this job:
 ========================================================
  
                  Total CPU time used (sec):    22011.225
                            User time (sec):    20676.828
                          System time (sec):     1334.396
                         Elapsed time (sec):    22012.402
  
                   Maximum memory used (kb):     7188212.
                   Average memory used (kb):           0.
  
                          Minor page faults:    826164237
                          Major page faults:            0
                 Voluntary context switches:          711
