<?xml version="1.0" encoding="ISO-8859-1"?>
<modeling>
 <generator>
  <i name="program" type="string">vasp </i>
  <i name="version" type="string">5.4.4.18Apr17-6-g9f103f2a35  </i>
  <i name="subversion" type="string">(build Sep 03 2018 23:53:05) complex            parallel </i>
  <i name="platform" type="string">LinuxIFC </i>
  <i name="date" type="string">2021 11 30 </i>
  <i name="time" type="string">15:12:32 </i>
 </generator>
 <incar>
  <i type="string" name="SYSTEM"> 6_Pd100_top_free_z(O)</i>
  <i type="int" name="ISTART">     0</i>
  <i type="string" name="PREC">normal   			! encut=max(enmax), ngx,y,z</i>
  <i type="string" name="ALGO"> Fast     			! Mix RMM-DIIS and Dav</i>
  <i type="logical" name="ADDGRID"> F  </i>
  <i type="int" name="ISPIN">     1</i>
  <i type="int" name="ICHARG">     2</i>
  <i type="int" name="NELM">   100</i>
  <i type="int" name="NELMIN">     6</i>
  <i type="int" name="IBRION">     2</i>
  <i name="EDIFF">      0.00010000</i>
  <i name="EDIFFG">     -0.05000000</i>
  <i type="int" name="NSW">     0</i>
  <i type="int" name="ISIF">     2</i>
  <i type="int" name="ISYM">     2</i>
  <i name="ENCUT">    400.00000000</i>
  <i type="string" name="LREAL"> Auto     			! Auto or A projection done</i>
  <i type="int" name="ISMEAR">     2</i>
  <i name="SIGMA">      0.20000000</i>
  <i type="logical" name="LWAVE"> F  </i>
  <i type="logical" name="LCHARG"> F  </i>
  <v type="int" name="KPOINT_BSE">    -1     0     0     0</v>
  <i type="int" name="MAXMEM"> 10000</i>
  <i type="int" name="NELM">   100</i>
  <i type="string" name="GGA"> RP         			! Revised PBE</i>
 </incar>
 <structure name="primitive_cell" >
  <crystal>
   <varray name="basis" >
    <v>      30.00000000       0.00000000       0.00000000 </v>
    <v>       0.00000000      30.00000000       0.00000000 </v>
    <v>       0.00000000       0.00000000      30.00000000 </v>
   </varray>
   <i name="volume">  27000.00000000 </i>
   <varray name="rec_basis" >
    <v>       0.03333333       0.00000000       0.00000000 </v>
    <v>       0.00000000       0.03333333       0.00000000 </v>
    <v>       0.00000000       0.00000000       0.03333333 </v>
   </varray>
  </crystal>
  <varray name="positions" >
   <v>       0.44576020       0.32826710       0.41691983 </v>
   <v>      -0.44576020       0.32826710       0.41691983 </v>
   <v>      -0.50000000       0.38250690       0.34021317 </v>
   <v>      -0.50000000       0.27609440      -0.50000000 </v>
   <v>       0.38804720       0.38804720       0.34167483 </v>
   <v>      -0.50000000       0.38416601      -0.50000000 </v>
   <v>       0.44208300       0.44208300       0.41809300 </v>
   <v>       0.38317830       0.38317830      -0.50000000 </v>
   <v>      -0.44208300       0.44208300       0.41809300 </v>
   <v>       0.44576020       0.32826710      -0.41691977 </v>
   <v>       0.32826705       0.44576024       0.41691983 </v>
   <v>      -0.38804720       0.38804720       0.34167483 </v>
   <v>      -0.38317830       0.38317830      -0.50000000 </v>
   <v>      -0.50000000      -0.50000000       0.33478917 </v>
   <v>      -0.50000000      -0.50000000      -0.50000000 </v>
   <v>      -0.44576020       0.32826710      -0.41691977 </v>
   <v>       0.38250685      -0.49999995       0.34021317 </v>
   <v>       0.44208300       0.44208300      -0.41809297 </v>
   <v>       0.38416599      -0.49999998      -0.50000000 </v>
   <v>       0.45243167      -0.47941533       0.31053693 </v>
   <v>      -0.44208300       0.44208300      -0.41809297 </v>
   <v>       0.44208298      -0.44208298       0.41809300 </v>
   <v>       0.32826705       0.44576024      -0.41691977 </v>
   <v>       0.44332603      -0.47547500       0.27426960 </v>
   <v>      -0.50000000       0.38250690      -0.34021320 </v>
   <v>       0.32826712      -0.44576022       0.41691983 </v>
   <v>      -0.38250685      -0.49999995       0.34021317 </v>
   <v>      -0.32826705       0.44576024       0.41691983 </v>
   <v>       0.27609443       0.49999998      -0.50000000 </v>
   <v>       0.38804720       0.38804720      -0.34167487 </v>
   <v>      -0.38416599      -0.49999998      -0.50000000 </v>
   <v>      -0.44208298      -0.44208298       0.41809300 </v>
   <v>       0.44208298      -0.44208298      -0.41809297 </v>
   <v>      -0.38804720       0.38804720      -0.34167487 </v>
   <v>       0.38804722      -0.38804722       0.34167483 </v>
   <v>       0.38250685      -0.49999995      -0.34021320 </v>
   <v>       0.32826712      -0.44576022      -0.41691977 </v>
   <v>      -0.32826705       0.44576024      -0.41691977 </v>
   <v>       0.50000000      -0.38250681       0.34021317 </v>
   <v>      -0.50000000      -0.38416596      -0.50000000 </v>
   <v>      -0.44208298      -0.44208298      -0.41809297 </v>
   <v>      -0.50000000      -0.50000000      -0.33478913 </v>
   <v>       0.38317828      -0.38317828      -0.50000000 </v>
   <v>      -0.32826712      -0.44576022       0.41691983 </v>
   <v>      -0.27609443       0.49999998      -0.50000000 </v>
   <v>      -0.38804722      -0.38804722       0.34167483 </v>
   <v>      -0.38250685      -0.49999995      -0.34021320 </v>
   <v>       0.44576027      -0.32826707       0.41691983 </v>
   <v>      -0.38317828      -0.38317828      -0.50000000 </v>
   <v>      -0.32826712      -0.44576022      -0.41691977 </v>
   <v>      -0.44576027      -0.32826707       0.41691983 </v>
   <v>       0.38804722      -0.38804722      -0.34167487 </v>
   <v>      -0.50000000      -0.38250681      -0.34021320 </v>
   <v>       0.44576027      -0.32826707      -0.41691977 </v>
   <v>      -0.44576027      -0.32826707      -0.41691977 </v>
   <v>      -0.50000000      -0.27609445       0.50000000 </v>
   <v>      -0.38804722      -0.38804722      -0.34167487 </v>
  </varray>
 </structure>
 <varray name="primitive_index" >
  <v type="int" >        1 </v>
  <v type="int" >        3 </v>
  <v type="int" >        5 </v>
  <v type="int" >        7 </v>
  <v type="int" >       15 </v>
  <v type="int" >       29 </v>
  <v type="int" >       28 </v>
  <v type="int" >       34 </v>
  <v type="int" >       21 </v>
  <v type="int" >       19 </v>
  <v type="int" >       22 </v>
  <v type="int" >       11 </v>
  <v type="int" >       36 </v>
  <v type="int" >       38 </v>
  <v type="int" >       52 </v>
  <v type="int" >       24 </v>
  <v type="int" >       32 </v>
  <v type="int" >       44 </v>
  <v type="int" >       48 </v>
  <v type="int" >       56 </v>
  <v type="int" >       42 </v>
  <v type="int" >       43 </v>
  <v type="int" >       40 </v>
  <v type="int" >       57 </v>
  <v type="int" >        6 </v>
  <v type="int" >        4 </v>
  <v type="int" >       30 </v>
  <v type="int" >       26 </v>
  <v type="int" >        8 </v>
  <v type="int" >       16 </v>
  <v type="int" >       49 </v>
  <v type="int" >       47 </v>
  <v type="int" >       53 </v>
  <v type="int" >       12 </v>
  <v type="int" >       13 </v>
  <v type="int" >       33 </v>
  <v type="int" >       25 </v>
  <v type="int" >       45 </v>
  <v type="int" >       50 </v>
  <v type="int" >       55 </v>
  <v type="int" >       54 </v>
  <v type="int" >       39 </v>
  <v type="int" >       37 </v>
  <v type="int" >        2 </v>
  <v type="int" >        9 </v>
  <v type="int" >       17 </v>
  <v type="int" >       31 </v>
  <v type="int" >       27 </v>
  <v type="int" >       35 </v>
  <v type="int" >       20 </v>
  <v type="int" >       23 </v>
  <v type="int" >       14 </v>
  <v type="int" >       51 </v>
  <v type="int" >       46 </v>
  <v type="int" >       41 </v>
  <v type="int" >       10 </v>
  <v type="int" >       18 </v>
 </varray>
 <kpoints>
  <generation param="Monkhorst-Pack">
   <v type="int" name="divisions">       1        1        1 </v>
   <v name="usershift">      0.00000000       0.00000000       0.00000000 </v>
   <v name="genvec1">      1.00000000       0.00000000       0.00000000 </v>
   <v name="genvec2">      0.00000000       1.00000000       0.00000000 </v>
   <v name="genvec3">      0.00000000       0.00000000       1.00000000 </v>
   <v name="shift">      0.00000000       0.00000000       0.00000000 </v>
  </generation>
  <varray name="kpointlist" >
   <v>       0.00000000       0.00000000       0.00000000 </v>
  </varray>
  <varray name="weights" >
   <v>       1.00000000 </v>
  </varray>
 </kpoints>
 <parameters>
  <separator name="general" >
   <i type="string" name="SYSTEM">6_Pd100_top_free_z(O)</i>
   <i type="logical" name="LCOMPAT"> F  </i>
  </separator>
  <separator name="electronic" >
   <i type="string" name="PREC">normal</i>
   <i name="ENMAX">    400.00000000</i>
   <i name="ENAUG">    644.87300000</i>
   <i name="EDIFF">      0.00010000</i>
   <i type="int" name="IALGO">    68</i>
   <i type="int" name="IWAVPR">    10</i>
   <i type="int" name="NBANDS">   336</i>
   <i name="NELECT">    560.00000000</i>
   <i type="int" name="TURBO">     0</i>
   <i type="int" name="IRESTART">     0</i>
   <i type="int" name="NREBOOT">     0</i>
   <i type="int" name="NMIN">     0</i>
   <i name="EREF">      0.00000000</i>
   <separator name="electronic smearing" >
    <i type="int" name="ISMEAR">     2</i>
    <i name="SIGMA">      0.20000000</i>
    <i name="KSPACING">      0.50000000</i>
    <i type="logical" name="KGAMMA"> T  </i>
   </separator>
   <separator name="electronic projectors" >
    <i type="logical" name="LREAL"> T  </i>
    <v name="ROPT">     -0.00050000     -0.00050000     -0.00050000</v>
    <i type="int" name="LMAXPAW">  -100</i>
    <i type="int" name="LMAXMIX">     2</i>
    <i type="logical" name="NLSPLINE"> F  </i>
   </separator>
   <separator name="electronic startup" >
    <i type="int" name="ISTART">     0</i>
    <i type="int" name="ICHARG">     2</i>
    <i type="int" name="INIWAV">     1</i>
   </separator>
   <separator name="electronic spin" >
    <i type="int" name="ISPIN">     1</i>
    <i type="logical" name="LNONCOLLINEAR"> F  </i>
    <v name="MAGMOM">      1.00000000      1.00000000      1.00000000      1.00000000      1.00000000      1.00000000      1.00000000      1.00000000      1.00000000      1.00000000      1.00000000      1.00000000      1.00000000      1.00000000      1.00000000      1.00000000      1.00000000      1.00000000      1.00000000      1.00000000
      1.00000000      1.00000000      1.00000000      1.00000000      1.00000000      1.00000000      1.00000000      1.00000000      1.00000000      1.00000000      1.00000000      1.00000000      1.00000000      1.00000000      1.00000000      1.00000000      1.00000000      1.00000000      1.00000000      1.00000000
      1.00000000      1.00000000      1.00000000      1.00000000      1.00000000      1.00000000      1.00000000      1.00000000      1.00000000      1.00000000      1.00000000      1.00000000      1.00000000      1.00000000      1.00000000      1.00000000      1.00000000</v>
    <i name="NUPDOWN">     -1.00000000</i>
    <i type="logical" name="LSORBIT"> F  </i>
    <v name="SAXIS">      0.00000000      0.00000000      1.00000000</v>
    <i type="logical" name="LSPIRAL"> F  </i>
    <v name="QSPIRAL">      0.00000000      0.00000000      0.00000000</v>
    <i type="logical" name="LZEROZ"> F  </i>
   </separator>
   <separator name="electronic exchange-correlation" >
    <i type="logical" name="LASPH"> F  </i>
    <i type="logical" name="LMETAGGA"> F  </i>
   </separator>
   <separator name="electronic convergence" >
    <i type="int" name="NELM">   100</i>
    <i type="int" name="NELMDL">    -5</i>
    <i type="int" name="NELMIN">     6</i>
    <i name="ENINI">    400.00000000</i>
    <separator name="electronic convergence detail" >
     <i type="logical" name="LDIAG"> T  </i>
     <i type="logical" name="LSUBROT"> F  </i>
     <i name="WEIMIN">      0.00000000</i>
     <i name="EBREAK">      0.00000007</i>
     <i name="DEPER">      0.30000000</i>
     <i type="int" name="NRMM">     4</i>
     <i name="TIME">      0.40000000</i>
    </separator>
   </separator>
   <separator name="electronic mixer" >
    <i name="AMIX">      0.40000000</i>
    <i name="BMIX">      1.00000000</i>
    <i name="AMIN">      0.10000000</i>
    <i name="AMIX_MAG">      1.60000000</i>
    <i name="BMIX_MAG">      1.00000000</i>
    <separator name="electronic mixer details" >
     <i type="int" name="IMIX">     4</i>
     <i type="logical" name="MIXFIRST"> F  </i>
     <i type="int" name="MAXMIX">   -45</i>
     <i name="WC">    100.00000000</i>
     <i type="int" name="INIMIX">     1</i>
     <i type="int" name="MIXPRE">     1</i>
     <i type="int" name="MREMOVE">     5</i>
    </separator>
   </separator>
   <separator name="electronic dipolcorrection" >
    <i type="logical" name="LDIPOL"> F  </i>
    <i type="logical" name="LMONO"> F  </i>
    <i type="int" name="IDIPOL">     0</i>
    <i name="EPSILON">      1.00000000</i>
    <v name="DIPOL">   -100.00000000   -100.00000000   -100.00000000</v>
    <i name="EFIELD">      0.00000000</i>
   </separator>
  </separator>
  <separator name="grids" >
   <i type="int" name="NGX">   150</i>
   <i type="int" name="NGY">   150</i>
   <i type="int" name="NGZ">   150</i>
   <i type="int" name="NGXF">   300</i>
   <i type="int" name="NGYF">   300</i>
   <i type="int" name="NGZF">   300</i>
   <i type="logical" name="ADDGRID"> F  </i>
  </separator>
  <separator name="ionic" >
   <i type="int" name="NSW">     0</i>
   <i type="int" name="IBRION">    -1</i>
   <i type="int" name="MDALGO">     0</i>
   <i type="int" name="ISIF">     2</i>
   <i name="PSTRESS">      0.00000000</i>
   <i name="EDIFFG">     -0.05000000</i>
   <i type="int" name="NFREE">     1</i>
   <i name="POTIM">      0.50000000</i>
   <i name="SMASS">     -3.00000000</i>
   <i name="SCALEE">      1.00000000</i>
  </separator>
  <separator name="ionic md" >
   <i name="TEBEG">      0.00010000</i>
   <i name="TEEND">      0.00010000</i>
   <i type="int" name="NBLOCK">     1</i>
   <i type="int" name="KBLOCK">     1</i>
   <i type="int" name="NPACO">   256</i>
   <i name="APACO">     16.00000000</i>
  </separator>
  <separator name="symmetry" >
   <i type="int" name="ISYM">     2</i>
   <i name="SYMPREC">      0.00001000</i>
  </separator>
  <separator name="dos" >
   <i type="int" name="LORBIT">     0</i>
   <v name="RWIGS">     -1.00000000     -1.00000000     -1.00000000</v>
   <i type="int" name="NEDOS">   301</i>
   <i name="EMIN">     10.00000000</i>
   <i name="EMAX">    -10.00000000</i>
   <i name="EFERMI">      0.00000000</i>
  </separator>
  <separator name="writing" >
   <i type="int" name="NWRITE">     2</i>
   <i type="logical" name="LWAVE"> F  </i>
   <i type="logical" name="LDOWNSAMPLE"> F  </i>
   <i type="logical" name="LCHARG"> F  </i>
   <i type="logical" name="LPARD"> F  </i>
   <i type="logical" name="LVTOT"> F  </i>
   <i type="logical" name="LVHAR"> F  </i>
   <i type="logical" name="LELF"> F  </i>
   <i type="logical" name="LOPTICS"> F  </i>
   <v name="STM">      0.00000000      0.00000000      0.00000000      0.00000000      0.00000000      0.00000000      0.00000000</v>
  </separator>
  <separator name="performance" >
   <i type="int" name="NPAR">     1</i>
   <i type="int" name="NSIM">     4</i>
   <i type="int" name="NBLK">    -1</i>
   <i type="logical" name="LPLANE"> T  </i>
   <i type="logical" name="LSCALAPACK"> T  </i>
   <i type="logical" name="LSCAAWARE"> F  </i>
   <i type="logical" name="LSCALU"> F  </i>
   <i type="logical" name="LASYNC"> F  </i>
   <i type="logical" name="LORBITALREAL"> F  </i>
  </separator>
  <separator name="miscellaneous" >
   <i type="int" name="IDIOT">     3</i>
   <i type="int" name="ISPECIAL">     0</i>
   <i type="logical" name="LMUSIC"> F  </i>
   <v name="POMASS">    106.42000000     12.01100000     16.00000000</v>
   <v name="DARWINR">      0.00000000      0.00000000      0.00000000</v>
   <v name="DARWINV">      1.00000000      1.00000000      1.00000000</v>
   <i type="logical" name="LCORR"> T  </i>
  </separator>
  <i type="logical" name="GGA_COMPAT"> T  </i>
  <i type="logical" name="LBERRY"> F  </i>
  <i type="int" name="ICORELEVEL">     0</i>
  <i type="logical" name="LDAU"> F  </i>
  <i type="int" name="I_CONSTRAINED_M">     0</i>
  <separator name="electronic exchange-correlation" >
   <i type="string" name="GGA">RP</i>
   <i type="int" name="VOSKOWN">     0</i>
   <i type="logical" name="LHFCALC"> F  </i>
   <i type="string" name="PRECFOCK"></i>
   <i type="logical" name="LSYMGRAD"> F  </i>
   <i type="logical" name="LHFONE"> F  </i>
   <i type="logical" name="LRHFCALC"> F  </i>
   <i type="logical" name="LTHOMAS"> F  </i>
   <i type="logical" name="LMODELHF"> F  </i>
   <i name="ENCUT4O">     -1.00000000</i>
   <i type="int" name="EXXOEP">     0</i>
   <i type="int" name="FOURORBIT">     0</i>
   <i name="AEXX">      0.00000000</i>
   <i name="HFALPHA">      0.00000000</i>
   <i name="MCALPHA">      0.00000000</i>
   <i name="ALDAX">      1.00000000</i>
   <i name="AGGAX">      1.00000000</i>
   <i name="ALDAC">      1.00000000</i>
   <i name="AGGAC">      1.00000000</i>
   <i type="int" name="NKREDX">     1</i>
   <i type="int" name="NKREDY">     1</i>
   <i type="int" name="NKREDZ">     1</i>
   <i type="logical" name="SHIFTRED"> F  </i>
   <i type="logical" name="ODDONLY"> F  </i>
   <i type="logical" name="EVENONLY"> F  </i>
   <i type="int" name="LMAXFOCK">     0</i>
   <i type="int" name="NMAXFOCKAE">     0</i>
   <i type="logical" name="LFOCKAEDFT"> F  </i>
   <i name="HFSCREEN">      0.00000000</i>
   <i name="HFSCREENC">      0.00000000</i>
   <i type="int" name="NBANDSGWLOW">     0</i>
  </separator>
  <separator name="vdW DFT" >
   <i type="logical" name="LUSE_VDW"> F  </i>
   <i name="Zab_VDW">     -0.84910000</i>
   <i name="PARAM1">      0.12340000</i>
   <i name="PARAM2">      1.00000000</i>
   <i name="PARAM3">      0.00000000</i>
  </separator>
  <separator name="model GW" >
   <i type="int" name="MODEL_GW">     0</i>
   <i name="MODEL_EPS0">    284.21052632</i>
   <i name="MODEL_ALPHA">      1.00000000</i>
  </separator>
  <separator name="linear response parameters" >
   <i type="logical" name="LEPSILON"> F  </i>
   <i type="logical" name="LRPA"> F  </i>
   <i type="logical" name="LNABLA"> F  </i>
   <i type="logical" name="LVEL"> F  </i>
   <i type="int" name="KINTER">     0</i>
   <i name="CSHIFT">      0.10000000</i>
   <i name="OMEGAMAX">     -1.00000000</i>
   <i name="DEG_THRESHOLD">      0.00200000</i>
   <i name="RTIME">     -0.10000000</i>
   <i name="WPLASMAI">      0.00000000</i>
   <v name="DFIELD">      0.00000000      0.00000000      0.00000000</v>
   <v name="WPLASMA">      0.00000000      0.00000000      0.00000000      0.00000000      0.00000000      0.00000000      0.00000000      0.00000000      0.00000000</v>
  </separator>
  <separator name="orbital magnetization" >
   <i type="logical" name="NUCIND"> F  </i>
   <v name="MAGPOS">      0.00000000      0.00000000      0.00000000</v>
   <i type="logical" name="LNICSALL"> T  </i>
   <i type="logical" name="ORBITALMAG"> F  </i>
   <i type="logical" name="LMAGBLOCH"> F  </i>
   <i type="logical" name="LCHIMAG"> F  </i>
   <i type="logical" name="LGAUGE"> T  </i>
   <i type="int" name="MAGATOM">     0</i>
   <v name="MAGDIPOL">      0.00000000      0.00000000      0.00000000</v>
   <v name="AVECCONST">      0.00000000      0.00000000      0.00000000</v>
  </separator>
  <separator name="response functions" >
   <i type="logical" name="LADDER"> F  </i>
   <i type="logical" name="LRPAFORCE"> F  </i>
   <i type="logical" name="LFXC"> F  </i>
   <i type="logical" name="LHARTREE"> T  </i>
   <i type="int" name="IBSE">     0</i>
   <v type="int" name="KPOINT">    -1     0     0     0</v>
   <i type="logical" name="LTCTE"> F  </i>
   <i type="logical" name="LTETE"> F  </i>
   <i type="logical" name="LTRIPLET"> F  </i>
   <i type="logical" name="LFXCEPS"> F  </i>
   <i type="logical" name="LFXHEG"> F  </i>
   <i type="int" name="NATURALO">     2</i>
   <i type="logical" name="L2ORDER"> F  </i>
   <i type="logical" name="LMP2LT"> F  </i>
   <i type="logical" name="LUSEW"> F  </i>
   <i name="ENCUTGW">     -2.00000000</i>
   <i name="ENCUTGWSOFT">     -2.00000000</i>
   <i name="ENCUTLF">     -1.00000000</i>
   <i type="int" name="LMAXMP2">    -1</i>
   <i name="SCISSOR">      0.00000000</i>
   <i type="int" name="NOMEGA">     0</i>
   <i type="int" name="NOMEGAR">     0</i>
   <i type="int" name="NBANDSGW">    -1</i>
   <i type="int" name="NBANDSO">    -1</i>
   <i type="int" name="NBANDSV">    -1</i>
   <i type="int" name="NELM">   100</i>
   <i type="int" name="NELMHF">     1</i>
   <i type="int" name="DIM">     3</i>
   <i type="int" name="ANTIRES">     0</i>
   <i name="OMEGAMAX">    -30.00000000</i>
   <i name="OMEGAMIN">    -30.00000000</i>
   <i name="OMEGATL">   -200.00000000</i>
   <i type="int" name="OMEGAGRID">   140</i>
   <i name="CSHIFT">     -0.10000000</i>
   <i type="logical" name="SELFENERGY"> F  </i>
   <i type="logical" name="LSPECTRAL"> F  </i>
   <i type="logical" name="LSPECTRALGW"> F  </i>
   <i type="logical" name="LSINGLES"> F  </i>
   <i type="logical" name="LFERMIGW"> F  </i>
   <i type="logical" name="ODDONLYGW"> F  </i>
   <i type="logical" name="EVENONLYGW"> F  </i>
   <i type="int" name="NKREDLFX">     1</i>
   <i type="int" name="NKREDLFY">     1</i>
   <i type="int" name="NKREDLFZ">     1</i>
   <i type="int" name="MAXMEM"> 10000</i>
   <i type="int" name="TELESCOPE">     0</i>
   <i type="int" name="TAUPAR">     1</i>
   <i type="int" name="OMEGAPAR">    -1</i>
   <i name="LAMBDA">      1.00000000</i>
  </separator>
  <separator name="External order field" >
   <i name="OFIELD_KAPPA">      0.00000000</i>
   <v name="OFIELD_K">      0.00000000      0.00000000      0.00000000</v>
   <i name="OFIELD_Q6_NEAR">      0.00000000</i>
   <i name="OFIELD_Q6_FAR">      0.00000000</i>
   <i name="OFIELD_A">      0.00000000</i>
  </separator>
 </parameters>
 <atominfo>
  <atoms>      57 </atoms>
  <types>       3 </types>
  <array name="atoms" >
   <dimension dim="1">ion</dimension>
   <field type="string">element</field>
   <field type="int">atomtype</field>
   <set>
    <rc><c>Pd</c><c>   1</c></rc>
    <rc><c>Pd</c><c>   1</c></rc>
    <rc><c>Pd</c><c>   1</c></rc>
    <rc><c>Pd</c><c>   1</c></rc>
    <rc><c>Pd</c><c>   1</c></rc>
    <rc><c>Pd</c><c>   1</c></rc>
    <rc><c>Pd</c><c>   1</c></rc>
    <rc><c>Pd</c><c>   1</c></rc>
    <rc><c>Pd</c><c>   1</c></rc>
    <rc><c>Pd</c><c>   1</c></rc>
    <rc><c>Pd</c><c>   1</c></rc>
    <rc><c>Pd</c><c>   1</c></rc>
    <rc><c>Pd</c><c>   1</c></rc>
    <rc><c>Pd</c><c>   1</c></rc>
    <rc><c>Pd</c><c>   1</c></rc>
    <rc><c>Pd</c><c>   1</c></rc>
    <rc><c>Pd</c><c>   1</c></rc>
    <rc><c>Pd</c><c>   1</c></rc>
    <rc><c>Pd</c><c>   1</c></rc>
    <rc><c>Pd</c><c>   1</c></rc>
    <rc><c>Pd</c><c>   1</c></rc>
    <rc><c>Pd</c><c>   1</c></rc>
    <rc><c>Pd</c><c>   1</c></rc>
    <rc><c>Pd</c><c>   1</c></rc>
    <rc><c>Pd</c><c>   1</c></rc>
    <rc><c>Pd</c><c>   1</c></rc>
    <rc><c>Pd</c><c>   1</c></rc>
    <rc><c>Pd</c><c>   1</c></rc>
    <rc><c>Pd</c><c>   1</c></rc>
    <rc><c>Pd</c><c>   1</c></rc>
    <rc><c>Pd</c><c>   1</c></rc>
    <rc><c>Pd</c><c>   1</c></rc>
    <rc><c>Pd</c><c>   1</c></rc>
    <rc><c>Pd</c><c>   1</c></rc>
    <rc><c>Pd</c><c>   1</c></rc>
    <rc><c>Pd</c><c>   1</c></rc>
    <rc><c>Pd</c><c>   1</c></rc>
    <rc><c>Pd</c><c>   1</c></rc>
    <rc><c>Pd</c><c>   1</c></rc>
    <rc><c>Pd</c><c>   1</c></rc>
    <rc><c>Pd</c><c>   1</c></rc>
    <rc><c>Pd</c><c>   1</c></rc>
    <rc><c>Pd</c><c>   1</c></rc>
    <rc><c>Pd</c><c>   1</c></rc>
    <rc><c>Pd</c><c>   1</c></rc>
    <rc><c>Pd</c><c>   1</c></rc>
    <rc><c>Pd</c><c>   1</c></rc>
    <rc><c>Pd</c><c>   1</c></rc>
    <rc><c>Pd</c><c>   1</c></rc>
    <rc><c>Pd</c><c>   1</c></rc>
    <rc><c>Pd</c><c>   1</c></rc>
    <rc><c>Pd</c><c>   1</c></rc>
    <rc><c>Pd</c><c>   1</c></rc>
    <rc><c>Pd</c><c>   1</c></rc>
    <rc><c>Pd</c><c>   1</c></rc>
    <rc><c>C </c><c>   2</c></rc>
    <rc><c>O </c><c>   3</c></rc>
   </set>
  </array>
  <array name="atomtypes" >
   <dimension dim="1">type</dimension>
   <field type="int">atomspertype</field>
   <field type="string">element</field>
   <field>mass</field>
   <field>valence</field>
   <field type="string">pseudopotential</field>
   <set>
    <rc><c>  55</c><c>Pd</c><c>    106.42000000</c><c>     10.00000000</c><c>  PAW_PBE Pd 04Jan2005                  </c></rc>
    <rc><c>   1</c><c>C </c><c>     12.01100000</c><c>      4.00000000</c><c>  PAW_PBE C 08Apr2002                   </c></rc>
    <rc><c>   1</c><c>O </c><c>     16.00000000</c><c>      6.00000000</c><c>  PAW_PBE O 08Apr2002                   </c></rc>
   </set>
  </array>
 </atominfo>
 <structure name="initialpos" >
  <crystal>
   <varray name="basis" >
    <v>      30.00000000       0.00000000       0.00000000 </v>
    <v>       0.00000000      30.00000000       0.00000000 </v>
    <v>       0.00000000       0.00000000      30.00000000 </v>
   </varray>
   <i name="volume">  27000.00000000 </i>
   <varray name="rec_basis" >
    <v>       0.03333333       0.00000000       0.00000000 </v>
    <v>       0.00000000       0.03333333       0.00000000 </v>
    <v>       0.00000000       0.00000000       0.03333333 </v>
   </varray>
  </crystal>
  <varray name="positions" >
   <v>       0.44576020       0.32826710       0.41691983 </v>
   <v>       0.67173288       0.55423978       0.41691983 </v>
   <v>       0.55423980       0.32826710       0.41691983 </v>
   <v>       0.32826712       0.55423978       0.41691983 </v>
   <v>       0.50000000       0.38250690       0.34021317 </v>
   <v>       0.50000000       0.38250690       0.65978680 </v>
   <v>       0.50000000       0.27609440       0.50000000 </v>
   <v>       0.27609443       0.49999998       0.50000000 </v>
   <v>       0.72390557       0.49999998       0.50000000 </v>
   <v>       0.50000000       0.72390555       0.50000000 </v>
   <v>       0.61195280       0.38804720       0.34167483 </v>
   <v>       0.61195280       0.38804720       0.65832513 </v>
   <v>       0.38804722       0.61195278       0.34167483 </v>
   <v>       0.38804722       0.61195278       0.65832513 </v>
   <v>       0.38804720       0.38804720       0.34167483 </v>
   <v>       0.38804720       0.38804720       0.65832513 </v>
   <v>       0.61195278       0.61195278       0.34167483 </v>
   <v>       0.61195278       0.61195278       0.65832513 </v>
   <v>       0.44576020       0.32826710       0.58308023 </v>
   <v>       0.67173288       0.55423978       0.58308023 </v>
   <v>       0.55791699       0.44208301       0.41809300 </v>
   <v>       0.32826705       0.44576024       0.41691983 </v>
   <v>       0.55423973       0.67173293       0.41691983 </v>
   <v>       0.55423980       0.32826710       0.58308023 </v>
   <v>       0.32826712       0.55423978       0.58308023 </v>
   <v>       0.67173295       0.44576024       0.41691983 </v>
   <v>       0.44576027       0.67173293       0.41691983 </v>
   <v>       0.44208301       0.44208301       0.41809300 </v>
   <v>       0.50000000       0.38416601       0.50000000 </v>
   <v>       0.61749315       0.50000005       0.34021317 </v>
   <v>       0.61749315       0.50000005       0.65978680 </v>
   <v>       0.38250685       0.50000005       0.34021317 </v>
   <v>       0.38250685       0.50000005       0.65978680 </v>
   <v>       0.38317830       0.38317830       0.50000000 </v>
   <v>       0.61682172       0.61682172       0.50000000 </v>
   <v>       0.61682170       0.38317830       0.50000000 </v>
   <v>       0.38317828       0.61682172       0.50000000 </v>
   <v>       0.50000000       0.50000000       0.33478917 </v>
   <v>       0.50000000       0.50000000       0.66521087 </v>
   <v>       0.32826705       0.44576024       0.58308023 </v>
   <v>       0.55423973       0.67173293       0.58308023 </v>
   <v>       0.55791699       0.44208301       0.58190703 </v>
   <v>       0.44208298       0.55791702       0.41809300 </v>
   <v>       0.44208301       0.44208301       0.58190703 </v>
   <v>       0.67173295       0.44576024       0.58308023 </v>
   <v>       0.44576027       0.67173293       0.58308023 </v>
   <v>       0.55791702       0.55791702       0.41809300 </v>
   <v>       0.38416599       0.50000002       0.50000000 </v>
   <v>       0.61583401       0.50000002       0.50000000 </v>
   <v>       0.50000000       0.61749319       0.34021317 </v>
   <v>       0.50000000       0.61749319       0.65978680 </v>
   <v>       0.50000000       0.50000000       0.50000000 </v>
   <v>       0.44208298       0.55791702       0.58190703 </v>
   <v>       0.55791702       0.55791702       0.58190703 </v>
   <v>       0.50000000       0.61583404       0.50000000 </v>
   <v>       0.45243167       0.52058467       0.31053693 </v>
   <v>       0.44332603       0.52452500       0.27426960 </v>
  </varray>
  <varray name="selective"  type="logical" >
   <v type="logical" >  F  F  F </v>
   <v type="logical" >  F  F  F </v>
   <v type="logical" >  F  F  F </v>
   <v type="logical" >  F  F  F </v>
   <v type="logical" >  F  F  F </v>
   <v type="logical" >  F  F  F </v>
   <v type="logical" >  F  F  F </v>
   <v type="logical" >  F  F  F </v>
   <v type="logical" >  F  F  F </v>
   <v type="logical" >  F  F  F </v>
   <v type="logical" >  F  F  F </v>
   <v type="logical" >  F  F  F </v>
   <v type="logical" >  F  F  F </v>
   <v type="logical" >  F  F  F </v>
   <v type="logical" >  F  F  F </v>
   <v type="logical" >  F  F  F </v>
   <v type="logical" >  F  F  F </v>
   <v type="logical" >  F  F  F </v>
   <v type="logical" >  F  F  F </v>
   <v type="logical" >  F  F  F </v>
   <v type="logical" >  F  F  F </v>
   <v type="logical" >  F  F  F </v>
   <v type="logical" >  F  F  F </v>
   <v type="logical" >  F  F  F </v>
   <v type="logical" >  F  F  F </v>
   <v type="logical" >  F  F  F </v>
   <v type="logical" >  F  F  F </v>
   <v type="logical" >  F  F  F </v>
   <v type="logical" >  F  F  F </v>
   <v type="logical" >  F  F  F </v>
   <v type="logical" >  F  F  F </v>
   <v type="logical" >  F  F  F </v>
   <v type="logical" >  F  F  F </v>
   <v type="logical" >  F  F  F </v>
   <v type="logical" >  F  F  F </v>
   <v type="logical" >  F  F  F </v>
   <v type="logical" >  F  F  F </v>
   <v type="logical" >  F  F  F </v>
   <v type="logical" >  F  F  F </v>
   <v type="logical" >  F  F  F </v>
   <v type="logical" >  F  F  F </v>
   <v type="logical" >  F  F  F </v>
   <v type="logical" >  F  F  F </v>
   <v type="logical" >  F  F  F </v>
   <v type="logical" >  F  F  F </v>
   <v type="logical" >  F  F  F </v>
   <v type="logical" >  F  F  F </v>
   <v type="logical" >  F  F  F </v>
   <v type="logical" >  F  F  F </v>
   <v type="logical" >  F  F  F </v>
   <v type="logical" >  F  F  F </v>
   <v type="logical" >  F  F  F </v>
   <v type="logical" >  F  F  F </v>
   <v type="logical" >  F  F  F </v>
   <v type="logical" >  F  F  F </v>
   <v type="logical" >  F  F  F </v>
   <v type="logical" >  F  F  F </v>
  </varray>
  <nose>
   <v>      -3.00000000       0.00000000       0.00010000       0.00010000 </v>
  </nose>
 </structure>
 <calculation>
  <scstep>
   <time name="dav">  538.74  538.85</time>
   <time name="total">  557.57  557.69</time>
   <energy>
    <i name="alphaZ">     75.25431677 </i>
    <i name="ewald"> 139796.99940629 </i>
    <i name="hartreedc">-183146.66000602 </i>
    <i name="XCdc">  -1701.89898056 </i>
    <i name="pawpsdc">  44873.02882129 </i>
    <i name="pawaedc"> -41398.84523641 </i>
    <i name="eentropy">     -0.00054455 </i>
    <i name="bandstr">    816.93233260 </i>
    <i name="atom">  45086.50549395 </i>
    <i name="e_fr_energy">   4401.31560337 </i>
    <i name="e_wo_entrp">   4401.31614792 </i>
    <i name="e_0_energy">   4401.31573951 </i>
   </energy>
  </scstep>
  <scstep>
   <time name="dav">  846.47  846.48</time>
   <time name="total">  846.47  846.48</time>
   <energy>
    <i name="e_fr_energy">   2013.11354999 </i>
    <i name="e_wo_entrp">   2013.09864494 </i>
    <i name="e_0_energy">   2013.10982373 </i>
   </energy>
  </scstep>
  <scstep>
   <time name="dav">  716.32  716.34</time>
   <time name="total">  716.33  716.34</time>
   <energy>
    <i name="e_fr_energy">    230.37002554 </i>
    <i name="e_wo_entrp">    230.37561939 </i>
    <i name="e_0_energy">    230.37142400 </i>
   </energy>
  </scstep>
  <scstep>
   <time name="dav">  613.40  613.42</time>
   <time name="total">  613.40  613.42</time>
   <energy>
    <i name="e_fr_energy">   -135.38187247 </i>
    <i name="e_wo_entrp">   -135.34492624 </i>
    <i name="e_0_energy">   -135.37263592 </i>
   </energy>
  </scstep>
  <scstep>
   <time name="dav">  730.13  730.15</time>
   <time name="total">  768.83  768.84</time>
   <energy>
    <i name="e_fr_energy">   -180.12810421 </i>
    <i name="e_wo_entrp">   -180.60435687 </i>
    <i name="e_0_energy">   -180.24716738 </i>
   </energy>
  </scstep>
  <scstep>
   <time name="diag">  101.09  101.09</time>
   <time name="diis">  298.98  298.99</time>
   <time name="orth">   19.95   19.95</time>
   <time name="total">  476.10  476.12</time>
   <energy>
    <i name="e_fr_energy">   -179.26661948 </i>
    <i name="e_wo_entrp">   -179.01570304 </i>
    <i name="e_0_energy">   -179.20389037 </i>
   </energy>
  </scstep>
  <scstep>
   <time name="diag">   98.92   98.92</time>
   <time name="diis">  352.35  352.37</time>
   <time name="orth">   21.28   21.28</time>
   <time name="total">  528.45  528.48</time>
   <energy>
    <i name="e_fr_energy">   -183.85972413 </i>
    <i name="e_wo_entrp">   -183.66842139 </i>
    <i name="e_0_energy">   -183.81189844 </i>
   </energy>
  </scstep>
  <scstep>
   <time name="diag">  100.98  100.98</time>
   <time name="diis">  322.06  322.07</time>
   <time name="orth">   20.98   20.98</time>
   <time name="total">  501.71  501.73</time>
   <energy>
    <i name="e_fr_energy">   -186.64511271 </i>
    <i name="e_wo_entrp">   -186.54333899 </i>
    <i name="e_0_energy">   -186.61966928 </i>
   </energy>
  </scstep>
  <scstep>
   <time name="diag">  101.00  101.00</time>
   <time name="diis">  305.73  305.74</time>
   <time name="orth">   21.04   21.04</time>
   <time name="total">  485.21  485.22</time>
   <energy>
    <i name="e_fr_energy">   -183.73300684 </i>
    <i name="e_wo_entrp">   -183.68057424 </i>
    <i name="e_0_energy">   -183.71989869 </i>
   </energy>
  </scstep>
  <scstep>
   <time name="diag">  100.95  100.95</time>
   <time name="diis">  300.23  300.24</time>
   <time name="orth">   20.85   20.85</time>
   <time name="total">  479.89  479.91</time>
   <energy>
    <i name="e_fr_energy">   -180.96756027 </i>
    <i name="e_wo_entrp">   -180.91396380 </i>
    <i name="e_0_energy">   -180.95416115 </i>
   </energy>
  </scstep>
  <scstep>
   <time name="diag">  101.14  101.15</time>
   <time name="diis">  289.19  289.20</time>
   <time name="orth">   20.52   20.52</time>
   <time name="total">  467.30  467.31</time>
   <energy>
    <i name="e_fr_energy">   -179.71783369 </i>
    <i name="e_wo_entrp">   -179.72603189 </i>
    <i name="e_0_energy">   -179.71988324 </i>
   </energy>
  </scstep>
  <scstep>
   <time name="diag">  100.58  100.58</time>
   <time name="diis">  302.72  302.73</time>
   <time name="orth">   20.83   20.83</time>
   <time name="total">  481.64  481.66</time>
   <energy>
    <i name="e_fr_energy">   -178.12959096 </i>
    <i name="e_wo_entrp">   -178.07039744 </i>
    <i name="e_0_energy">   -178.11479258 </i>
   </energy>
  </scstep>
  <scstep>
   <time name="diag">  101.16  101.16</time>
   <time name="diis">  300.54  300.54</time>
   <time name="orth">   20.94   20.94</time>
   <time name="total">  480.20  480.21</time>
   <energy>
    <i name="e_fr_energy">   -176.84827698 </i>
    <i name="e_wo_entrp">   -176.77004759 </i>
    <i name="e_0_energy">   -176.82871963 </i>
   </energy>
  </scstep>
  <scstep>
   <time name="diag">  101.25  101.26</time>
   <time name="diis">  299.18  299.19</time>
   <time name="orth">   20.55   20.55</time>
   <time name="total">  478.57  478.58</time>
   <energy>
    <i name="e_fr_energy">   -177.76822697 </i>
    <i name="e_wo_entrp">   -177.76822999 </i>
    <i name="e_0_energy">   -177.76822772 </i>
   </energy>
  </scstep>
  <scstep>
   <time name="diag">  101.27  101.28</time>
   <time name="diis">  298.42  298.45</time>
   <time name="orth">   20.53   20.53</time>
   <time name="total">  478.15  478.18</time>
   <energy>
    <i name="e_fr_energy">   -176.23849551 </i>
    <i name="e_wo_entrp">   -176.18149918 </i>
    <i name="e_0_energy">   -176.22424643 </i>
   </energy>
  </scstep>
  <scstep>
   <time name="diag">  101.06  101.06</time>
   <time name="diis">  295.05  295.05</time>
   <time name="orth">   20.68   20.68</time>
   <time name="total">  474.42  474.44</time>
   <energy>
    <i name="e_fr_energy">   -176.07690334 </i>
    <i name="e_wo_entrp">   -176.07948098 </i>
    <i name="e_0_energy">   -176.07754775 </i>
   </energy>
  </scstep>
  <scstep>
   <time name="diag">  101.19  101.20</time>
   <time name="diis">  296.31  296.32</time>
   <time name="orth">   21.05   21.05</time>
   <time name="total">  476.39  476.41</time>
   <energy>
    <i name="e_fr_energy">   -175.40087515 </i>
    <i name="e_wo_entrp">   -175.44988833 </i>
    <i name="e_0_energy">   -175.41312844 </i>
   </energy>
  </scstep>
  <scstep>
   <time name="diag">  101.55  101.56</time>
   <time name="diis">  292.21  292.23</time>
   <time name="orth">   21.21   21.21</time>
   <time name="total">  472.60  472.62</time>
   <energy>
    <i name="e_fr_energy">   -175.21453771 </i>
    <i name="e_wo_entrp">   -175.21874821 </i>
    <i name="e_0_energy">   -175.21559033 </i>
   </energy>
  </scstep>
  <scstep>
   <time name="diag">  101.41  101.41</time>
   <time name="diis">  293.56  293.58</time>
   <time name="orth">   21.10   21.10</time>
   <time name="total">  474.06  474.08</time>
   <energy>
    <i name="e_fr_energy">   -175.38452577 </i>
    <i name="e_wo_entrp">   -175.40529008 </i>
    <i name="e_0_energy">   -175.38971685 </i>
   </energy>
  </scstep>
  <scstep>
   <time name="diag">   97.45   97.46</time>
   <time name="diis">  284.20  284.22</time>
   <time name="orth">   21.20   21.20</time>
   <time name="total">  460.13  460.16</time>
   <energy>
    <i name="e_fr_energy">   -175.18277089 </i>
    <i name="e_wo_entrp">   -175.18930900 </i>
    <i name="e_0_energy">   -175.18440542 </i>
   </energy>
  </scstep>
  <scstep>
   <time name="diag">  101.16  101.16</time>
   <time name="diis">  286.39  286.40</time>
   <time name="orth">   21.06   21.06</time>
   <time name="total">  467.13  467.16</time>
   <energy>
    <i name="e_fr_energy">   -175.01097865 </i>
    <i name="e_wo_entrp">   -175.01147903 </i>
    <i name="e_0_energy">   -175.01110375 </i>
   </energy>
  </scstep>
  <scstep>
   <time name="diag">  101.78  101.78</time>
   <time name="diis">  288.11  288.11</time>
   <time name="orth">   21.26   21.26</time>
   <time name="total">  469.77  469.78</time>
   <energy>
    <i name="e_fr_energy">   -174.94494228 </i>
    <i name="e_wo_entrp">   -174.91836479 </i>
    <i name="e_0_energy">   -174.93829791 </i>
   </energy>
  </scstep>
  <scstep>
   <time name="diag">  101.84  101.84</time>
   <time name="diis">  286.98  286.98</time>
   <time name="orth">   21.27   21.27</time>
   <time name="total">  468.64  468.64</time>
   <energy>
    <i name="e_fr_energy">   -174.93541018 </i>
    <i name="e_wo_entrp">   -174.89788376 </i>
    <i name="e_0_energy">   -174.92602857 </i>
   </energy>
  </scstep>
  <scstep>
   <time name="diag">  101.92  101.92</time>
   <time name="diis">  279.20  279.21</time>
   <time name="orth">   20.36   20.36</time>
   <time name="total">  458.01  458.01</time>
   <energy>
    <i name="e_fr_energy">   -174.85956494 </i>
    <i name="e_wo_entrp">   -174.83264777 </i>
    <i name="e_0_energy">   -174.85283565 </i>
   </energy>
  </scstep>
  <scstep>
   <time name="diag">   99.92   99.92</time>
   <time name="diis">  285.09  285.09</time>
   <time name="orth">   21.20   21.20</time>
   <time name="total">  464.63  464.65</time>
   <energy>
    <i name="e_fr_energy">   -174.80478718 </i>
    <i name="e_wo_entrp">   -174.76595363 </i>
    <i name="e_0_energy">   -174.79507879 </i>
   </energy>
  </scstep>
  <scstep>
   <time name="diag">  102.11  102.11</time>
   <time name="diis">  284.95  284.96</time>
   <time name="orth">   21.13   21.13</time>
   <time name="total">  466.97  466.98</time>
   <energy>
    <i name="e_fr_energy">   -174.76287607 </i>
    <i name="e_wo_entrp">   -174.73478735 </i>
    <i name="e_0_energy">   -174.75585389 </i>
   </energy>
  </scstep>
  <scstep>
   <time name="diag">  102.17  102.18</time>
   <time name="diis">  283.08  283.09</time>
   <time name="orth">   21.11   21.11</time>
   <time name="total">  465.31  465.32</time>
   <energy>
    <i name="e_fr_energy">   -174.75562249 </i>
    <i name="e_wo_entrp">   -174.74155064 </i>
    <i name="e_0_energy">   -174.75210453 </i>
   </energy>
  </scstep>
  <scstep>
   <time name="diag">  102.51  102.52</time>
   <time name="diis">  284.86  284.86</time>
   <time name="orth">   21.21   21.21</time>
   <time name="total">  467.26  467.27</time>
   <energy>
    <i name="e_fr_energy">   -174.74513611 </i>
    <i name="e_wo_entrp">   -174.71714594 </i>
    <i name="e_0_energy">   -174.73813857 </i>
   </energy>
  </scstep>
  <scstep>
   <time name="diag">   98.46   98.46</time>
   <time name="diis">  278.26  278.27</time>
   <time name="orth">   21.30   21.30</time>
   <time name="total">  456.44  456.45</time>
   <energy>
    <i name="e_fr_energy">   -174.72318312 </i>
    <i name="e_wo_entrp">   -174.68366297 </i>
    <i name="e_0_energy">   -174.71330308 </i>
   </energy>
  </scstep>
  <scstep>
   <time name="diag">  102.82  102.82</time>
   <time name="diis">  285.10  285.10</time>
   <time name="orth">   21.09   21.09</time>
   <time name="total">  468.38  468.40</time>
   <energy>
    <i name="e_fr_energy">   -174.71955780 </i>
    <i name="e_wo_entrp">   -174.67942138 </i>
    <i name="e_0_energy">   -174.70952370 </i>
   </energy>
  </scstep>
  <scstep>
   <time name="diag">  102.70  102.70</time>
   <time name="diis">  281.29  281.29</time>
   <time name="orth">   21.14   21.14</time>
   <time name="total">  464.57  464.58</time>
   <energy>
    <i name="e_fr_energy">   -174.71332516 </i>
    <i name="e_wo_entrp">   -174.67922209 </i>
    <i name="e_0_energy">   -174.70479939 </i>
   </energy>
  </scstep>
  <scstep>
   <time name="diag">  102.94  102.94</time>
   <time name="diis">  282.89  282.89</time>
   <time name="orth">   21.16   21.16</time>
   <time name="total">  466.91  466.92</time>
   <energy>
    <i name="e_fr_energy">   -174.71050743 </i>
    <i name="e_wo_entrp">   -174.67686881 </i>
    <i name="e_0_energy">   -174.70209777 </i>
   </energy>
  </scstep>
  <scstep>
   <time name="diag">  103.20  103.21</time>
   <time name="diis">  281.45  281.46</time>
   <time name="orth">   21.08   21.08</time>
   <time name="total">  465.90  465.91</time>
   <energy>
    <i name="e_fr_energy">   -174.70829596 </i>
    <i name="e_wo_entrp">   -174.67566771 </i>
    <i name="e_0_energy">   -174.70013890 </i>
   </energy>
  </scstep>
  <scstep>
   <time name="diag">  102.82  102.82</time>
   <time name="diis">  280.50  280.51</time>
   <time name="orth">   21.03   21.03</time>
   <time name="total">  465.33  465.37</time>
   <energy>
    <i name="e_fr_energy">   -174.70682739 </i>
    <i name="e_wo_entrp">   -174.67198967 </i>
    <i name="e_0_energy">   -174.69811796 </i>
   </energy>
  </scstep>
  <scstep>
   <time name="diag">  103.39  103.40</time>
   <time name="diis">  280.56  280.58</time>
   <time name="orth">   21.10   21.10</time>
   <time name="total">  465.92  465.94</time>
   <energy>
    <i name="e_fr_energy">   -174.70737897 </i>
    <i name="e_wo_entrp">   -174.66907996 </i>
    <i name="e_0_energy">   -174.69780421 </i>
   </energy>
  </scstep>
  <scstep>
   <time name="diag">  103.75  103.76</time>
   <time name="diis">  279.82  279.83</time>
   <time name="orth">   21.21   21.21</time>
   <time name="total">  466.01  466.03</time>
   <energy>
    <i name="e_fr_energy">   -174.70913709 </i>
    <i name="e_wo_entrp">   -174.67310184 </i>
    <i name="e_0_energy">   -174.70012828 </i>
   </energy>
  </scstep>
  <scstep>
   <time name="diag">   99.32   99.32</time>
   <time name="diis">  272.89  272.90</time>
   <time name="orth">   21.09   21.09</time>
   <time name="total">  454.13  454.14</time>
   <energy>
    <i name="e_fr_energy">   -174.71015099 </i>
    <i name="e_wo_entrp">   -174.67521719 </i>
    <i name="e_0_energy">   -174.70141754 </i>
   </energy>
  </scstep>
  <scstep>
   <time name="diag">  103.46  103.46</time>
   <time name="diis">  276.08  276.08</time>
   <time name="orth">   20.89   20.89</time>
   <time name="total">  461.77  461.79</time>
   <energy>
    <i name="e_fr_energy">   -174.71203542 </i>
    <i name="e_wo_entrp">   -174.67570949 </i>
    <i name="e_0_energy">   -174.70295394 </i>
   </energy>
  </scstep>
  <scstep>
   <time name="diag">  103.13  103.13</time>
   <time name="diis">  276.60  276.61</time>
   <time name="orth">   21.03   21.03</time>
   <time name="total">  462.33  462.34</time>
   <energy>
    <i name="e_fr_energy">   -174.71462860 </i>
    <i name="e_wo_entrp">   -174.67974389 </i>
    <i name="e_0_energy">   -174.70590742 </i>
   </energy>
  </scstep>
  <scstep>
   <time name="diag">  103.08  103.08</time>
   <time name="diis">  263.26  263.27</time>
   <time name="orth">   20.98   20.98</time>
   <time name="total">  450.07  450.08</time>
   <energy>
    <i name="e_fr_energy">   -174.71698020 </i>
    <i name="e_wo_entrp">   -174.68352650 </i>
    <i name="e_0_energy">   -174.70861677 </i>
   </energy>
  </scstep>
  <scstep>
   <time name="diag">  103.24  103.24</time>
   <time name="diis">  234.95  234.96</time>
   <time name="orth">   20.86   20.86</time>
   <time name="total">  420.40  420.41</time>
   <energy>
    <i name="e_fr_energy">   -174.71947889 </i>
    <i name="e_wo_entrp">   -174.68451721 </i>
    <i name="e_0_energy">   -174.71073847 </i>
   </energy>
  </scstep>
  <scstep>
   <time name="diag">  102.72  102.73</time>
   <time name="diis">  218.02  218.03</time>
   <time name="orth">   20.70   20.70</time>
   <time name="total">  403.88  403.89</time>
   <energy>
    <i name="e_fr_energy">   -174.72208573 </i>
    <i name="e_wo_entrp">   -174.68720681 </i>
    <i name="e_0_energy">   -174.71336600 </i>
   </energy>
  </scstep>
  <scstep>
   <time name="diag">  102.48  102.48</time>
   <time name="diis">  189.53  189.53</time>
   <time name="orth">   20.63   20.63</time>
   <time name="total">  374.89  374.89</time>
   <energy>
    <i name="e_fr_energy">   -174.72396096 </i>
    <i name="e_wo_entrp">   -174.68902996 </i>
    <i name="e_0_energy">   -174.71522821 </i>
   </energy>
  </scstep>
  <scstep>
   <time name="diag">  102.64  102.64</time>
   <time name="diis">  210.10  210.11</time>
   <time name="orth">   20.42   20.42</time>
   <time name="total">  395.02  395.03</time>
   <energy>
    <i name="e_fr_energy">   -174.72637746 </i>
    <i name="e_wo_entrp">   -174.69127226 </i>
    <i name="e_0_energy">   -174.71760116 </i>
   </energy>
  </scstep>
  <scstep>
   <time name="diag">  101.65  101.66</time>
   <time name="diis">  186.68  186.69</time>
   <time name="orth">   20.47   20.47</time>
   <time name="total">  371.94  371.95</time>
   <energy>
    <i name="e_fr_energy">   -174.72773304 </i>
    <i name="e_wo_entrp">   -174.69349816 </i>
    <i name="e_0_energy">   -174.71917432 </i>
   </energy>
  </scstep>
  <scstep>
   <time name="diag">   99.63   99.63</time>
   <time name="diis">  170.18  170.19</time>
   <time name="orth">   20.28   20.28</time>
   <time name="total">  352.61  352.62</time>
   <energy>
    <i name="e_fr_energy">   -174.72907142 </i>
    <i name="e_wo_entrp">   -174.69470317 </i>
    <i name="e_0_energy">   -174.72047936 </i>
   </energy>
  </scstep>
  <scstep>
   <time name="diag">   90.61   90.61</time>
   <time name="diis">  154.75  154.76</time>
   <time name="orth">   17.98   17.98</time>
   <time name="total">  320.54  320.55</time>
   <energy>
    <i name="e_fr_energy">   -174.73006870 </i>
    <i name="e_wo_entrp">   -174.69569658 </i>
    <i name="e_0_energy">   -174.72147567 </i>
   </energy>
  </scstep>
  <scstep>
   <time name="diag">   90.82   90.83</time>
   <time name="diis">  152.87  152.87</time>
   <time name="orth">   18.17   18.17</time>
   <time name="total">  317.32  317.33</time>
   <energy>
    <i name="e_fr_energy">   -174.73094173 </i>
    <i name="e_wo_entrp">   -174.69639017 </i>
    <i name="e_0_energy">   -174.72230384 </i>
   </energy>
  </scstep>
  <scstep>
   <time name="diag">   89.84   89.85</time>
   <time name="diis">  152.73  152.73</time>
   <time name="orth">   18.29   18.29</time>
   <time name="total">  316.78  316.78</time>
   <energy>
    <i name="e_fr_energy">   -174.73187624 </i>
    <i name="e_wo_entrp">   -174.69743942 </i>
    <i name="e_0_energy">   -174.72326704 </i>
   </energy>
  </scstep>
  <scstep>
   <time name="diag">   89.90   89.90</time>
   <time name="diis">  149.06  149.06</time>
   <time name="orth">   18.16   18.16</time>
   <time name="total">  312.69  312.70</time>
   <energy>
    <i name="e_fr_energy">   -174.73242188 </i>
    <i name="e_wo_entrp">   -174.69808459 </i>
    <i name="e_0_energy">   -174.72383756 </i>
   </energy>
  </scstep>
  <scstep>
   <time name="diag">   90.27   90.27</time>
   <time name="diis">  149.81  149.81</time>
   <time name="orth">   17.81   17.81</time>
   <time name="total">  313.32  313.33</time>
   <energy>
    <i name="e_fr_energy">   -174.73334822 </i>
    <i name="e_wo_entrp">   -174.69897893 </i>
    <i name="e_0_energy">   -174.72475589 </i>
   </energy>
  </scstep>
  <scstep>
   <time name="diag">   89.85   89.85</time>
   <time name="diis">  122.93  122.94</time>
   <time name="orth">   17.63   17.63</time>
   <time name="total">  286.58  286.59</time>
   <energy>
    <i name="e_fr_energy">   -174.73363349 </i>
    <i name="e_wo_entrp">   -174.69924205 </i>
    <i name="e_0_energy">   -174.72503563 </i>
   </energy>
  </scstep>
  <scstep>
   <time name="diag">   90.69   90.69</time>
   <time name="diis">  130.60  130.60</time>
   <time name="orth">   18.13   18.13</time>
   <time name="total">  296.11  296.11</time>
   <energy>
    <i name="e_fr_energy">   -174.73423410 </i>
    <i name="e_wo_entrp">   -174.69987821 </i>
    <i name="e_0_energy">   -174.72564513 </i>
   </energy>
  </scstep>
  <scstep>
   <time name="diag">   91.46   91.46</time>
   <time name="diis">  117.54  117.54</time>
   <time name="orth">   17.83   17.83</time>
   <time name="total">  284.07  284.08</time>
   <energy>
    <i name="e_fr_energy">   -174.73456037 </i>
    <i name="e_wo_entrp">   -174.70018881 </i>
    <i name="e_0_energy">   -174.72596748 </i>
   </energy>
  </scstep>
  <scstep>
   <time name="diag">   91.91   91.91</time>
   <time name="diis">  130.10  130.10</time>
   <time name="orth">   18.27   18.28</time>
   <time name="total">  297.15  297.16</time>
   <energy>
    <i name="e_fr_energy">   -174.73488134 </i>
    <i name="e_wo_entrp">   -174.70045453 </i>
    <i name="e_0_energy">   -174.72627464 </i>
   </energy>
  </scstep>
  <scstep>
   <time name="diag">   91.68   91.69</time>
   <time name="diis">  120.50  120.50</time>
   <time name="orth">   18.14   18.14</time>
   <time name="total">  286.57  286.58</time>
   <energy>
    <i name="e_fr_energy">   -174.73522578 </i>
    <i name="e_wo_entrp">   -174.70084071 </i>
    <i name="e_0_energy">   -174.72662951 </i>
   </energy>
  </scstep>
  <scstep>
   <time name="diag">   91.37   91.38</time>
   <time name="diis">  109.10  109.10</time>
   <time name="orth">   17.91   17.91</time>
   <time name="total">  274.53  274.54</time>
   <energy>
    <i name="e_fr_energy">   -174.73534465 </i>
    <i name="e_wo_entrp">   -174.70099762 </i>
    <i name="e_0_energy">   -174.72675789 </i>
   </energy>
  </scstep>
  <scstep>
   <time name="diag">   91.40   91.40</time>
   <time name="diis">  109.37  109.38</time>
   <time name="orth">   17.87   17.87</time>
   <time name="total">  274.63  274.64</time>
   <energy>
    <i name="e_fr_energy">   -174.73545051 </i>
    <i name="e_wo_entrp">   -174.70107961 </i>
    <i name="e_0_energy">   -174.72685779 </i>
   </energy>
  </scstep>
  <scstep>
   <time name="diag">   91.41   91.41</time>
   <time name="diis">  107.99  107.99</time>
   <time name="orth">   18.06   18.06</time>
   <time name="total">  273.50  273.51</time>
   <energy>
    <i name="e_fr_energy">   -174.73555915 </i>
    <i name="e_wo_entrp">   -174.70116800 </i>
    <i name="e_0_energy">   -174.72696136 </i>
   </energy>
  </scstep>
  <scstep>
   <time name="diag">   91.05   91.05</time>
   <time name="diis">   99.36   99.36</time>
   <time name="orth">   17.89   17.89</time>
   <time name="total">  225.40  225.40</time>
   <energy>
    <i name="alphaZ">     75.25431677 </i>
    <i name="ewald"> 139796.99940629 </i>
    <i name="hartreedc">-184151.36444345 </i>
    <i name="XCdc">  -1691.08195353 </i>
    <i name="pawpsdc">  46338.52987351 </i>
    <i name="pawaedc"> -42809.95081324 </i>
    <i name="eentropy">     -0.03438686 </i>
    <i name="bandstr">  -2819.59311288 </i>
    <i name="atom">  45086.50549395 </i>
    <i name="e_fr_energy">   -174.73561944 </i>
    <i name="e_wo_entrp">   -174.70123258 </i>
    <i name="e_0_energy">   -174.72702272 </i>
   </energy>
  </scstep>
  <structure>
   <crystal>
    <varray name="basis" >
     <v>      30.00000000       0.00000000       0.00000000 </v>
     <v>       0.00000000      30.00000000       0.00000000 </v>
     <v>       0.00000000       0.00000000      30.00000000 </v>
    </varray>
    <i name="volume">  27000.00000000 </i>
    <varray name="rec_basis" >
     <v>       0.03333333       0.00000000       0.00000000 </v>
     <v>       0.00000000       0.03333333       0.00000000 </v>
     <v>       0.00000000       0.00000000       0.03333333 </v>
    </varray>
   </crystal>
   <varray name="positions" >
    <v>       0.44576020       0.32826710       0.41691983 </v>
    <v>       0.67173288       0.55423978       0.41691983 </v>
    <v>       0.55423980       0.32826710       0.41691983 </v>
    <v>       0.32826712       0.55423978       0.41691983 </v>
    <v>       0.50000000       0.38250690       0.34021317 </v>
    <v>       0.50000000       0.38250690       0.65978680 </v>
    <v>       0.50000000       0.27609440       0.50000000 </v>
    <v>       0.27609443       0.49999998       0.50000000 </v>
    <v>       0.72390557       0.49999998       0.50000000 </v>
    <v>       0.50000000       0.72390555       0.50000000 </v>
    <v>       0.61195280       0.38804720       0.34167483 </v>
    <v>       0.61195280       0.38804720       0.65832513 </v>
    <v>       0.38804722       0.61195278       0.34167483 </v>
    <v>       0.38804722       0.61195278       0.65832513 </v>
    <v>       0.38804720       0.38804720       0.34167483 </v>
    <v>       0.38804720       0.38804720       0.65832513 </v>
    <v>       0.61195278       0.61195278       0.34167483 </v>
    <v>       0.61195278       0.61195278       0.65832513 </v>
    <v>       0.44576020       0.32826710       0.58308023 </v>
    <v>       0.67173288       0.55423978       0.58308023 </v>
    <v>       0.55791699       0.44208301       0.41809300 </v>
    <v>       0.32826705       0.44576024       0.41691983 </v>
    <v>       0.55423973       0.67173293       0.41691983 </v>
    <v>       0.55423980       0.32826710       0.58308023 </v>
    <v>       0.32826712       0.55423978       0.58308023 </v>
    <v>       0.67173295       0.44576024       0.41691983 </v>
    <v>       0.44576027       0.67173293       0.41691983 </v>
    <v>       0.44208301       0.44208301       0.41809300 </v>
    <v>       0.50000000       0.38416601       0.50000000 </v>
    <v>       0.61749315       0.50000005       0.34021317 </v>
    <v>       0.61749315       0.50000005       0.65978680 </v>
    <v>       0.38250685       0.50000005       0.34021317 </v>
    <v>       0.38250685       0.50000005       0.65978680 </v>
    <v>       0.38317830       0.38317830       0.50000000 </v>
    <v>       0.61682172       0.61682172       0.50000000 </v>
    <v>       0.61682170       0.38317830       0.50000000 </v>
    <v>       0.38317828       0.61682172       0.50000000 </v>
    <v>       0.50000000       0.50000000       0.33478917 </v>
    <v>       0.50000000       0.50000000       0.66521087 </v>
    <v>       0.32826705       0.44576024       0.58308023 </v>
    <v>       0.55423973       0.67173293       0.58308023 </v>
    <v>       0.55791699       0.44208301       0.58190703 </v>
    <v>       0.44208298       0.55791702       0.41809300 </v>
    <v>       0.44208301       0.44208301       0.58190703 </v>
    <v>       0.67173295       0.44576024       0.58308023 </v>
    <v>       0.44576027       0.67173293       0.58308023 </v>
    <v>       0.55791702       0.55791702       0.41809300 </v>
    <v>       0.38416599       0.50000002       0.50000000 </v>
    <v>       0.61583401       0.50000002       0.50000000 </v>
    <v>       0.50000000       0.61749319       0.34021317 </v>
    <v>       0.50000000       0.61749319       0.65978680 </v>
    <v>       0.50000000       0.50000000       0.50000000 </v>
    <v>       0.44208298       0.55791702       0.58190703 </v>
    <v>       0.55791702       0.55791702       0.58190703 </v>
    <v>       0.50000000       0.61583404       0.50000000 </v>
    <v>       0.45243167       0.52058467       0.31053693 </v>
    <v>       0.44332603       0.52452500       0.27426960 </v>
   </varray>
  </structure>
  <varray name="forces" >
   <v>       0.70153946       1.10587686       0.30180034 </v>
   <v>      -1.11049806      -0.69581914       0.29815260 </v>
   <v>      -0.70302932       1.11269637       0.28823840 </v>
   <v>       1.06135152      -0.69992983       0.36328290 </v>
   <v>       0.03166730       0.34498809       1.30640131 </v>
   <v>      -0.00518028       0.40854669      -1.27877108 </v>
   <v>      -0.00827106       1.50912555      -0.00827943 </v>
   <v>       1.50782858       0.01047293      -0.03004895 </v>
   <v>      -1.51148904       0.00391528      -0.00302349 </v>
   <v>      -0.00865003      -1.50492523      -0.01736261 </v>
   <v>      -0.76186870       0.76032834       1.06209627 </v>
   <v>      -0.75197804       0.74800465      -1.07593427 </v>
   <v>       0.68769061      -0.66297695       1.07139137 </v>
   <v>       0.75396918      -0.75500264      -1.07142319 </v>
   <v>       0.72197843       0.70637632       1.06736956 </v>
   <v>       0.75161940       0.75454533      -1.07247197 </v>
   <v>      -0.74814676      -0.74731992       1.06695403 </v>
   <v>      -0.75442392      -0.74898486      -1.07363704 </v>
   <v>       0.69878413       1.11015143      -0.28879967 </v>
   <v>      -1.10817218      -0.69705016      -0.28732900 </v>
   <v>       0.14650039      -0.13150522      -0.13355949 </v>
   <v>       1.07134437       0.68758915       0.33628431 </v>
   <v>      -0.70406920      -1.10240237       0.29439243 </v>
   <v>      -0.69538051       1.10992789      -0.28778576 </v>
   <v>       1.11397076      -0.69914282      -0.29031599 </v>
   <v>      -1.11753470       0.69657284       0.29230949 </v>
   <v>       0.70845149      -1.09472316       0.31741612 </v>
   <v>      -0.13630450      -0.19261094      -0.07846510 </v>
   <v>       0.00193715      -0.22317874       0.00304351 </v>
   <v>      -0.37022121      -0.01772488       1.29430112 </v>
   <v>      -0.40385137       0.00406010      -1.28049171 </v>
   <v>       1.10288611       0.20922065       1.16004693 </v>
   <v>       0.41674710       0.00002128      -1.27742272 </v>
   <v>       0.83716395       0.82909886      -0.00860010 </v>
   <v>      -0.82511127      -0.82974622       0.00267860 </v>
   <v>      -0.81696654       0.82066228       0.01863663 </v>
   <v>       0.84194601      -0.83635879      -0.01421272 </v>
   <v>       3.85396992      -1.47945447       3.64503188 </v>
   <v>      -0.01400548       0.00558630      -1.18133494 </v>
   <v>       1.11540007       0.69758475      -0.28493981 </v>
   <v>      -0.69578991      -1.11288206      -0.28324894 </v>
   <v>       0.11337943      -0.11560790       0.14815182 </v>
   <v>      -0.13814875       0.18254949      -0.04187494 </v>
   <v>      -0.10948210      -0.11309240       0.15739163 </v>
   <v>      -1.10786750       0.69510481      -0.28860707 </v>
   <v>       0.69965274      -1.11331205      -0.29057242 </v>
   <v>       0.17550176       0.13464400      -0.11230429 </v>
   <v>      -0.22930020       0.00175316      -0.00348739 </v>
   <v>       0.21820004      -0.00269498       0.00047506 </v>
   <v>       0.03956570      -0.38280165       1.30326178 </v>
   <v>      -0.00150752      -0.41388590      -1.27712222 </v>
   <v>      -0.00299460       0.00300674       0.00627672 </v>
   <v>      -0.11095536       0.11298330       0.15635652 </v>
   <v>       0.11194010       0.11264952       0.15196905 </v>
   <v>      -0.00429798       0.22503036      -0.00227609 </v>
   <v>      -2.32252464      -0.14435739       4.60658587 </v>
   <v>      -2.20696496       1.41441734      -7.37659386 </v>
  </varray>
  <varray name="stress" >
   <v>      -6.41424852      -0.18163138       0.34846285 </v>
   <v>      -0.18163139      -6.61799462      -0.14359504 </v>
   <v>       0.34846283      -0.14359506      -6.11555516 </v>
  </varray>
  <energy>
   <i name="e_fr_energy">   -174.73561944 </i>
   <i name="e_wo_entrp">   -174.72702272 </i>
   <i name="e_0_energy">     -0.03438686 </i>
  </energy>
  <time name="totalsc">26832.6426833.58</time>
  <eigenvalues>
   <array>
    <dimension dim="1">band</dimension>
    <dimension dim="2">kpoint</dimension>
    <dimension dim="3">spin</dimension>
    <field>eigene</field>
    <field>occ</field>
    <set>
     <set comment="spin 1">
      <set comment="kpoint 1">
       <r>  -28.1223    1.0000 </r>
       <r>  -13.5626    1.0000 </r>
       <r>  -11.4297    1.0000 </r>
       <r>  -10.9854    1.0000 </r>
       <r>  -10.6108    1.0000 </r>
       <r>   -6.7111    1.0000 </r>
       <r>   -6.6861    1.0000 </r>
       <r>   -6.5819    1.0000 </r>
       <r>   -6.1854    1.0000 </r>
       <r>   -6.1348    1.0000 </r>
       <r>   -6.1244    1.0000 </r>
       <r>   -5.8888    1.0000 </r>
       <r>   -5.8773    1.0000 </r>
       <r>   -5.8473    1.0000 </r>
       <r>   -5.8051    1.0000 </r>
       <r>   -5.7849    1.0000 </r>
       <r>   -5.7523    1.0000 </r>
       <r>   -5.7388    1.0000 </r>
       <r>   -5.6926    1.0000 </r>
       <r>   -5.6846    1.0000 </r>
       <r>   -5.6794    1.0000 </r>
       <r>   -5.6784    1.0000 </r>
       <r>   -5.6096    1.0000 </r>
       <r>   -5.6039    1.0000 </r>
       <r>   -5.5958    1.0000 </r>
       <r>   -5.5933    1.0000 </r>
       <r>   -5.5928    1.0000 </r>
       <r>   -5.5799    1.0000 </r>
       <r>   -5.5456    1.0000 </r>
       <r>   -5.5370    1.0000 </r>
       <r>   -5.5289    1.0000 </r>
       <r>   -5.5268    1.0000 </r>
       <r>   -5.5255    1.0000 </r>
       <r>   -5.5201    1.0000 </r>
       <r>   -5.5128    1.0000 </r>
       <r>   -5.5100    1.0000 </r>
       <r>   -5.5059    1.0000 </r>
       <r>   -5.5010    1.0000 </r>
       <r>   -5.4965    1.0000 </r>
       <r>   -5.4912    1.0000 </r>
       <r>   -5.4772    1.0000 </r>
       <r>   -5.4712    1.0000 </r>
       <r>   -5.4709    1.0000 </r>
       <r>   -5.4661    1.0000 </r>
       <r>   -5.4631    1.0000 </r>
       <r>   -5.4589    1.0000 </r>
       <r>   -5.4531    1.0000 </r>
       <r>   -5.4466    1.0000 </r>
       <r>   -5.4339    1.0000 </r>
       <r>   -5.4250    1.0000 </r>
       <r>   -5.4204    1.0000 </r>
       <r>   -5.4076    1.0000 </r>
       <r>   -5.4050    1.0000 </r>
       <r>   -5.3997    1.0000 </r>
       <r>   -5.3934    1.0000 </r>
       <r>   -5.3911    1.0000 </r>
       <r>   -5.3847    1.0000 </r>
       <r>   -5.3714    1.0000 </r>
       <r>   -5.3696    1.0000 </r>
       <r>   -5.3407    1.0000 </r>
       <r>   -5.3292    1.0000 </r>
       <r>   -5.3211    1.0000 </r>
       <r>   -5.3119    1.0000 </r>
       <r>   -5.3108    1.0000 </r>
       <r>   -5.3082    1.0000 </r>
       <r>   -5.3057    1.0000 </r>
       <r>   -5.3020    1.0000 </r>
       <r>   -5.2970    1.0000 </r>
       <r>   -5.2848    1.0000 </r>
       <r>   -5.2773    1.0000 </r>
       <r>   -5.2567    1.0000 </r>
       <r>   -5.2294    1.0000 </r>
       <r>   -5.2012    1.0000 </r>
       <r>   -5.1894    1.0000 </r>
       <r>   -5.1795    1.0000 </r>
       <r>   -5.1782    1.0000 </r>
       <r>   -5.1778    1.0000 </r>
       <r>   -5.1756    1.0000 </r>
       <r>   -5.1723    1.0000 </r>
       <r>   -5.1688    1.0000 </r>
       <r>   -5.1543    1.0000 </r>
       <r>   -5.1470    1.0000 </r>
       <r>   -5.1438    1.0000 </r>
       <r>   -5.1390    1.0000 </r>
       <r>   -5.1256    1.0000 </r>
       <r>   -5.1192    1.0000 </r>
       <r>   -5.1130    1.0000 </r>
       <r>   -5.0999    1.0000 </r>
       <r>   -5.0958    1.0000 </r>
       <r>   -5.0909    1.0000 </r>
       <r>   -5.0798    1.0000 </r>
       <r>   -5.0641    1.0000 </r>
       <r>   -5.0612    1.0000 </r>
       <r>   -5.0507    1.0000 </r>
       <r>   -5.0478    1.0000 </r>
       <r>   -5.0463    1.0000 </r>
       <r>   -5.0431    1.0000 </r>
       <r>   -5.0388    1.0000 </r>
       <r>   -5.0285    1.0000 </r>
       <r>   -5.0233    1.0000 </r>
       <r>   -5.0213    1.0000 </r>
       <r>   -5.0151    1.0000 </r>
       <r>   -5.0124    1.0000 </r>
       <r>   -5.0086    1.0000 </r>
       <r>   -5.0075    1.0000 </r>
       <r>   -5.0002    1.0000 </r>
       <r>   -4.9990    1.0000 </r>
       <r>   -4.9936    1.0000 </r>
       <r>   -4.9896    1.0000 </r>
       <r>   -4.9878    1.0000 </r>
       <r>   -4.9768    1.0000 </r>
       <r>   -4.9744    1.0000 </r>
       <r>   -4.9676    1.0000 </r>
       <r>   -4.9636    1.0000 </r>
       <r>   -4.9626    1.0000 </r>
       <r>   -4.9524    1.0000 </r>
       <r>   -4.9486    1.0000 </r>
       <r>   -4.9482    1.0000 </r>
       <r>   -4.9341    1.0000 </r>
       <r>   -4.9232    1.0000 </r>
       <r>   -4.9174    1.0000 </r>
       <r>   -4.9144    1.0000 </r>
       <r>   -4.9087    1.0000 </r>
       <r>   -4.9067    1.0000 </r>
       <r>   -4.8986    1.0000 </r>
       <r>   -4.8970    1.0000 </r>
       <r>   -4.8938    1.0000 </r>
       <r>   -4.8816    1.0000 </r>
       <r>   -4.8716    1.0000 </r>
       <r>   -4.8643    1.0000 </r>
       <r>   -4.8481    1.0000 </r>
       <r>   -4.8404    1.0000 </r>
       <r>   -4.8341    1.0000 </r>
       <r>   -4.8301    1.0000 </r>
       <r>   -4.8288    1.0000 </r>
       <r>   -4.8252    1.0000 </r>
       <r>   -4.8167    1.0000 </r>
       <r>   -4.8098    0.9999 </r>
       <r>   -4.8042    0.9999 </r>
       <r>   -4.7924    0.9999 </r>
       <r>   -4.7871    0.9999 </r>
       <r>   -4.7678    0.9998 </r>
       <r>   -4.7580    0.9998 </r>
       <r>   -4.7475    0.9997 </r>
       <r>   -4.7366    0.9997 </r>
       <r>   -4.7338    0.9996 </r>
       <r>   -4.7312    0.9996 </r>
       <r>   -4.7304    0.9996 </r>
       <r>   -4.7280    0.9996 </r>
       <r>   -4.7064    0.9994 </r>
       <r>   -4.7020    0.9993 </r>
       <r>   -4.7002    0.9993 </r>
       <r>   -4.6893    0.9991 </r>
       <r>   -4.6826    0.9990 </r>
       <r>   -4.6763    0.9989 </r>
       <r>   -4.6741    0.9988 </r>
       <r>   -4.6690    0.9987 </r>
       <r>   -4.6669    0.9986 </r>
       <r>   -4.6662    0.9986 </r>
       <r>   -4.6613    0.9985 </r>
       <r>   -4.6559    0.9984 </r>
       <r>   -4.6506    0.9982 </r>
       <r>   -4.6499    0.9982 </r>
       <r>   -4.6451    0.9981 </r>
       <r>   -4.6443    0.9980 </r>
       <r>   -4.6403    0.9979 </r>
       <r>   -4.6370    0.9978 </r>
       <r>   -4.6329    0.9977 </r>
       <r>   -4.6295    0.9975 </r>
       <r>   -4.6277    0.9975 </r>
       <r>   -4.6227    0.9973 </r>
       <r>   -4.6181    0.9971 </r>
       <r>   -4.6089    0.9968 </r>
       <r>   -4.5938    0.9962 </r>
       <r>   -4.5915    0.9961 </r>
       <r>   -4.5903    0.9961 </r>
       <r>   -4.5867    0.9960 </r>
       <r>   -4.5836    0.9959 </r>
       <r>   -4.5805    0.9958 </r>
       <r>   -4.5719    0.9955 </r>
       <r>   -4.5656    0.9953 </r>
       <r>   -4.5623    0.9953 </r>
       <r>   -4.5533    0.9951 </r>
       <r>   -4.5507    0.9951 </r>
       <r>   -4.5479    0.9951 </r>
       <r>   -4.5467    0.9951 </r>
       <r>   -4.5447    0.9951 </r>
       <r>   -4.5429    0.9951 </r>
       <r>   -4.5407    0.9951 </r>
       <r>   -4.5374    0.9951 </r>
       <r>   -4.5145    0.9960 </r>
       <r>   -4.5122    0.9961 </r>
       <r>   -4.5108    0.9962 </r>
       <r>   -4.5031    0.9969 </r>
       <r>   -4.5000    0.9972 </r>
       <r>   -4.4979    0.9975 </r>
       <r>   -4.4857    0.9992 </r>
       <r>   -4.4789    1.0004 </r>
       <r>   -4.4773    1.0007 </r>
       <r>   -4.4719    1.0019 </r>
       <r>   -4.4694    1.0024 </r>
       <r>   -4.4611    1.0046 </r>
       <r>   -4.4605    1.0047 </r>
       <r>   -4.4602    1.0048 </r>
       <r>   -4.4561    1.0060 </r>
       <r>   -4.4522    1.0071 </r>
       <r>   -4.4495    1.0080 </r>
       <r>   -4.4424    1.0104 </r>
       <r>   -4.4393    1.0116 </r>
       <r>   -4.4332    1.0139 </r>
       <r>   -4.4258    1.0169 </r>
       <r>   -4.4152    1.0216 </r>
       <r>   -4.4105    1.0238 </r>
       <r>   -4.4067    1.0255 </r>
       <r>   -4.4059    1.0259 </r>
       <r>   -4.4022    1.0277 </r>
       <r>   -4.3979    1.0297 </r>
       <r>   -4.3947    1.0313 </r>
       <r>   -4.3937    1.0318 </r>
       <r>   -4.3912    1.0330 </r>
       <r>   -4.3876    1.0347 </r>
       <r>   -4.3824    1.0371 </r>
       <r>   -4.3556    1.0478 </r>
       <r>   -4.3483    1.0498 </r>
       <r>   -4.3466    1.0501 </r>
       <r>   -4.3414    1.0510 </r>
       <r>   -4.3355    1.0516 </r>
       <r>   -4.3309    1.0516 </r>
       <r>   -4.3284    1.0515 </r>
       <r>   -4.3277    1.0514 </r>
       <r>   -4.3244    1.0510 </r>
       <r>   -4.3228    1.0507 </r>
       <r>   -4.3217    1.0505 </r>
       <r>   -4.3193    1.0499 </r>
       <r>   -4.3177    1.0495 </r>
       <r>   -4.3135    1.0481 </r>
       <r>   -4.3133    1.0480 </r>
       <r>   -4.3089    1.0460 </r>
       <r>   -4.3084    1.0457 </r>
       <r>   -4.3044    1.0434 </r>
       <r>   -4.2971    1.0382 </r>
       <r>   -4.2935    1.0350 </r>
       <r>   -4.2931    1.0347 </r>
       <r>   -4.2916    1.0332 </r>
       <r>   -4.2856    1.0267 </r>
       <r>   -4.2852    1.0262 </r>
       <r>   -4.2780    1.0168 </r>
       <r>   -4.2778    1.0165 </r>
       <r>   -4.2747    1.0118 </r>
       <r>   -4.2731    1.0093 </r>
       <r>   -4.2618    0.9889 </r>
       <r>   -4.2584    0.9818 </r>
       <r>   -4.2557    0.9759 </r>
       <r>   -4.2483    0.9582 </r>
       <r>   -4.2471    0.9552 </r>
       <r>   -4.2442    0.9474 </r>
       <r>   -4.2431    0.9446 </r>
       <r>   -4.2418    0.9410 </r>
       <r>   -4.2367    0.9263 </r>
       <r>   -4.2361    0.9245 </r>
       <r>   -4.2340    0.9179 </r>
       <r>   -4.2305    0.9070 </r>
       <r>   -4.2279    0.8986 </r>
       <r>   -4.2276    0.8974 </r>
       <r>   -4.2262    0.8929 </r>
       <r>   -4.2151    0.8529 </r>
       <r>   -4.2137    0.8478 </r>
       <r>   -4.2117    0.8397 </r>
       <r>   -4.2099    0.8328 </r>
       <r>   -4.2091    0.8296 </r>
       <r>   -4.2067    0.8199 </r>
       <r>   -4.1937    0.7642 </r>
       <r>   -4.1902    0.7484 </r>
       <r>   -4.1868    0.7326 </r>
       <r>   -4.1820    0.7099 </r>
       <r>   -4.1768    0.6848 </r>
       <r>   -4.1728    0.6649 </r>
       <r>   -4.1634    0.6170 </r>
       <r>   -4.1625    0.6124 </r>
       <r>   -4.1606    0.6026 </r>
       <r>   -4.1593    0.5960 </r>
       <r>   -4.1475    0.5343 </r>
       <r>   -4.1465    0.5290 </r>
       <r>   -4.1248    0.4147 </r>
       <r>   -4.1229    0.4046 </r>
       <r>   -4.1190    0.3844 </r>
       <r>   -4.1122    0.3497 </r>
       <r>   -4.1010    0.2949 </r>
       <r>   -3.9828   -0.0399 </r>
       <r>   -3.9465   -0.0516 </r>
       <r>   -3.9044   -0.0393 </r>
       <r>   -3.8238   -0.0053 </r>
       <r>   -3.8135   -0.0027 </r>
       <r>   -3.7533    0.0047 </r>
       <r>   -3.4956    0.0001 </r>
       <r>   -3.4860    0.0001 </r>
       <r>   -3.2634    0.0000 </r>
       <r>   -3.0628    0.0000 </r>
       <r>   -3.0561    0.0000 </r>
       <r>   -3.0383    0.0000 </r>
       <r>   -3.0264    0.0000 </r>
       <r>   -3.0087    0.0000 </r>
       <r>   -3.0043    0.0000 </r>
       <r>   -2.9328    0.0000 </r>
       <r>   -2.8052    0.0000 </r>
       <r>   -2.5561    0.0000 </r>
       <r>   -2.5128    0.0000 </r>
       <r>   -2.4638    0.0000 </r>
       <r>   -2.2037    0.0000 </r>
       <r>   -2.1399    0.0000 </r>
       <r>   -2.1123    0.0000 </r>
       <r>   -2.0726    0.0000 </r>
       <r>   -1.9750    0.0000 </r>
       <r>   -1.9436    0.0000 </r>
       <r>   -1.9159    0.0000 </r>
       <r>   -1.8459    0.0000 </r>
       <r>   -1.8282    0.0000 </r>
       <r>   -1.7612    0.0000 </r>
       <r>   -1.6981    0.0000 </r>
       <r>   -1.6331    0.0000 </r>
       <r>   -1.5754    0.0000 </r>
       <r>   -1.5536    0.0000 </r>
       <r>   -1.4853    0.0000 </r>
       <r>   -1.3944    0.0000 </r>
       <r>   -1.2877    0.0000 </r>
       <r>   -1.0947    0.0000 </r>
       <r>   -1.0238    0.0000 </r>
       <r>   -0.9992    0.0000 </r>
       <r>   -0.9672    0.0000 </r>
       <r>   -0.9465    0.0000 </r>
       <r>   -0.9288    0.0000 </r>
       <r>   -0.9212    0.0000 </r>
       <r>   -0.8905    0.0000 </r>
       <r>   -0.8434    0.0000 </r>
       <r>   -0.7979    0.0000 </r>
       <r>   -0.6513    0.0000 </r>
      </set>
     </set>
    </set>
   </array>
  </eigenvalues>
  <separator name="orbital magnetization" >
   <v name="MAGDIPOLOUT">      0.00000000      0.00000000      0.00000000</v>
  </separator>
  <dos>
   <i name="efermi">     -4.14102680 </i>
   <total>
    <array>
     <dimension dim="1">gridpoints</dimension>
     <dimension dim="2">spin</dimension>
     <field>energy</field>
     <field>total</field>
     <field>integrated</field>
     <set>
      <set comment="spin 1">
       <r>   -30.1223     0.0000     0.0000 </r>
       <r>   -30.0174     0.0000     0.0000 </r>
       <r>   -29.9125     0.0000     0.0000 </r>
       <r>   -29.8076     0.0000     0.0000 </r>
       <r>   -29.7027     0.0000     0.0000 </r>
       <r>   -29.5978     0.0000     0.0000 </r>
       <r>   -29.4929     0.0000     0.0000 </r>
       <r>   -29.3880     0.0000     0.0000 </r>
       <r>   -29.2831     0.0000     0.0000 </r>
       <r>   -29.1782     0.0000     0.0000 </r>
       <r>   -29.0733     0.0000     0.0000 </r>
       <r>   -28.9684     0.0000     0.0000 </r>
       <r>   -28.8635     0.0001     0.0000 </r>
       <r>   -28.7586     0.0022     0.0002 </r>
       <r>   -28.6537     0.0212     0.0025 </r>
       <r>   -28.5488     0.0646     0.0092 </r>
       <r>   -28.4439    -0.1674    -0.0083 </r>
       <r>   -28.3390    -0.8203    -0.0944 </r>
       <r>   -28.2341     1.4882     0.0617 </r>
       <r>   -28.1292     8.2553     0.9278 </r>
       <r>   -28.0243     8.9485     1.8665 </r>
       <r>   -27.9194     2.2379     2.1012 </r>
       <r>   -27.8145    -0.8086     2.0164 </r>
       <r>   -27.7096    -0.2496     1.9902 </r>
       <r>   -27.6046     0.0632     1.9969 </r>
       <r>   -27.4997     0.0265     1.9997 </r>
       <r>   -27.3948     0.0031     2.0000 </r>
       <r>   -27.2899     0.0002     2.0000 </r>
       <r>   -27.1850     0.0000     2.0000 </r>
       <r>   -27.0801     0.0000     2.0000 </r>
       <r>   -26.9752     0.0000     2.0000 </r>
       <r>   -26.8703     0.0000     2.0000 </r>
       <r>   -26.7654     0.0000     2.0000 </r>
       <r>   -26.6605     0.0000     2.0000 </r>
       <r>   -26.5556     0.0000     2.0000 </r>
       <r>   -26.4507     0.0000     2.0000 </r>
       <r>   -26.3458     0.0000     2.0000 </r>
       <r>   -26.2409     0.0000     2.0000 </r>
       <r>   -26.1360     0.0000     2.0000 </r>
       <r>   -26.0311     0.0000     2.0000 </r>
       <r>   -25.9262     0.0000     2.0000 </r>
       <r>   -25.8213     0.0000     2.0000 </r>
       <r>   -25.7164     0.0000     2.0000 </r>
       <r>   -25.6115     0.0000     2.0000 </r>
       <r>   -25.5066     0.0000     2.0000 </r>
       <r>   -25.4017     0.0000     2.0000 </r>
       <r>   -25.2968     0.0000     2.0000 </r>
       <r>   -25.1919     0.0000     2.0000 </r>
       <r>   -25.0870     0.0000     2.0000 </r>
       <r>   -24.9821     0.0000     2.0000 </r>
       <r>   -24.8772     0.0000     2.0000 </r>
       <r>   -24.7723     0.0000     2.0000 </r>
       <r>   -24.6674     0.0000     2.0000 </r>
       <r>   -24.5624     0.0000     2.0000 </r>
       <r>   -24.4575     0.0000     2.0000 </r>
       <r>   -24.3526     0.0000     2.0000 </r>
       <r>   -24.2477     0.0000     2.0000 </r>
       <r>   -24.1428     0.0000     2.0000 </r>
       <r>   -24.0379     0.0000     2.0000 </r>
       <r>   -23.9330     0.0000     2.0000 </r>
       <r>   -23.8281     0.0000     2.0000 </r>
       <r>   -23.7232     0.0000     2.0000 </r>
       <r>   -23.6183     0.0000     2.0000 </r>
       <r>   -23.5134     0.0000     2.0000 </r>
       <r>   -23.4085     0.0000     2.0000 </r>
       <r>   -23.3036     0.0000     2.0000 </r>
       <r>   -23.1987     0.0000     2.0000 </r>
       <r>   -23.0938     0.0000     2.0000 </r>
       <r>   -22.9889     0.0000     2.0000 </r>
       <r>   -22.8840     0.0000     2.0000 </r>
       <r>   -22.7791     0.0000     2.0000 </r>
       <r>   -22.6742     0.0000     2.0000 </r>
       <r>   -22.5693     0.0000     2.0000 </r>
       <r>   -22.4644     0.0000     2.0000 </r>
       <r>   -22.3595     0.0000     2.0000 </r>
       <r>   -22.2546     0.0000     2.0000 </r>
       <r>   -22.1497     0.0000     2.0000 </r>
       <r>   -22.0448     0.0000     2.0000 </r>
       <r>   -21.9399     0.0000     2.0000 </r>
       <r>   -21.8350     0.0000     2.0000 </r>
       <r>   -21.7301     0.0000     2.0000 </r>
       <r>   -21.6252     0.0000     2.0000 </r>
       <r>   -21.5203     0.0000     2.0000 </r>
       <r>   -21.4153     0.0000     2.0000 </r>
       <r>   -21.3104     0.0000     2.0000 </r>
       <r>   -21.2055     0.0000     2.0000 </r>
       <r>   -21.1006     0.0000     2.0000 </r>
       <r>   -20.9957     0.0000     2.0000 </r>
       <r>   -20.8908     0.0000     2.0000 </r>
       <r>   -20.7859     0.0000     2.0000 </r>
       <r>   -20.6810     0.0000     2.0000 </r>
       <r>   -20.5761     0.0000     2.0000 </r>
       <r>   -20.4712     0.0000     2.0000 </r>
       <r>   -20.3663     0.0000     2.0000 </r>
       <r>   -20.2614     0.0000     2.0000 </r>
       <r>   -20.1565     0.0000     2.0000 </r>
       <r>   -20.0516     0.0000     2.0000 </r>
       <r>   -19.9467     0.0000     2.0000 </r>
       <r>   -19.8418     0.0000     2.0000 </r>
       <r>   -19.7369     0.0000     2.0000 </r>
       <r>   -19.6320     0.0000     2.0000 </r>
       <r>   -19.5271     0.0000     2.0000 </r>
       <r>   -19.4222     0.0000     2.0000 </r>
       <r>   -19.3173     0.0000     2.0000 </r>
       <r>   -19.2124     0.0000     2.0000 </r>
       <r>   -19.1075     0.0000     2.0000 </r>
       <r>   -19.0026     0.0000     2.0000 </r>
       <r>   -18.8977     0.0000     2.0000 </r>
       <r>   -18.7928     0.0000     2.0000 </r>
       <r>   -18.6879     0.0000     2.0000 </r>
       <r>   -18.5830     0.0000     2.0000 </r>
       <r>   -18.4781     0.0000     2.0000 </r>
       <r>   -18.3731     0.0000     2.0000 </r>
       <r>   -18.2682     0.0000     2.0000 </r>
       <r>   -18.1633     0.0000     2.0000 </r>
       <r>   -18.0584     0.0000     2.0000 </r>
       <r>   -17.9535     0.0000     2.0000 </r>
       <r>   -17.8486     0.0000     2.0000 </r>
       <r>   -17.7437     0.0000     2.0000 </r>
       <r>   -17.6388     0.0000     2.0000 </r>
       <r>   -17.5339     0.0000     2.0000 </r>
       <r>   -17.4290     0.0000     2.0000 </r>
       <r>   -17.3241     0.0000     2.0000 </r>
       <r>   -17.2192     0.0000     2.0000 </r>
       <r>   -17.1143     0.0000     2.0000 </r>
       <r>   -17.0094     0.0000     2.0000 </r>
       <r>   -16.9045     0.0000     2.0000 </r>
       <r>   -16.7996     0.0000     2.0000 </r>
       <r>   -16.6947     0.0000     2.0000 </r>
       <r>   -16.5898     0.0000     2.0000 </r>
       <r>   -16.4849     0.0000     2.0000 </r>
       <r>   -16.3800     0.0000     2.0000 </r>
       <r>   -16.2751     0.0000     2.0000 </r>
       <r>   -16.1702     0.0000     2.0000 </r>
       <r>   -16.0653     0.0000     2.0000 </r>
       <r>   -15.9604     0.0000     2.0000 </r>
       <r>   -15.8555     0.0000     2.0000 </r>
       <r>   -15.7506     0.0000     2.0000 </r>
       <r>   -15.6457     0.0000     2.0000 </r>
       <r>   -15.5408     0.0000     2.0000 </r>
       <r>   -15.4359     0.0000     2.0000 </r>
       <r>   -15.3310     0.0000     2.0000 </r>
       <r>   -15.2260     0.0000     2.0000 </r>
       <r>   -15.1211     0.0000     2.0000 </r>
       <r>   -15.0162     0.0000     2.0000 </r>
       <r>   -14.9113     0.0000     2.0000 </r>
       <r>   -14.8064     0.0000     2.0000 </r>
       <r>   -14.7015     0.0000     2.0000 </r>
       <r>   -14.5966     0.0000     2.0000 </r>
       <r>   -14.4917     0.0000     2.0000 </r>
       <r>   -14.3868     0.0000     2.0000 </r>
       <r>   -14.2819     0.0002     2.0000 </r>
       <r>   -14.1770     0.0038     2.0004 </r>
       <r>   -14.0721     0.0300     2.0036 </r>
       <r>   -13.9672     0.0600     2.0099 </r>
       <r>   -13.8623    -0.3042     1.9780 </r>
       <r>   -13.7574    -0.7725     1.8969 </r>
       <r>   -13.6525     2.7282     2.1831 </r>
       <r>   -13.5476     9.2905     3.1577 </r>
       <r>   -13.4427     7.7827     3.9741 </r>
       <r>   -13.3378     1.0908     4.0886 </r>
       <r>   -13.2329    -0.8033     4.0043 </r>
       <r>   -13.1280    -0.1247     3.9912 </r>
       <r>   -13.0231     0.0635     3.9979 </r>
       <r>   -12.9182     0.0183     3.9998 </r>
       <r>   -12.8133     0.0018     4.0000 </r>
       <r>   -12.7084     0.0001     4.0000 </r>
       <r>   -12.6035     0.0000     4.0000 </r>
       <r>   -12.4986     0.0000     4.0000 </r>
       <r>   -12.3937     0.0000     4.0000 </r>
       <r>   -12.2888     0.0000     4.0000 </r>
       <r>   -12.1839     0.0001     4.0000 </r>
       <r>   -12.0789     0.0016     4.0002 </r>
       <r>   -11.9740     0.0168     4.0019 </r>
       <r>   -11.8691     0.0623     4.0085 </r>
       <r>   -11.7642    -0.1015     3.9978 </r>
       <r>   -11.6593    -0.7853     3.9154 </r>
       <r>   -11.5544     0.8817     4.0079 </r>
       <r>   -11.4495     7.5345     4.7983 </r>
       <r>   -11.3446     9.4564     5.7903 </r>
       <r>   -11.2397     2.3942     6.0415 </r>
       <r>   -11.1348    -0.7340     5.9645 </r>
       <r>   -11.0299     5.5517     6.5469 </r>
       <r>   -10.9250     9.8455     7.5797 </r>
       <r>   -10.8201     3.9130     7.9902 </r>
       <r>   -10.7152     1.4786     8.1453 </r>
       <r>   -10.6103     8.1207     8.9972 </r>
       <r>   -10.5054     8.6191     9.9014 </r>
       <r>   -10.4005     1.8669    10.0972 </r>
       <r>   -10.2956    -0.8144    10.0118 </r>
       <r>   -10.1907    -0.2032     9.9905 </r>
       <r>   -10.0858     0.0645     9.9972 </r>
       <r>    -9.9809     0.0235     9.9997 </r>
       <r>    -9.8760     0.0026    10.0000 </r>
       <r>    -9.7711     0.0001    10.0000 </r>
       <r>    -9.6662     0.0000    10.0000 </r>
       <r>    -9.5613     0.0000    10.0000 </r>
       <r>    -9.4564     0.0000    10.0000 </r>
       <r>    -9.3515     0.0000    10.0000 </r>
       <r>    -9.2466     0.0000    10.0000 </r>
       <r>    -9.1417     0.0000    10.0000 </r>
       <r>    -9.0367     0.0000    10.0000 </r>
       <r>    -8.9318     0.0000    10.0000 </r>
       <r>    -8.8269     0.0000    10.0000 </r>
       <r>    -8.7220     0.0000    10.0000 </r>
       <r>    -8.6171     0.0000    10.0000 </r>
       <r>    -8.5122     0.0000    10.0000 </r>
       <r>    -8.4073     0.0000    10.0000 </r>
       <r>    -8.3024     0.0000    10.0000 </r>
       <r>    -8.1975     0.0000    10.0000 </r>
       <r>    -8.0926     0.0000    10.0000 </r>
       <r>    -7.9877     0.0000    10.0000 </r>
       <r>    -7.8828     0.0000    10.0000 </r>
       <r>    -7.7779     0.0000    10.0000 </r>
       <r>    -7.6730     0.0000    10.0000 </r>
       <r>    -7.5681     0.0000    10.0000 </r>
       <r>    -7.4632     0.0001    10.0000 </r>
       <r>    -7.3583     0.0026    10.0003 </r>
       <r>    -7.2534     0.0291    10.0033 </r>
       <r>    -7.1485     0.1271    10.0167 </r>
       <r>    -7.0436    -0.0732    10.0090 </r>
       <r>    -6.9387    -1.4675     9.8550 </r>
       <r>    -6.8338     0.3351     9.8902 </r>
       <r>    -6.7289    13.6360    11.3207 </r>
       <r>    -6.6240    25.5086    13.9966 </r>
       <r>    -6.5191    17.4551    15.8277 </r>
       <r>    -6.4142     1.7835    16.0148 </r>
       <r>    -6.3093    -1.3556    15.8726 </r>
       <r>    -6.2044    14.5698    17.4010 </r>
       <r>    -6.0995    26.7219    20.2042 </r>
       <r>    -5.9946    16.9898    21.9865 </r>
       <r>    -5.8896    23.8021    24.4834 </r>
       <r>    -5.7847    53.6559    30.1121 </r>
       <r>    -5.6798    84.5414    38.9808 </r>
       <r>    -5.5749   160.4041    55.8077 </r>
       <r>    -5.4700   270.3005    84.1632 </r>
       <r>    -5.3651   289.4989   114.5326 </r>
       <r>    -5.2602   223.4859   137.9770 </r>
       <r>    -5.1553   217.1553   160.7573 </r>
       <r>    -5.0504   305.1582   192.7695 </r>
       <r>    -4.9455   363.2337   230.8739 </r>
       <r>    -4.8406   316.3937   264.0647 </r>
       <r>    -4.7357   290.4626   294.5352 </r>
       <r>    -4.6308   366.5985   332.9926 </r>
       <r>    -4.5259   420.3140   377.0850 </r>
       <r>    -4.4210   426.0910   421.7834 </r>
       <r>    -4.3161   499.7399   474.2078 </r>
       <r>    -4.2112   544.9416   531.3740 </r>
       <r>    -4.1063   359.8148   569.1198 </r>
       <r>    -4.0014   102.3847   579.8603 </r>
       <r>    -3.8965    16.6281   581.6046 </r>
       <r>    -3.7916    31.6049   584.9201 </r>
       <r>    -3.6867    24.6103   587.5018 </r>
       <r>    -3.5818    10.2169   588.5736 </r>
       <r>    -3.4769    16.1346   590.2661 </r>
       <r>    -3.3720    16.3532   591.9816 </r>
       <r>    -3.2671     6.5074   592.6643 </r>
       <r>    -3.1622    11.3868   593.8588 </r>
       <r>    -3.0573    44.6034   598.5378 </r>
       <r>    -2.9524    63.2944   605.1776 </r>
       <r>    -2.8474    35.3253   608.8834 </r>
       <r>    -2.7425     7.5838   609.6789 </r>
       <r>    -2.6376     5.2565   610.2304 </r>
       <r>    -2.5327    20.7168   612.4036 </r>
       <r>    -2.4278    25.0974   615.0364 </r>
       <r>    -2.3229     9.3683   616.0192 </r>
       <r>    -2.2180    10.6569   617.1371 </r>
       <r>    -2.1131    30.7248   620.3603 </r>
       <r>    -2.0082    40.2878   624.5866 </r>
       <r>    -1.9033    42.6139   629.0569 </r>
       <r>    -1.7984    41.7994   633.4418 </r>
       <r>    -1.6935    36.3014   637.2500 </r>
       <r>    -1.5886    36.5141   641.0804 </r>
       <r>    -1.4837    35.4995   644.8044 </r>
       <r>    -1.3788    25.8617   647.5174 </r>
       <r>    -1.2739    14.6427   649.0535 </r>
       <r>    -1.1690     7.2385   649.8128 </r>
       <r>    -1.0641    22.8997   652.2151 </r>
       <r>    -0.9592    60.7433   658.5873 </r>
       <r>    -0.8543    70.1197   665.9430 </r>
       <r>    -0.7494    38.7604   670.0091 </r>
       <r>    -0.6445    13.2429   671.3984 </r>
       <r>    -0.5396     5.3601   671.9607 </r>
       <r>    -0.4347     0.8820   672.0532 </r>
       <r>    -0.3298    -0.5542   671.9951 </r>
       <r>    -0.2249    -0.0572   671.9891 </r>
       <r>    -0.1200     0.0798   671.9974 </r>
       <r>    -0.0151     0.0222   671.9998 </r>
       <r>     0.0898     0.0023   672.0000 </r>
       <r>     0.1947     0.0001   672.0000 </r>
       <r>     0.2997     0.0000   672.0000 </r>
       <r>     0.4046     0.0000   672.0000 </r>
       <r>     0.5095     0.0000   672.0000 </r>
       <r>     0.6144     0.0000   672.0000 </r>
       <r>     0.7193     0.0000   672.0000 </r>
       <r>     0.8242     0.0000   672.0000 </r>
       <r>     0.9291     0.0000   672.0000 </r>
       <r>     1.0340     0.0000   672.0000 </r>
       <r>     1.1389     0.0000   672.0000 </r>
       <r>     1.2438     0.0000   672.0000 </r>
       <r>     1.3487     0.0000   672.0000 </r>
      </set>
     </set>
    </array>
   </total>
  </dos>
 </calculation>
 <structure name="finalpos" >
  <crystal>
   <varray name="basis" >
    <v>      30.00000000       0.00000000       0.00000000 </v>
    <v>       0.00000000      30.00000000       0.00000000 </v>
    <v>       0.00000000       0.00000000      30.00000000 </v>
   </varray>
   <i name="volume">  27000.00000000 </i>
   <varray name="rec_basis" >
    <v>       0.03333333       0.00000000       0.00000000 </v>
    <v>       0.00000000       0.03333333       0.00000000 </v>
    <v>       0.00000000       0.00000000       0.03333333 </v>
   </varray>
  </crystal>
  <varray name="positions" >
   <v>       0.44576020       0.32826710       0.41691983 </v>
   <v>       0.67173288       0.55423978       0.41691983 </v>
   <v>       0.55423980       0.32826710       0.41691983 </v>
   <v>       0.32826712       0.55423978       0.41691983 </v>
   <v>       0.50000000       0.38250690       0.34021317 </v>
   <v>       0.50000000       0.38250690       0.65978680 </v>
   <v>       0.50000000       0.27609440       0.50000000 </v>
   <v>       0.27609443       0.49999998       0.50000000 </v>
   <v>       0.72390557       0.49999998       0.50000000 </v>
   <v>       0.50000000       0.72390555       0.50000000 </v>
   <v>       0.61195280       0.38804720       0.34167483 </v>
   <v>       0.61195280       0.38804720       0.65832513 </v>
   <v>       0.38804722       0.61195278       0.34167483 </v>
   <v>       0.38804722       0.61195278       0.65832513 </v>
   <v>       0.38804720       0.38804720       0.34167483 </v>
   <v>       0.38804720       0.38804720       0.65832513 </v>
   <v>       0.61195278       0.61195278       0.34167483 </v>
   <v>       0.61195278       0.61195278       0.65832513 </v>
   <v>       0.44576020       0.32826710       0.58308023 </v>
   <v>       0.67173288       0.55423978       0.58308023 </v>
   <v>       0.55791699       0.44208301       0.41809300 </v>
   <v>       0.32826705       0.44576024       0.41691983 </v>
   <v>       0.55423973       0.67173293       0.41691983 </v>
   <v>       0.55423980       0.32826710       0.58308023 </v>
   <v>       0.32826712       0.55423978       0.58308023 </v>
   <v>       0.67173295       0.44576024       0.41691983 </v>
   <v>       0.44576027       0.67173293       0.41691983 </v>
   <v>       0.44208301       0.44208301       0.41809300 </v>
   <v>       0.50000000       0.38416601       0.50000000 </v>
   <v>       0.61749315       0.50000005       0.34021317 </v>
   <v>       0.61749315       0.50000005       0.65978680 </v>
   <v>       0.38250685       0.50000005       0.34021317 </v>
   <v>       0.38250685       0.50000005       0.65978680 </v>
   <v>       0.38317830       0.38317830       0.50000000 </v>
   <v>       0.61682172       0.61682172       0.50000000 </v>
   <v>       0.61682170       0.38317830       0.50000000 </v>
   <v>       0.38317828       0.61682172       0.50000000 </v>
   <v>       0.50000000       0.50000000       0.33478917 </v>
   <v>       0.50000000       0.50000000       0.66521087 </v>
   <v>       0.32826705       0.44576024       0.58308023 </v>
   <v>       0.55423973       0.67173293       0.58308023 </v>
   <v>       0.55791699       0.44208301       0.58190703 </v>
   <v>       0.44208298       0.55791702       0.41809300 </v>
   <v>       0.44208301       0.44208301       0.58190703 </v>
   <v>       0.67173295       0.44576024       0.58308023 </v>
   <v>       0.44576027       0.67173293       0.58308023 </v>
   <v>       0.55791702       0.55791702       0.41809300 </v>
   <v>       0.38416599       0.50000002       0.50000000 </v>
   <v>       0.61583401       0.50000002       0.50000000 </v>
   <v>       0.50000000       0.61749319       0.34021317 </v>
   <v>       0.50000000       0.61749319       0.65978680 </v>
   <v>       0.50000000       0.50000000       0.50000000 </v>
   <v>       0.44208298       0.55791702       0.58190703 </v>
   <v>       0.55791702       0.55791702       0.58190703 </v>
   <v>       0.50000000       0.61583404       0.50000000 </v>
   <v>       0.45243167       0.52058467       0.31053693 </v>
   <v>       0.44332603       0.52452500       0.27426960 </v>
  </varray>
  <varray name="selective"  type="logical" >
   <v type="logical" >  F  F  F </v>
   <v type="logical" >  F  F  F </v>
   <v type="logical" >  F  F  F </v>
   <v type="logical" >  F  F  F </v>
   <v type="logical" >  F  F  F </v>
   <v type="logical" >  F  F  F </v>
   <v type="logical" >  F  F  F </v>
   <v type="logical" >  F  F  F </v>
   <v type="logical" >  F  F  F </v>
   <v type="logical" >  F  F  F </v>
   <v type="logical" >  F  F  F </v>
   <v type="logical" >  F  F  F </v>
   <v type="logical" >  F  F  F </v>
   <v type="logical" >  F  F  F </v>
   <v type="logical" >  F  F  F </v>
   <v type="logical" >  F  F  F </v>
   <v type="logical" >  F  F  F </v>
   <v type="logical" >  F  F  F </v>
   <v type="logical" >  F  F  F </v>
   <v type="logical" >  F  F  F </v>
   <v type="logical" >  F  F  F </v>
   <v type="logical" >  F  F  F </v>
   <v type="logical" >  F  F  F </v>
   <v type="logical" >  F  F  F </v>
   <v type="logical" >  F  F  F </v>
   <v type="logical" >  F  F  F </v>
   <v type="logical" >  F  F  F </v>
   <v type="logical" >  F  F  F </v>
   <v type="logical" >  F  F  F </v>
   <v type="logical" >  F  F  F </v>
   <v type="logical" >  F  F  F </v>
   <v type="logical" >  F  F  F </v>
   <v type="logical" >  F  F  F </v>
   <v type="logical" >  F  F  F </v>
   <v type="logical" >  F  F  F </v>
   <v type="logical" >  F  F  F </v>
   <v type="logical" >  F  F  F </v>
   <v type="logical" >  F  F  F </v>
   <v type="logical" >  F  F  F </v>
   <v type="logical" >  F  F  F </v>
   <v type="logical" >  F  F  F </v>
   <v type="logical" >  F  F  F </v>
   <v type="logical" >  F  F  F </v>
   <v type="logical" >  F  F  F </v>
   <v type="logical" >  F  F  F </v>
   <v type="logical" >  F  F  F </v>
   <v type="logical" >  F  F  F </v>
   <v type="logical" >  F  F  F </v>
   <v type="logical" >  F  F  F </v>
   <v type="logical" >  F  F  F </v>
   <v type="logical" >  F  F  F </v>
   <v type="logical" >  F  F  F </v>
   <v type="logical" >  F  F  F </v>
   <v type="logical" >  F  F  F </v>
   <v type="logical" >  F  F  F </v>
   <v type="logical" >  F  F  F </v>
   <v type="logical" >  F  F  F </v>
  </varray>
  <nose>
   <v>      -3.00000000       0.00000000       0.00010000       0.00010000 </v>
  </nose>
 </structure>
</modeling>
