<?xml version="1.0" encoding="ISO-8859-1"?>
<modeling>
 <generator>
  <i name="program" type="string">vasp </i>
  <i name="version" type="string">5.4.4.18Apr17-6-g9f103f2a35  </i>
  <i name="subversion" type="string">(build Sep 03 2018 23:53:05) complex            parallel </i>
  <i name="platform" type="string">LinuxIFC </i>
  <i name="date" type="string">2021 11 25 </i>
  <i name="time" type="string">21:40:10 </i>
 </generator>
 <incar>
  <i type="string" name="SYSTEM"> 6_Pd100_top_free_z(O)</i>
  <i type="int" name="ISTART">     0</i>
  <i type="string" name="PREC">normal   			! encut=max(enmax), ngx,y,z</i>
  <i type="string" name="ALGO"> Fast     			! Mix RMM-DIIS and Dav</i>
  <i type="logical" name="ADDGRID"> F  </i>
  <i type="int" name="ISPIN">     1</i>
  <i type="int" name="ICHARG">     2</i>
  <i type="int" name="NELM">   100</i>
  <i type="int" name="NELMIN">     6</i>
  <i type="int" name="IBRION">     2</i>
  <i name="EDIFF">      0.00010000</i>
  <i name="EDIFFG">     -0.05000000</i>
  <i type="int" name="NSW">     0</i>
  <i type="int" name="ISIF">     2</i>
  <i type="int" name="ISYM">     2</i>
  <i name="ENCUT">    400.00000000</i>
  <i type="string" name="LREAL"> Auto     			! Auto or A projection done</i>
  <i type="int" name="ISMEAR">     2</i>
  <i name="SIGMA">      0.20000000</i>
  <i type="logical" name="LWAVE"> F  </i>
  <i type="logical" name="LCHARG"> F  </i>
  <v type="int" name="KPOINT_BSE">    -1     0     0     0</v>
  <i type="int" name="MAXMEM"> 10000</i>
  <i type="int" name="NELM">   100</i>
  <i type="string" name="GGA"> RP         			! Revised PBE</i>
 </incar>
 <structure name="primitive_cell" >
  <crystal>
   <varray name="basis" >
    <v>      30.00000000       0.00000000       0.00000000 </v>
    <v>       0.00000000      30.00000000       0.00000000 </v>
    <v>       0.00000000       0.00000000      30.00000000 </v>
   </varray>
   <i name="volume">  27000.00000000 </i>
   <varray name="rec_basis" >
    <v>       0.03333333       0.00000000       0.00000000 </v>
    <v>       0.00000000       0.03333333       0.00000000 </v>
    <v>       0.00000000       0.00000000       0.03333333 </v>
   </varray>
  </crystal>
  <varray name="positions" >
   <v>       0.44576020       0.32826710       0.41691983 </v>
   <v>      -0.44576020       0.32826710       0.41691983 </v>
   <v>      -0.50000000       0.38250690       0.34021317 </v>
   <v>      -0.50000000       0.27609440      -0.50000000 </v>
   <v>       0.38804720       0.38804720       0.34167483 </v>
   <v>      -0.50000000       0.38416601      -0.50000000 </v>
   <v>       0.44208300       0.44208300       0.41809300 </v>
   <v>       0.38317830       0.38317830      -0.50000000 </v>
   <v>      -0.44208300       0.44208300       0.41809300 </v>
   <v>       0.44576020       0.32826710      -0.41691977 </v>
   <v>       0.32826705       0.44576024       0.41691983 </v>
   <v>      -0.38804720       0.38804720       0.34167483 </v>
   <v>      -0.38317830       0.38317830      -0.50000000 </v>
   <v>      -0.50000000      -0.50000000       0.33478917 </v>
   <v>      -0.50000000      -0.50000000      -0.50000000 </v>
   <v>      -0.44576020       0.32826710      -0.41691977 </v>
   <v>       0.38250685      -0.49999995       0.34021317 </v>
   <v>       0.44208300       0.44208300      -0.41809297 </v>
   <v>       0.38416599      -0.49999998      -0.50000000 </v>
   <v>      -0.44208300       0.44208300      -0.41809297 </v>
   <v>       0.44208298      -0.44208298       0.41809300 </v>
   <v>       0.32826705       0.44576024      -0.41691977 </v>
   <v>      -0.50000000       0.38250690      -0.34021320 </v>
   <v>       0.32826712      -0.44576022       0.41691983 </v>
   <v>      -0.38250685      -0.49999995       0.34021317 </v>
   <v>      -0.32826705       0.44576024       0.41691983 </v>
   <v>       0.27609443       0.49999998      -0.50000000 </v>
   <v>       0.38804720       0.38804720      -0.34167487 </v>
   <v>      -0.38416599      -0.49999998      -0.50000000 </v>
   <v>      -0.44208298      -0.44208298       0.41809300 </v>
   <v>       0.39865597       0.31588463      -0.32805233 </v>
   <v>       0.44208298      -0.44208298      -0.41809297 </v>
   <v>       0.38462300       0.29039047      -0.30424303 </v>
   <v>      -0.38804720       0.38804720      -0.34167487 </v>
   <v>       0.38804722      -0.38804722       0.34167483 </v>
   <v>       0.38250685      -0.49999995      -0.34021320 </v>
   <v>       0.32826712      -0.44576022      -0.41691977 </v>
   <v>      -0.32826705       0.44576024      -0.41691977 </v>
   <v>       0.50000000      -0.38250681       0.34021317 </v>
   <v>      -0.50000000      -0.38416596      -0.50000000 </v>
   <v>      -0.44208298      -0.44208298      -0.41809297 </v>
   <v>      -0.50000000      -0.50000000      -0.33478913 </v>
   <v>       0.38317828      -0.38317828      -0.50000000 </v>
   <v>      -0.32826712      -0.44576022       0.41691983 </v>
   <v>      -0.27609443       0.49999998      -0.50000000 </v>
   <v>      -0.38804722      -0.38804722       0.34167483 </v>
   <v>      -0.38250685      -0.49999995      -0.34021320 </v>
   <v>       0.44576027      -0.32826707       0.41691983 </v>
   <v>      -0.38317828      -0.38317828      -0.50000000 </v>
   <v>      -0.32826712      -0.44576022      -0.41691977 </v>
   <v>      -0.44576027      -0.32826707       0.41691983 </v>
   <v>       0.38804722      -0.38804722      -0.34167487 </v>
   <v>      -0.50000000      -0.38250681      -0.34021320 </v>
   <v>       0.44576027      -0.32826707      -0.41691977 </v>
   <v>      -0.44576027      -0.32826707      -0.41691977 </v>
   <v>      -0.50000000      -0.27609445       0.50000000 </v>
   <v>      -0.38804722      -0.38804722      -0.34167487 </v>
  </varray>
 </structure>
 <varray name="primitive_index" >
  <v type="int" >        1 </v>
  <v type="int" >        3 </v>
  <v type="int" >        5 </v>
  <v type="int" >        7 </v>
  <v type="int" >       15 </v>
  <v type="int" >       29 </v>
  <v type="int" >       28 </v>
  <v type="int" >       34 </v>
  <v type="int" >       21 </v>
  <v type="int" >       19 </v>
  <v type="int" >       22 </v>
  <v type="int" >       11 </v>
  <v type="int" >       36 </v>
  <v type="int" >       38 </v>
  <v type="int" >       52 </v>
  <v type="int" >       24 </v>
  <v type="int" >       32 </v>
  <v type="int" >       44 </v>
  <v type="int" >       48 </v>
  <v type="int" >       42 </v>
  <v type="int" >       43 </v>
  <v type="int" >       40 </v>
  <v type="int" >        6 </v>
  <v type="int" >        4 </v>
  <v type="int" >       30 </v>
  <v type="int" >       26 </v>
  <v type="int" >        8 </v>
  <v type="int" >       16 </v>
  <v type="int" >       49 </v>
  <v type="int" >       47 </v>
  <v type="int" >       56 </v>
  <v type="int" >       53 </v>
  <v type="int" >       57 </v>
  <v type="int" >       12 </v>
  <v type="int" >       13 </v>
  <v type="int" >       33 </v>
  <v type="int" >       25 </v>
  <v type="int" >       45 </v>
  <v type="int" >       50 </v>
  <v type="int" >       55 </v>
  <v type="int" >       54 </v>
  <v type="int" >       39 </v>
  <v type="int" >       37 </v>
  <v type="int" >        2 </v>
  <v type="int" >        9 </v>
  <v type="int" >       17 </v>
  <v type="int" >       31 </v>
  <v type="int" >       27 </v>
  <v type="int" >       35 </v>
  <v type="int" >       20 </v>
  <v type="int" >       23 </v>
  <v type="int" >       14 </v>
  <v type="int" >       51 </v>
  <v type="int" >       46 </v>
  <v type="int" >       41 </v>
  <v type="int" >       10 </v>
  <v type="int" >       18 </v>
 </varray>
 <kpoints>
  <generation param="Monkhorst-Pack">
   <v type="int" name="divisions">       1        1        1 </v>
   <v name="usershift">      0.00000000       0.00000000       0.00000000 </v>
   <v name="genvec1">      1.00000000       0.00000000       0.00000000 </v>
   <v name="genvec2">      0.00000000       1.00000000       0.00000000 </v>
   <v name="genvec3">      0.00000000       0.00000000       1.00000000 </v>
   <v name="shift">      0.00000000       0.00000000       0.00000000 </v>
  </generation>
  <varray name="kpointlist" >
   <v>       0.00000000       0.00000000       0.00000000 </v>
  </varray>
  <varray name="weights" >
   <v>       1.00000000 </v>
  </varray>
 </kpoints>
 <parameters>
  <separator name="general" >
   <i type="string" name="SYSTEM">6_Pd100_top_free_z(O)</i>
   <i type="logical" name="LCOMPAT"> F  </i>
  </separator>
  <separator name="electronic" >
   <i type="string" name="PREC">normal</i>
   <i name="ENMAX">    400.00000000</i>
   <i name="ENAUG">    644.87300000</i>
   <i name="EDIFF">      0.00010000</i>
   <i type="int" name="IALGO">    68</i>
   <i type="int" name="IWAVPR">    10</i>
   <i type="int" name="NBANDS">   336</i>
   <i name="NELECT">    560.00000000</i>
   <i type="int" name="TURBO">     0</i>
   <i type="int" name="IRESTART">     0</i>
   <i type="int" name="NREBOOT">     0</i>
   <i type="int" name="NMIN">     0</i>
   <i name="EREF">      0.00000000</i>
   <separator name="electronic smearing" >
    <i type="int" name="ISMEAR">     2</i>
    <i name="SIGMA">      0.20000000</i>
    <i name="KSPACING">      0.50000000</i>
    <i type="logical" name="KGAMMA"> T  </i>
   </separator>
   <separator name="electronic projectors" >
    <i type="logical" name="LREAL"> T  </i>
    <v name="ROPT">     -0.00050000     -0.00050000     -0.00050000</v>
    <i type="int" name="LMAXPAW">  -100</i>
    <i type="int" name="LMAXMIX">     2</i>
    <i type="logical" name="NLSPLINE"> F  </i>
   </separator>
   <separator name="electronic startup" >
    <i type="int" name="ISTART">     0</i>
    <i type="int" name="ICHARG">     2</i>
    <i type="int" name="INIWAV">     1</i>
   </separator>
   <separator name="electronic spin" >
    <i type="int" name="ISPIN">     1</i>
    <i type="logical" name="LNONCOLLINEAR"> F  </i>
    <v name="MAGMOM">      1.00000000      1.00000000      1.00000000      1.00000000      1.00000000      1.00000000      1.00000000      1.00000000      1.00000000      1.00000000      1.00000000      1.00000000      1.00000000      1.00000000      1.00000000      1.00000000      1.00000000      1.00000000      1.00000000      1.00000000
      1.00000000      1.00000000      1.00000000      1.00000000      1.00000000      1.00000000      1.00000000      1.00000000      1.00000000      1.00000000      1.00000000      1.00000000      1.00000000      1.00000000      1.00000000      1.00000000      1.00000000      1.00000000      1.00000000      1.00000000
      1.00000000      1.00000000      1.00000000      1.00000000      1.00000000      1.00000000      1.00000000      1.00000000      1.00000000      1.00000000      1.00000000      1.00000000      1.00000000      1.00000000      1.00000000      1.00000000      1.00000000</v>
    <i name="NUPDOWN">     -1.00000000</i>
    <i type="logical" name="LSORBIT"> F  </i>
    <v name="SAXIS">      0.00000000      0.00000000      1.00000000</v>
    <i type="logical" name="LSPIRAL"> F  </i>
    <v name="QSPIRAL">      0.00000000      0.00000000      0.00000000</v>
    <i type="logical" name="LZEROZ"> F  </i>
   </separator>
   <separator name="electronic exchange-correlation" >
    <i type="logical" name="LASPH"> F  </i>
    <i type="logical" name="LMETAGGA"> F  </i>
   </separator>
   <separator name="electronic convergence" >
    <i type="int" name="NELM">   100</i>
    <i type="int" name="NELMDL">    -5</i>
    <i type="int" name="NELMIN">     6</i>
    <i name="ENINI">    400.00000000</i>
    <separator name="electronic convergence detail" >
     <i type="logical" name="LDIAG"> T  </i>
     <i type="logical" name="LSUBROT"> F  </i>
     <i name="WEIMIN">      0.00000000</i>
     <i name="EBREAK">      0.00000007</i>
     <i name="DEPER">      0.30000000</i>
     <i type="int" name="NRMM">     4</i>
     <i name="TIME">      0.40000000</i>
    </separator>
   </separator>
   <separator name="electronic mixer" >
    <i name="AMIX">      0.40000000</i>
    <i name="BMIX">      1.00000000</i>
    <i name="AMIN">      0.10000000</i>
    <i name="AMIX_MAG">      1.60000000</i>
    <i name="BMIX_MAG">      1.00000000</i>
    <separator name="electronic mixer details" >
     <i type="int" name="IMIX">     4</i>
     <i type="logical" name="MIXFIRST"> F  </i>
     <i type="int" name="MAXMIX">   -45</i>
     <i name="WC">    100.00000000</i>
     <i type="int" name="INIMIX">     1</i>
     <i type="int" name="MIXPRE">     1</i>
     <i type="int" name="MREMOVE">     5</i>
    </separator>
   </separator>
   <separator name="electronic dipolcorrection" >
    <i type="logical" name="LDIPOL"> F  </i>
    <i type="logical" name="LMONO"> F  </i>
    <i type="int" name="IDIPOL">     0</i>
    <i name="EPSILON">      1.00000000</i>
    <v name="DIPOL">   -100.00000000   -100.00000000   -100.00000000</v>
    <i name="EFIELD">      0.00000000</i>
   </separator>
  </separator>
  <separator name="grids" >
   <i type="int" name="NGX">   150</i>
   <i type="int" name="NGY">   150</i>
   <i type="int" name="NGZ">   150</i>
   <i type="int" name="NGXF">   300</i>
   <i type="int" name="NGYF">   300</i>
   <i type="int" name="NGZF">   300</i>
   <i type="logical" name="ADDGRID"> F  </i>
  </separator>
  <separator name="ionic" >
   <i type="int" name="NSW">     0</i>
   <i type="int" name="IBRION">    -1</i>
   <i type="int" name="MDALGO">     0</i>
   <i type="int" name="ISIF">     2</i>
   <i name="PSTRESS">      0.00000000</i>
   <i name="EDIFFG">     -0.05000000</i>
   <i type="int" name="NFREE">     1</i>
   <i name="POTIM">      0.50000000</i>
   <i name="SMASS">     -3.00000000</i>
   <i name="SCALEE">      1.00000000</i>
  </separator>
  <separator name="ionic md" >
   <i name="TEBEG">      0.00010000</i>
   <i name="TEEND">      0.00010000</i>
   <i type="int" name="NBLOCK">     1</i>
   <i type="int" name="KBLOCK">     1</i>
   <i type="int" name="NPACO">   256</i>
   <i name="APACO">     16.00000000</i>
  </separator>
  <separator name="symmetry" >
   <i type="int" name="ISYM">     2</i>
   <i name="SYMPREC">      0.00001000</i>
  </separator>
  <separator name="dos" >
   <i type="int" name="LORBIT">     0</i>
   <v name="RWIGS">     -1.00000000     -1.00000000     -1.00000000</v>
   <i type="int" name="NEDOS">   301</i>
   <i name="EMIN">     10.00000000</i>
   <i name="EMAX">    -10.00000000</i>
   <i name="EFERMI">      0.00000000</i>
  </separator>
  <separator name="writing" >
   <i type="int" name="NWRITE">     2</i>
   <i type="logical" name="LWAVE"> F  </i>
   <i type="logical" name="LDOWNSAMPLE"> F  </i>
   <i type="logical" name="LCHARG"> F  </i>
   <i type="logical" name="LPARD"> F  </i>
   <i type="logical" name="LVTOT"> F  </i>
   <i type="logical" name="LVHAR"> F  </i>
   <i type="logical" name="LELF"> F  </i>
   <i type="logical" name="LOPTICS"> F  </i>
   <v name="STM">      0.00000000      0.00000000      0.00000000      0.00000000      0.00000000      0.00000000      0.00000000</v>
  </separator>
  <separator name="performance" >
   <i type="int" name="NPAR">     1</i>
   <i type="int" name="NSIM">     4</i>
   <i type="int" name="NBLK">    -1</i>
   <i type="logical" name="LPLANE"> T  </i>
   <i type="logical" name="LSCALAPACK"> T  </i>
   <i type="logical" name="LSCAAWARE"> F  </i>
   <i type="logical" name="LSCALU"> F  </i>
   <i type="logical" name="LASYNC"> F  </i>
   <i type="logical" name="LORBITALREAL"> F  </i>
  </separator>
  <separator name="miscellaneous" >
   <i type="int" name="IDIOT">     3</i>
   <i type="int" name="ISPECIAL">     0</i>
   <i type="logical" name="LMUSIC"> F  </i>
   <v name="POMASS">    106.42000000     12.01100000     16.00000000</v>
   <v name="DARWINR">      0.00000000      0.00000000      0.00000000</v>
   <v name="DARWINV">      1.00000000      1.00000000      1.00000000</v>
   <i type="logical" name="LCORR"> T  </i>
  </separator>
  <i type="logical" name="GGA_COMPAT"> T  </i>
  <i type="logical" name="LBERRY"> F  </i>
  <i type="int" name="ICORELEVEL">     0</i>
  <i type="logical" name="LDAU"> F  </i>
  <i type="int" name="I_CONSTRAINED_M">     0</i>
  <separator name="electronic exchange-correlation" >
   <i type="string" name="GGA">RP</i>
   <i type="int" name="VOSKOWN">     0</i>
   <i type="logical" name="LHFCALC"> F  </i>
   <i type="string" name="PRECFOCK"></i>
   <i type="logical" name="LSYMGRAD"> F  </i>
   <i type="logical" name="LHFONE"> F  </i>
   <i type="logical" name="LRHFCALC"> F  </i>
   <i type="logical" name="LTHOMAS"> F  </i>
   <i type="logical" name="LMODELHF"> F  </i>
   <i name="ENCUT4O">     -1.00000000</i>
   <i type="int" name="EXXOEP">     0</i>
   <i type="int" name="FOURORBIT">     0</i>
   <i name="AEXX">      0.00000000</i>
   <i name="HFALPHA">      0.00000000</i>
   <i name="MCALPHA">      0.00000000</i>
   <i name="ALDAX">      1.00000000</i>
   <i name="AGGAX">      1.00000000</i>
   <i name="ALDAC">      1.00000000</i>
   <i name="AGGAC">      1.00000000</i>
   <i type="int" name="NKREDX">     1</i>
   <i type="int" name="NKREDY">     1</i>
   <i type="int" name="NKREDZ">     1</i>
   <i type="logical" name="SHIFTRED"> F  </i>
   <i type="logical" name="ODDONLY"> F  </i>
   <i type="logical" name="EVENONLY"> F  </i>
   <i type="int" name="LMAXFOCK">     0</i>
   <i type="int" name="NMAXFOCKAE">     0</i>
   <i type="logical" name="LFOCKAEDFT"> F  </i>
   <i name="HFSCREEN">      0.00000000</i>
   <i name="HFSCREENC">      0.00000000</i>
   <i type="int" name="NBANDSGWLOW">     0</i>
  </separator>
  <separator name="vdW DFT" >
   <i type="logical" name="LUSE_VDW"> F  </i>
   <i name="Zab_VDW">     -0.84910000</i>
   <i name="PARAM1">      0.12340000</i>
   <i name="PARAM2">      1.00000000</i>
   <i name="PARAM3">      0.00000000</i>
  </separator>
  <separator name="model GW" >
   <i type="int" name="MODEL_GW">     0</i>
   <i name="MODEL_EPS0">    284.21052632</i>
   <i name="MODEL_ALPHA">      1.00000000</i>
  </separator>
  <separator name="linear response parameters" >
   <i type="logical" name="LEPSILON"> F  </i>
   <i type="logical" name="LRPA"> F  </i>
   <i type="logical" name="LNABLA"> F  </i>
   <i type="logical" name="LVEL"> F  </i>
   <i type="int" name="KINTER">     0</i>
   <i name="CSHIFT">      0.10000000</i>
   <i name="OMEGAMAX">     -1.00000000</i>
   <i name="DEG_THRESHOLD">      0.00200000</i>
   <i name="RTIME">     -0.10000000</i>
   <i name="WPLASMAI">      0.00000000</i>
   <v name="DFIELD">      0.00000000      0.00000000      0.00000000</v>
   <v name="WPLASMA">      0.00000000      0.00000000      0.00000000      0.00000000      0.00000000      0.00000000      0.00000000      0.00000000      0.00000000</v>
  </separator>
  <separator name="orbital magnetization" >
   <i type="logical" name="NUCIND"> F  </i>
   <v name="MAGPOS">      0.00000000      0.00000000      0.00000000</v>
   <i type="logical" name="LNICSALL"> T  </i>
   <i type="logical" name="ORBITALMAG"> F  </i>
   <i type="logical" name="LMAGBLOCH"> F  </i>
   <i type="logical" name="LCHIMAG"> F  </i>
   <i type="logical" name="LGAUGE"> T  </i>
   <i type="int" name="MAGATOM">     0</i>
   <v name="MAGDIPOL">      0.00000000      0.00000000      0.00000000</v>
   <v name="AVECCONST">      0.00000000      0.00000000      0.00000000</v>
  </separator>
  <separator name="response functions" >
   <i type="logical" name="LADDER"> F  </i>
   <i type="logical" name="LRPAFORCE"> F  </i>
   <i type="logical" name="LFXC"> F  </i>
   <i type="logical" name="LHARTREE"> T  </i>
   <i type="int" name="IBSE">     0</i>
   <v type="int" name="KPOINT">    -1     0     0     0</v>
   <i type="logical" name="LTCTE"> F  </i>
   <i type="logical" name="LTETE"> F  </i>
   <i type="logical" name="LTRIPLET"> F  </i>
   <i type="logical" name="LFXCEPS"> F  </i>
   <i type="logical" name="LFXHEG"> F  </i>
   <i type="int" name="NATURALO">     2</i>
   <i type="logical" name="L2ORDER"> F  </i>
   <i type="logical" name="LMP2LT"> F  </i>
   <i type="logical" name="LUSEW"> F  </i>
   <i name="ENCUTGW">     -2.00000000</i>
   <i name="ENCUTGWSOFT">     -2.00000000</i>
   <i name="ENCUTLF">     -1.00000000</i>
   <i type="int" name="LMAXMP2">    -1</i>
   <i name="SCISSOR">      0.00000000</i>
   <i type="int" name="NOMEGA">     0</i>
   <i type="int" name="NOMEGAR">     0</i>
   <i type="int" name="NBANDSGW">    -1</i>
   <i type="int" name="NBANDSO">    -1</i>
   <i type="int" name="NBANDSV">    -1</i>
   <i type="int" name="NELM">   100</i>
   <i type="int" name="NELMHF">     1</i>
   <i type="int" name="DIM">     3</i>
   <i type="int" name="ANTIRES">     0</i>
   <i name="OMEGAMAX">    -30.00000000</i>
   <i name="OMEGAMIN">    -30.00000000</i>
   <i name="OMEGATL">   -200.00000000</i>
   <i type="int" name="OMEGAGRID">   140</i>
   <i name="CSHIFT">     -0.10000000</i>
   <i type="logical" name="SELFENERGY"> F  </i>
   <i type="logical" name="LSPECTRAL"> F  </i>
   <i type="logical" name="LSPECTRALGW"> F  </i>
   <i type="logical" name="LSINGLES"> F  </i>
   <i type="logical" name="LFERMIGW"> F  </i>
   <i type="logical" name="ODDONLYGW"> F  </i>
   <i type="logical" name="EVENONLYGW"> F  </i>
   <i type="int" name="NKREDLFX">     1</i>
   <i type="int" name="NKREDLFY">     1</i>
   <i type="int" name="NKREDLFZ">     1</i>
   <i type="int" name="MAXMEM"> 10000</i>
   <i type="int" name="TELESCOPE">     0</i>
   <i type="int" name="TAUPAR">     1</i>
   <i type="int" name="OMEGAPAR">    -1</i>
   <i name="LAMBDA">      1.00000000</i>
  </separator>
  <separator name="External order field" >
   <i name="OFIELD_KAPPA">      0.00000000</i>
   <v name="OFIELD_K">      0.00000000      0.00000000      0.00000000</v>
   <i name="OFIELD_Q6_NEAR">      0.00000000</i>
   <i name="OFIELD_Q6_FAR">      0.00000000</i>
   <i name="OFIELD_A">      0.00000000</i>
  </separator>
 </parameters>
 <atominfo>
  <atoms>      57 </atoms>
  <types>       3 </types>
  <array name="atoms" >
   <dimension dim="1">ion</dimension>
   <field type="string">element</field>
   <field type="int">atomtype</field>
   <set>
    <rc><c>Pd</c><c>   1</c></rc>
    <rc><c>Pd</c><c>   1</c></rc>
    <rc><c>Pd</c><c>   1</c></rc>
    <rc><c>Pd</c><c>   1</c></rc>
    <rc><c>Pd</c><c>   1</c></rc>
    <rc><c>Pd</c><c>   1</c></rc>
    <rc><c>Pd</c><c>   1</c></rc>
    <rc><c>Pd</c><c>   1</c></rc>
    <rc><c>Pd</c><c>   1</c></rc>
    <rc><c>Pd</c><c>   1</c></rc>
    <rc><c>Pd</c><c>   1</c></rc>
    <rc><c>Pd</c><c>   1</c></rc>
    <rc><c>Pd</c><c>   1</c></rc>
    <rc><c>Pd</c><c>   1</c></rc>
    <rc><c>Pd</c><c>   1</c></rc>
    <rc><c>Pd</c><c>   1</c></rc>
    <rc><c>Pd</c><c>   1</c></rc>
    <rc><c>Pd</c><c>   1</c></rc>
    <rc><c>Pd</c><c>   1</c></rc>
    <rc><c>Pd</c><c>   1</c></rc>
    <rc><c>Pd</c><c>   1</c></rc>
    <rc><c>Pd</c><c>   1</c></rc>
    <rc><c>Pd</c><c>   1</c></rc>
    <rc><c>Pd</c><c>   1</c></rc>
    <rc><c>Pd</c><c>   1</c></rc>
    <rc><c>Pd</c><c>   1</c></rc>
    <rc><c>Pd</c><c>   1</c></rc>
    <rc><c>Pd</c><c>   1</c></rc>
    <rc><c>Pd</c><c>   1</c></rc>
    <rc><c>Pd</c><c>   1</c></rc>
    <rc><c>Pd</c><c>   1</c></rc>
    <rc><c>Pd</c><c>   1</c></rc>
    <rc><c>Pd</c><c>   1</c></rc>
    <rc><c>Pd</c><c>   1</c></rc>
    <rc><c>Pd</c><c>   1</c></rc>
    <rc><c>Pd</c><c>   1</c></rc>
    <rc><c>Pd</c><c>   1</c></rc>
    <rc><c>Pd</c><c>   1</c></rc>
    <rc><c>Pd</c><c>   1</c></rc>
    <rc><c>Pd</c><c>   1</c></rc>
    <rc><c>Pd</c><c>   1</c></rc>
    <rc><c>Pd</c><c>   1</c></rc>
    <rc><c>Pd</c><c>   1</c></rc>
    <rc><c>Pd</c><c>   1</c></rc>
    <rc><c>Pd</c><c>   1</c></rc>
    <rc><c>Pd</c><c>   1</c></rc>
    <rc><c>Pd</c><c>   1</c></rc>
    <rc><c>Pd</c><c>   1</c></rc>
    <rc><c>Pd</c><c>   1</c></rc>
    <rc><c>Pd</c><c>   1</c></rc>
    <rc><c>Pd</c><c>   1</c></rc>
    <rc><c>Pd</c><c>   1</c></rc>
    <rc><c>Pd</c><c>   1</c></rc>
    <rc><c>Pd</c><c>   1</c></rc>
    <rc><c>Pd</c><c>   1</c></rc>
    <rc><c>C </c><c>   2</c></rc>
    <rc><c>O </c><c>   3</c></rc>
   </set>
  </array>
  <array name="atomtypes" >
   <dimension dim="1">type</dimension>
   <field type="int">atomspertype</field>
   <field type="string">element</field>
   <field>mass</field>
   <field>valence</field>
   <field type="string">pseudopotential</field>
   <set>
    <rc><c>  55</c><c>Pd</c><c>    106.42000000</c><c>     10.00000000</c><c>  PAW_PBE Pd 04Jan2005                  </c></rc>
    <rc><c>   1</c><c>C </c><c>     12.01100000</c><c>      4.00000000</c><c>  PAW_PBE C 08Apr2002                   </c></rc>
    <rc><c>   1</c><c>O </c><c>     16.00000000</c><c>      6.00000000</c><c>  PAW_PBE O 08Apr2002                   </c></rc>
   </set>
  </array>
 </atominfo>
 <structure name="initialpos" >
  <crystal>
   <varray name="basis" >
    <v>      30.00000000       0.00000000       0.00000000 </v>
    <v>       0.00000000      30.00000000       0.00000000 </v>
    <v>       0.00000000       0.00000000      30.00000000 </v>
   </varray>
   <i name="volume">  27000.00000000 </i>
   <varray name="rec_basis" >
    <v>       0.03333333       0.00000000       0.00000000 </v>
    <v>       0.00000000       0.03333333       0.00000000 </v>
    <v>       0.00000000       0.00000000       0.03333333 </v>
   </varray>
  </crystal>
  <varray name="positions" >
   <v>       0.44576020       0.32826710       0.41691983 </v>
   <v>       0.67173288       0.55423978       0.41691983 </v>
   <v>       0.55423980       0.32826710       0.41691983 </v>
   <v>       0.32826712       0.55423978       0.41691983 </v>
   <v>       0.50000000       0.38250690       0.34021317 </v>
   <v>       0.50000000       0.38250690       0.65978680 </v>
   <v>       0.50000000       0.27609440       0.50000000 </v>
   <v>       0.27609443       0.49999998       0.50000000 </v>
   <v>       0.72390557       0.49999998       0.50000000 </v>
   <v>       0.50000000       0.72390555       0.50000000 </v>
   <v>       0.61195280       0.38804720       0.34167483 </v>
   <v>       0.61195280       0.38804720       0.65832513 </v>
   <v>       0.38804722       0.61195278       0.34167483 </v>
   <v>       0.38804722       0.61195278       0.65832513 </v>
   <v>       0.38804720       0.38804720       0.34167483 </v>
   <v>       0.38804720       0.38804720       0.65832513 </v>
   <v>       0.61195278       0.61195278       0.34167483 </v>
   <v>       0.61195278       0.61195278       0.65832513 </v>
   <v>       0.44576020       0.32826710       0.58308023 </v>
   <v>       0.67173288       0.55423978       0.58308023 </v>
   <v>       0.55791699       0.44208301       0.41809300 </v>
   <v>       0.32826705       0.44576024       0.41691983 </v>
   <v>       0.55423973       0.67173293       0.41691983 </v>
   <v>       0.55423980       0.32826710       0.58308023 </v>
   <v>       0.32826712       0.55423978       0.58308023 </v>
   <v>       0.67173295       0.44576024       0.41691983 </v>
   <v>       0.44576027       0.67173293       0.41691983 </v>
   <v>       0.44208301       0.44208301       0.41809300 </v>
   <v>       0.50000000       0.38416601       0.50000000 </v>
   <v>       0.61749315       0.50000005       0.34021317 </v>
   <v>       0.61749315       0.50000005       0.65978680 </v>
   <v>       0.38250685       0.50000005       0.34021317 </v>
   <v>       0.38250685       0.50000005       0.65978680 </v>
   <v>       0.38317830       0.38317830       0.50000000 </v>
   <v>       0.61682172       0.61682172       0.50000000 </v>
   <v>       0.61682170       0.38317830       0.50000000 </v>
   <v>       0.38317828       0.61682172       0.50000000 </v>
   <v>       0.50000000       0.50000000       0.33478917 </v>
   <v>       0.50000000       0.50000000       0.66521087 </v>
   <v>       0.32826705       0.44576024       0.58308023 </v>
   <v>       0.55423973       0.67173293       0.58308023 </v>
   <v>       0.55791699       0.44208301       0.58190703 </v>
   <v>       0.44208298       0.55791702       0.41809300 </v>
   <v>       0.44208301       0.44208301       0.58190703 </v>
   <v>       0.67173295       0.44576024       0.58308023 </v>
   <v>       0.44576027       0.67173293       0.58308023 </v>
   <v>       0.55791702       0.55791702       0.41809300 </v>
   <v>       0.38416599       0.50000002       0.50000000 </v>
   <v>       0.61583401       0.50000002       0.50000000 </v>
   <v>       0.50000000       0.61749319       0.34021317 </v>
   <v>       0.50000000       0.61749319       0.65978680 </v>
   <v>       0.50000000       0.50000000       0.50000000 </v>
   <v>       0.44208298       0.55791702       0.58190703 </v>
   <v>       0.55791702       0.55791702       0.58190703 </v>
   <v>       0.50000000       0.61583404       0.50000000 </v>
   <v>       0.39865597       0.31588463       0.67194767 </v>
   <v>       0.38462300       0.29039047       0.69575697 </v>
  </varray>
  <varray name="selective"  type="logical" >
   <v type="logical" >  F  F  F </v>
   <v type="logical" >  F  F  F </v>
   <v type="logical" >  F  F  F </v>
   <v type="logical" >  F  F  F </v>
   <v type="logical" >  F  F  F </v>
   <v type="logical" >  F  F  F </v>
   <v type="logical" >  F  F  F </v>
   <v type="logical" >  F  F  F </v>
   <v type="logical" >  F  F  F </v>
   <v type="logical" >  F  F  F </v>
   <v type="logical" >  F  F  F </v>
   <v type="logical" >  F  F  F </v>
   <v type="logical" >  F  F  F </v>
   <v type="logical" >  F  F  F </v>
   <v type="logical" >  F  F  F </v>
   <v type="logical" >  F  F  F </v>
   <v type="logical" >  F  F  F </v>
   <v type="logical" >  F  F  F </v>
   <v type="logical" >  F  F  F </v>
   <v type="logical" >  F  F  F </v>
   <v type="logical" >  F  F  F </v>
   <v type="logical" >  F  F  F </v>
   <v type="logical" >  F  F  F </v>
   <v type="logical" >  F  F  F </v>
   <v type="logical" >  F  F  F </v>
   <v type="logical" >  F  F  F </v>
   <v type="logical" >  F  F  F </v>
   <v type="logical" >  F  F  F </v>
   <v type="logical" >  F  F  F </v>
   <v type="logical" >  F  F  F </v>
   <v type="logical" >  F  F  F </v>
   <v type="logical" >  F  F  F </v>
   <v type="logical" >  F  F  F </v>
   <v type="logical" >  F  F  F </v>
   <v type="logical" >  F  F  F </v>
   <v type="logical" >  F  F  F </v>
   <v type="logical" >  F  F  F </v>
   <v type="logical" >  F  F  F </v>
   <v type="logical" >  F  F  F </v>
   <v type="logical" >  F  F  F </v>
   <v type="logical" >  F  F  F </v>
   <v type="logical" >  F  F  F </v>
   <v type="logical" >  F  F  F </v>
   <v type="logical" >  F  F  F </v>
   <v type="logical" >  F  F  F </v>
   <v type="logical" >  F  F  F </v>
   <v type="logical" >  F  F  F </v>
   <v type="logical" >  F  F  F </v>
   <v type="logical" >  F  F  F </v>
   <v type="logical" >  F  F  F </v>
   <v type="logical" >  F  F  F </v>
   <v type="logical" >  F  F  F </v>
   <v type="logical" >  F  F  F </v>
   <v type="logical" >  F  F  F </v>
   <v type="logical" >  F  F  F </v>
   <v type="logical" >  F  F  F </v>
   <v type="logical" >  F  F  F </v>
  </varray>
  <nose>
   <v>      -3.00000000       0.00000000       0.00010000       0.00010000 </v>
  </nose>
 </structure>
 <calculation>
  <scstep>
   <time name="dav">  356.74  356.85</time>
   <time name="total">  370.82  370.93</time>
   <energy>
    <i name="alphaZ">     75.25431677 </i>
    <i name="ewald"> 137607.61571799 </i>
    <i name="hartreedc">-180972.42740818 </i>
    <i name="XCdc">  -1703.47070928 </i>
    <i name="pawpsdc">  44873.02882129 </i>
    <i name="pawaedc"> -41398.84523641 </i>
    <i name="eentropy">      0.02306720 </i>
    <i name="bandstr">    820.26777776 </i>
    <i name="atom">  45086.50549395 </i>
    <i name="e_fr_energy">   4387.95184109 </i>
    <i name="e_wo_entrp">   4387.92877389 </i>
    <i name="e_0_energy">   4387.94607429 </i>
   </energy>
  </scstep>
  <scstep>
   <time name="dav">  571.68  571.74</time>
   <time name="total">  571.68  571.74</time>
   <energy>
    <i name="e_fr_energy">   2012.95506201 </i>
    <i name="e_wo_entrp">   2012.98271270 </i>
    <i name="e_0_energy">   2012.96197468 </i>
   </energy>
  </scstep>
  <scstep>
   <time name="dav">  482.84  482.85</time>
   <time name="total">  482.84  482.85</time>
   <energy>
    <i name="e_fr_energy">    231.85033950 </i>
    <i name="e_wo_entrp">    231.83540860 </i>
    <i name="e_0_energy">    231.84660677 </i>
   </energy>
  </scstep>
  <scstep>
   <time name="dav">  415.73  415.75</time>
   <time name="total">  415.73  415.75</time>
   <energy>
    <i name="e_fr_energy">   -135.37991738 </i>
    <i name="e_wo_entrp">   -135.35511605 </i>
    <i name="e_0_energy">   -135.37371705 </i>
   </energy>
  </scstep>
  <scstep>
   <time name="dav">  500.68  500.68</time>
   <time name="total">  526.20  526.20</time>
   <energy>
    <i name="e_fr_energy">   -179.29381706 </i>
    <i name="e_wo_entrp">   -179.78145932 </i>
    <i name="e_0_energy">   -179.41572763 </i>
   </energy>
  </scstep>
  <scstep>
   <time name="diag">   66.80   66.80</time>
   <time name="diis">  186.31  186.31</time>
   <time name="orth">   13.36   13.36</time>
   <time name="total">  305.06  305.06</time>
   <energy>
    <i name="e_fr_energy">   -177.85265372 </i>
    <i name="e_wo_entrp">   -177.67674014 </i>
    <i name="e_0_energy">   -177.80867532 </i>
   </energy>
  </scstep>
  <scstep>
   <time name="diag">   67.66   67.66</time>
   <time name="diis">  221.82  221.83</time>
   <time name="orth">   13.60   13.60</time>
   <time name="total">  342.59  342.60</time>
   <energy>
    <i name="e_fr_energy">   -179.62517265 </i>
    <i name="e_wo_entrp">   -179.49387132 </i>
    <i name="e_0_energy">   -179.59234732 </i>
   </energy>
  </scstep>
  <scstep>
   <time name="diag">   68.50   68.50</time>
   <time name="diis">  196.55  196.55</time>
   <time name="orth">   13.69   13.69</time>
   <time name="total">  318.62  318.63</time>
   <energy>
    <i name="e_fr_energy">   -182.82484909 </i>
    <i name="e_wo_entrp">   -182.75742384 </i>
    <i name="e_0_energy">   -182.80799278 </i>
   </energy>
  </scstep>
  <scstep>
   <time name="diag">   68.85   68.85</time>
   <time name="diis">  202.92  202.92</time>
   <time name="orth">   13.60   13.60</time>
   <time name="total">  325.56  325.56</time>
   <energy>
    <i name="e_fr_energy">   -181.76181207 </i>
    <i name="e_wo_entrp">   -181.74202645 </i>
    <i name="e_0_energy">   -181.75686567 </i>
   </energy>
  </scstep>
  <scstep>
   <time name="diag">   69.79   69.79</time>
   <time name="diis">  198.40  198.40</time>
   <time name="orth">   13.39   13.39</time>
   <time name="total">  321.95  321.95</time>
   <energy>
    <i name="e_fr_energy">   -179.84452340 </i>
    <i name="e_wo_entrp">   -179.72689428 </i>
    <i name="e_0_energy">   -179.81511612 </i>
   </energy>
  </scstep>
  <scstep>
   <time name="diag">   69.20   69.20</time>
   <time name="diis">  194.61  194.61</time>
   <time name="orth">   13.51   13.51</time>
   <time name="total">  317.57  317.57</time>
   <energy>
    <i name="e_fr_energy">   -177.92240653 </i>
    <i name="e_wo_entrp">   -177.78519062 </i>
    <i name="e_0_energy">   -177.88810255 </i>
   </energy>
  </scstep>
  <scstep>
   <time name="diag">   69.01   69.01</time>
   <time name="diis">  195.01  195.01</time>
   <time name="orth">   13.82   13.82</time>
   <time name="total">  317.95  317.95</time>
   <energy>
    <i name="e_fr_energy">   -177.10794433 </i>
    <i name="e_wo_entrp">   -177.02643595 </i>
    <i name="e_0_energy">   -177.08756724 </i>
   </energy>
  </scstep>
  <scstep>
   <time name="diag">   68.89   68.89</time>
   <time name="diis">  192.81  192.81</time>
   <time name="orth">   14.02   14.02</time>
   <time name="total">  316.36  316.36</time>
   <energy>
    <i name="e_fr_energy">   -176.47938052 </i>
    <i name="e_wo_entrp">   -176.45825194 </i>
    <i name="e_0_energy">   -176.47409838 </i>
   </energy>
  </scstep>
  <scstep>
   <time name="diag">   68.74   68.74</time>
   <time name="diis">  191.50  191.51</time>
   <time name="orth">   13.99   13.99</time>
   <time name="total">  315.14  315.14</time>
   <energy>
    <i name="e_fr_energy">   -176.33345101 </i>
    <i name="e_wo_entrp">   -176.19609421 </i>
    <i name="e_0_energy">   -176.29911181 </i>
   </energy>
  </scstep>
  <scstep>
   <time name="diag">   69.21   69.21</time>
   <time name="diis">  191.01  191.01</time>
   <time name="orth">   14.06   14.06</time>
   <time name="total">  315.22  315.22</time>
   <energy>
    <i name="e_fr_energy">   -176.52470136 </i>
    <i name="e_wo_entrp">   -176.39994981 </i>
    <i name="e_0_energy">   -176.49351347 </i>
   </energy>
  </scstep>
  <scstep>
   <time name="diag">   69.09   69.09</time>
   <time name="diis">  191.10  191.10</time>
   <time name="orth">   14.15   14.15</time>
   <time name="total">  315.66  315.67</time>
   <energy>
    <i name="e_fr_energy">   -175.63477597 </i>
    <i name="e_wo_entrp">   -175.53962312 </i>
    <i name="e_0_energy">   -175.61098776 </i>
   </energy>
  </scstep>
  <scstep>
   <time name="diag">   69.03   69.03</time>
   <time name="diis">  188.32  188.32</time>
   <time name="orth">   14.12   14.12</time>
   <time name="total">  312.97  312.97</time>
   <energy>
    <i name="e_fr_energy">   -175.18216785 </i>
    <i name="e_wo_entrp">   -175.15135096 </i>
    <i name="e_0_energy">   -175.17446363 </i>
   </energy>
  </scstep>
  <scstep>
   <time name="diag">   69.33   69.33</time>
   <time name="diis">  190.25  190.25</time>
   <time name="orth">   14.20   14.20</time>
   <time name="total">  315.37  315.37</time>
   <energy>
    <i name="e_fr_energy">   -175.21268539 </i>
    <i name="e_wo_entrp">   -175.19807619 </i>
    <i name="e_0_energy">   -175.20903309 </i>
   </energy>
  </scstep>
  <scstep>
   <time name="diag">   69.04   69.04</time>
   <time name="diis">  184.95  184.96</time>
   <time name="orth">   14.04   14.04</time>
   <time name="total">  309.52  309.53</time>
   <energy>
    <i name="e_fr_energy">   -175.04614148 </i>
    <i name="e_wo_entrp">   -175.04976003 </i>
    <i name="e_0_energy">   -175.04704612 </i>
   </energy>
  </scstep>
  <scstep>
   <time name="diag">   69.18   69.18</time>
   <time name="diis">  185.76  185.77</time>
   <time name="orth">   14.02   14.02</time>
   <time name="total">  310.77  310.78</time>
   <energy>
    <i name="e_fr_energy">   -174.82566973 </i>
    <i name="e_wo_entrp">   -174.75271318 </i>
    <i name="e_0_energy">   -174.80743059 </i>
   </energy>
  </scstep>
  <scstep>
   <time name="diag">   69.61   69.61</time>
   <time name="diis">  185.86  185.86</time>
   <time name="orth">   14.06   14.06</time>
   <time name="total">  311.21  311.22</time>
   <energy>
    <i name="e_fr_energy">   -174.88161927 </i>
    <i name="e_wo_entrp">   -174.79875350 </i>
    <i name="e_0_energy">   -174.86090283 </i>
   </energy>
  </scstep>
  <scstep>
   <time name="diag">   69.57   69.57</time>
   <time name="diis">  185.61  185.61</time>
   <time name="orth">   14.07   14.07</time>
   <time name="total">  311.43  311.43</time>
   <energy>
    <i name="e_fr_energy">   -174.79936776 </i>
    <i name="e_wo_entrp">   -174.69493121 </i>
    <i name="e_0_energy">   -174.77325862 </i>
   </energy>
  </scstep>
  <scstep>
   <time name="diag">   69.59   69.59</time>
   <time name="diis">  182.64  182.65</time>
   <time name="orth">   13.96   13.96</time>
   <time name="total">  308.28  308.28</time>
   <energy>
    <i name="e_fr_energy">   -174.67100882 </i>
    <i name="e_wo_entrp">   -174.56686977 </i>
    <i name="e_0_energy">   -174.64497405 </i>
   </energy>
  </scstep>
  <scstep>
   <time name="diag">   69.80   69.80</time>
   <time name="diis">  181.93  181.93</time>
   <time name="orth">   14.02   14.02</time>
   <time name="total">  307.95  307.96</time>
   <energy>
    <i name="e_fr_energy">   -174.62475639 </i>
    <i name="e_wo_entrp">   -174.53035597 </i>
    <i name="e_0_energy">   -174.60115629 </i>
   </energy>
  </scstep>
  <scstep>
   <time name="diag">   70.13   70.13</time>
   <time name="diis">  182.47  182.47</time>
   <time name="orth">   13.98   13.98</time>
   <time name="total">  308.94  308.95</time>
   <energy>
    <i name="e_fr_energy">   -174.64795904 </i>
    <i name="e_wo_entrp">   -174.55137967 </i>
    <i name="e_0_energy">   -174.62381420 </i>
   </energy>
  </scstep>
  <scstep>
   <time name="diag">   70.31   70.32</time>
   <time name="diis">  182.02  182.02</time>
   <time name="orth">   14.00   14.00</time>
   <time name="total">  308.89  308.89</time>
   <energy>
    <i name="e_fr_energy">   -174.59124952 </i>
    <i name="e_wo_entrp">   -174.48723114 </i>
    <i name="e_0_energy">   -174.56524492 </i>
   </energy>
  </scstep>
  <scstep>
   <time name="diag">   70.28   70.28</time>
   <time name="diis">  181.23  181.23</time>
   <time name="orth">   13.96   13.96</time>
   <time name="total">  307.98  307.98</time>
   <energy>
    <i name="e_fr_energy">   -174.57495031 </i>
    <i name="e_wo_entrp">   -174.46479908 </i>
    <i name="e_0_energy">   -174.54741251 </i>
   </energy>
  </scstep>
  <scstep>
   <time name="diag">   70.61   70.61</time>
   <time name="diis">  181.12  181.12</time>
   <time name="orth">   13.90   13.90</time>
   <time name="total">  308.13  308.13</time>
   <energy>
    <i name="e_fr_energy">   -174.56485924 </i>
    <i name="e_wo_entrp">   -174.45940641 </i>
    <i name="e_0_energy">   -174.53849603 </i>
   </energy>
  </scstep>
  <scstep>
   <time name="diag">   70.43   70.43</time>
   <time name="diis">  182.61  182.61</time>
   <time name="orth">   13.86   13.86</time>
   <time name="total">  309.64  309.65</time>
   <energy>
    <i name="e_fr_energy">   -174.55896214 </i>
    <i name="e_wo_entrp">   -174.45793554 </i>
    <i name="e_0_energy">   -174.53370549 </i>
   </energy>
  </scstep>
  <scstep>
   <time name="diag">   70.53   70.53</time>
   <time name="diis">  180.94  180.95</time>
   <time name="orth">   13.81   13.81</time>
   <time name="total">  308.07  308.08</time>
   <energy>
    <i name="e_fr_energy">   -174.55317766 </i>
    <i name="e_wo_entrp">   -174.45517941 </i>
    <i name="e_0_energy">   -174.52867810 </i>
   </energy>
  </scstep>
  <scstep>
   <time name="diag">   70.89   70.89</time>
   <time name="diis">  181.55  181.56</time>
   <time name="orth">   13.78   13.78</time>
   <time name="total">  308.98  308.99</time>
   <energy>
    <i name="e_fr_energy">   -174.54797086 </i>
    <i name="e_wo_entrp">   -174.44643725 </i>
    <i name="e_0_energy">   -174.52258746 </i>
   </energy>
  </scstep>
  <scstep>
   <time name="diag">   70.54   70.54</time>
   <time name="diis">  181.49  181.49</time>
   <time name="orth">   13.80   13.80</time>
   <time name="total">  308.74  308.75</time>
   <energy>
    <i name="e_fr_energy">   -174.54566949 </i>
    <i name="e_wo_entrp">   -174.43921387 </i>
    <i name="e_0_energy">   -174.51905559 </i>
   </energy>
  </scstep>
  <scstep>
   <time name="diag">   70.80   70.81</time>
   <time name="diis">  180.69  180.69</time>
   <time name="orth">   13.84   13.84</time>
   <time name="total">  308.33  308.34</time>
   <energy>
    <i name="e_fr_energy">   -174.54343830 </i>
    <i name="e_wo_entrp">   -174.43437687 </i>
    <i name="e_0_energy">   -174.51617294 </i>
   </energy>
  </scstep>
  <scstep>
   <time name="diag">   70.53   70.54</time>
   <time name="diis">  180.54  180.55</time>
   <time name="orth">   13.83   13.83</time>
   <time name="total">  308.00  308.02</time>
   <energy>
    <i name="e_fr_energy">   -174.54415117 </i>
    <i name="e_wo_entrp">   -174.43420555 </i>
    <i name="e_0_energy">   -174.51666477 </i>
   </energy>
  </scstep>
  <scstep>
   <time name="diag">   70.87   70.87</time>
   <time name="diis">  179.94  179.94</time>
   <time name="orth">   13.79   13.79</time>
   <time name="total">  307.70  307.71</time>
   <energy>
    <i name="e_fr_energy">   -174.54514449 </i>
    <i name="e_wo_entrp">   -174.43653490 </i>
    <i name="e_0_energy">   -174.51799209 </i>
   </energy>
  </scstep>
  <scstep>
   <time name="diag">   71.21   71.21</time>
   <time name="diis">  179.15  179.15</time>
   <time name="orth">   13.82   13.82</time>
   <time name="total">  307.40  307.41</time>
   <energy>
    <i name="e_fr_energy">   -174.54548039 </i>
    <i name="e_wo_entrp">   -174.43988856 </i>
    <i name="e_0_energy">   -174.51908243 </i>
   </energy>
  </scstep>
  <scstep>
   <time name="diag">   71.24   71.24</time>
   <time name="diis">  179.25  179.25</time>
   <time name="orth">   13.86   13.86</time>
   <time name="total">  307.60  307.60</time>
   <energy>
    <i name="e_fr_energy">   -174.54882430 </i>
    <i name="e_wo_entrp">   -174.44565949 </i>
    <i name="e_0_energy">   -174.52303310 </i>
   </energy>
  </scstep>
  <scstep>
   <time name="diag">   70.66   70.67</time>
   <time name="diis">  177.96  177.97</time>
   <time name="orth">   13.95   13.95</time>
   <time name="total">  306.11  306.13</time>
   <energy>
    <i name="e_fr_energy">   -174.55105041 </i>
    <i name="e_wo_entrp">   -174.44719891 </i>
    <i name="e_0_energy">   -174.52508754 </i>
   </energy>
  </scstep>
  <scstep>
   <time name="diag">   70.74   70.74</time>
   <time name="diis">  145.71  145.71</time>
   <time name="orth">   13.53   13.53</time>
   <time name="total">  273.28  273.28</time>
   <energy>
    <i name="e_fr_energy">   -174.55269157 </i>
    <i name="e_wo_entrp">   -174.44806234 </i>
    <i name="e_0_energy">   -174.52653426 </i>
   </energy>
  </scstep>
  <scstep>
   <time name="diag">   71.03   71.03</time>
   <time name="diis">  161.85  161.86</time>
   <time name="orth">   13.45   13.45</time>
   <time name="total">  288.86  288.87</time>
   <energy>
    <i name="e_fr_energy">   -174.55653630 </i>
    <i name="e_wo_entrp">   -174.45137616 </i>
    <i name="e_0_energy">   -174.53024627 </i>
   </energy>
  </scstep>
  <scstep>
   <time name="diag">   70.73   70.73</time>
   <time name="diis">  124.36  124.36</time>
   <time name="orth">   13.47   13.47</time>
   <time name="total">  250.07  250.08</time>
   <energy>
    <i name="e_fr_energy">   -174.55792292 </i>
    <i name="e_wo_entrp">   -174.45212417 </i>
    <i name="e_0_energy">   -174.53147323 </i>
   </energy>
  </scstep>
  <scstep>
   <time name="diag">   68.77   68.77</time>
   <time name="diis">  135.75  135.75</time>
   <time name="orth">   13.43   13.43</time>
   <time name="total">  259.57  259.58</time>
   <energy>
    <i name="e_fr_energy">   -174.56060458 </i>
    <i name="e_wo_entrp">   -174.45418430 </i>
    <i name="e_0_energy">   -174.53399951 </i>
   </energy>
  </scstep>
  <scstep>
   <time name="diag">   68.17   68.18</time>
   <time name="diis">  134.38  134.39</time>
   <time name="orth">   13.68   13.68</time>
   <time name="total">  258.18  258.19</time>
   <energy>
    <i name="e_fr_energy">   -174.56275835 </i>
    <i name="e_wo_entrp">   -174.45719739 </i>
    <i name="e_0_energy">   -174.53636811 </i>
   </energy>
  </scstep>
  <scstep>
   <time name="diag">   67.09   67.10</time>
   <time name="diis">  123.37  123.38</time>
   <time name="orth">   13.84   13.84</time>
   <time name="total">  248.10  248.13</time>
   <energy>
    <i name="e_fr_energy">   -174.56408211 </i>
    <i name="e_wo_entrp">   -174.45859941 </i>
    <i name="e_0_energy">   -174.53771144 </i>
   </energy>
  </scstep>
  <scstep>
   <time name="diag">   68.04   68.05</time>
   <time name="diis">  119.72  119.73</time>
   <time name="orth">   13.87   13.87</time>
   <time name="total">  245.72  245.74</time>
   <energy>
    <i name="e_fr_energy">   -174.56632615 </i>
    <i name="e_wo_entrp">   -174.46094608 </i>
    <i name="e_0_energy">   -174.53998113 </i>
   </energy>
  </scstep>
  <scstep>
   <time name="diag">   68.91   68.91</time>
   <time name="diis">  117.22  117.23</time>
   <time name="orth">   13.81   13.81</time>
   <time name="total">  244.23  244.26</time>
   <energy>
    <i name="e_fr_energy">   -174.56693816 </i>
    <i name="e_wo_entrp">   -174.46125033 </i>
    <i name="e_0_energy">   -174.54051620 </i>
   </energy>
  </scstep>
  <scstep>
   <time name="diag">   69.89   69.90</time>
   <time name="diis">  112.94  112.95</time>
   <time name="orth">   13.70   13.70</time>
   <time name="total">  240.51  240.54</time>
   <energy>
    <i name="e_fr_energy">   -174.56815562 </i>
    <i name="e_wo_entrp">   -174.46255723 </i>
    <i name="e_0_energy">   -174.54175602 </i>
   </energy>
  </scstep>
  <scstep>
   <time name="diag">   69.95   69.95</time>
   <time name="diis">  115.91  115.98</time>
   <time name="orth">   13.42   13.41</time>
   <time name="total">  243.16  243.24</time>
   <energy>
    <i name="e_fr_energy">   -174.56875626 </i>
    <i name="e_wo_entrp">   -174.46341802 </i>
    <i name="e_0_energy">   -174.54242170 </i>
   </energy>
  </scstep>
  <scstep>
   <time name="diag">   69.57   69.57</time>
   <time name="diis">  112.04  112.05</time>
   <time name="orth">   13.48   13.48</time>
   <time name="total">  238.67  238.67</time>
   <energy>
    <i name="e_fr_energy">   -174.56924045 </i>
    <i name="e_wo_entrp">   -174.46372352 </i>
    <i name="e_0_energy">   -174.54286121 </i>
   </energy>
  </scstep>
  <scstep>
   <time name="diag">   69.69   69.69</time>
   <time name="diis">  110.83  110.83</time>
   <time name="orth">   13.38   13.38</time>
   <time name="total">  237.10  237.10</time>
   <energy>
    <i name="e_fr_energy">   -174.57018070 </i>
    <i name="e_wo_entrp">   -174.46471732 </i>
    <i name="e_0_energy">   -174.54381486 </i>
   </energy>
  </scstep>
  <scstep>
   <time name="diag">   69.23   69.23</time>
   <time name="diis">   94.28   94.28</time>
   <time name="orth">   13.33   13.32</time>
   <time name="total">  219.70  219.70</time>
   <energy>
    <i name="e_fr_energy">   -174.57049750 </i>
    <i name="e_wo_entrp">   -174.46510099 </i>
    <i name="e_0_energy">   -174.54414837 </i>
   </energy>
  </scstep>
  <scstep>
   <time name="diag">   68.35   68.35</time>
   <time name="diis">  102.61  102.61</time>
   <time name="orth">   13.39   13.39</time>
   <time name="total">  227.30  227.31</time>
   <energy>
    <i name="e_fr_energy">   -174.57105745 </i>
    <i name="e_wo_entrp">   -174.46569884 </i>
    <i name="e_0_energy">   -174.54471779 </i>
   </energy>
  </scstep>
  <scstep>
   <time name="diag">   67.94   67.95</time>
   <time name="diis">   90.78   90.78</time>
   <time name="orth">   13.55   13.55</time>
   <time name="total">  215.00  215.00</time>
   <energy>
    <i name="e_fr_energy">   -174.57134951 </i>
    <i name="e_wo_entrp">   -174.46605351 </i>
    <i name="e_0_energy">   -174.54502551 </i>
   </energy>
  </scstep>
  <scstep>
   <time name="diag">   67.52   67.52</time>
   <time name="diis">   91.21   91.21</time>
   <time name="orth">   13.73   13.73</time>
   <time name="total">  215.84  215.85</time>
   <energy>
    <i name="e_fr_energy">   -174.57156876 </i>
    <i name="e_wo_entrp">   -174.46608828 </i>
    <i name="e_0_energy">   -174.54519864 </i>
   </energy>
  </scstep>
  <scstep>
   <time name="diag">   67.51   67.52</time>
   <time name="diis">   90.37   90.37</time>
   <time name="orth">   13.74   13.74</time>
   <time name="total">  214.62  214.63</time>
   <energy>
    <i name="e_fr_energy">   -174.57182369 </i>
    <i name="e_wo_entrp">   -174.46640258 </i>
    <i name="e_0_energy">   -174.54546841 </i>
   </energy>
  </scstep>
  <scstep>
   <time name="diag">   67.19   67.20</time>
   <time name="diis">   79.31   79.31</time>
   <time name="orth">   13.95   13.95</time>
   <time name="total">  174.51  174.51</time>
   <energy>
    <i name="alphaZ">     75.25431677 </i>
    <i name="ewald"> 137607.61571799 </i>
    <i name="hartreedc">-181967.83534223 </i>
    <i name="XCdc">  -1692.85546805 </i>
    <i name="pawpsdc">  46080.93031074 </i>
    <i name="pawaedc"> -42550.90108039 </i>
    <i name="eentropy">     -0.10541458 </i>
    <i name="bandstr">  -2813.18044834 </i>
    <i name="atom">  45086.50549395 </i>
    <i name="e_fr_energy">   -174.57191414 </i>
    <i name="e_wo_entrp">   -174.46649956 </i>
    <i name="e_0_energy">   -174.54556050 </i>
   </energy>
  </scstep>
  <structure>
   <crystal>
    <varray name="basis" >
     <v>      30.00000000       0.00000000       0.00000000 </v>
     <v>       0.00000000      30.00000000       0.00000000 </v>
     <v>       0.00000000       0.00000000      30.00000000 </v>
    </varray>
    <i name="volume">  27000.00000000 </i>
    <varray name="rec_basis" >
     <v>       0.03333333       0.00000000       0.00000000 </v>
     <v>       0.00000000       0.03333333       0.00000000 </v>
     <v>       0.00000000       0.00000000       0.03333333 </v>
    </varray>
   </crystal>
   <varray name="positions" >
    <v>       0.44576020       0.32826710       0.41691983 </v>
    <v>       0.67173288       0.55423978       0.41691983 </v>
    <v>       0.55423980       0.32826710       0.41691983 </v>
    <v>       0.32826712       0.55423978       0.41691983 </v>
    <v>       0.50000000       0.38250690       0.34021317 </v>
    <v>       0.50000000       0.38250690       0.65978680 </v>
    <v>       0.50000000       0.27609440       0.50000000 </v>
    <v>       0.27609443       0.49999998       0.50000000 </v>
    <v>       0.72390557       0.49999998       0.50000000 </v>
    <v>       0.50000000       0.72390555       0.50000000 </v>
    <v>       0.61195280       0.38804720       0.34167483 </v>
    <v>       0.61195280       0.38804720       0.65832513 </v>
    <v>       0.38804722       0.61195278       0.34167483 </v>
    <v>       0.38804722       0.61195278       0.65832513 </v>
    <v>       0.38804720       0.38804720       0.34167483 </v>
    <v>       0.38804720       0.38804720       0.65832513 </v>
    <v>       0.61195278       0.61195278       0.34167483 </v>
    <v>       0.61195278       0.61195278       0.65832513 </v>
    <v>       0.44576020       0.32826710       0.58308023 </v>
    <v>       0.67173288       0.55423978       0.58308023 </v>
    <v>       0.55791699       0.44208301       0.41809300 </v>
    <v>       0.32826705       0.44576024       0.41691983 </v>
    <v>       0.55423973       0.67173293       0.41691983 </v>
    <v>       0.55423980       0.32826710       0.58308023 </v>
    <v>       0.32826712       0.55423978       0.58308023 </v>
    <v>       0.67173295       0.44576024       0.41691983 </v>
    <v>       0.44576027       0.67173293       0.41691983 </v>
    <v>       0.44208301       0.44208301       0.41809300 </v>
    <v>       0.50000000       0.38416601       0.50000000 </v>
    <v>       0.61749315       0.50000005       0.34021317 </v>
    <v>       0.61749315       0.50000005       0.65978680 </v>
    <v>       0.38250685       0.50000005       0.34021317 </v>
    <v>       0.38250685       0.50000005       0.65978680 </v>
    <v>       0.38317830       0.38317830       0.50000000 </v>
    <v>       0.61682172       0.61682172       0.50000000 </v>
    <v>       0.61682170       0.38317830       0.50000000 </v>
    <v>       0.38317828       0.61682172       0.50000000 </v>
    <v>       0.50000000       0.50000000       0.33478917 </v>
    <v>       0.50000000       0.50000000       0.66521087 </v>
    <v>       0.32826705       0.44576024       0.58308023 </v>
    <v>       0.55423973       0.67173293       0.58308023 </v>
    <v>       0.55791699       0.44208301       0.58190703 </v>
    <v>       0.44208298       0.55791702       0.41809300 </v>
    <v>       0.44208301       0.44208301       0.58190703 </v>
    <v>       0.67173295       0.44576024       0.58308023 </v>
    <v>       0.44576027       0.67173293       0.58308023 </v>
    <v>       0.55791702       0.55791702       0.41809300 </v>
    <v>       0.38416599       0.50000002       0.50000000 </v>
    <v>       0.61583401       0.50000002       0.50000000 </v>
    <v>       0.50000000       0.61749319       0.34021317 </v>
    <v>       0.50000000       0.61749319       0.65978680 </v>
    <v>       0.50000000       0.50000000       0.50000000 </v>
    <v>       0.44208298       0.55791702       0.58190703 </v>
    <v>       0.55791702       0.55791702       0.58190703 </v>
    <v>       0.50000000       0.61583404       0.50000000 </v>
    <v>       0.39865597       0.31588463       0.67194767 </v>
    <v>       0.38462300       0.29039047       0.69575697 </v>
   </varray>
  </structure>
  <varray name="forces" >
   <v>       0.70611721       1.10918480       0.29370611 </v>
   <v>      -1.10576534      -0.71021512       0.30127215 </v>
   <v>      -0.70402900       1.10992515       0.29727265 </v>
   <v>       1.11299342      -0.70973948       0.28598506 </v>
   <v>      -0.00057839       0.41572841       1.27993148 </v>
   <v>       0.11261722       0.38978943      -1.26769233 </v>
   <v>      -0.01082307       1.52762039       0.00723093 </v>
   <v>       1.51251753       0.00708213      -0.01078319 </v>
   <v>      -1.51746220      -0.00022253      -0.00204375 </v>
   <v>      -0.00096619      -1.51826582       0.00330865 </v>
   <v>      -0.75516753       0.76121506       1.07314109 </v>
   <v>      -0.78019479       0.76011279      -1.06315179 </v>
   <v>       0.75374056      -0.75900388       1.07352651 </v>
   <v>       0.76642715      -0.72632125      -1.07315391 </v>
   <v>       0.75519056       0.75817085       1.07366115 </v>
   <v>       1.01904247      -1.01337418      -0.70608582 </v>
   <v>      -0.75639681      -0.75623151       1.07116460 </v>
   <v>      -0.75940646      -0.75612142      -1.07400267 </v>
   <v>       0.60704878       0.92069775      -0.00959635 </v>
   <v>      -1.10809619      -0.70224419      -0.29273196 </v>
   <v>       0.12439016      -0.10705181      -0.17266503 </v>
   <v>       1.10982652       0.70946334       0.28734823 </v>
   <v>      -0.70699546      -1.10803834       0.29212569 </v>
   <v>      -0.68302691       1.11925138      -0.31754859 </v>
   <v>       1.10263480      -0.73761741      -0.27860957 </v>
   <v>      -1.10366919       0.70724710       0.28523231 </v>
   <v>       0.70404156      -1.10662115       0.29015552 </v>
   <v>      -0.11336717      -0.11379644      -0.15351452 </v>
   <v>      -0.01294902      -0.22872295       0.00604846 </v>
   <v>      -0.41593571      -0.01156356       1.28302565 </v>
   <v>      -0.41254479      -0.00046068      -1.28197720 </v>
   <v>       0.41023328      -0.00039804       1.28352649 </v>
   <v>       0.37938892      -0.00110535      -1.29037406 </v>
   <v>       0.82495174       0.83814554      -0.02646951 </v>
   <v>      -0.82847763      -0.82828010       0.00100737 </v>
   <v>      -0.83784615       0.82082706       0.01117802 </v>
   <v>       0.83226775      -0.82456707      -0.00694764 </v>
   <v>      -0.00165500      -0.00102906       1.17742594 </v>
   <v>       0.00466812       0.01112393      -1.17996359 </v>
   <v>       1.07723109       0.78063640      -0.31226975 </v>
   <v>      -0.70752937      -1.10874028      -0.28723107 </v>
   <v>       0.10846550      -0.10968785       0.15724465 </v>
   <v>      -0.11069015       0.11071875      -0.16142119 </v>
   <v>      -0.08196204      -0.00673539       0.07579283 </v>
   <v>      -1.10748318       0.70359033      -0.29415878 </v>
   <v>       0.71004291      -1.11172409      -0.28785598 </v>
   <v>       0.10581766       0.11565904      -0.15284197 </v>
   <v>      -0.22499068      -0.00242609       0.00387779 </v>
   <v>       0.23489621       0.00465332      -0.00682134 </v>
   <v>      -0.00178190      -0.41306019       1.28385968 </v>
   <v>      -0.00074350      -0.40921358      -1.28613375 </v>
   <v>       0.01037841       0.00154902      -0.00868405 </v>
   <v>      -0.10777344       0.10305084       0.15745548 </v>
   <v>       0.10919894       0.11077407       0.15970946 </v>
   <v>       0.00162080       0.22974934       0.00047441 </v>
   <v>       1.03060160       4.76445849      -2.94446564 </v>
   <v>      -1.26804362      -3.00784590       2.43350660 </v>
  </varray>
  <varray name="stress" >
   <v>      -6.71910501       0.09831168      -0.04633163 </v>
   <v>       0.09831170      -6.81358581      -0.09004863 </v>
   <v>      -0.04633162      -0.09004868      -6.68305742 </v>
  </varray>
  <energy>
   <i name="e_fr_energy">   -174.57191414 </i>
   <i name="e_wo_entrp">   -174.54556050 </i>
   <i name="e_0_energy">     -0.10541458 </i>
  </energy>
  <time name="totalsc">17325.0217325.75</time>
  <eigenvalues>
   <array>
    <dimension dim="1">band</dimension>
    <dimension dim="2">kpoint</dimension>
    <dimension dim="3">spin</dimension>
    <field>eigene</field>
    <field>occ</field>
    <set>
     <set comment="spin 1">
      <set comment="kpoint 1">
       <r>  -28.7786    1.0000 </r>
       <r>  -13.4235    1.0000 </r>
       <r>  -11.2390    1.0000 </r>
       <r>  -11.1482    1.0000 </r>
       <r>   -9.8036    1.0000 </r>
       <r>   -6.6478    1.0000 </r>
       <r>   -6.1332    1.0000 </r>
       <r>   -6.1298    1.0000 </r>
       <r>   -6.1203    1.0000 </r>
       <r>   -5.8319    1.0000 </r>
       <r>   -5.8209    1.0000 </r>
       <r>   -5.8133    1.0000 </r>
       <r>   -5.7887    1.0000 </r>
       <r>   -5.7475    1.0000 </r>
       <r>   -5.6947    1.0000 </r>
       <r>   -5.6886    1.0000 </r>
       <r>   -5.6824    1.0000 </r>
       <r>   -5.6429    1.0000 </r>
       <r>   -5.6264    1.0000 </r>
       <r>   -5.6239    1.0000 </r>
       <r>   -5.6141    1.0000 </r>
       <r>   -5.5996    1.0000 </r>
       <r>   -5.5940    1.0000 </r>
       <r>   -5.5759    1.0000 </r>
       <r>   -5.5613    1.0000 </r>
       <r>   -5.5536    1.0000 </r>
       <r>   -5.5499    1.0000 </r>
       <r>   -5.5462    1.0000 </r>
       <r>   -5.5332    1.0000 </r>
       <r>   -5.5290    1.0000 </r>
       <r>   -5.5232    1.0000 </r>
       <r>   -5.5209    1.0000 </r>
       <r>   -5.5203    1.0000 </r>
       <r>   -5.5166    1.0000 </r>
       <r>   -5.5118    1.0000 </r>
       <r>   -5.5015    1.0000 </r>
       <r>   -5.4938    1.0000 </r>
       <r>   -5.4786    1.0000 </r>
       <r>   -5.4775    1.0000 </r>
       <r>   -5.4740    1.0000 </r>
       <r>   -5.4723    1.0000 </r>
       <r>   -5.4719    1.0000 </r>
       <r>   -5.4687    1.0000 </r>
       <r>   -5.4528    1.0000 </r>
       <r>   -5.4378    1.0000 </r>
       <r>   -5.4342    1.0000 </r>
       <r>   -5.4325    1.0000 </r>
       <r>   -5.4314    1.0000 </r>
       <r>   -5.4265    1.0000 </r>
       <r>   -5.4255    1.0000 </r>
       <r>   -5.4193    1.0000 </r>
       <r>   -5.4090    1.0000 </r>
       <r>   -5.4078    1.0000 </r>
       <r>   -5.4069    1.0000 </r>
       <r>   -5.3922    1.0000 </r>
       <r>   -5.3815    1.0000 </r>
       <r>   -5.3366    1.0000 </r>
       <r>   -5.3330    1.0000 </r>
       <r>   -5.3311    1.0000 </r>
       <r>   -5.3289    1.0000 </r>
       <r>   -5.3243    1.0000 </r>
       <r>   -5.3214    1.0000 </r>
       <r>   -5.3056    1.0000 </r>
       <r>   -5.3043    1.0000 </r>
       <r>   -5.3036    1.0000 </r>
       <r>   -5.2954    1.0000 </r>
       <r>   -5.2917    1.0000 </r>
       <r>   -5.2456    1.0000 </r>
       <r>   -5.2226    1.0000 </r>
       <r>   -5.2173    1.0000 </r>
       <r>   -5.2091    1.0000 </r>
       <r>   -5.2066    1.0000 </r>
       <r>   -5.2002    1.0000 </r>
       <r>   -5.1871    1.0000 </r>
       <r>   -5.1817    1.0000 </r>
       <r>   -5.1802    1.0000 </r>
       <r>   -5.1726    1.0000 </r>
       <r>   -5.1690    1.0000 </r>
       <r>   -5.1677    1.0000 </r>
       <r>   -5.1621    1.0000 </r>
       <r>   -5.1543    1.0000 </r>
       <r>   -5.1393    1.0000 </r>
       <r>   -5.1291    1.0000 </r>
       <r>   -5.1255    1.0000 </r>
       <r>   -5.1181    1.0000 </r>
       <r>   -5.1164    1.0000 </r>
       <r>   -5.1120    1.0000 </r>
       <r>   -5.1058    1.0000 </r>
       <r>   -5.1031    1.0000 </r>
       <r>   -5.0644    1.0000 </r>
       <r>   -5.0594    1.0000 </r>
       <r>   -5.0589    1.0000 </r>
       <r>   -5.0555    1.0000 </r>
       <r>   -5.0538    1.0000 </r>
       <r>   -5.0516    1.0000 </r>
       <r>   -5.0382    1.0000 </r>
       <r>   -5.0344    1.0000 </r>
       <r>   -5.0324    1.0000 </r>
       <r>   -5.0286    1.0000 </r>
       <r>   -5.0252    1.0000 </r>
       <r>   -5.0183    1.0000 </r>
       <r>   -5.0135    1.0000 </r>
       <r>   -5.0100    1.0000 </r>
       <r>   -5.0097    1.0000 </r>
       <r>   -4.9985    1.0000 </r>
       <r>   -4.9942    1.0000 </r>
       <r>   -4.9924    1.0000 </r>
       <r>   -4.9896    1.0000 </r>
       <r>   -4.9847    1.0000 </r>
       <r>   -4.9731    1.0000 </r>
       <r>   -4.9717    1.0000 </r>
       <r>   -4.9656    1.0000 </r>
       <r>   -4.9640    1.0000 </r>
       <r>   -4.9616    1.0000 </r>
       <r>   -4.9601    1.0000 </r>
       <r>   -4.9562    1.0000 </r>
       <r>   -4.9467    1.0000 </r>
       <r>   -4.9422    1.0000 </r>
       <r>   -4.9268    1.0000 </r>
       <r>   -4.9201    1.0000 </r>
       <r>   -4.9186    1.0000 </r>
       <r>   -4.9177    1.0000 </r>
       <r>   -4.9076    1.0000 </r>
       <r>   -4.9041    1.0000 </r>
       <r>   -4.9038    1.0000 </r>
       <r>   -4.9027    1.0000 </r>
       <r>   -4.8789    1.0000 </r>
       <r>   -4.8592    1.0000 </r>
       <r>   -4.8512    1.0000 </r>
       <r>   -4.8461    1.0000 </r>
       <r>   -4.8452    1.0000 </r>
       <r>   -4.8441    1.0000 </r>
       <r>   -4.8433    1.0000 </r>
       <r>   -4.8368    1.0000 </r>
       <r>   -4.8333    1.0000 </r>
       <r>   -4.8199    0.9999 </r>
       <r>   -4.8056    0.9999 </r>
       <r>   -4.7959    0.9999 </r>
       <r>   -4.7957    0.9999 </r>
       <r>   -4.7928    0.9999 </r>
       <r>   -4.7906    0.9999 </r>
       <r>   -4.7714    0.9998 </r>
       <r>   -4.7677    0.9998 </r>
       <r>   -4.7618    0.9998 </r>
       <r>   -4.7584    0.9997 </r>
       <r>   -4.7516    0.9997 </r>
       <r>   -4.7395    0.9996 </r>
       <r>   -4.7331    0.9995 </r>
       <r>   -4.7256    0.9995 </r>
       <r>   -4.7154    0.9993 </r>
       <r>   -4.7075    0.9992 </r>
       <r>   -4.6990    0.9991 </r>
       <r>   -4.6920    0.9989 </r>
       <r>   -4.6879    0.9989 </r>
       <r>   -4.6858    0.9988 </r>
       <r>   -4.6853    0.9988 </r>
       <r>   -4.6796    0.9987 </r>
       <r>   -4.6753    0.9986 </r>
       <r>   -4.6683    0.9984 </r>
       <r>   -4.6666    0.9984 </r>
       <r>   -4.6579    0.9981 </r>
       <r>   -4.6557    0.9980 </r>
       <r>   -4.6548    0.9980 </r>
       <r>   -4.6520    0.9979 </r>
       <r>   -4.6489    0.9978 </r>
       <r>   -4.6483    0.9978 </r>
       <r>   -4.6482    0.9978 </r>
       <r>   -4.6448    0.9977 </r>
       <r>   -4.6405    0.9975 </r>
       <r>   -4.6355    0.9974 </r>
       <r>   -4.6240    0.9969 </r>
       <r>   -4.6213    0.9968 </r>
       <r>   -4.6092    0.9964 </r>
       <r>   -4.5996    0.9960 </r>
       <r>   -4.5986    0.9960 </r>
       <r>   -4.5979    0.9960 </r>
       <r>   -4.5966    0.9959 </r>
       <r>   -4.5933    0.9958 </r>
       <r>   -4.5812    0.9954 </r>
       <r>   -4.5781    0.9954 </r>
       <r>   -4.5767    0.9953 </r>
       <r>   -4.5715    0.9952 </r>
       <r>   -4.5706    0.9952 </r>
       <r>   -4.5671    0.9951 </r>
       <r>   -4.5563    0.9951 </r>
       <r>   -4.5544    0.9951 </r>
       <r>   -4.5525    0.9951 </r>
       <r>   -4.5513    0.9951 </r>
       <r>   -4.5503    0.9951 </r>
       <r>   -4.5496    0.9951 </r>
       <r>   -4.5191    0.9965 </r>
       <r>   -4.5113    0.9972 </r>
       <r>   -4.5094    0.9974 </r>
       <r>   -4.5076    0.9977 </r>
       <r>   -4.5061    0.9978 </r>
       <r>   -4.5013    0.9985 </r>
       <r>   -4.4954    0.9994 </r>
       <r>   -4.4888    1.0006 </r>
       <r>   -4.4848    1.0015 </r>
       <r>   -4.4747    1.0039 </r>
       <r>   -4.4713    1.0048 </r>
       <r>   -4.4678    1.0058 </r>
       <r>   -4.4657    1.0064 </r>
       <r>   -4.4614    1.0077 </r>
       <r>   -4.4607    1.0080 </r>
       <r>   -4.4540    1.0103 </r>
       <r>   -4.4511    1.0113 </r>
       <r>   -4.4459    1.0133 </r>
       <r>   -4.4436    1.0142 </r>
       <r>   -4.4397    1.0158 </r>
       <r>   -4.4298    1.0200 </r>
       <r>   -4.4271    1.0212 </r>
       <r>   -4.4237    1.0228 </r>
       <r>   -4.4138    1.0275 </r>
       <r>   -4.4118    1.0284 </r>
       <r>   -4.4112    1.0287 </r>
       <r>   -4.4088    1.0298 </r>
       <r>   -4.4048    1.0317 </r>
       <r>   -4.4025    1.0329 </r>
       <r>   -4.3752    1.0449 </r>
       <r>   -4.3717    1.0462 </r>
       <r>   -4.3687    1.0472 </r>
       <r>   -4.3624    1.0490 </r>
       <r>   -4.3546    1.0507 </r>
       <r>   -4.3480    1.0515 </r>
       <r>   -4.3400    1.0515 </r>
       <r>   -4.3396    1.0515 </r>
       <r>   -4.3369    1.0512 </r>
       <r>   -4.3360    1.0511 </r>
       <r>   -4.3353    1.0510 </r>
       <r>   -4.3334    1.0506 </r>
       <r>   -4.3305    1.0500 </r>
       <r>   -4.3294    1.0497 </r>
       <r>   -4.3290    1.0496 </r>
       <r>   -4.3246    1.0481 </r>
       <r>   -4.3232    1.0475 </r>
       <r>   -4.3219    1.0469 </r>
       <r>   -4.3207    1.0463 </r>
       <r>   -4.3196    1.0458 </r>
       <r>   -4.3111    1.0405 </r>
       <r>   -4.3043    1.0348 </r>
       <r>   -4.3016    1.0321 </r>
       <r>   -4.2926    1.0216 </r>
       <r>   -4.2886    1.0161 </r>
       <r>   -4.2871    1.0138 </r>
       <r>   -4.2860    1.0122 </r>
       <r>   -4.2857    1.0118 </r>
       <r>   -4.2845    1.0098 </r>
       <r>   -4.2800    1.0023 </r>
       <r>   -4.2705    0.9840 </r>
       <r>   -4.2666    0.9754 </r>
       <r>   -4.2659    0.9738 </r>
       <r>   -4.2578    0.9540 </r>
       <r>   -4.2566    0.9509 </r>
       <r>   -4.2532    0.9417 </r>
       <r>   -4.2510    0.9356 </r>
       <r>   -4.2499    0.9324 </r>
       <r>   -4.2484    0.9280 </r>
       <r>   -4.2454    0.9188 </r>
       <r>   -4.2446    0.9164 </r>
       <r>   -4.2445    0.9162 </r>
       <r>   -4.2418    0.9078 </r>
       <r>   -4.2411    0.9055 </r>
       <r>   -4.2393    0.8994 </r>
       <r>   -4.2354    0.8864 </r>
       <r>   -4.2351    0.8854 </r>
       <r>   -4.2299    0.8666 </r>
       <r>   -4.2233    0.8418 </r>
       <r>   -4.2215    0.8350 </r>
       <r>   -4.2199    0.8285 </r>
       <r>   -4.2185    0.8226 </r>
       <r>   -4.2127    0.7985 </r>
       <r>   -4.2037    0.7591 </r>
       <r>   -4.1982    0.7339 </r>
       <r>   -4.1852    0.6712 </r>
       <r>   -4.1813    0.6516 </r>
       <r>   -4.1786    0.6384 </r>
       <r>   -4.1763    0.6265 </r>
       <r>   -4.1746    0.6179 </r>
       <r>   -4.1741    0.6154 </r>
       <r>   -4.1712    0.6003 </r>
       <r>   -4.1590    0.5361 </r>
       <r>   -4.1327    0.3982 </r>
       <r>   -4.1312    0.3904 </r>
       <r>   -4.1286    0.3771 </r>
       <r>   -4.1284    0.3761 </r>
       <r>   -4.1164    0.3158 </r>
       <r>   -4.1155    0.3113 </r>
       <r>   -4.1069    0.2701 </r>
       <r>   -3.9678   -0.0511 </r>
       <r>   -3.8877   -0.0261 </r>
       <r>   -3.8156   -0.0007 </r>
       <r>   -3.8155   -0.0007 </r>
       <r>   -3.7215    0.0045 </r>
       <r>   -3.4990    0.0001 </r>
       <r>   -3.4907    0.0001 </r>
       <r>   -3.4504    0.0000 </r>
       <r>   -3.0652    0.0000 </r>
       <r>   -3.0593    0.0000 </r>
       <r>   -3.0493    0.0000 </r>
       <r>   -3.0342    0.0000 </r>
       <r>   -3.0113    0.0000 </r>
       <r>   -2.9619    0.0000 </r>
       <r>   -2.9348    0.0000 </r>
       <r>   -2.7990    0.0000 </r>
       <r>   -2.5523    0.0000 </r>
       <r>   -2.5231    0.0000 </r>
       <r>   -2.4776    0.0000 </r>
       <r>   -2.3376    0.0000 </r>
       <r>   -2.2349    0.0000 </r>
       <r>   -2.1152    0.0000 </r>
       <r>   -2.0706    0.0000 </r>
       <r>   -2.0558    0.0000 </r>
       <r>   -1.9643    0.0000 </r>
       <r>   -1.9097    0.0000 </r>
       <r>   -1.8769    0.0000 </r>
       <r>   -1.8310    0.0000 </r>
       <r>   -1.7852    0.0000 </r>
       <r>   -1.7145    0.0000 </r>
       <r>   -1.6493    0.0000 </r>
       <r>   -1.6214    0.0000 </r>
       <r>   -1.5710    0.0000 </r>
       <r>   -1.5372    0.0000 </r>
       <r>   -1.3853    0.0000 </r>
       <r>   -1.3238    0.0000 </r>
       <r>   -1.2372    0.0000 </r>
       <r>   -1.2017    0.0000 </r>
       <r>   -1.1261    0.0000 </r>
       <r>   -0.9830    0.0000 </r>
       <r>   -0.9718    0.0000 </r>
       <r>   -0.9467    0.0000 </r>
       <r>   -0.9339    0.0000 </r>
       <r>   -0.9062    0.0000 </r>
       <r>   -0.8693    0.0000 </r>
       <r>   -0.7816    0.0000 </r>
       <r>   -0.6411    0.0000 </r>
      </set>
     </set>
    </set>
   </array>
  </eigenvalues>
  <separator name="orbital magnetization" >
   <v name="MAGDIPOLOUT">      0.00000000      0.00000000      0.00000000</v>
  </separator>
  <dos>
   <i name="efermi">     -4.15212028 </i>
   <total>
    <array>
     <dimension dim="1">gridpoints</dimension>
     <dimension dim="2">spin</dimension>
     <field>energy</field>
     <field>total</field>
     <field>integrated</field>
     <set>
      <set comment="spin 1">
       <r>   -30.7786     0.0000     0.0000 </r>
       <r>   -30.6715     0.0000     0.0000 </r>
       <r>   -30.5644     0.0000     0.0000 </r>
       <r>   -30.4572     0.0000     0.0000 </r>
       <r>   -30.3501     0.0000     0.0000 </r>
       <r>   -30.2430     0.0000     0.0000 </r>
       <r>   -30.1359     0.0000     0.0000 </r>
       <r>   -30.0287     0.0000     0.0000 </r>
       <r>   -29.9216     0.0000     0.0000 </r>
       <r>   -29.8145     0.0000     0.0000 </r>
       <r>   -29.7074     0.0000     0.0000 </r>
       <r>   -29.6002     0.0000     0.0000 </r>
       <r>   -29.4931     0.0002     0.0000 </r>
       <r>   -29.3860     0.0044     0.0005 </r>
       <r>   -29.2789     0.0339     0.0041 </r>
       <r>   -29.1717     0.0517     0.0097 </r>
       <r>   -29.0646    -0.3966    -0.0328 </r>
       <r>   -28.9575    -0.6290    -0.1002 </r>
       <r>   -28.8504     3.8473     0.3119 </r>
       <r>   -28.7432     9.8328     1.3653 </r>
       <r>   -28.6361     6.3766     2.0484 </r>
       <r>   -28.5290     0.1688     2.0665 </r>
       <r>   -28.4219    -0.6671     1.9950 </r>
       <r>   -28.3147    -0.0159     1.9933 </r>
       <r>   -28.2076     0.0520     1.9989 </r>
       <r>   -28.1005     0.0098     1.9999 </r>
       <r>   -27.9934     0.0007     2.0000 </r>
       <r>   -27.8862     0.0000     2.0000 </r>
       <r>   -27.7791     0.0000     2.0000 </r>
       <r>   -27.6720     0.0000     2.0000 </r>
       <r>   -27.5649     0.0000     2.0000 </r>
       <r>   -27.4577     0.0000     2.0000 </r>
       <r>   -27.3506     0.0000     2.0000 </r>
       <r>   -27.2435     0.0000     2.0000 </r>
       <r>   -27.1364     0.0000     2.0000 </r>
       <r>   -27.0292     0.0000     2.0000 </r>
       <r>   -26.9221     0.0000     2.0000 </r>
       <r>   -26.8150     0.0000     2.0000 </r>
       <r>   -26.7079     0.0000     2.0000 </r>
       <r>   -26.6007     0.0000     2.0000 </r>
       <r>   -26.4936     0.0000     2.0000 </r>
       <r>   -26.3865     0.0000     2.0000 </r>
       <r>   -26.2794     0.0000     2.0000 </r>
       <r>   -26.1722     0.0000     2.0000 </r>
       <r>   -26.0651     0.0000     2.0000 </r>
       <r>   -25.9580     0.0000     2.0000 </r>
       <r>   -25.8509     0.0000     2.0000 </r>
       <r>   -25.7437     0.0000     2.0000 </r>
       <r>   -25.6366     0.0000     2.0000 </r>
       <r>   -25.5295     0.0000     2.0000 </r>
       <r>   -25.4224     0.0000     2.0000 </r>
       <r>   -25.3152     0.0000     2.0000 </r>
       <r>   -25.2081     0.0000     2.0000 </r>
       <r>   -25.1010     0.0000     2.0000 </r>
       <r>   -24.9939     0.0000     2.0000 </r>
       <r>   -24.8867     0.0000     2.0000 </r>
       <r>   -24.7796     0.0000     2.0000 </r>
       <r>   -24.6725     0.0000     2.0000 </r>
       <r>   -24.5654     0.0000     2.0000 </r>
       <r>   -24.4582     0.0000     2.0000 </r>
       <r>   -24.3511     0.0000     2.0000 </r>
       <r>   -24.2440     0.0000     2.0000 </r>
       <r>   -24.1369     0.0000     2.0000 </r>
       <r>   -24.0297     0.0000     2.0000 </r>
       <r>   -23.9226     0.0000     2.0000 </r>
       <r>   -23.8155     0.0000     2.0000 </r>
       <r>   -23.7084     0.0000     2.0000 </r>
       <r>   -23.6012     0.0000     2.0000 </r>
       <r>   -23.4941     0.0000     2.0000 </r>
       <r>   -23.3870     0.0000     2.0000 </r>
       <r>   -23.2799     0.0000     2.0000 </r>
       <r>   -23.1727     0.0000     2.0000 </r>
       <r>   -23.0656     0.0000     2.0000 </r>
       <r>   -22.9585     0.0000     2.0000 </r>
       <r>   -22.8514     0.0000     2.0000 </r>
       <r>   -22.7442     0.0000     2.0000 </r>
       <r>   -22.6371     0.0000     2.0000 </r>
       <r>   -22.5300     0.0000     2.0000 </r>
       <r>   -22.4229     0.0000     2.0000 </r>
       <r>   -22.3157     0.0000     2.0000 </r>
       <r>   -22.2086     0.0000     2.0000 </r>
       <r>   -22.1015     0.0000     2.0000 </r>
       <r>   -21.9944     0.0000     2.0000 </r>
       <r>   -21.8872     0.0000     2.0000 </r>
       <r>   -21.7801     0.0000     2.0000 </r>
       <r>   -21.6730     0.0000     2.0000 </r>
       <r>   -21.5659     0.0000     2.0000 </r>
       <r>   -21.4587     0.0000     2.0000 </r>
       <r>   -21.3516     0.0000     2.0000 </r>
       <r>   -21.2445     0.0000     2.0000 </r>
       <r>   -21.1374     0.0000     2.0000 </r>
       <r>   -21.0302     0.0000     2.0000 </r>
       <r>   -20.9231     0.0000     2.0000 </r>
       <r>   -20.8160     0.0000     2.0000 </r>
       <r>   -20.7088     0.0000     2.0000 </r>
       <r>   -20.6017     0.0000     2.0000 </r>
       <r>   -20.4946     0.0000     2.0000 </r>
       <r>   -20.3875     0.0000     2.0000 </r>
       <r>   -20.2803     0.0000     2.0000 </r>
       <r>   -20.1732     0.0000     2.0000 </r>
       <r>   -20.0661     0.0000     2.0000 </r>
       <r>   -19.9590     0.0000     2.0000 </r>
       <r>   -19.8518     0.0000     2.0000 </r>
       <r>   -19.7447     0.0000     2.0000 </r>
       <r>   -19.6376     0.0000     2.0000 </r>
       <r>   -19.5305     0.0000     2.0000 </r>
       <r>   -19.4233     0.0000     2.0000 </r>
       <r>   -19.3162     0.0000     2.0000 </r>
       <r>   -19.2091     0.0000     2.0000 </r>
       <r>   -19.1020     0.0000     2.0000 </r>
       <r>   -18.9948     0.0000     2.0000 </r>
       <r>   -18.8877     0.0000     2.0000 </r>
       <r>   -18.7806     0.0000     2.0000 </r>
       <r>   -18.6735     0.0000     2.0000 </r>
       <r>   -18.5663     0.0000     2.0000 </r>
       <r>   -18.4592     0.0000     2.0000 </r>
       <r>   -18.3521     0.0000     2.0000 </r>
       <r>   -18.2450     0.0000     2.0000 </r>
       <r>   -18.1378     0.0000     2.0000 </r>
       <r>   -18.0307     0.0000     2.0000 </r>
       <r>   -17.9236     0.0000     2.0000 </r>
       <r>   -17.8165     0.0000     2.0000 </r>
       <r>   -17.7093     0.0000     2.0000 </r>
       <r>   -17.6022     0.0000     2.0000 </r>
       <r>   -17.4951     0.0000     2.0000 </r>
       <r>   -17.3880     0.0000     2.0000 </r>
       <r>   -17.2808     0.0000     2.0000 </r>
       <r>   -17.1737     0.0000     2.0000 </r>
       <r>   -17.0666     0.0000     2.0000 </r>
       <r>   -16.9595     0.0000     2.0000 </r>
       <r>   -16.8523     0.0000     2.0000 </r>
       <r>   -16.7452     0.0000     2.0000 </r>
       <r>   -16.6381     0.0000     2.0000 </r>
       <r>   -16.5310     0.0000     2.0000 </r>
       <r>   -16.4238     0.0000     2.0000 </r>
       <r>   -16.3167     0.0000     2.0000 </r>
       <r>   -16.2096     0.0000     2.0000 </r>
       <r>   -16.1025     0.0000     2.0000 </r>
       <r>   -15.9953     0.0000     2.0000 </r>
       <r>   -15.8882     0.0000     2.0000 </r>
       <r>   -15.7811     0.0000     2.0000 </r>
       <r>   -15.6740     0.0000     2.0000 </r>
       <r>   -15.5668     0.0000     2.0000 </r>
       <r>   -15.4597     0.0000     2.0000 </r>
       <r>   -15.3526     0.0000     2.0000 </r>
       <r>   -15.2455     0.0000     2.0000 </r>
       <r>   -15.1383     0.0000     2.0000 </r>
       <r>   -15.0312     0.0000     2.0000 </r>
       <r>   -14.9241     0.0000     2.0000 </r>
       <r>   -14.8170     0.0000     2.0000 </r>
       <r>   -14.7098     0.0000     2.0000 </r>
       <r>   -14.6027     0.0000     2.0000 </r>
       <r>   -14.4956     0.0000     2.0000 </r>
       <r>   -14.3885     0.0000     2.0000 </r>
       <r>   -14.2813     0.0000     2.0000 </r>
       <r>   -14.1742     0.0001     2.0000 </r>
       <r>   -14.0671     0.0018     2.0002 </r>
       <r>   -13.9600     0.0191     2.0022 </r>
       <r>   -13.8528     0.0639     2.0091 </r>
       <r>   -13.7457    -0.1592     1.9920 </r>
       <r>   -13.6386    -0.8157     1.9046 </r>
       <r>   -13.5315     1.6382     2.0801 </r>
       <r>   -13.4243     8.5044     2.9912 </r>
       <r>   -13.3172     8.5901     3.9114 </r>
       <r>   -13.2101     1.7267     4.0964 </r>
       <r>   -13.1030    -0.8168     4.0089 </r>
       <r>   -12.9958    -0.1683     3.9908 </r>
       <r>   -12.8887     0.0641     3.9977 </r>
       <r>   -12.7816     0.0196     3.9998 </r>
       <r>   -12.6745     0.0019     4.0000 </r>
       <r>   -12.5673     0.0001     4.0000 </r>
       <r>   -12.4602     0.0000     4.0000 </r>
       <r>   -12.3531     0.0000     4.0000 </r>
       <r>   -12.2460     0.0000     4.0000 </r>
       <r>   -12.1388     0.0000     4.0000 </r>
       <r>   -12.0317     0.0000     4.0000 </r>
       <r>   -11.9246     0.0006     4.0001 </r>
       <r>   -11.8175     0.0094     4.0011 </r>
       <r>   -11.7103     0.0602     4.0075 </r>
       <r>   -11.6032     0.0602     4.0140 </r>
       <r>   -11.4961    -0.6598     3.9433 </r>
       <r>   -11.3890    -0.7776     3.8600 </r>
       <r>   -11.2818     6.3419     4.5394 </r>
       <r>   -11.1747    16.9237     6.3523 </r>
       <r>   -11.0676    13.9760     7.8495 </r>
       <r>   -10.9605     2.7324     8.1422 </r>
       <r>   -10.8533    -1.1745     8.0164 </r>
       <r>   -10.7462    -0.2881     7.9855 </r>
       <r>   -10.6391     0.0960     7.9958 </r>
       <r>   -10.5320     0.0352     7.9996 </r>
       <r>   -10.4248     0.0071     8.0003 </r>
       <r>   -10.3177     0.0279     8.0033 </r>
       <r>   -10.2106     0.0610     8.0099 </r>
       <r>   -10.1035    -0.2972     7.9780 </r>
       <r>    -9.9963    -0.7585     7.8968 </r>
       <r>    -9.8892     2.9404     8.2118 </r>
       <r>    -9.7821     9.4675     9.2260 </r>
       <r>    -9.6750     7.2943    10.0074 </r>
       <r>    -9.5678     0.6717    10.0793 </r>
       <r>    -9.4607    -0.7499     9.9990 </r>
       <r>    -9.3536    -0.0629     9.9923 </r>
       <r>    -9.2465     0.0581     9.9985 </r>
       <r>    -9.1393     0.0130     9.9999 </r>
       <r>    -9.0322     0.0010    10.0000 </r>
       <r>    -8.9251     0.0000    10.0000 </r>
       <r>    -8.8180     0.0000    10.0000 </r>
       <r>    -8.7108     0.0000    10.0000 </r>
       <r>    -8.6037     0.0000    10.0000 </r>
       <r>    -8.4966     0.0000    10.0000 </r>
       <r>    -8.3895     0.0000    10.0000 </r>
       <r>    -8.2823     0.0000    10.0000 </r>
       <r>    -8.1752     0.0000    10.0000 </r>
       <r>    -8.0681     0.0000    10.0000 </r>
       <r>    -7.9610     0.0000    10.0000 </r>
       <r>    -7.8538     0.0000    10.0000 </r>
       <r>    -7.7467     0.0000    10.0000 </r>
       <r>    -7.6396     0.0000    10.0000 </r>
       <r>    -7.5325     0.0000    10.0000 </r>
       <r>    -7.4253     0.0000    10.0000 </r>
       <r>    -7.3182     0.0009    10.0001 </r>
       <r>    -7.2111     0.0115    10.0013 </r>
       <r>    -7.1040     0.0556    10.0073 </r>
       <r>    -6.9968    -0.0405    10.0029 </r>
       <r>    -6.8897    -0.7159     9.9263 </r>
       <r>    -6.7826     0.4393     9.9733 </r>
       <r>    -6.6755     6.9435    10.7171 </r>
       <r>    -6.5683     9.8366    11.7709 </r>
       <r>    -6.4612     3.0279    12.0953 </r>
       <r>    -6.3541    -2.9938    11.7745 </r>
       <r>    -6.2470     3.2799    12.1259 </r>
       <r>    -6.1398    23.5335    14.6469 </r>
       <r>    -6.0327    24.5807    17.2801 </r>
       <r>    -5.9256    10.2002    18.3728 </r>
       <r>    -5.8185    26.9496    21.2598 </r>
       <r>    -5.7113    64.6847    28.1892 </r>
       <r>    -5.6042   143.3364    43.5441 </r>
       <r>    -5.4971   266.5450    72.0978 </r>
       <r>    -5.3900   302.3239   104.4842 </r>
       <r>    -5.2828   233.9493   129.5461 </r>
       <r>    -5.1757   218.7238   152.9769 </r>
       <r>    -5.0686   297.2452   184.8193 </r>
       <r>    -4.9615   362.3484   223.6359 </r>
       <r>    -4.8543   333.3690   259.3481 </r>
       <r>    -4.7472   307.8797   292.3298 </r>
       <r>    -4.6401   372.9297   332.2799 </r>
       <r>    -4.5330   415.9528   376.8389 </r>
       <r>    -4.4258   419.1351   421.7388 </r>
       <r>    -4.3187   507.2432   476.0773 </r>
       <r>    -4.2116   553.5314   535.3744 </r>
       <r>    -4.1045   345.4363   572.3793 </r>
       <r>    -3.9973    81.7286   581.1345 </r>
       <r>    -3.8902     5.5639   581.7305 </r>
       <r>    -3.7831    27.5509   584.6819 </r>
       <r>    -3.6760    23.9763   587.2503 </r>
       <r>    -3.5688    14.7310   588.8284 </r>
       <r>    -3.4617    26.3758   591.6539 </r>
       <r>    -3.3546    20.5290   593.8531 </r>
       <r>    -3.2475    -1.3497   593.7085 </r>
       <r>    -3.1403     8.2548   594.5928 </r>
       <r>    -3.0332    49.6114   599.9074 </r>
       <r>    -2.9261    59.0827   606.2367 </r>
       <r>    -2.8190    27.2448   609.1553 </r>
       <r>    -2.7118     5.3507   609.7285 </r>
       <r>    -2.6047     9.4352   610.7392 </r>
       <r>    -2.4976    25.7080   613.4932 </r>
       <r>    -2.3905    25.7497   616.2516 </r>
       <r>    -2.2833    16.5298   618.0224 </r>
       <r>    -2.1762    18.8697   620.0438 </r>
       <r>    -2.0691    30.2910   623.2887 </r>
       <r>    -1.9620    38.4444   627.4071 </r>
       <r>    -1.8548    40.6726   631.7641 </r>
       <r>    -1.7477    39.2785   635.9718 </r>
       <r>    -1.6406    39.8761   640.2436 </r>
       <r>    -1.5335    36.7336   644.1787 </r>
       <r>    -1.4263    23.4085   646.6863 </r>
       <r>    -1.3192    22.1449   649.0586 </r>
       <r>    -1.2121    28.5348   652.1154 </r>
       <r>    -1.1050    25.5015   654.8472 </r>
       <r>    -0.9978    35.8199   658.6844 </r>
       <r>    -0.8907    55.3408   664.6128 </r>
       <r>    -0.7836    41.3506   669.0425 </r>
       <r>    -0.6765    17.0068   670.8644 </r>
       <r>    -0.5693     8.4678   671.7715 </r>
       <r>    -0.4622     2.8206   672.0736 </r>
       <r>    -0.3551    -0.5365   672.0162 </r>
       <r>    -0.2480    -0.2692   671.9873 </r>
       <r>    -0.1408     0.0774   671.9956 </r>
       <r>    -0.0337     0.0361   671.9995 </r>
       <r>     0.0734     0.0045   672.0000 </r>
       <r>     0.1805     0.0002   672.0000 </r>
       <r>     0.2877     0.0000   672.0000 </r>
       <r>     0.3948     0.0000   672.0000 </r>
       <r>     0.5019     0.0000   672.0000 </r>
       <r>     0.6090     0.0000   672.0000 </r>
       <r>     0.7162     0.0000   672.0000 </r>
       <r>     0.8233     0.0000   672.0000 </r>
       <r>     0.9304     0.0000   672.0000 </r>
       <r>     1.0375     0.0000   672.0000 </r>
       <r>     1.1447     0.0000   672.0000 </r>
       <r>     1.2518     0.0000   672.0000 </r>
       <r>     1.3589     0.0000   672.0000 </r>
      </set>
     </set>
    </array>
   </total>
  </dos>
 </calculation>
 <structure name="finalpos" >
  <crystal>
   <varray name="basis" >
    <v>      30.00000000       0.00000000       0.00000000 </v>
    <v>       0.00000000      30.00000000       0.00000000 </v>
    <v>       0.00000000       0.00000000      30.00000000 </v>
   </varray>
   <i name="volume">  27000.00000000 </i>
   <varray name="rec_basis" >
    <v>       0.03333333       0.00000000       0.00000000 </v>
    <v>       0.00000000       0.03333333       0.00000000 </v>
    <v>       0.00000000       0.00000000       0.03333333 </v>
   </varray>
  </crystal>
  <varray name="positions" >
   <v>       0.44576020       0.32826710       0.41691983 </v>
   <v>       0.67173288       0.55423978       0.41691983 </v>
   <v>       0.55423980       0.32826710       0.41691983 </v>
   <v>       0.32826712       0.55423978       0.41691983 </v>
   <v>       0.50000000       0.38250690       0.34021317 </v>
   <v>       0.50000000       0.38250690       0.65978680 </v>
   <v>       0.50000000       0.27609440       0.50000000 </v>
   <v>       0.27609443       0.49999998       0.50000000 </v>
   <v>       0.72390557       0.49999998       0.50000000 </v>
   <v>       0.50000000       0.72390555       0.50000000 </v>
   <v>       0.61195280       0.38804720       0.34167483 </v>
   <v>       0.61195280       0.38804720       0.65832513 </v>
   <v>       0.38804722       0.61195278       0.34167483 </v>
   <v>       0.38804722       0.61195278       0.65832513 </v>
   <v>       0.38804720       0.38804720       0.34167483 </v>
   <v>       0.38804720       0.38804720       0.65832513 </v>
   <v>       0.61195278       0.61195278       0.34167483 </v>
   <v>       0.61195278       0.61195278       0.65832513 </v>
   <v>       0.44576020       0.32826710       0.58308023 </v>
   <v>       0.67173288       0.55423978       0.58308023 </v>
   <v>       0.55791699       0.44208301       0.41809300 </v>
   <v>       0.32826705       0.44576024       0.41691983 </v>
   <v>       0.55423973       0.67173293       0.41691983 </v>
   <v>       0.55423980       0.32826710       0.58308023 </v>
   <v>       0.32826712       0.55423978       0.58308023 </v>
   <v>       0.67173295       0.44576024       0.41691983 </v>
   <v>       0.44576027       0.67173293       0.41691983 </v>
   <v>       0.44208301       0.44208301       0.41809300 </v>
   <v>       0.50000000       0.38416601       0.50000000 </v>
   <v>       0.61749315       0.50000005       0.34021317 </v>
   <v>       0.61749315       0.50000005       0.65978680 </v>
   <v>       0.38250685       0.50000005       0.34021317 </v>
   <v>       0.38250685       0.50000005       0.65978680 </v>
   <v>       0.38317830       0.38317830       0.50000000 </v>
   <v>       0.61682172       0.61682172       0.50000000 </v>
   <v>       0.61682170       0.38317830       0.50000000 </v>
   <v>       0.38317828       0.61682172       0.50000000 </v>
   <v>       0.50000000       0.50000000       0.33478917 </v>
   <v>       0.50000000       0.50000000       0.66521087 </v>
   <v>       0.32826705       0.44576024       0.58308023 </v>
   <v>       0.55423973       0.67173293       0.58308023 </v>
   <v>       0.55791699       0.44208301       0.58190703 </v>
   <v>       0.44208298       0.55791702       0.41809300 </v>
   <v>       0.44208301       0.44208301       0.58190703 </v>
   <v>       0.67173295       0.44576024       0.58308023 </v>
   <v>       0.44576027       0.67173293       0.58308023 </v>
   <v>       0.55791702       0.55791702       0.41809300 </v>
   <v>       0.38416599       0.50000002       0.50000000 </v>
   <v>       0.61583401       0.50000002       0.50000000 </v>
   <v>       0.50000000       0.61749319       0.34021317 </v>
   <v>       0.50000000       0.61749319       0.65978680 </v>
   <v>       0.50000000       0.50000000       0.50000000 </v>
   <v>       0.44208298       0.55791702       0.58190703 </v>
   <v>       0.55791702       0.55791702       0.58190703 </v>
   <v>       0.50000000       0.61583404       0.50000000 </v>
   <v>       0.39865597       0.31588463       0.67194767 </v>
   <v>       0.38462300       0.29039047       0.69575697 </v>
  </varray>
  <varray name="selective"  type="logical" >
   <v type="logical" >  F  F  F </v>
   <v type="logical" >  F  F  F </v>
   <v type="logical" >  F  F  F </v>
   <v type="logical" >  F  F  F </v>
   <v type="logical" >  F  F  F </v>
   <v type="logical" >  F  F  F </v>
   <v type="logical" >  F  F  F </v>
   <v type="logical" >  F  F  F </v>
   <v type="logical" >  F  F  F </v>
   <v type="logical" >  F  F  F </v>
   <v type="logical" >  F  F  F </v>
   <v type="logical" >  F  F  F </v>
   <v type="logical" >  F  F  F </v>
   <v type="logical" >  F  F  F </v>
   <v type="logical" >  F  F  F </v>
   <v type="logical" >  F  F  F </v>
   <v type="logical" >  F  F  F </v>
   <v type="logical" >  F  F  F </v>
   <v type="logical" >  F  F  F </v>
   <v type="logical" >  F  F  F </v>
   <v type="logical" >  F  F  F </v>
   <v type="logical" >  F  F  F </v>
   <v type="logical" >  F  F  F </v>
   <v type="logical" >  F  F  F </v>
   <v type="logical" >  F  F  F </v>
   <v type="logical" >  F  F  F </v>
   <v type="logical" >  F  F  F </v>
   <v type="logical" >  F  F  F </v>
   <v type="logical" >  F  F  F </v>
   <v type="logical" >  F  F  F </v>
   <v type="logical" >  F  F  F </v>
   <v type="logical" >  F  F  F </v>
   <v type="logical" >  F  F  F </v>
   <v type="logical" >  F  F  F </v>
   <v type="logical" >  F  F  F </v>
   <v type="logical" >  F  F  F </v>
   <v type="logical" >  F  F  F </v>
   <v type="logical" >  F  F  F </v>
   <v type="logical" >  F  F  F </v>
   <v type="logical" >  F  F  F </v>
   <v type="logical" >  F  F  F </v>
   <v type="logical" >  F  F  F </v>
   <v type="logical" >  F  F  F </v>
   <v type="logical" >  F  F  F </v>
   <v type="logical" >  F  F  F </v>
   <v type="logical" >  F  F  F </v>
   <v type="logical" >  F  F  F </v>
   <v type="logical" >  F  F  F </v>
   <v type="logical" >  F  F  F </v>
   <v type="logical" >  F  F  F </v>
   <v type="logical" >  F  F  F </v>
   <v type="logical" >  F  F  F </v>
   <v type="logical" >  F  F  F </v>
   <v type="logical" >  F  F  F </v>
   <v type="logical" >  F  F  F </v>
   <v type="logical" >  F  F  F </v>
   <v type="logical" >  F  F  F </v>
  </varray>
  <nose>
   <v>      -3.00000000       0.00000000       0.00010000       0.00010000 </v>
  </nose>
 </structure>
</modeling>
