       N       E                     dE             d eps       ncg     rms          rms(c)
DAV:   1     0.439804545220E+04    0.43980E+04   -0.10052E+05   688   0.815E+02
DAV:   2     0.203277912274E+04   -0.23653E+04   -0.21253E+04  1208   0.106E+02
DAV:   3     0.239805669466E+03   -0.17930E+04   -0.16838E+04  1000   0.921E+01
DAV:   4    -0.133051818687E+03   -0.37286E+03   -0.31612E+03   824   0.442E+01
DAV:   5    -0.180231413442E+03   -0.47180E+02   -0.38706E+02  1056   0.148E+01    0.173E+01
RMM:   6    -0.180489781796E+03   -0.25837E+00   -0.68483E+01   724   0.951E+00    0.249E+01
RMM:   7    -0.182447497242E+03   -0.19577E+01   -0.23601E+01   849   0.509E+00    0.212E+01
RMM:   8    -0.187783247007E+03   -0.53357E+01   -0.83078E+00   758   0.398E+00    0.305E+01
RMM:   9    -0.184890649353E+03    0.28926E+01   -0.59904E+00   742   0.342E+00    0.319E+01
RMM:  10    -0.181135160695E+03    0.37555E+01   -0.40201E+00   728   0.288E+00    0.226E+01
RMM:  11    -0.178740446628E+03    0.23947E+01   -0.31138E+00   723   0.258E+00    0.191E+01
RMM:  12    -0.178295227493E+03    0.44522E+00   -0.18648E+00   731   0.199E+00    0.187E+01
RMM:  13    -0.178934644757E+03   -0.63942E+00   -0.18251E+00   719   0.197E+00    0.285E+01
RMM:  14    -0.179040003424E+03   -0.10536E+00   -0.20762E+00   703   0.213E+00    0.315E+01
RMM:  15    -0.177103089357E+03    0.19369E+01   -0.12804E+00   702   0.162E+00    0.146E+01
RMM:  16    -0.176270936737E+03    0.83215E+00   -0.89877E-01   699   0.141E+00    0.112E+01
RMM:  17    -0.176070041882E+03    0.20089E+00   -0.38582E-01   714   0.911E-01    0.114E+01
RMM:  18    -0.176012526502E+03    0.57515E-01   -0.33418E-01   713   0.873E-01    0.113E+01
RMM:  19    -0.175979561624E+03    0.32965E-01   -0.40259E-01   700   0.983E-01    0.120E+01
RMM:  20    -0.175635456697E+03    0.34410E+00   -0.27936E-01   697   0.849E-01    0.730E+00
RMM:  21    -0.175560135644E+03    0.75321E-01   -0.24388E-01   697   0.764E-01    0.663E+00
RMM:  22    -0.175532076270E+03    0.28059E-01   -0.23352E-01   694   0.746E-01    0.816E+00
RMM:  23    -0.175435529156E+03    0.96547E-01   -0.20057E-01   695   0.697E-01    0.668E+00
RMM:  24    -0.175279787191E+03    0.15574E+00   -0.16157E-01   690   0.621E-01    0.420E+00
RMM:  25    -0.175302015727E+03   -0.22229E-01   -0.10681E-01   694   0.502E-01    0.508E+00
RMM:  26    -0.175222122656E+03    0.79893E-01   -0.69471E-02   696   0.426E-01    0.377E+00
RMM:  27    -0.175184476745E+03    0.37646E-01   -0.49020E-02   692   0.364E-01    0.261E+00
RMM:  28    -0.175173076084E+03    0.11401E-01   -0.35097E-02   693   0.302E-01    0.240E+00
RMM:  29    -0.175162532375E+03    0.10544E-01   -0.27460E-02   691   0.267E-01    0.227E+00
RMM:  30    -0.175148145437E+03    0.14387E-01   -0.13467E-02   695   0.196E-01    0.169E+00
RMM:  31    -0.175139400383E+03    0.87451E-02   -0.11544E-02   697   0.169E-01    0.135E+00
RMM:  32    -0.175132583090E+03    0.68173E-02   -0.75334E-03   691   0.143E-01    0.103E+00
RMM:  33    -0.175130997176E+03    0.15859E-02   -0.48515E-03   693   0.115E-01    0.930E-01
RMM:  34    -0.175127709602E+03    0.32876E-02   -0.27165E-03   691   0.836E-02    0.525E-01
RMM:  35    -0.175127797668E+03   -0.88067E-04   -0.20713E-03   688   0.731E-02    0.476E-01
RMM:  36    -0.175129825082E+03   -0.20274E-02   -0.20940E-03   682   0.716E-02    0.586E-01
RMM:  37    -0.175129909108E+03   -0.84025E-04   -0.13616E-03   680   0.637E-02    0.276E-01
RMM:  38    -0.175131246682E+03   -0.13376E-02   -0.80914E-04   680   0.447E-02    0.310E-01
RMM:  39    -0.175135245312E+03   -0.39986E-02   -0.87107E-04   677   0.451E-02    0.339E-01
RMM:  40    -0.175136907096E+03   -0.16618E-02   -0.54050E-04   569   0.365E-02    0.210E-01
RMM:  41    -0.175140382386E+03   -0.34753E-02   -0.67271E-04   619   0.368E-02    0.208E-01
RMM:  42    -0.175143114963E+03   -0.27326E-02   -0.51246E-04   532   0.314E-02    0.242E-01
RMM:  43    -0.175145019608E+03   -0.19046E-02   -0.36712E-04   465   0.265E-02    0.189E-01
RMM:  44    -0.175146726880E+03   -0.17073E-02   -0.34417E-04   462   0.244E-02    0.124E-01
RMM:  45    -0.175148108233E+03   -0.13814E-02   -0.20695E-04   412   0.192E-02    0.149E-01
RMM:  46    -0.175149681152E+03   -0.15729E-02   -0.17137E-04   409   0.168E-02    0.846E-02
RMM:  47    -0.175150374848E+03   -0.69370E-03   -0.89150E-05   410   0.122E-02    0.691E-02
RMM:  48    -0.175151638115E+03   -0.12633E-02   -0.76657E-05   409   0.112E-02    0.684E-02
RMM:  49    -0.175152416618E+03   -0.77850E-03   -0.51130E-05   399   0.911E-03    0.462E-02
RMM:  50    -0.175153197512E+03   -0.78089E-03   -0.46066E-05   403   0.864E-03    0.572E-02
RMM:  51    -0.175154336444E+03   -0.11389E-02   -0.67345E-05   399   0.934E-03    0.367E-02
RMM:  52    -0.175154521420E+03   -0.18498E-03   -0.26787E-05   368   0.598E-03    0.238E-02
RMM:  53    -0.175154932943E+03   -0.41152E-03   -0.15396E-05   266   0.488E-03    0.241E-02
RMM:  54    -0.175155100965E+03   -0.16802E-03   -0.38869E-06   142   0.400E-03    0.132E-02
RMM:  55    -0.175155323652E+03   -0.22269E-03   -0.53409E-06   179   0.426E-03    0.160E-02
RMM:  56    -0.175155600098E+03   -0.27645E-03   -0.80662E-06   219   0.427E-03    0.134E-02
RMM:  57    -0.175155838910E+03   -0.23881E-03   -0.67949E-06   178   0.378E-03    0.976E-03
RMM:  58    -0.175156185329E+03   -0.34642E-03   -0.12036E-05   209   0.427E-03    0.861E-03
RMM:  59    -0.175156303373E+03   -0.11804E-03   -0.57976E-06   148   0.369E-03    0.535E-03
RMM:  60    -0.175156467918E+03   -0.16454E-03   -0.96056E-06   177   0.405E-03    0.974E-03
RMM:  61    -0.175156560748E+03   -0.92830E-04   -0.81218E-06   168   0.384E-03
   1 F= -.17515656E+03 E0= -.17512884E+03  d E =-.110899E+00
