  57  57   0   0
  0.4736842E+03  0.3000000E-08  0.3000000E-08  0.3000000E-08  0.5000000E-15
  1.000000000000000E-004
  CAR 
 6_Pd100_top_free_z(O)                   
      1.36317291    -30.46619348  301     -4.16407123      1.00000000
    -30.466  0.0000E+00  0.0000E+00
    -30.360  0.0000E+00  0.0000E+00
    -30.254  0.0000E+00  0.0000E+00
    -30.148  0.2956E-27  0.3136E-28
    -30.042  0.1364E-23  0.1447E-24
    -29.936  0.3530E-20  0.3747E-21
    -29.830  0.5111E-17  0.5426E-18
    -29.724  0.4124E-14  0.4381E-15
    -29.617  0.1851E-11  0.1968E-12
    -29.511  0.4569E-09  0.4868E-10
    -29.405  0.6163E-07  0.6588E-08
    -29.299  0.4473E-05  0.4812E-06
    -29.193  0.1704E-03  0.1857E-04
    -29.087  0.3250E-02  0.3634E-03
    -28.981  0.2760E-01  0.3291E-02
    -28.875  0.6173E-01  0.9841E-02
    -28.769 -0.2823E+00 -0.2012E-01
    -28.663 -0.7802E+00 -0.1029E+00
    -28.556  0.2677E+01  0.1811E+00
    -28.450  0.9292E+01  0.1167E+01
    -28.344  0.7687E+01  0.1983E+01
    -28.238  0.9750E+00  0.2086E+01
    -28.132 -0.7881E+00  0.2002E+01
    -28.026 -0.1015E+00  0.1992E+01
    -27.920  0.6180E-01  0.1998E+01
    -27.814  0.1606E-01  0.2000E+01
    -27.708  0.1454E-02  0.2000E+01
    -27.602  0.6155E-04  0.2000E+01
    -27.495  0.1327E-05  0.2000E+01
    -27.389  0.1517E-07  0.2000E+01
    -27.283  0.9373E-10  0.2000E+01
    -27.177  0.3181E-12  0.2000E+01
    -27.071  0.0000E+00  0.2000E+01
    -26.965  0.0000E+00  0.2000E+01
    -26.859  0.0000E+00  0.2000E+01
    -26.753  0.0000E+00  0.2000E+01
    -26.647  0.0000E+00  0.2000E+01
    -26.541  0.0000E+00  0.2000E+01
    -26.434  0.0000E+00  0.2000E+01
    -26.328  0.0000E+00  0.2000E+01
    -26.222  0.0000E+00  0.2000E+01
    -26.116  0.0000E+00  0.2000E+01
    -26.010  0.0000E+00  0.2000E+01
    -25.904  0.0000E+00  0.2000E+01
    -25.798  0.0000E+00  0.2000E+01
    -25.692  0.0000E+00  0.2000E+01
    -25.586  0.0000E+00  0.2000E+01
    -25.480  0.0000E+00  0.2000E+01
    -25.373  0.0000E+00  0.2000E+01
    -25.267  0.0000E+00  0.2000E+01
    -25.161  0.0000E+00  0.2000E+01
    -25.055  0.0000E+00  0.2000E+01
    -24.949  0.0000E+00  0.2000E+01
    -24.843  0.0000E+00  0.2000E+01
    -24.737  0.0000E+00  0.2000E+01
    -24.631  0.0000E+00  0.2000E+01
    -24.525  0.0000E+00  0.2000E+01
    -24.419  0.0000E+00  0.2000E+01
    -24.313  0.0000E+00  0.2000E+01
    -24.206  0.0000E+00  0.2000E+01
    -24.100  0.0000E+00  0.2000E+01
    -23.994  0.0000E+00  0.2000E+01
    -23.888  0.0000E+00  0.2000E+01
    -23.782  0.0000E+00  0.2000E+01
    -23.676  0.0000E+00  0.2000E+01
    -23.570  0.0000E+00  0.2000E+01
    -23.464  0.0000E+00  0.2000E+01
    -23.358  0.0000E+00  0.2000E+01
    -23.252  0.0000E+00  0.2000E+01
    -23.145  0.0000E+00  0.2000E+01
    -23.039  0.0000E+00  0.2000E+01
    -22.933  0.0000E+00  0.2000E+01
    -22.827  0.0000E+00  0.2000E+01
    -22.721  0.0000E+00  0.2000E+01
    -22.615  0.0000E+00  0.2000E+01
    -22.509  0.0000E+00  0.2000E+01
    -22.403  0.0000E+00  0.2000E+01
    -22.297  0.0000E+00  0.2000E+01
    -22.191  0.0000E+00  0.2000E+01
    -22.084  0.0000E+00  0.2000E+01
    -21.978  0.0000E+00  0.2000E+01
    -21.872  0.0000E+00  0.2000E+01
    -21.766  0.0000E+00  0.2000E+01
    -21.660  0.0000E+00  0.2000E+01
    -21.554  0.0000E+00  0.2000E+01
    -21.448  0.0000E+00  0.2000E+01
    -21.342  0.0000E+00  0.2000E+01
    -21.236  0.0000E+00  0.2000E+01
    -21.130  0.0000E+00  0.2000E+01
    -21.023  0.0000E+00  0.2000E+01
    -20.917  0.0000E+00  0.2000E+01
    -20.811  0.0000E+00  0.2000E+01
    -20.705  0.0000E+00  0.2000E+01
    -20.599  0.0000E+00  0.2000E+01
    -20.493  0.0000E+00  0.2000E+01
    -20.387  0.0000E+00  0.2000E+01
    -20.281  0.0000E+00  0.2000E+01
    -20.175  0.0000E+00  0.2000E+01
    -20.069  0.0000E+00  0.2000E+01
    -19.963  0.0000E+00  0.2000E+01
    -19.856  0.0000E+00  0.2000E+01
    -19.750  0.0000E+00  0.2000E+01
    -19.644  0.0000E+00  0.2000E+01
    -19.538  0.0000E+00  0.2000E+01
    -19.432  0.0000E+00  0.2000E+01
    -19.326  0.0000E+00  0.2000E+01
    -19.220  0.0000E+00  0.2000E+01
    -19.114  0.0000E+00  0.2000E+01
    -19.008  0.0000E+00  0.2000E+01
    -18.902  0.0000E+00  0.2000E+01
    -18.795  0.0000E+00  0.2000E+01
    -18.689  0.0000E+00  0.2000E+01
    -18.583  0.0000E+00  0.2000E+01
    -18.477  0.0000E+00  0.2000E+01
    -18.371  0.0000E+00  0.2000E+01
    -18.265  0.0000E+00  0.2000E+01
    -18.159  0.0000E+00  0.2000E+01
    -18.053  0.0000E+00  0.2000E+01
    -17.947  0.0000E+00  0.2000E+01
    -17.841  0.0000E+00  0.2000E+01
    -17.734  0.0000E+00  0.2000E+01
    -17.628  0.0000E+00  0.2000E+01
    -17.522  0.0000E+00  0.2000E+01
    -17.416  0.0000E+00  0.2000E+01
    -17.310  0.0000E+00  0.2000E+01
    -17.204  0.0000E+00  0.2000E+01
    -17.098  0.0000E+00  0.2000E+01
    -16.992  0.0000E+00  0.2000E+01
    -16.886  0.0000E+00  0.2000E+01
    -16.780  0.0000E+00  0.2000E+01
    -16.673  0.0000E+00  0.2000E+01
    -16.567  0.0000E+00  0.2000E+01
    -16.461  0.0000E+00  0.2000E+01
    -16.355  0.0000E+00  0.2000E+01
    -16.249  0.0000E+00  0.2000E+01
    -16.143  0.0000E+00  0.2000E+01
    -16.037  0.0000E+00  0.2000E+01
    -15.931  0.0000E+00  0.2000E+01
    -15.825  0.0000E+00  0.2000E+01
    -15.719  0.0000E+00  0.2000E+01
    -15.612  0.0000E+00  0.2000E+01
    -15.506  0.0000E+00  0.2000E+01
    -15.400  0.0000E+00  0.2000E+01
    -15.294  0.0000E+00  0.2000E+01
    -15.188  0.0000E+00  0.2000E+01
    -15.082  0.0000E+00  0.2000E+01
    -14.976  0.1763E-26  0.2000E+01
    -14.870  0.7222E-23  0.2000E+01
    -14.764  0.1659E-19  0.2000E+01
    -14.658  0.2130E-16  0.2000E+01
    -14.552  0.1523E-13  0.2000E+01
    -14.445  0.6047E-11  0.2000E+01
    -14.339  0.1319E-08  0.2000E+01
    -14.233  0.1569E-06  0.2000E+01
    -14.127  0.9995E-05  0.2000E+01
    -14.021  0.3319E-03  0.2000E+01
    -13.915  0.5430E-02  0.2001E+01
    -13.809  0.3778E-01  0.2005E+01
    -13.703  0.4450E-01  0.2009E+01
    -13.597 -0.4411E+00  0.1963E+01
    -13.491 -0.5668E+00  0.1902E+01
    -13.384  0.4110E+01  0.2338E+01
    -13.278  0.9894E+01  0.3388E+01
    -13.172  0.6253E+01  0.4052E+01
    -13.066  0.1374E+00  0.4066E+01
    -12.960 -0.6693E+00  0.3995E+01
    -12.854 -0.1899E-01  0.3993E+01
    -12.748  0.5313E-01  0.3999E+01
    -12.642  0.1050E-01  0.4000E+01
    -12.536  0.8033E-03  0.4000E+01
    -12.430  0.2945E-04  0.4000E+01
    -12.323  0.5559E-06  0.4000E+01
    -12.217  0.5595E-08  0.4000E+01
    -12.111  0.1422E-08  0.4000E+01
    -12.005  0.1644E-06  0.4000E+01
    -11.899  0.1042E-04  0.4000E+01
    -11.793  0.3449E-03  0.4000E+01
    -11.687  0.5652E-02  0.4001E+01
    -11.581  0.4022E-01  0.4005E+01
    -11.475  0.6242E-01  0.4012E+01
    -11.369 -0.3854E+00  0.3971E+01
    -11.262 -0.7021E+00  0.3896E+01
    -11.156  0.3370E+01  0.4254E+01
    -11.050  0.1137E+02  0.5460E+01
    -10.944  0.1446E+02  0.6995E+01
    -10.838  0.9000E+01  0.7950E+01
    -10.732  0.1457E+01  0.8104E+01
    -10.626 -0.1268E+01  0.7970E+01
    -10.520 -0.7383E+00  0.7891E+01
    -10.414  0.4150E+01  0.8332E+01
    -10.308  0.9910E+01  0.9383E+01
    -10.201  0.6289E+01  0.1005E+02
    -10.095  0.1533E+00  0.1007E+02
     -9.989 -0.6726E+00  0.9995E+01
     -9.883 -0.2049E-01  0.9993E+01
     -9.777  0.5336E-01  0.9999E+01
     -9.671  0.1061E-01  0.1000E+02
     -9.565  0.8145E-03  0.1000E+02
     -9.459  0.2996E-04  0.1000E+02
     -9.353  0.5672E-06  0.1000E+02
     -9.247  0.5718E-08  0.1000E+02
     -9.141  0.3128E-10  0.1000E+02
     -9.034  0.9418E-13  0.1000E+02
     -8.928  0.0000E+00  0.1000E+02
     -8.822  0.0000E+00  0.1000E+02
     -8.716  0.0000E+00  0.1000E+02
     -8.610  0.0000E+00  0.1000E+02
     -8.504  0.0000E+00  0.1000E+02
     -8.398  0.0000E+00  0.1000E+02
     -8.292  0.1790E-25  0.1000E+02
     -8.186  0.6268E-22  0.1000E+02
     -8.080  0.1230E-18  0.1000E+02
     -7.973  0.1347E-15  0.1000E+02
     -7.867  0.8209E-13  0.1000E+02
     -7.761  0.2774E-10  0.1000E+02
     -7.655  0.5138E-08  0.1000E+02
     -7.549  0.5166E-06  0.1000E+02
     -7.443  0.2767E-04  0.1000E+02
     -7.337  0.7636E-03  0.1000E+02
     -7.231  0.1012E-01  0.1000E+02
     -7.125  0.5226E-01  0.1001E+02
     -7.019 -0.1364E-01  0.1001E+02
     -6.912 -0.6566E+00  0.9936E+01
     -6.806  0.8742E-01  0.9945E+01
     -6.700  0.6190E+01  0.1060E+02
     -6.594  0.1013E+02  0.1168E+02
     -6.488  0.3873E+01  0.1209E+02
     -6.382 -0.2920E+01  0.1178E+02
     -6.276  0.2835E+01  0.1208E+02
     -6.170  0.2639E+02  0.1488E+02
     -6.064  0.3993E+02  0.1911E+02
     -5.958  0.2450E+02  0.2171E+02
     -5.851  0.2025E+02  0.2386E+02
     -5.745  0.5225E+02  0.2941E+02
     -5.639  0.1257E+03  0.4274E+02
     -5.533  0.2402E+03  0.6822E+02
     -5.427  0.2981E+03  0.9985E+02
     -5.321  0.2437E+03  0.1257E+03
     -5.215  0.2065E+03  0.1476E+03
     -5.109  0.2736E+03  0.1766E+03
     -5.003  0.3553E+03  0.2143E+03
     -4.897  0.3373E+03  0.2501E+03
     -4.791  0.2865E+03  0.2805E+03
     -4.684  0.3423E+03  0.3169E+03
     -4.578  0.4226E+03  0.3617E+03
     -4.472  0.4250E+03  0.4068E+03
     -4.366  0.4745E+03  0.4571E+03
     -4.260  0.5602E+03  0.5166E+03
     -4.154  0.4395E+03  0.5632E+03
     -4.048  0.1587E+03  0.5800E+03
     -3.942  0.9787E+01  0.5811E+03
     -3.836  0.1798E+02  0.5830E+03
     -3.730  0.3080E+02  0.5862E+03
     -3.623  0.1698E+02  0.5880E+03
     -3.517  0.1751E+02  0.5899E+03
     -3.411  0.2293E+02  0.5923E+03
     -3.305  0.1097E+02  0.5935E+03
     -3.199  0.3777E+01  0.5939E+03
     -3.093  0.3235E+02  0.5973E+03
     -2.987  0.5952E+02  0.6036E+03
     -2.881  0.3879E+02  0.6078E+03
     -2.775  0.1092E+02  0.6089E+03
     -2.669  0.1128E+02  0.6101E+03
     -2.562  0.2439E+02  0.6127E+03
     -2.456  0.2511E+02  0.6154E+03
     -2.350  0.1186E+02  0.6166E+03
     -2.244  0.8426E+01  0.6175E+03
     -2.138  0.2624E+02  0.6203E+03
     -2.032  0.4699E+02  0.6253E+03
     -1.926  0.4134E+02  0.6297E+03
     -1.820  0.2613E+02  0.6324E+03
     -1.714  0.3526E+02  0.6362E+03
     -1.608  0.5243E+02  0.6418E+03
     -1.501  0.3737E+02  0.6457E+03
     -1.395  0.1398E+02  0.6472E+03
     -1.289  0.1469E+02  0.6488E+03
     -1.183  0.2203E+02  0.6511E+03
     -1.077  0.3101E+02  0.6544E+03
     -0.971  0.5639E+02  0.6604E+03
     -0.865  0.6159E+02  0.6669E+03
     -0.759  0.2984E+02  0.6701E+03
     -0.653  0.9500E+01  0.6711E+03
     -0.547  0.6974E+01  0.6718E+03
     -0.440  0.2390E+01  0.6721E+03
     -0.334 -0.5577E+00  0.6720E+03
     -0.228 -0.2068E+00  0.6720E+03
     -0.122  0.7120E-01  0.6720E+03
     -0.016  0.2817E-01  0.6720E+03
      0.090  0.3268E-02  0.6720E+03
      0.196  0.1707E-03  0.6720E+03
      0.302  0.4476E-05  0.6720E+03
      0.408  0.6164E-07  0.6720E+03
      0.514  0.4570E-09  0.6720E+03
      0.620  0.1850E-11  0.6720E+03
      0.727  0.4186E-14  0.6720E+03
      0.833  0.0000E+00  0.6720E+03
      0.939  0.0000E+00  0.6720E+03
      1.045  0.0000E+00  0.6720E+03
      1.151  0.0000E+00  0.6720E+03
      1.257  0.0000E+00  0.6720E+03
      1.363  0.0000E+00  0.6720E+03
