   57   57    1    1
  0.4736842E+03  0.3000000E-08  0.3000000E-08  0.3000000E-08  0.5000000E-15
  1.000000000000000E-004
  CAR 
 6_Pd100_top_free_z(O)                   
    560      1    336
 
  0.0000000E+00  0.0000000E+00  0.0000000E+00  0.1000000E+01
    1      -28.822259   1.000000
    2      -13.415128   1.000000
    3      -11.195905   1.000000
    4      -11.184794   1.000000
    5       -9.593031   1.000000
    6       -6.629049   1.000000
    7       -6.120434   1.000000
    8       -6.117044   1.000000
    9       -6.098535   1.000000
   10       -5.810965   1.000000
   11       -5.803724   1.000000
   12       -5.800021   1.000000
   13       -5.732799   1.000000
   14       -5.683275   1.000000
   15       -5.675102   1.000000
   16       -5.673884   1.000000
   17       -5.672529   1.000000
   18       -5.621139   1.000000
   19       -5.610919   1.000000
   20       -5.597426   1.000000
   21       -5.586106   1.000000
   22       -5.586036   1.000000
   23       -5.582636   1.000000
   24       -5.563455   1.000000
   25       -5.559298   1.000000
   26       -5.537820   1.000000
   27       -5.535327   1.000000
   28       -5.518778   1.000000
   29       -5.511900   1.000000
   30       -5.509452   1.000000
   31       -5.505531   1.000000
   32       -5.504554   1.000000
   33       -5.503603   1.000000
   34       -5.501281   1.000000
   35       -5.498372   1.000000
   36       -5.479925   1.000000
   37       -5.469019   1.000000
   38       -5.466682   1.000000
   39       -5.462509   1.000000
   40       -5.460388   1.000000
   41       -5.456431   1.000000
   42       -5.454891   1.000000
   43       -5.454224   1.000000
   44       -5.447885   1.000000
   45       -5.428869   1.000000
   46       -5.417849   1.000000
   47       -5.416664   1.000000
   48       -5.415217   1.000000
   49       -5.414193   1.000000
   50       -5.413050   1.000000
   51       -5.411491   1.000000
   52       -5.401575   1.000000
   53       -5.393374   1.000000
   54       -5.388466   1.000000
   55       -5.382297   1.000000
   56       -5.328486   1.000000
   57       -5.322001   1.000000
   58       -5.318486   1.000000
   59       -5.313164   1.000000
   60       -5.307613   1.000000
   61       -5.304339   1.000000
   62       -5.303083   1.000000
   63       -5.294618   1.000000
   64       -5.289888   1.000000
   65       -5.288368   1.000000
   66       -5.279744   1.000000
   67       -5.270064   1.000000
   68       -5.231708   1.000000
   69       -5.216669   1.000000
   70       -5.207982   1.000000
   71       -5.196143   1.000000
   72       -5.173819   1.000000
   73       -5.168047   1.000000
   74       -5.166600   1.000000
   75       -5.166235   1.000000
   76       -5.162080   1.000000
   77       -5.157890   1.000000
   78       -5.154840   1.000000
   79       -5.141514   1.000000
   80       -5.135876   1.000000
   81       -5.129011   1.000000
   82       -5.115519   1.000000
   83       -5.113039   1.000000
   84       -5.111308   1.000000
   85       -5.102157   1.000000
   86       -5.092371   1.000000
   87       -5.089869   1.000000
   88       -5.060801   1.000000
   89       -5.052519   1.000000
   90       -5.046834   1.000000
   91       -5.045455   1.000000
   92       -5.042798   1.000000
   93       -5.040708   1.000000
   94       -5.036357   1.000000
   95       -5.035618   1.000000
   96       -5.033212   1.000000
   97       -5.024324   1.000000
   98       -5.015290   1.000000
   99       -5.008687   1.000000
  100       -5.004277   1.000000
  101       -4.999369   1.000000
  102       -4.993289   1.000000
  103       -4.993092   1.000000
  104       -4.989502   1.000000
  105       -4.986613   1.000000
  106       -4.981606   1.000000
  107       -4.976315   1.000000
  108       -4.975030   1.000000
  109       -4.969268   1.000000
  110       -4.968139   1.000000
  111       -4.966474   1.000000
  112       -4.956755   1.000000
  113       -4.954409   1.000000
  114       -4.946681   0.999999
  115       -4.941911   0.999999
  116       -4.940260   0.999999
  117       -4.932769   0.999999
  118       -4.914829   0.999998
  119       -4.908728   0.999998
  120       -4.906956   0.999998
  121       -4.903572   0.999998
  122       -4.899576   0.999997
  123       -4.894716   0.999997
  124       -4.894499   0.999997
  125       -4.889643   0.999996
  126       -4.885828   0.999996
  127       -4.851610   0.999988
  128       -4.845513   0.999985
  129       -4.836748   0.999981
  130       -4.832195   0.999978
  131       -4.831771   0.999977
  132       -4.827871   0.999975
  133       -4.819889   0.999968
  134       -4.818767   0.999967
  135       -4.817417   0.999966
  136       -4.814868   0.999963
  137       -4.786558   0.999919
  138       -4.784369   0.999915
  139       -4.781184   0.999907
  140       -4.774566   0.999890
  141       -4.763721   0.999854
  142       -4.752014   0.999805
  143       -4.728234   0.999658
  144       -4.726605   0.999645
  145       -4.724718   0.999630
  146       -4.724024   0.999624
  147       -4.722476   0.999611
  148       -4.698011   0.999342
  149       -4.694945   0.999299
  150       -4.689064   0.999211
  151       -4.681462   0.999084
  152       -4.673539   0.998936
  153       -4.670191   0.998868
  154       -4.665140   0.998759
  155       -4.662490   0.998699
  156       -4.660750   0.998658
  157       -4.660088   0.998643
  158       -4.659609   0.998631
  159       -4.657664   0.998584
  160       -4.650487   0.998400
  161       -4.642209   0.998169
  162       -4.639088   0.998076
  163       -4.637865   0.998039
  164       -4.637560   0.998030
  165       -4.633127   0.997892
  166       -4.632465   0.997871
  167       -4.631320   0.997834
  168       -4.624419   0.997605
  169       -4.618675   0.997406
  170       -4.615975   0.997310
  171       -4.604569   0.996892
  172       -4.600624   0.996744
  173       -4.593672   0.996482
  174       -4.585745   0.996188
  175       -4.583733   0.996115
  176       -4.581255   0.996026
  177       -4.580056   0.995983
  178       -4.576248   0.995851
  179       -4.572999   0.995743
  180       -4.561056   0.995391
  181       -4.555929   0.995270
  182       -4.548263   0.995136
  183       -4.544478   0.995093
  184       -4.541882   0.995075
  185       -4.538920   0.995065
  186       -4.538867   0.995065
  187       -4.538112   0.995065
  188       -4.537493   0.995065
  189       -4.534737   0.995074
  190       -4.533495   0.995082
  191       -4.500511   0.996512
  192       -4.495590   0.996979
  193       -4.493624   0.997188
  194       -4.489920   0.997619
  195       -4.488359   0.997815
  196       -4.479417   0.999113
  197       -4.469567   1.000913
  198       -4.467015   1.001447
  199       -4.461600   1.002673
  200       -4.459323   1.003228
  201       -4.454212   1.004558
  202       -4.450923   1.005477
  203       -4.446711   1.006727
  204       -4.444784   1.007326
  205       -4.441805   1.008284
  206       -4.440251   1.008800
  207       -4.434896   1.010660
  208       -4.433417   1.011196
  209       -4.432335   1.011594
  210       -4.426118   1.013976
  211       -4.420807   1.016133
  212       -4.404556   1.023321
  213       -4.399496   1.025696
  214       -4.396610   1.027069
  215       -4.394755   1.027956
  216       -4.389305   1.030578
  217       -4.387182   1.031600
  218       -4.386486   1.031935
  219       -4.385719   1.032304
  220       -4.371470   1.038991
  221       -4.363628   1.042399
  222       -4.360620   1.043624
  223       -4.342194   1.049596
  224       -4.335556   1.050876
  225       -4.329056   1.051540
  226       -4.328023   1.051586
  227       -4.324234   1.051602
  228       -4.323590   1.051580
  229       -4.322579   1.051530
  230       -4.320110   1.051331
  231       -4.319357   1.051247
  232       -4.316411   1.050813
  233       -4.313878   1.050299
  234       -4.312022   1.049837
  235       -4.309579   1.049113
  236       -4.308404   1.048717
  237       -4.306640   1.048062
  238       -4.303744   1.046827
  239       -4.302266   1.046117
  240       -4.295578   1.042202
  241       -4.292837   1.040250
  242       -4.286580   1.034986
  243       -4.280515   1.028758
  244       -4.277485   1.025209
  245       -4.276941   1.024541
  246       -4.275214   1.022353
  247       -4.270972   1.016554
  248       -4.268600   1.013044
  249       -4.267271   1.010991
  250       -4.265201   1.007669
  251       -4.250846   0.980342
  252       -4.245104   0.967244
  253       -4.243040   0.962225
  254       -4.242522   0.960941
  255       -4.237075   0.946801
  256       -4.235939   0.943707
  257       -4.235181   0.941614
  258       -4.233485   0.936851
  259       -4.231125   0.930040
  260       -4.229307   0.924645
  261       -4.224633   0.910190
  262       -4.223789   0.907490
  263       -4.222344   0.902806
  264       -4.221398   0.899696
  265       -4.219417   0.893070
  266       -4.208760   0.854939
  267       -4.207296   0.849379
  268       -4.204691   0.839299
  269       -4.204299   0.837759
  270       -4.200839   0.823961
  271       -4.200128   0.821075
  272       -4.188997   0.773769
  273       -4.180308   0.734281
  274       -4.179085   0.728557
  275       -4.173302   0.701005
  276       -4.167813   0.674154
  277       -4.165357   0.661939
  278       -4.161528   0.642683
  279       -4.155608   0.612449
  280       -4.154242   0.605403
  281       -4.153672   0.602458
  282       -4.140306   0.532498
  283       -4.122497   0.438488
  284       -4.116222   0.405727
  285       -4.113843   0.393408
  286       -4.111462   0.381153
  287       -4.102766   0.337100
  288       -4.095474   0.301229
  289       -4.041716   0.083630
  290       -3.959592  -0.048827
  291       -3.887830  -0.034805
  292       -3.810224  -0.003538
  293       -3.808744  -0.003166
  294       -3.778952   0.002312
  295       -3.485293   0.000089
  296       -3.480675   0.000078
  297       -3.375652   0.000003
  298       -3.050980   0.000000
  299       -3.045222   0.000000
  300       -3.021444   0.000000
  301       -3.011564   0.000000
  302       -2.999355   0.000000
  303       -2.993495   0.000000
  304       -2.928154   0.000000
  305       -2.841427   0.000000
  306       -2.599001   0.000000
  307       -2.508575   0.000000
  308       -2.504652   0.000000
  309       -2.253349   0.000000
  310       -2.114970   0.000000
  311       -2.111804   0.000000
  312       -2.104974   0.000000
  313       -2.003653   0.000000
  314       -1.957702   0.000000
  315       -1.928024   0.000000
  316       -1.879760   0.000000
  317       -1.836424   0.000000
  318       -1.755273   0.000000
  319       -1.718149   0.000000
  320       -1.669162   0.000000
  321       -1.620042   0.000000
  322       -1.560402   0.000000
  323       -1.519452   0.000000
  324       -1.456611   0.000000
  325       -1.388750   0.000000
  326       -1.117768   0.000000
  327       -1.083854   0.000000
  328       -1.000164   0.000000
  329       -0.976446   0.000000
  330       -0.973343   0.000000
  331       -0.944331   0.000000
  332       -0.927249   0.000000
  333       -0.916535   0.000000
  334       -0.879923   0.000000
  335       -0.858718   0.000000
  336       -0.603595   0.000000
