 vasp.5.4.4.18Apr17-6-g9f103f2a35 (build Sep 03 2018 23:53:05) complex          
  
 executed on             LinuxIFC date 2021.11.28  01:00:13
 running on    1 total cores
 distrk:  each k-point on    1 cores,    1 groups
 distr:  one band on NCORES_PER_BAND=   1 cores,    1 groups


--------------------------------------------------------------------------------------------------------


 INCAR:
 POTCAR:    PAW_PBE Pd 04Jan2005                  
 POTCAR:    PAW_PBE C 08Apr2002                   
 POTCAR:    PAW_PBE O 08Apr2002                   
 POTCAR:    PAW_PBE Pd 04Jan2005                  
   VRHFIN =Pd : s1 d9                                                           
   LEXCH  = PE                                                                  
   EATOM  =   809.7530 eV,   59.5152 Ry                                         
                                                                                
   TITEL  = PAW_PBE Pd 04Jan2005                                                
   LULTRA =        F    use ultrasoft PP ?                                      
   IUNSCR =        1    unscreen: 0-lin 1-nonlin 2-no                           
   RPACOR =    2.000    partial core radius                                     
   POMASS =  106.420; ZVAL   =   10.000    mass and valenz                      
   RCORE  =    2.600    outmost cutoff radius                                   
   RWIGS  =    2.710; RWIGS  =    1.434    wigner-seitz radius (au A)           
   ENMAX  =  250.925; ENMIN  =  188.194 eV                                      
   ICORE  =        3    local potential                                         
   LCOR   =        T    correct aug charges                                     
   LPAW   =        T    paw PP                                                  
   EAUG   =  416.230                                                            
   DEXC   =    0.000                                                            
   RMAX   =    2.653    core radius for proj-oper                               
   RAUG   =    1.300    factor for augmentation sphere                          
   RDEP   =    2.734    radius for radial grids                                 
   RDEPT  =    2.103    core radius for aug-charge                              
                                                                                
   Atomic configuration                                                         
   12 entries                                                                   
     n  l   j            E        occ.                                          
     1  0  0.50    -24164.6631   2.0000                                         
     2  0  0.50     -3530.9218   2.0000                                         
     2  1  1.50     -3165.6822   6.0000                                         
     3  0  0.50      -639.4577   2.0000                                         
     3  1  1.50      -519.4532   6.0000                                         
     3  2  2.50      -328.9757  10.0000                                         
     4  0  0.50       -88.7014   2.0000                                         
     4  1  1.50       -54.4540   6.0000                                         
     4  2  2.50        -6.6878   9.0000                                         
     5  0  0.50        -4.3543   1.0000                                         
     5  1  0.50        -1.3606   0.0000                                         
     4  3  2.50        -1.3606   0.0000                                         
   Description                                                                  
     l       E           TYP  RCUT    TYP  RCUT                                 
     2     -6.6878251     23  2.400                                             
     2     -8.0484077     23  2.400                                             
     0     -4.3542939     23  2.400                                             
     0      4.3406793     23  2.400                                             
     1     -4.0817478     23  2.600                                             
     1     15.8380318     23  2.600                                             
     3     -4.0817478     23  2.400                                             
  local pseudopotential read in
  partial core-charges read in
  partial kinetic energy density read in
  atomic valenz-charges read in
  non local Contribution for L=           2  read in
    real space projection operators read in
  non local Contribution for L=           2  read in
    real space projection operators read in
  non local Contribution for L=           0  read in
    real space projection operators read in
  non local Contribution for L=           0  read in
    real space projection operators read in
  non local Contribution for L=           1  read in
    real space projection operators read in
  non local Contribution for L=           1  read in
    real space projection operators read in
    PAW grid and wavefunctions read in
 
   number of l-projection  operators is LMAX  =           6
   number of lm-projection operators is LMMAX =          18
 
 POTCAR:    PAW_PBE C 08Apr2002                   
   VRHFIN =C: s2p2                                                              
   LEXCH  = PE                                                                  
   EATOM  =   147.1560 eV,   10.8157 Ry                                         
                                                                                
   TITEL  = PAW_PBE C 08Apr2002                                                 
   LULTRA =        F    use ultrasoft PP ?                                      
   IUNSCR =        1    unscreen: 0-lin 1-nonlin 2-no                           
   RPACOR =    1.200    partial core radius                                     
   POMASS =   12.011; ZVAL   =    4.000    mass and valenz                      
   RCORE  =    1.500    outmost cutoff radius                                   
   RWIGS  =    1.630; RWIGS  =    0.863    wigner-seitz radius (au A)           
   ENMAX  =  400.000; ENMIN  =  300.000 eV                                      
   ICORE  =        2    local potential                                         
   LCOR   =        T    correct aug charges                                     
   LPAW   =        T    paw PP                                                  
   EAUG   =  644.873                                                            
   DEXC   =    0.000                                                            
   RMAX   =    1.529    core radius for proj-oper                               
   RAUG   =    1.300    factor for augmentation sphere                          
   RDEP   =    1.501    radius for radial grids                                 
   RDEPT  =    1.300    core radius for aug-charge                              
                                                                                
   Atomic configuration                                                         
    4 entries                                                                   
     n  l   j            E        occ.                                          
     1  0  0.50      -273.3789   2.0000                                         
     2  0  0.50       -13.7508   2.0000                                         
     2  1  0.50        -5.2854   2.0000                                         
     3  2  1.50        -5.4423   0.0000                                         
   Description                                                                  
     l       E           TYP  RCUT    TYP  RCUT                                 
     0    -13.7508458     23  1.200                                             
     0     -8.2022199     23  1.200                                             
     1     -5.2854383     23  1.500                                             
     1     34.0145650     23  1.500                                             
     2     -5.4423304      7  1.500                                             
  local pseudopotential read in
  partial core-charges read in
  partial kinetic energy density read in
  atomic valenz-charges read in
  non local Contribution for L=           0  read in
    real space projection operators read in
  non local Contribution for L=           0  read in
    real space projection operators read in
  non local Contribution for L=           1  read in
    real space projection operators read in
  non local Contribution for L=           1  read in
    real space projection operators read in
    PAW grid and wavefunctions read in
 
   number of l-projection  operators is LMAX  =           4
   number of lm-projection operators is LMMAX =           8
 
 POTCAR:    PAW_PBE O 08Apr2002                   
   VRHFIN =O: s2p4                                                              
   LEXCH  = PE                                                                  
   EATOM  =   432.3788 eV,   31.7789 Ry                                         
                                                                                
   TITEL  = PAW_PBE O 08Apr2002                                                 
   LULTRA =        F    use ultrasoft PP ?                                      
   IUNSCR =        1    unscreen: 0-lin 1-nonlin 2-no                           
   RPACOR =    1.200    partial core radius                                     
   POMASS =   16.000; ZVAL   =    6.000    mass and valenz                      
   RCORE  =    1.520    outmost cutoff radius                                   
   RWIGS  =    1.550; RWIGS  =    0.820    wigner-seitz radius (au A)           
   ENMAX  =  400.000; ENMIN  =  300.000 eV                                      
   ICORE  =        2    local potential                                         
   LCOR   =        T    correct aug charges                                     
   LPAW   =        T    paw PP                                                  
   EAUG   =  605.392                                                            
   DEXC   =    0.000                                                            
   RMAX   =    1.553    core radius for proj-oper                               
   RAUG   =    1.300    factor for augmentation sphere                          
   RDEP   =    1.550    radius for radial grids                                 
   RDEPT  =    1.329    core radius for aug-charge                              
                                                                                
   Atomic configuration                                                         
    4 entries                                                                   
     n  l   j            E        occ.                                          
     1  0  0.50      -514.6923   2.0000                                         
     2  0  0.50       -23.9615   2.0000                                         
     2  1  0.50        -9.0305   4.0000                                         
     3  2  1.50        -9.5241   0.0000                                         
   Description                                                                  
     l       E           TYP  RCUT    TYP  RCUT                                 
     0    -23.9615318     23  1.200                                             
     0     -9.5240782     23  1.200                                             
     1     -9.0304911     23  1.520                                             
     1      8.1634956     23  1.520                                             
     2     -9.5240782      7  1.500                                             
  local pseudopotential read in
  partial core-charges read in
  partial kinetic energy density read in
  kinetic energy density of atom read in
  atomic valenz-charges read in
  non local Contribution for L=           0  read in
    real space projection operators read in
  non local Contribution for L=           0  read in
    real space projection operators read in
  non local Contribution for L=           1  read in
    real space projection operators read in
  non local Contribution for L=           1  read in
    real space projection operators read in
    PAW grid and wavefunctions read in
 
   number of l-projection  operators is LMAX  =           4
   number of lm-projection operators is LMMAX =           8
 
 Optimization of the real space projectors (new method)

 maximal supplied QI-value         = 14.36
 optimisation between [QCUT,QGAM] = [ 10.20, 20.39] = [ 29.12,116.47] Ry 
 Optimized for a Real-space Cutoff    1.51 Angstroem

   l    n(q)    QCUT    max X(q) W(low)/X(q) W(high)/X(q)  e(spline) 
   2      8    10.197    59.108    0.26E-03    0.14E-03    0.96E-07
   2      8    10.197    58.101    0.27E-03    0.14E-03    0.98E-07
   0      9    10.197   102.235    0.54E-04    0.60E-05    0.72E-07
   0      9    10.197    58.388    0.52E-04    0.60E-05    0.68E-07
   1      9    10.197    22.191    0.18E-03    0.25E-03    0.79E-07
   1      9    10.197    15.590    0.15E-03    0.21E-03    0.69E-07
 Optimization of the real space projectors (new method)

 maximal supplied QI-value         = 25.13
 optimisation between [QCUT,QGAM] = [ 10.05, 20.36] = [ 28.30,116.06] Ry 
 Optimized for a Real-space Cutoff    1.30 Angstroem

   l    n(q)    QCUT    max X(q) W(low)/X(q) W(high)/X(q)  e(spline) 
   0      8    10.053   115.676    0.49E-03    0.72E-03    0.18E-06
   0      8    10.053    87.132    0.49E-03    0.71E-03    0.18E-06
   1      7    10.053     4.429    0.32E-03    0.31E-03    0.18E-06
   1      7    10.053     2.733    0.23E-03    0.19E-03    0.20E-06
 Optimization of the real space projectors (new method)

 maximal supplied QI-value         = 24.76
 optimisation between [QCUT,QGAM] = [ 10.15, 20.30] = [ 28.85,115.39] Ry 
 Optimized for a Real-space Cutoff    1.38 Angstroem

   l    n(q)    QCUT    max X(q) W(low)/X(q) W(high)/X(q)  e(spline) 
   0      8    10.150    20.381    0.22E-03    0.32E-03    0.29E-06
   0      8    10.150    15.268    0.23E-03    0.35E-03    0.30E-06
   1      8    10.150     5.964    0.46E-03    0.53E-03    0.21E-06
   1      8    10.150     5.382    0.38E-03    0.45E-03    0.19E-06

 ----------------------------------------------------------------------------- 
|                                                                             |
|  ADVICE TO THIS USER RUNNING 'VASP/VAMP'   (HEAR YOUR MASTER'S VOICE ...):  |
|                                                                             |
|      You enforced a specific xc-type in the INCAR file,                     |
|      a different type was found on the POTCAR file                          |
|          I HOPE YOU KNOW, WHAT YOU ARE  DOING                               |
|                                                                             |
 ----------------------------------------------------------------------------- 

  PAW_PBE Pd 04Jan2005                  :
 energy of atom  1       EATOM= -809.7530
 kinetic energy error for atom=    0.0091 (will be added to EATOM!!)
  PAW_PBE C 08Apr2002                   :
 energy of atom  2       EATOM= -147.1560
 kinetic energy error for atom=    0.0288 (will be added to EATOM!!)
  PAW_PBE O 08Apr2002                   :
 energy of atom  3       EATOM= -432.3788
 kinetic energy error for atom=    0.1156 (will be added to EATOM!!)
 
 
 POSCAR: Pd55PES                                 
  positions in cartesian coordinates
  No initial velocities read in
 exchange correlation table for  LEXCH =        9
   RHO(1)=    0.500       N(1)  =     2000
   RHO(2)=  100.500       N(2)  =     4000
 


--------------------------------------------------------------------------------------------------------


 ion  position               nearest neighbor table
   1  0.446  0.328  0.417-   3 3.25   5 3.25   7 3.36  15 3.36  29 3.42  28 3.42
   2  0.672  0.554  0.417-  26 3.25  30 3.25  17 3.36   9 3.36  47 3.42  49 3.42
   3  0.554  0.328  0.417-   1 3.25   5 3.25   7 3.36  11 3.36  29 3.42  21 3.42
   4  0.328  0.554  0.417-  32 3.25  22 3.25  13 3.36   8 3.36  43 3.42  48 3.42
   5  0.500  0.383  0.340-   1 3.25   3 3.25  11 3.36  15 3.36  21 3.42  28 3.42
   6  0.500  0.383  0.660-  24 3.25  19 3.25  16 3.36  12 3.36  42 3.42  44 3.42
   7  0.500  0.276  0.500-  29 3.24   3 3.36   1 3.36  19 3.36  24 3.36
   8  0.276  0.500  0.500-  48 3.24  22 3.36  40 3.36   4 3.36  25 3.36
   9  0.724  0.500  0.500-  49 3.24  26 3.36  45 3.36   2 3.36  20 3.36
  10  0.500  0.724  0.500-  55 3.24  27 3.36  23 3.36  46 3.36  41 3.36
  11  0.612  0.388  0.342-  21 3.24   5 3.36   3 3.36  30 3.36  26 3.36
  12  0.612  0.388  0.658-  42 3.24  24 3.36  45 3.36   6 3.36  31 3.36
  13  0.388  0.612  0.342-  43 3.24  32 3.36  50 3.36   4 3.36  27 3.36
  14  0.388  0.612  0.658-  53 3.24  25 3.36  33 3.36  51 3.36  46 3.36
  15  0.388  0.388  0.342-  28 3.24   5 3.36   1 3.36  32 3.36  22 3.36
  16  0.388  0.388  0.658-  44 3.24  19 3.36  40 3.36   6 3.36  33 3.36
  17  0.612  0.612  0.342-  47 3.24  30 3.36  50 3.36   2 3.36  23 3.36
  18  0.612  0.612  0.658-  54 3.24  31 3.36  20 3.36  51 3.36  41 3.36
  19  0.446  0.328  0.583-   6 3.25  24 3.25  16 3.36   7 3.36  44 3.42  29 3.42
  20  0.672  0.554  0.583-  31 3.25  45 3.25  18 3.36   9 3.36  54 3.42  49 3.42
  21  0.558  0.442  0.418-  11 3.24   5 3.42   3 3.42  30 3.42  26 3.42
  22  0.328  0.446  0.417-   4 3.25  32 3.25   8 3.36  15 3.36  48 3.42  28 3.42
  23  0.554  0.672  0.417-  27 3.25  50 3.25  10 3.36  17 3.36  55 3.42  47 3.42
  24  0.554  0.328  0.583-   6 3.25  19 3.25  12 3.36   7 3.36  42 3.42  29 3.42
  25  0.328  0.554  0.583-  33 3.25  40 3.25  14 3.36   8 3.36  53 3.42  48 3.42
  26  0.672  0.446  0.417-   2 3.25  30 3.25   9 3.36  11 3.36  49 3.42  21 3.42
  27  0.446  0.672  0.417-  23 3.25  50 3.25  10 3.36  13 3.36  55 3.42  43 3.42
  28  0.442  0.442  0.418-  15 3.24   5 3.42   1 3.42  32 3.42  22 3.42
  29  0.500  0.384  0.500-   7 3.24   3 3.42   1 3.42  24 3.42  19 3.42
  30  0.617  0.500  0.340-   2 3.25  26 3.25  17 3.36  11 3.36  47 3.42  21 3.42
  31  0.617  0.500  0.660-  20 3.25  45 3.25  18 3.36  12 3.36  54 3.42  42 3.42
  32  0.383  0.500  0.340-   4 3.25  22 3.25  13 3.36  15 3.36  43 3.42  28 3.42
  33  0.383  0.500  0.660-  25 3.25  40 3.25  14 3.36  16 3.36  53 3.42  44 3.42
  34  0.383  0.383  0.500-
  35  0.617  0.617  0.500-
  36  0.617  0.383  0.500-
  37  0.383  0.617  0.500-
  38  0.500  0.500  0.335-
  39  0.500  0.500  0.665-  56 2.42
  40  0.328  0.446  0.583-  33 3.25  25 3.25  16 3.36   8 3.36  44 3.42  48 3.42
  41  0.554  0.672  0.583-  46 3.25  51 3.25  10 3.36  18 3.36  54 3.42  55 3.42
  42  0.558  0.442  0.582-  12 3.24   6 3.42  24 3.42  31 3.42  45 3.42
  43  0.442  0.558  0.418-  13 3.24   4 3.42  32 3.42  27 3.42  50 3.42
  44  0.442  0.442  0.582-  16 3.24   6 3.42  19 3.42  33 3.42  40 3.42
  45  0.672  0.446  0.583-  20 3.25  31 3.25   9 3.36  12 3.36  49 3.42  42 3.42
  46  0.446  0.672  0.583-  41 3.25  51 3.25  10 3.36  14 3.36  53 3.42  55 3.42
  47  0.558  0.558  0.418-  17 3.24   2 3.42  30 3.42  23 3.42  50 3.42
  48  0.384  0.500  0.500-   8 3.24   4 3.42  22 3.42  25 3.42  40 3.42
  49  0.616  0.500  0.500-   9 3.24   2 3.42  26 3.42  20 3.42  45 3.42
  50  0.500  0.617  0.340-  27 3.25  23 3.25  13 3.36  17 3.36  43 3.42  47 3.42
  51  0.500  0.617  0.660-  41 3.25  46 3.25  14 3.36  18 3.36  53 3.42  54 3.42
  52  0.500  0.500  0.500-
  53  0.442  0.558  0.582-  14 3.24  25 3.42  33 3.42  51 3.42  46 3.42
  54  0.558  0.558  0.582-  18 3.24  31 3.42  20 3.42  51 3.42  41 3.42
  55  0.500  0.616  0.500-  10 3.24  23 3.42  27 3.42  41 3.42  46 3.42
  56  0.536  0.547  0.720-  57 1.13  39 2.42
  57  0.542  0.555  0.756-  56 1.13
 
  LATTYP: Found a simple cubic cell.
 ALAT       =    30.0000000000
  
  Lattice vectors:
  
 A1 = (  30.0000000000,   0.0000000000,   0.0000000000)
 A2 = (   0.0000000000,  30.0000000000,   0.0000000000)
 A3 = (   0.0000000000,   0.0000000000,  30.0000000000)


Analysis of symmetry for initial positions (statically):
=====================================================================
 Subroutine PRICEL returns:
 Original cell was already a primitive cell.
 

 Routine SETGRP: Setting up the symmetry group for a 
 simple cubic supercell.


 Subroutine GETGRP returns: Found  1 space group operations
 (whereof  1 operations were pure point group operations)
 out of a pool of 48 trial point group operations.


The static configuration has the point symmetry C_1 .


Analysis of symmetry for dynamics (positions and initial velocities):
=====================================================================
 Subroutine PRICEL returns:
 Original cell was already a primitive cell.
 

 Routine SETGRP: Setting up the symmetry group for a 
 simple cubic supercell.


 Subroutine GETGRP returns: Found  1 space group operations
 (whereof  1 operations were pure point group operations)
 out of a pool of 48 trial point group operations.


The dynamic configuration has the point symmetry C_1 .


Analysis of constrained symmetry for selective dynamics:
=====================================================================
 Subroutine PRICEL returns:
 Original cell was already a primitive cell.
 

 Routine SETGRP: Setting up the symmetry group for a 
 simple cubic supercell.


 Subroutine GETGRP returns: Found  1 space group operations
 (whereof  1 operations were pure point group operations)
 out of a pool of 48 trial point group operations.


The constrained configuration has the point symmetry C_1 .


 Subroutine INISYM returns: Found  1 space group operations
 (whereof  1 operations are pure point group operations),
 and found     1 'primitive' translations

 
 
 KPOINTS: K-points                                

Automatic generation of k-mesh.
Space group operators:
 irot       det(A)        alpha          n_x          n_y          n_z        tau_x        tau_y        tau_z
    1     1.000000     0.000000     1.000000     0.000000     0.000000     0.000000     0.000000     0.000000
 
 Subroutine IBZKPT returns following result:
 ===========================================
 
 Found      1 irreducible k-points:
 
 Following reciprocal coordinates:
            Coordinates               Weight
  0.000000  0.000000  0.000000      1.000000
 
 Following cartesian coordinates:
            Coordinates               Weight
  0.000000  0.000000  0.000000      1.000000
 


--------------------------------------------------------------------------------------------------------




 Dimension of arrays:
   k-points           NKPTS =      1   k-points in BZ     NKDIM =      1   number of bands    NBANDS=    336
   number of dos      NEDOS =    301   number of ions     NIONS =     57
   non local maximal  LDIM  =      6   non local SUM 2l+1 LMDIM =     18
   total plane-waves  NPLWV = ******
   max r-space proj   IRMAX =   1847   max aug-charges    IRDMAX=   6262
   dimension x,y,z NGX =   150 NGY =  150 NGZ =  150
   dimension x,y,z NGXF=   300 NGYF=  300 NGZF=  300
   support grid    NGXF=   300 NGYF=  300 NGZF=  300
   ions per type =              55   1   1
   NGX,Y,Z   is equivalent  to a cutoff of   8.31,  8.31,  8.31 a.u.
   NGXF,Y,Z  is equivalent  to a cutoff of  16.62, 16.62, 16.62 a.u.

 SYSTEM =  6_Pd100_top_free_z(O)                   
 POSCAR =  Pd55PES                                 

 Startparameter for this run:
   NWRITE =      2    write-flag & timer
   PREC   = normal    normal or accurate (medium, high low for compatibility)
   ISTART =      0    job   : 0-new  1-cont  2-samecut
   ICHARG =      2    charge: 1-file 2-atom 10-const
   ISPIN  =      1    spin polarized calculation?
   LNONCOLLINEAR =      F non collinear calculations
   LSORBIT =      F    spin-orbit coupling
   INIWAV =      1    electr: 0-lowe 1-rand  2-diag
   LASPH  =      F    aspherical Exc in radial PAW
   METAGGA=      F    non-selfconsistent MetaGGA calc.

 Electronic Relaxation 1
   ENCUT  =  400.0 eV  29.40 Ry    5.42 a.u.  48.92 48.92 48.92*2*pi/ulx,y,z
   ENINI  =  400.0     initial cutoff
   ENAUG  =  644.9 eV  augmentation charge cutoff
   NELM   =    100;   NELMIN=  6; NELMDL= -5     # of ELM steps 
   EDIFF  = 0.1E-03   stopping-criterion for ELM
   LREAL  =      T    real-space projection
   NLSPLINE    = F    spline interpolate recip. space projectors
   LCOMPAT=      F    compatible to vasp.4.4
   GGA_COMPAT  = T    GGA compatible to vasp.4.4-vasp.4.6
   LMAXPAW     = -100 max onsite density
   LMAXMIX     =    2 max onsite mixed and CHGCAR
   VOSKOWN=      0    Vosko Wilk Nusair interpolation
   ROPT   =   -0.00050  -0.00050  -0.00050
 Ionic relaxation
   EDIFFG = -.5E-01   stopping-criterion for IOM
   NSW    =      0    number of steps for IOM
   NBLOCK =      1;   KBLOCK =      1    inner block; outer block 
   IBRION =     -1    ionic relax: 0-MD 1-quasi-New 2-CG
   NFREE  =      1    steps in history (QN), initial steepest desc. (CG)
   ISIF   =      2    stress and relaxation
   IWAVPR =     10    prediction:  0-non 1-charg 2-wave 3-comb
   ISYM   =      2    0-nonsym 1-usesym 2-fastsym
   LCORR  =      T    Harris-Foulkes like correction to forces

   POTIM  = 0.5000    time-step for ionic-motion
   TEIN   =    0.0    initial temperature
   TEBEG  =    0.0;   TEEND  =   0.0 temperature during run
   SMASS  =  -3.00    Nose mass-parameter (am)
   estimated Nose-frequenzy (Omega)   =  0.10E-29 period in steps =****** mass=  -0.206E-25a.u.
   SCALEE = 1.0000    scale energy and forces
   NPACO  =    256;   APACO  = 16.0  distance and # of slots for P.C.
   PSTRESS=    0.0 pullay stress

  Mass of Ions in am
   POMASS = 106.42 12.01 16.00
  Ionic Valenz
   ZVAL   =  10.00  4.00  6.00
  Atomic Wigner-Seitz radii
   RWIGS  =  -1.00 -1.00 -1.00
  virtual crystal weights 
   VCA    =   1.00  1.00  1.00
   NELECT =     560.0000    total number of electrons
   NUPDOWN=      -1.0000    fix difference up-down

 DOS related values:
   EMIN   =  10.00;   EMAX   =-10.00  energy-range for DOS
   EFERMI =   0.00
   ISMEAR =     2;   SIGMA  =   0.20  broadening in eV -4-tet -1-fermi 0-gaus

 Electronic relaxation 2 (details)
   IALGO  =     68    algorithm
   LDIAG  =      T    sub-space diagonalisation (order eigenvalues)
   LSUBROT=      F    optimize rotation matrix (better conditioning)
   TURBO    =      0    0=normal 1=particle mesh
   IRESTART =      0    0=no restart 2=restart with 2 vectors
   NREBOOT  =      0    no. of reboots
   NMIN     =      0    reboot dimension
   EREF     =   0.00    reference energy to select bands
   IMIX   =      4    mixing-type and parameters
     AMIX     =   0.40;   BMIX     =  1.00
     AMIX_MAG =   1.60;   BMIX_MAG =  1.00
     AMIN     =   0.10
     WC   =   100.;   INIMIX=   1;  MIXPRE=   1;  MAXMIX= -45

 Intra band minimization:
   WEIMIN = 0.0000     energy-eigenvalue tresh-hold
   EBREAK =  0.74E-07  absolut break condition
   DEPER  =   0.30     relativ break condition  

   TIME   =   0.40     timestep for ELM

  volume/ion in A,a.u.               =     473.68      3196.58
  Fermi-wavevector in a.u.,A,eV,Ry     =   0.449797  0.849992  2.752691  0.202317
  Thomas-Fermi vector in A             =   1.430086
 
 Write flags
   LWAVE        =      F    write WAVECAR
   LDOWNSAMPLE  =      F    k-point downsampling of WAVECAR
   LCHARG       =      F    write CHGCAR
   LVTOT        =      F    write LOCPOT, total local potential
   LVHAR        =      F    write LOCPOT, Hartree potential only
   LELF         =      F    write electronic localiz. function (ELF)
   LORBIT       =      0    0 simple, 1 ext, 2 COOP (PROOUT), +10 PAW based schemes


 Dipole corrections
   LMONO  =      F    monopole corrections only (constant potential shift)
   LDIPOL =      F    correct potential (dipole corrections)
   IDIPOL =      0    1-x, 2-y, 3-z, 4-all directions 
   EPSILON=  1.0000000 bulk dielectric constant

 Exchange correlation treatment:
   GGA     =    RP    GGA type
   LEXCH   =     9    internal setting for exchange type
   VOSKOWN=      0    Vosko Wilk Nusair interpolation
   LHFCALC =     F    Hartree Fock is set to
   LHFONE  =     F    Hartree Fock one center treatment
   AEXX    =    0.0000 exact exchange contribution

 Linear response parameters
   LEPSILON=     F    determine dielectric tensor
   LRPA    =     F    only Hartree local field effects (RPA)
   LNABLA  =     F    use nabla operator in PAW spheres
   LVEL    =     F    velocity operator in full k-point grid
   LINTERFAST=   F  fast interpolation
   KINTER  =     0    interpolate to denser k-point grid
   CSHIFT  =0.1000    complex shift for real part using Kramers Kronig
   OMEGAMAX=  -1.0    maximum frequency
   DEG_THRESHOLD= 0.2000000E-02 threshold for treating states as degnerate
   RTIME   =   -0.100 relaxation time in fs
  (WPLASMAI=    0.000 imaginary part of plasma frequency in eV, 0.658/RTIME)
   DFIELD  = 0.0000000 0.0000000 0.0000000 field for delta impulse in time
 
 Orbital magnetization related:
   ORBITALMAG=     F  switch on orbital magnetization
   LCHIMAG   =     F  perturbation theory with respect to B field
   DQ        =  0.001000  dq finite difference perturbation B field
   LLRAUG    =     F  two centre corrections for induced B field



--------------------------------------------------------------------------------------------------------


 Static calculation
 charge density and potential will be updated during run
 non-spin polarized calculation
 RMM-DIIS sequential band-by-band and
  variant of blocked Davidson during initial phase
 perform sub-space diagonalisation
    before iterative eigenvector-optimisation
 modified Broyden-mixing scheme, WC =      100.0
 initial mixing is a Kerker type mixing with AMIX =  0.4000 and BMIX =      1.0000
 Hartree-type preconditioning will be used
 using additional bands           56
 real space projection scheme for non local part
 use partial core corrections
 calculate Harris-corrections to forces 
   (improved forces if not selfconsistent)
 use gradient corrections 
 use of overlap-Matrix (Vanderbilt PP)
 Methfessel and Paxton  Order N= 2 SIGMA  =   0.20


--------------------------------------------------------------------------------------------------------


  energy-cutoff  :      400.00
  volume of cell :    27000.00
      direct lattice vectors                 reciprocal lattice vectors
    30.000000000  0.000000000  0.000000000     0.033333333  0.000000000  0.000000000
     0.000000000 30.000000000  0.000000000     0.000000000  0.033333333  0.000000000
     0.000000000  0.000000000 30.000000000     0.000000000  0.000000000  0.033333333

  length of vectors
    30.000000000 30.000000000 30.000000000     0.033333333  0.033333333  0.033333333


 
 k-points in units of 2pi/SCALE and weight: K-points                                
   0.00000000  0.00000000  0.00000000       1.000
 
 k-points in reciprocal lattice and weights: K-points                                
   0.00000000  0.00000000  0.00000000       1.000
 
 position of ions in fractional coordinates (direct lattice) 
   0.44576020  0.32826710  0.41691983
   0.67173288  0.55423978  0.41691983
   0.55423980  0.32826710  0.41691983
   0.32826712  0.55423978  0.41691983
   0.50000000  0.38250690  0.34021317
   0.50000000  0.38250690  0.65978680
   0.50000000  0.27609440  0.50000000
   0.27609443  0.49999998  0.50000000
   0.72390557  0.49999998  0.50000000
   0.50000000  0.72390555  0.50000000
   0.61195280  0.38804720  0.34167483
   0.61195280  0.38804720  0.65832513
   0.38804722  0.61195278  0.34167483
   0.38804722  0.61195278  0.65832513
   0.38804720  0.38804720  0.34167483
   0.38804720  0.38804720  0.65832513
   0.61195278  0.61195278  0.34167483
   0.61195278  0.61195278  0.65832513
   0.44576020  0.32826710  0.58308023
   0.67173288  0.55423978  0.58308023
   0.55791699  0.44208301  0.41809300
   0.32826705  0.44576024  0.41691983
   0.55423973  0.67173293  0.41691983
   0.55423980  0.32826710  0.58308023
   0.32826712  0.55423978  0.58308023
   0.67173295  0.44576024  0.41691983
   0.44576027  0.67173293  0.41691983
   0.44208301  0.44208301  0.41809300
   0.50000000  0.38416601  0.50000000
   0.61749315  0.50000005  0.34021317
   0.61749315  0.50000005  0.65978680
   0.38250685  0.50000005  0.34021317
   0.38250685  0.50000005  0.65978680
   0.38317830  0.38317830  0.50000000
   0.61682172  0.61682172  0.50000000
   0.61682170  0.38317830  0.50000000
   0.38317828  0.61682172  0.50000000
   0.50000000  0.50000000  0.33478917
   0.50000000  0.50000000  0.66521087
   0.32826705  0.44576024  0.58308023
   0.55423973  0.67173293  0.58308023
   0.55791699  0.44208301  0.58190703
   0.44208298  0.55791702  0.41809300
   0.44208301  0.44208301  0.58190703
   0.67173295  0.44576024  0.58308023
   0.44576027  0.67173293  0.58308023
   0.55791702  0.55791702  0.41809300
   0.38416599  0.50000002  0.50000000
   0.61583401  0.50000002  0.50000000
   0.50000000  0.61749319  0.34021317
   0.50000000  0.61749319  0.65978680
   0.50000000  0.50000000  0.50000000
   0.44208298  0.55791702  0.58190703
   0.55791702  0.55791702  0.58190703
   0.50000000  0.61583404  0.50000000
   0.53562300  0.54738340  0.71997143
   0.54150230  0.55520370  0.75627620
 
 position of ions in cartesian coordinates  (Angst):
  13.37280588  9.84801292 12.50759500
  20.15198637 16.62719342 12.50759500
  16.62719412  9.84801292 12.50759500
   9.84801363 16.62719342 12.50759500
  15.00000000 11.47520705 10.20639500
  15.00000000 11.47520705 19.79360400
  15.00000000  8.28283206 15.00000000
   8.28283277 14.99999929 15.00000000
  21.71716723 14.99999929 15.00000000
  15.00000000 21.71716652 14.99999999
  18.35858397 11.64141603 10.25024500
  18.35858397 11.64141603 19.74975399
  11.64141674 18.35858326 10.25024500
  11.64141674 18.35858326 19.74975400
  11.64141603 11.64141603 10.25024500
  11.64141603 11.64141603 19.74975400
  18.35858326 18.35858326 10.25024500
  18.35858326 18.35858326 19.74975400
  13.37280588  9.84801291 17.49240700
  20.15198638 16.62719341 17.49240700
  16.73750985 13.26249015 12.54279000
   9.84801151 13.37280729 12.50759500
  16.62719200 20.15198779 12.50759500
  16.62719412  9.84801292 17.49240700
   9.84801363 16.62719342 17.49240700
  20.15198849 13.37280729 12.50759500
  13.37280800 20.15198779 12.50759500
  13.26249015 13.26249015 12.54279000
  15.00000000 11.52498029 15.00000000
  18.52479437 15.00000140 10.20639500
  18.52479437 15.00000141 19.79360400
  11.47520562 15.00000141 10.20639501
  11.47520563 15.00000141 19.79360400
  11.49534898 11.49534898 15.00000000
  18.50465172 18.50465172 15.00000000
  18.50465102 11.49534898 15.00000000
  11.49534828 18.50465172 15.00000000
  15.00000000 15.00000000 10.04367500
  15.00000000 15.00000000 19.95632599
   9.84801151 13.37280729 17.49240700
  16.62719200 20.15198779 17.49240700
  16.73750985 13.26249015 17.45721100
  13.26248944 16.73751056 12.54279001
  13.26249015 13.26249015 17.45721100
  20.15198849 13.37280729 17.49240699
  13.37280800 20.15198779 17.49240700
  16.73751056 16.73751056 12.54279000
  11.52497959 15.00000071 15.00000000
  18.47502041 15.00000071 15.00000000
  14.99999999 18.52479579 10.20639500
  15.00000000 18.52479578 19.79360400
  15.00000000 15.00000000 15.00000000
  13.26248944 16.73751057 17.45721101
  16.73751056 16.73751057 17.45721100
  15.00000000 18.47502112 15.00000000
  16.06869000 16.42150200 21.59914300
  16.24506900 16.65611100 22.68828600
 


--------------------------------------------------------------------------------------------------------


 k-point  1 :   0.0000 0.0000 0.0000  plane waves:  490521

 maximum and minimum number of plane-waves per node :    490521   490521

 maximum number of plane-waves:    490521
 maximum index in each direction: 
   IXMAX=   48   IYMAX=   48   IZMAX=   48
   IXMIN=  -48   IYMIN=  -48   IZMIN=  -48


 serial   3D FFT for wavefunctions
 parallel 3D FFT for charge:
    minimum data exchange during FFTs selected (reduces bandwidth)


 total amount of memory used by VASP MPI-rank0  5486942. kBytes
=======================================================================

   base      :      30000. kBytes
   nonlr-proj:      17127. kBytes
   fftplans  :     924480. kBytes
   grid      :    1872000. kBytes
   one-center:        886. kBytes
   wavefun   :    2642449. kBytes
 
     INWAV:  cpu time    0.0001: real time    0.0005
 Broyden mixing: mesh for mixing (old mesh)
   NGX = 97   NGY = 97   NGZ = 97
  (NGX  =300   NGY  =300   NGZ  =300)
  gives a total of 912673 points

 initial charge density was supplied:
 charge density of overlapping atoms calculated
 number of electron     560.0000000 magnetization 
 keeping initial charge density in first step


--------------------------------------------------------------------------------------------------------


 Maximum index for non-local projection operator         1763
 Maximum index for augmentation-charges         5898 (set IRDMAX)


--------------------------------------------------------------------------------------------------------


 First call to EWALD:  gamma=   0.059
 Maximum number of real-space cells 3x 3x 3
 Maximum number of reciprocal cells 3x 3x 3

    FEWALD:  cpu time    0.0130: real time    0.0130


--------------------------------------- Iteration      1(   1)  ---------------------------------------


    POTLOK:  cpu time   13.8799: real time   13.8862
    SETDIJ:  cpu time    0.1067: real time    0.1067
     EDDAV:  cpu time  355.2102: real time  355.2963
       DOS:  cpu time    0.0012: real time    0.0012
    --------------------------------------------
      LOOP:  cpu time  369.1980: real time  369.2904

 eigenvalue-minimisations  :   688
 total energy-change (2. order) : 0.4387865E+04  (-0.1004659E+05)
 number of electron     560.0000000 magnetization 
 augmentation part      560.0000000 magnetization 

 Free energy of the ion-electron system (eV)
  ---------------------------------------------------
  alpha Z        PSCENC =        75.25431677
  Ewald energy   TEWEN  =    138676.01251582
  -Hartree energ DENC   =   -182041.99738646
  -exchange      EXHF   =         0.00000000
  -V(xc)+E(xc)   XCENC  =     -1703.54824265
  PAW double counting   =     44873.02882129   -41398.84523641
  entropy T*S    EENTRO =         0.01742371
  eigenvalues    EBANDS =       821.43704839
  atomic energy  EATOM  =     45086.50549395
  Solvation  Ediel_sol  =         0.00000000
  ---------------------------------------------------
  free energy    TOTEN  =      4387.86475441 eV

  energy without entropy =     4387.84733070  energy(sigma->0) =     4387.86039849


--------------------------------------------------------------------------------------------------------




--------------------------------------- Iteration      1(   2)  ---------------------------------------


     EDDAV:  cpu time  561.0633: real time  561.0819
       DOS:  cpu time    0.0012: real time    0.0012
    --------------------------------------------
      LOOP:  cpu time  561.0645: real time  561.0830

 eigenvalue-minimisations  :  1208
 total energy-change (2. order) :-0.2359177E+04  (-0.2117828E+04)
 number of electron     560.0000000 magnetization 
 augmentation part      560.0000000 magnetization 

 Free energy of the ion-electron system (eV)
  ---------------------------------------------------
  alpha Z        PSCENC =        75.25431677
  Ewald energy   TEWEN  =    138676.01251582
  -Hartree energ DENC   =   -182041.99738646
  -exchange      EXHF   =         0.00000000
  -V(xc)+E(xc)   XCENC  =     -1703.54824265
  PAW double counting   =     44873.02882129   -41398.84523641
  entropy T*S    EENTRO =        -0.03087167
  eigenvalues    EBANDS =     -1537.69189015
  atomic energy  EATOM  =     45086.50549395
  Solvation  Ediel_sol  =         0.00000000
  ---------------------------------------------------
  free energy    TOTEN  =      2028.68752049 eV

  energy without entropy =     2028.71839217  energy(sigma->0) =     2028.69523841


--------------------------------------------------------------------------------------------------------




--------------------------------------- Iteration      1(   3)  ---------------------------------------


     EDDAV:  cpu time  498.3665: real time  498.3846
       DOS:  cpu time    0.0010: real time    0.0010
    --------------------------------------------
      LOOP:  cpu time  498.3675: real time  498.3856

 eigenvalue-minimisations  :  1016
 total energy-change (2. order) :-0.1789938E+04  (-0.1681694E+04)
 number of electron     560.0000000 magnetization 
 augmentation part      560.0000000 magnetization 

 Free energy of the ion-electron system (eV)
  ---------------------------------------------------
  alpha Z        PSCENC =        75.25431677
  Ewald energy   TEWEN  =    138676.01251582
  -Hartree energ DENC   =   -182041.99738646
  -exchange      EXHF   =         0.00000000
  -V(xc)+E(xc)   XCENC  =     -1703.54824265
  PAW double counting   =     44873.02882129   -41398.84523641
  entropy T*S    EENTRO =        -0.02222902
  eigenvalues    EBANDS =     -3327.63891666
  atomic energy  EATOM  =     45086.50549395
  Solvation  Ediel_sol  =         0.00000000
  ---------------------------------------------------
  free energy    TOTEN  =       238.74913664 eV

  energy without entropy =      238.77136566  energy(sigma->0) =      238.75469389


--------------------------------------------------------------------------------------------------------




--------------------------------------- Iteration      1(   4)  ---------------------------------------


     EDDAV:  cpu time  426.2078: real time  426.2249
       DOS:  cpu time    0.0010: real time    0.0010
    --------------------------------------------
      LOOP:  cpu time  426.2088: real time  426.2259

 eigenvalue-minimisations  :   824
 total energy-change (2. order) :-0.3702944E+03  (-0.3124928E+03)
 number of electron     560.0000000 magnetization 
 augmentation part      560.0000000 magnetization 

 Free energy of the ion-electron system (eV)
  ---------------------------------------------------
  alpha Z        PSCENC =        75.25431677
  Ewald energy   TEWEN  =    138676.01251582
  -Hartree energ DENC   =   -182041.99738646
  -exchange      EXHF   =         0.00000000
  -V(xc)+E(xc)   XCENC  =     -1703.54824265
  PAW double counting   =     44873.02882129   -41398.84523641
  entropy T*S    EENTRO =        -0.04915562
  eigenvalues    EBANDS =     -3697.90635558
  atomic energy  EATOM  =     45086.50549395
  Solvation  Ediel_sol  =         0.00000000
  ---------------------------------------------------
  free energy    TOTEN  =      -131.54522889 eV

  energy without entropy =     -131.49607327  energy(sigma->0) =     -131.53293999


--------------------------------------------------------------------------------------------------------




--------------------------------------- Iteration      1(   5)  ---------------------------------------


     EDDAV:  cpu time  523.4845: real time  523.5115
       DOS:  cpu time    0.0011: real time    0.0011
    CHARGE:  cpu time   25.8203: real time   25.8211
    MIXING:  cpu time    0.4157: real time    0.4157
    --------------------------------------------
      LOOP:  cpu time  549.7216: real time  549.7495

 eigenvalue-minimisations  :  1056
 total energy-change (2. order) :-0.4710780E+02  (-0.3830854E+02)
 number of electron     559.9999839 magnetization 
 augmentation part      245.1890346 magnetization 

 Broyden mixing:
  rms(total) = 0.14040E+01    rms(broyden)= 0.14030E+01
  rms(prec ) = 0.15078E+01
  weight for this iteration     100.00

 Free energy of the ion-electron system (eV)
  ---------------------------------------------------
  alpha Z        PSCENC =        75.25431677
  Ewald energy   TEWEN  =    138676.01251582
  -Hartree energ DENC   =   -182041.99738646
  -exchange      EXHF   =         0.00000000
  -V(xc)+E(xc)   XCENC  =     -1703.54824265
  PAW double counting   =     44873.02882129   -41398.84523641
  entropy T*S    EENTRO =         0.51184342
  eigenvalues    EBANDS =     -3745.57515341
  atomic energy  EATOM  =     45086.50549395
  Solvation  Ediel_sol  =         0.00000000
  ---------------------------------------------------
  free energy    TOTEN  =      -178.65302767 eV

  energy without entropy =     -179.16487110  energy(sigma->0) =     -178.78098853


--------------------------------------------------------------------------------------------------------




--------------------------------------- Iteration      1(   6)  ---------------------------------------


    POTLOK:  cpu time   13.3872: real time   13.3893
    SETDIJ:  cpu time    0.1139: real time    0.1139
    EDDIAG:  cpu time   68.1432: real time   68.1460
  RMM-DIIS:  cpu time  191.3961: real time  191.4008
    ORTHCH:  cpu time   12.7931: real time   12.7930
       DOS:  cpu time    0.0012: real time    0.0012
    CHARGE:  cpu time   25.8792: real time   25.8788
    MIXING:  cpu time    0.4507: real time    0.4507
    --------------------------------------------
      LOOP:  cpu time  312.1645: real time  312.1736

 eigenvalue-minimisations  :   724
 total energy-change (2. order) :-0.6344632E+00  (-0.5626675E+01)
 number of electron     559.9999882 magnetization 
 augmentation part      240.4806471 magnetization 

 Broyden mixing:
  rms(total) = 0.22410E+01    rms(broyden)= 0.22408E+01
  rms(prec ) = 0.26055E+01
  weight for this iteration     100.00

 eigenvalues of (default mixing * dielectric matrix)
  average eigenvalue GAMMA=   0.3279
  0.3279

 Free energy of the ion-electron system (eV)
  ---------------------------------------------------
  alpha Z        PSCENC =        75.25431677
  Ewald energy   TEWEN  =    138676.01251582
  -Hartree energ DENC   =   -182443.41879837
  -exchange      EXHF   =         0.00000000
  -V(xc)+E(xc)   XCENC  =     -1697.26958988
  PAW double counting   =     45612.78151623   -42111.54672600
  entropy T*S    EENTRO =        -0.28535233
  eigenvalues    EBANDS =     -3377.32086703
  atomic energy  EATOM  =     45086.50549395
  Solvation  Ediel_sol  =         0.00000000
  ---------------------------------------------------
  free energy    TOTEN  =      -179.28749084 eV

  energy without entropy =     -179.00213851  energy(sigma->0) =     -179.21615276


--------------------------------------------------------------------------------------------------------




--------------------------------------- Iteration      1(   7)  ---------------------------------------


    POTLOK:  cpu time   13.2895: real time   13.2911
    SETDIJ:  cpu time    0.1094: real time    0.1094
    EDDIAG:  cpu time   67.5864: real time   67.5874
  RMM-DIIS:  cpu time  224.0655: real time  224.0700
    ORTHCH:  cpu time   12.7947: real time   12.7946
       DOS:  cpu time    0.0013: real time    0.0013
    CHARGE:  cpu time   25.6563: real time   25.6559
    MIXING:  cpu time    0.4677: real time    0.4677
    --------------------------------------------
      LOOP:  cpu time  343.9708: real time  343.9774

 eigenvalue-minimisations  :   848
 total energy-change (2. order) :-0.1168956E+01  (-0.1906120E+01)
 number of electron     559.9999826 magnetization 
 augmentation part      240.5816168 magnetization 

 Broyden mixing:
  rms(total) = 0.18697E+01    rms(broyden)= 0.18694E+01
  rms(prec ) = 0.22657E+01
  weight for this iteration     100.00

 eigenvalues of (default mixing * dielectric matrix)
  average eigenvalue GAMMA=   0.3453
  0.5293  0.1613

 Free energy of the ion-electron system (eV)
  ---------------------------------------------------
  alpha Z        PSCENC =        75.25431677
  Ewald energy   TEWEN  =    138676.01251582
  -Hartree energ DENC   =   -182529.50012618
  -exchange      EXHF   =         0.00000000
  -V(xc)+E(xc)   XCENC  =     -1697.50758507
  PAW double counting   =     45670.51316795   -42166.83662686
  entropy T*S    EENTRO =        -0.12500167
  eigenvalues    EBANDS =     -3294.77260203
  atomic energy  EATOM  =     45086.50549395
  Solvation  Ediel_sol  =         0.00000000
  ---------------------------------------------------
  free energy    TOTEN  =      -180.45644731 eV

  energy without entropy =     -180.33144564  energy(sigma->0) =     -180.42519690


--------------------------------------------------------------------------------------------------------




--------------------------------------- Iteration      1(   8)  ---------------------------------------


    POTLOK:  cpu time   13.2322: real time   13.2337
    SETDIJ:  cpu time    0.1086: real time    0.1086
    EDDIAG:  cpu time   67.8489: real time   67.8486
  RMM-DIIS:  cpu time  206.5370: real time  206.5358
    ORTHCH:  cpu time   13.1509: real time   13.1508
       DOS:  cpu time    0.0012: real time    0.0012
    CHARGE:  cpu time   26.5880: real time   26.5878
    MIXING:  cpu time    0.5470: real time    0.5470
    --------------------------------------------
      LOOP:  cpu time  328.0138: real time  328.0135

 eigenvalue-minimisations  :   771
 total energy-change (2. order) :-0.3778812E+01  (-0.6252497E+00)
 number of electron     559.9999828 magnetization 
 augmentation part      239.9555980 magnetization 

 Broyden mixing:
  rms(total) = 0.30594E+01    rms(broyden)= 0.30592E+01
  rms(prec ) = 0.36710E+01
  weight for this iteration     100.00

 eigenvalues of (default mixing * dielectric matrix)
  average eigenvalue GAMMA=   0.3026
  0.6492  0.1564  0.1021

 Free energy of the ion-electron system (eV)
  ---------------------------------------------------
  alpha Z        PSCENC =        75.25431677
  Ewald energy   TEWEN  =    138676.01251582
  -Hartree energ DENC   =   -182582.47379061
  -exchange      EXHF   =         0.00000000
  -V(xc)+E(xc)   XCENC  =     -1697.49586826
  PAW double counting   =     45738.19592615   -42231.38422748
  entropy T*S    EENTRO =        -0.12366561
  eigenvalues    EBANDS =     -3248.72595959
  atomic energy  EATOM  =     45086.50549395
  Solvation  Ediel_sol  =         0.00000000
  ---------------------------------------------------
  free energy    TOTEN  =      -184.23525886 eV

  energy without entropy =     -184.11159325  energy(sigma->0) =     -184.20434246


--------------------------------------------------------------------------------------------------------




--------------------------------------- Iteration      1(   9)  ---------------------------------------


    POTLOK:  cpu time   13.6543: real time   13.6577
    SETDIJ:  cpu time    0.1202: real time    0.1202
    EDDIAG:  cpu time   69.0167: real time   69.0181
  RMM-DIIS:  cpu time  202.1136: real time  202.1159
    ORTHCH:  cpu time   13.1836: real time   13.1835
       DOS:  cpu time    0.0013: real time    0.0013
    CHARGE:  cpu time   26.5278: real time   26.5273
    MIXING:  cpu time    0.5886: real time    0.5886
    --------------------------------------------
      LOOP:  cpu time  325.2062: real time  325.2126

 eigenvalue-minimisations  :   757
 total energy-change (2. order) : 0.3141163E+01  (-0.4152974E+00)
 number of electron     559.9999852 magnetization 
 augmentation part      241.0194907 magnetization 

 Broyden mixing:
  rms(total) = 0.24985E+01    rms(broyden)= 0.24981E+01
  rms(prec ) = 0.29255E+01
  weight for this iteration     100.00

 eigenvalues of (default mixing * dielectric matrix)
  average eigenvalue GAMMA=   0.2924
  0.7882  0.1389  0.1389  0.1038

 Free energy of the ion-electron system (eV)
  ---------------------------------------------------
  alpha Z        PSCENC =        75.25431677
  Ewald energy   TEWEN  =    138676.01251582
  -Hartree energ DENC   =   -182597.13475339
  -exchange      EXHF   =         0.00000000
  -V(xc)+E(xc)   XCENC  =     -1697.49264006
  PAW double counting   =     45780.09444528   -42271.41084474
  entropy T*S    EENTRO =        -0.07073036
  eigenvalues    EBANDS =     -3232.85189900
  atomic energy  EATOM  =     45086.50549395
  Solvation  Ediel_sol  =         0.00000000
  ---------------------------------------------------
  free energy    TOTEN  =      -181.09409573 eV

  energy without entropy =     -181.02336537  energy(sigma->0) =     -181.07641314


--------------------------------------------------------------------------------------------------------




--------------------------------------- Iteration      1(  10)  ---------------------------------------


    POTLOK:  cpu time   13.4576: real time   13.4609
    SETDIJ:  cpu time    0.1131: real time    0.1131
    EDDIAG:  cpu time   69.0945: real time   69.0942
  RMM-DIIS:  cpu time  194.7234: real time  194.7234
    ORTHCH:  cpu time   13.0553: real time   13.0551
       DOS:  cpu time    0.0013: real time    0.0013
    CHARGE:  cpu time   26.3851: real time   26.3845
    MIXING:  cpu time    0.5689: real time    0.5689
    --------------------------------------------
      LOOP:  cpu time  317.3992: real time  317.4013

 eigenvalue-minimisations  :   729
 total energy-change (2. order) : 0.1228812E+01  (-0.2910020E+00)
 number of electron     559.9999854 magnetization 
 augmentation part      241.2534437 magnetization 

 Broyden mixing:
  rms(total) = 0.24802E+01    rms(broyden)= 0.24799E+01
  rms(prec ) = 0.29975E+01
  weight for this iteration     100.00

 eigenvalues of (default mixing * dielectric matrix)
  average eigenvalue GAMMA=   0.2618
  0.8252  0.1584  0.1584  0.0976  0.0693

 Free energy of the ion-electron system (eV)
  ---------------------------------------------------
  alpha Z        PSCENC =        75.25431677
  Ewald energy   TEWEN  =    138676.01251582
  -Hartree energ DENC   =   -182620.70378806
  -exchange      EXHF   =         0.00000000
  -V(xc)+E(xc)   XCENC  =     -1697.31562840
  PAW double counting   =     45830.35093972   -42319.45633925
  entropy T*S    EENTRO =        -0.07152163
  eigenvalues    EBANDS =     -3210.44127262
  atomic energy  EATOM  =     45086.50549395
  Solvation  Ediel_sol  =         0.00000000
  ---------------------------------------------------
  free energy    TOTEN  =      -179.86528370 eV

  energy without entropy =     -179.79376207  energy(sigma->0) =     -179.84740329


--------------------------------------------------------------------------------------------------------




--------------------------------------- Iteration      1(  11)  ---------------------------------------


    POTLOK:  cpu time   13.8074: real time   13.8106
    SETDIJ:  cpu time    0.1091: real time    0.1091
    EDDIAG:  cpu time   69.4825: real time   69.4820
  RMM-DIIS:  cpu time  196.5873: real time  196.5929
    ORTHCH:  cpu time   12.9990: real time   12.9988
       DOS:  cpu time    0.0013: real time    0.0013
    CHARGE:  cpu time   26.2484: real time   26.2497
    MIXING:  cpu time    0.6222: real time    0.6222
    --------------------------------------------
      LOOP:  cpu time  319.8572: real time  319.8667

 eigenvalue-minimisations  :   739
 total energy-change (2. order) : 0.2716156E+01  (-0.1302948E+00)
 number of electron     559.9999842 magnetization 
 augmentation part      241.6705423 magnetization 

 Broyden mixing:
  rms(total) = 0.14749E+01    rms(broyden)= 0.14745E+01
  rms(prec ) = 0.16757E+01
  weight for this iteration     100.00

 eigenvalues of (default mixing * dielectric matrix)
  average eigenvalue GAMMA=   0.2633
  0.9063  0.2088  0.2088  0.0979  0.0979  0.0602

 Free energy of the ion-electron system (eV)
  ---------------------------------------------------
  alpha Z        PSCENC =        75.25431677
  Ewald energy   TEWEN  =    138676.01251582
  -Hartree energ DENC   =   -182636.21309062
  -exchange      EXHF   =         0.00000000
  -V(xc)+E(xc)   XCENC  =     -1697.21229153
  PAW double counting   =     45852.10517700   -42340.20441113
  entropy T*S    EENTRO =        -0.10736112
  eigenvalues    EBANDS =     -3193.28947731
  atomic energy  EATOM  =     45086.50549395
  Solvation  Ediel_sol  =         0.00000000
  ---------------------------------------------------
  free energy    TOTEN  =      -177.14912816 eV

  energy without entropy =     -177.04176704  energy(sigma->0) =     -177.12228788


--------------------------------------------------------------------------------------------------------




--------------------------------------- Iteration      1(  12)  ---------------------------------------


    POTLOK:  cpu time   13.6531: real time   13.6555
    SETDIJ:  cpu time    0.1169: real time    0.1169
    EDDIAG:  cpu time   69.1466: real time   69.1462
  RMM-DIIS:  cpu time  192.9669: real time  192.9666
    ORTHCH:  cpu time   13.0562: real time   13.0560
       DOS:  cpu time    0.0013: real time    0.0013
    CHARGE:  cpu time   26.3322: real time   26.3317
    MIXING:  cpu time    0.6446: real time    0.6446
    --------------------------------------------
      LOOP:  cpu time  315.9178: real time  315.9188

 eigenvalue-minimisations  :   726
 total energy-change (2. order) : 0.8902104E+00  (-0.1432332E+00)
 number of electron     559.9999844 magnetization 
 augmentation part      241.9008394 magnetization 

 Broyden mixing:
  rms(total) = 0.14854E+01    rms(broyden)= 0.14852E+01
  rms(prec ) = 0.17839E+01
  weight for this iteration     100.00

 eigenvalues of (default mixing * dielectric matrix)
  average eigenvalue GAMMA=   0.2614
  0.9517  0.2603  0.2603  0.1085  0.1085  0.0788  0.0615

 Free energy of the ion-electron system (eV)
  ---------------------------------------------------
  alpha Z        PSCENC =        75.25431677
  Ewald energy   TEWEN  =    138676.01251582
  -Hartree energ DENC   =   -182656.60870108
  -exchange      EXHF   =         0.00000000
  -V(xc)+E(xc)   XCENC  =     -1696.91130097
  PAW double counting   =     45892.30735712   -42378.42365744
  entropy T*S    EENTRO =        -0.06448226
  eigenvalues    EBANDS =     -3174.33045972
  atomic energy  EATOM  =     45086.50549395
  Solvation  Ediel_sol  =         0.00000000
  ---------------------------------------------------
  free energy    TOTEN  =      -176.25891780 eV

  energy without entropy =     -176.19443554  energy(sigma->0) =     -176.24279724


--------------------------------------------------------------------------------------------------------




--------------------------------------- Iteration      1(  13)  ---------------------------------------


    POTLOK:  cpu time   13.9189: real time   13.9211
    SETDIJ:  cpu time    0.1122: real time    0.1122
    EDDIAG:  cpu time   69.1503: real time   69.1527
  RMM-DIIS:  cpu time  192.8217: real time  192.8370
    ORTHCH:  cpu time   12.9983: real time   12.9984
       DOS:  cpu time    0.0012: real time    0.0012
    CHARGE:  cpu time   26.4551: real time   26.4553
    MIXING:  cpu time    0.7472: real time    0.7472
    --------------------------------------------
      LOOP:  cpu time  316.2050: real time  316.2250

 eigenvalue-minimisations  :   724
 total energy-change (2. order) :-0.1667550E+00  (-0.9167862E-01)
 number of electron     559.9999840 magnetization 
 augmentation part      241.6739670 magnetization 

 Broyden mixing:
  rms(total) = 0.17109E+01    rms(broyden)= 0.17106E+01
  rms(prec ) = 0.20918E+01
  weight for this iteration     100.00

 eigenvalues of (default mixing * dielectric matrix)
  average eigenvalue GAMMA=   0.2655
  1.0071  0.3534  0.3042  0.1282  0.1282  0.0745  0.0745  0.0542

 Free energy of the ion-electron system (eV)
  ---------------------------------------------------
  alpha Z        PSCENC =        75.25431677
  Ewald energy   TEWEN  =    138676.01251582
  -Hartree energ DENC   =   -182682.30480237
  -exchange      EXHF   =         0.00000000
  -V(xc)+E(xc)   XCENC  =     -1696.62118477
  PAW double counting   =     45925.74874794   -42410.16210506
  entropy T*S    EENTRO =        -0.05007691
  eigenvalues    EBANDS =     -3150.80857814
  atomic energy  EATOM  =     45086.50549395
  Solvation  Ediel_sol  =         0.00000000
  ---------------------------------------------------
  free energy    TOTEN  =      -176.42567276 eV

  energy without entropy =     -176.37559585  energy(sigma->0) =     -176.41315353


--------------------------------------------------------------------------------------------------------




--------------------------------------- Iteration      1(  14)  ---------------------------------------


    POTLOK:  cpu time   13.6567: real time   13.6605
    SETDIJ:  cpu time    0.1082: real time    0.1082
    EDDIAG:  cpu time   68.2851: real time   68.2868
  RMM-DIIS:  cpu time  192.6080: real time  192.6206
    ORTHCH:  cpu time   13.0962: real time   13.0966
       DOS:  cpu time    0.0014: real time    0.0014
    CHARGE:  cpu time   26.6749: real time   26.6758
    MIXING:  cpu time    0.7492: real time    0.7492
    --------------------------------------------
      LOOP:  cpu time  315.1798: real time  315.1991

 eigenvalue-minimisations  :   723
 total energy-change (2. order) : 0.2925283E-01  (-0.9297471E-01)
 number of electron     559.9999813 magnetization 
 augmentation part      241.5803765 magnetization 

 Broyden mixing:
  rms(total) = 0.27000E+01    rms(broyden)= 0.26998E+01
  rms(prec ) = 0.31151E+01
  weight for this iteration     100.00

 eigenvalues of (default mixing * dielectric matrix)
  average eigenvalue GAMMA=   0.2780
  1.1270  0.6165  0.2288  0.1340  0.1340  0.0808  0.0808  0.0519  0.0483

 Free energy of the ion-electron system (eV)
  ---------------------------------------------------
  alpha Z        PSCENC =        75.25431677
  Ewald energy   TEWEN  =    138676.01251582
  -Hartree energ DENC   =   -182714.30593131
  -exchange      EXHF   =         0.00000000
  -V(xc)+E(xc)   XCENC  =     -1696.20234977
  PAW double counting   =     45968.13769662   -42450.37127720
  entropy T*S    EENTRO =         0.15138317
  eigenvalues    EBANDS =     -3121.57826798
  atomic energy  EATOM  =     45086.50549395
  Solvation  Ediel_sol  =         0.00000000
  ---------------------------------------------------
  free energy    TOTEN  =      -176.39641993 eV

  energy without entropy =     -176.54780310  energy(sigma->0) =     -176.43426572


--------------------------------------------------------------------------------------------------------




--------------------------------------- Iteration      1(  15)  ---------------------------------------


    POTLOK:  cpu time   13.8320: real time   13.8357
    SETDIJ:  cpu time    0.1106: real time    0.1106
    EDDIAG:  cpu time   68.2193: real time   68.2217
  RMM-DIIS:  cpu time  187.7656: real time  187.7708
    ORTHCH:  cpu time   13.1155: real time   13.1158
       DOS:  cpu time    0.0013: real time    0.0013
    CHARGE:  cpu time   26.5568: real time   26.5576
    MIXING:  cpu time    0.8262: real time    0.8262
    --------------------------------------------
      LOOP:  cpu time  310.4273: real time  310.4397

 eigenvalue-minimisations  :   707
 total energy-change (2. order) : 0.7433972E+00  (-0.1091243E+00)
 number of electron     559.9999846 magnetization 
 augmentation part      241.3076303 magnetization 

 Broyden mixing:
  rms(total) = 0.12188E+01    rms(broyden)= 0.12186E+01
  rms(prec ) = 0.13799E+01
  weight for this iteration     100.00

 eigenvalues of (default mixing * dielectric matrix)
  average eigenvalue GAMMA=   0.2966
  1.3570  0.7464  0.1804  0.1379  0.1379  0.1349  0.0844  0.0844  0.0577  0.0447

 Free energy of the ion-electron system (eV)
  ---------------------------------------------------
  alpha Z        PSCENC =        75.25431677
  Ewald energy   TEWEN  =    138676.01251582
  -Hartree energ DENC   =   -182748.35102931
  -exchange      EXHF   =         0.00000000
  -V(xc)+E(xc)   XCENC  =     -1695.72472717
  PAW double counting   =     46016.03059279   -42495.77354719
  entropy T*S    EENTRO =        -0.08266425
  eigenvalues    EBANDS =     -3089.52397421
  atomic energy  EATOM  =     45086.50549395
  Solvation  Ediel_sol  =         0.00000000
  ---------------------------------------------------
  free energy    TOTEN  =      -175.65302278 eV

  energy without entropy =     -175.57035853  energy(sigma->0) =     -175.63235672


--------------------------------------------------------------------------------------------------------




--------------------------------------- Iteration      1(  16)  ---------------------------------------


    POTLOK:  cpu time   13.8605: real time   13.8646
    SETDIJ:  cpu time    0.1147: real time    0.1147
    EDDIAG:  cpu time   68.2121: real time   68.2166
  RMM-DIIS:  cpu time  187.8083: real time  187.8162
    ORTHCH:  cpu time   13.0903: real time   13.0920
       DOS:  cpu time    0.0013: real time    0.0013
    CHARGE:  cpu time   26.6485: real time   26.6495
    MIXING:  cpu time    0.9010: real time    0.9010
    --------------------------------------------
      LOOP:  cpu time  310.6366: real time  310.6560

 eigenvalue-minimisations  :   708
 total energy-change (2. order) : 0.5562456E+00  (-0.9076900E-01)
 number of electron     559.9999859 magnetization 
 augmentation part      241.2266595 magnetization 

 Broyden mixing:
  rms(total) = 0.98005E+00    rms(broyden)= 0.97974E+00
  rms(prec ) = 0.11238E+01
  weight for this iteration     100.00

 eigenvalues of (default mixing * dielectric matrix)
  average eigenvalue GAMMA=   0.3172
  1.5501  0.8364  0.2435  0.2435  0.1292  0.1292  0.0855  0.0855  0.0845  0.0564
  0.0452

 Free energy of the ion-electron system (eV)
  ---------------------------------------------------
  alpha Z        PSCENC =        75.25431677
  Ewald energy   TEWEN  =    138676.01251582
  -Hartree energ DENC   =   -182787.17183848
  -exchange      EXHF   =         0.00000000
  -V(xc)+E(xc)   XCENC  =     -1695.15789576
  PAW double counting   =     46068.85208610   -42545.70534686
  entropy T*S    EENTRO =         0.01155016
  eigenvalues    EBANDS =     -3053.69765888
  atomic energy  EATOM  =     45086.50549395
  Solvation  Ediel_sol  =         0.00000000
  ---------------------------------------------------
  free energy    TOTEN  =      -175.09677718 eV

  energy without entropy =     -175.10832734  energy(sigma->0) =     -175.09966472


--------------------------------------------------------------------------------------------------------




--------------------------------------- Iteration      1(  17)  ---------------------------------------


    POTLOK:  cpu time   13.7993: real time   13.8031
    SETDIJ:  cpu time    0.1161: real time    0.1161
    EDDIAG:  cpu time   68.4531: real time   68.4610
  RMM-DIIS:  cpu time  190.1837: real time  190.1978
    ORTHCH:  cpu time   13.1673: real time   13.1672
       DOS:  cpu time    0.0013: real time    0.0013
    CHARGE:  cpu time   26.7727: real time   26.7750
    MIXING:  cpu time    0.9551: real time    0.9551
    --------------------------------------------
      LOOP:  cpu time  313.4487: real time  313.4766

 eigenvalue-minimisations  :   711
 total energy-change (2. order) :-0.1543675E+00  (-0.5073721E-01)
 number of electron     559.9999850 magnetization 
 augmentation part      241.0838132 magnetization 

 Broyden mixing:
  rms(total) = 0.12883E+01    rms(broyden)= 0.12881E+01
  rms(prec ) = 0.15377E+01
  weight for this iteration     100.00

 eigenvalues of (default mixing * dielectric matrix)
  average eigenvalue GAMMA=   0.3169
  1.6406  0.8645  0.2959  0.2959  0.1341  0.1341  0.0902  0.0902  0.0782  0.0782
  0.0558  0.0455

 Free energy of the ion-electron system (eV)
  ---------------------------------------------------
  alpha Z        PSCENC =        75.25431677
  Ewald energy   TEWEN  =    138676.01251582
  -Hartree energ DENC   =   -182818.34529566
  -exchange      EXHF   =         0.00000000
  -V(xc)+E(xc)   XCENC  =     -1694.74845092
  PAW double counting   =     46100.21934714   -42574.98201952
  entropy T*S    EENTRO =         0.10257625
  eigenvalues    EBANDS =     -3025.26962853
  atomic energy  EATOM  =     45086.50549395
  Solvation  Ediel_sol  =         0.00000000
  ---------------------------------------------------
  free energy    TOTEN  =      -175.25114470 eV

  energy without entropy =     -175.35372095  energy(sigma->0) =     -175.27678876


--------------------------------------------------------------------------------------------------------




--------------------------------------- Iteration      1(  18)  ---------------------------------------


    POTLOK:  cpu time   13.8210: real time   13.8243
    SETDIJ:  cpu time    0.1178: real time    0.1178
    EDDIAG:  cpu time   68.1986: real time   68.2001
  RMM-DIIS:  cpu time  190.1404: real time  190.1415
    ORTHCH:  cpu time   13.0750: real time   13.0749
       DOS:  cpu time    0.0013: real time    0.0013
    CHARGE:  cpu time   27.0242: real time   27.0238
    MIXING:  cpu time    1.0165: real time    1.0165
    --------------------------------------------
      LOOP:  cpu time  313.3948: real time  313.4002

 eigenvalue-minimisations  :   713
 total energy-change (2. order) : 0.3131888E+00  (-0.2749220E-01)
 number of electron     559.9999853 magnetization 
 augmentation part      241.0766922 magnetization 

 Broyden mixing:
  rms(total) = 0.92246E+00    rms(broyden)= 0.92227E+00
  rms(prec ) = 0.10598E+01
  weight for this iteration     100.00

 eigenvalues of (default mixing * dielectric matrix)
  average eigenvalue GAMMA=   0.3220
  1.7171  0.9624  0.3451  0.3451  0.1368  0.1368  0.1122  0.0892  0.0892  0.0924
  0.0457  0.0560  0.0584

 Free energy of the ion-electron system (eV)
  ---------------------------------------------------
  alpha Z        PSCENC =        75.25431677
  Ewald energy   TEWEN  =    138676.01251582
  -Hartree energ DENC   =   -182831.30996480
  -exchange      EXHF   =         0.00000000
  -V(xc)+E(xc)   XCENC  =     -1694.61112705
  PAW double counting   =     46107.87459812   -42581.78571100
  entropy T*S    EENTRO =         0.06203129
  eigenvalues    EBANDS =     -3012.94010895
  atomic energy  EATOM  =     45086.50549395
  Solvation  Ediel_sol  =         0.00000000
  ---------------------------------------------------
  free energy    TOTEN  =      -174.93795585 eV

  energy without entropy =     -174.99998714  energy(sigma->0) =     -174.95346367


--------------------------------------------------------------------------------------------------------




--------------------------------------- Iteration      1(  19)  ---------------------------------------


    POTLOK:  cpu time   13.8885: real time   13.8918
    SETDIJ:  cpu time    0.1089: real time    0.1089
    EDDIAG:  cpu time   67.6636: real time   67.6647
  RMM-DIIS:  cpu time  187.7915: real time  187.7933
    ORTHCH:  cpu time   12.9583: real time   12.9582
       DOS:  cpu time    0.0012: real time    0.0012
    CHARGE:  cpu time   26.9362: real time   26.9359
    MIXING:  cpu time    1.0832: real time    1.0832
    --------------------------------------------
      LOOP:  cpu time  310.4314: real time  310.4372

 eigenvalue-minimisations  :   704
 total energy-change (2. order) : 0.2641258E+00  (-0.2783647E-01)
 number of electron     559.9999855 magnetization 
 augmentation part      241.0819665 magnetization 

 Broyden mixing:
  rms(total) = 0.68560E+00    rms(broyden)= 0.68539E+00
  rms(prec ) = 0.79912E+00
  weight for this iteration     100.00

 eigenvalues of (default mixing * dielectric matrix)
  average eigenvalue GAMMA=   0.3246
  1.8156  1.0423  0.3439  0.3439  0.1860  0.1366  0.1366  0.1188  0.0858  0.0858
  0.0921  0.0459  0.0568  0.0545

 Free energy of the ion-electron system (eV)
  ---------------------------------------------------
  alpha Z        PSCENC =        75.25431677
  Ewald energy   TEWEN  =    138676.01251582
  -Hartree energ DENC   =   -182852.16709059
  -exchange      EXHF   =         0.00000000
  -V(xc)+E(xc)   XCENC  =     -1694.41019837
  PAW double counting   =     46114.86724460   -42587.61956194
  entropy T*S    EENTRO =        -0.02727125
  eigenvalues    EBANDS =     -2993.08927900
  atomic energy  EATOM  =     45086.50549395
  Solvation  Ediel_sol  =         0.00000000
  ---------------------------------------------------
  free energy    TOTEN  =      -174.67383001 eV

  energy without entropy =     -174.64655876  energy(sigma->0) =     -174.66701220


--------------------------------------------------------------------------------------------------------




--------------------------------------- Iteration      1(  20)  ---------------------------------------


    POTLOK:  cpu time   13.8222: real time   13.8256
    SETDIJ:  cpu time    0.1148: real time    0.1148
    EDDIAG:  cpu time   67.7294: real time   67.7298
  RMM-DIIS:  cpu time  186.6711: real time  186.6746
    ORTHCH:  cpu time   13.0010: real time   13.0010
       DOS:  cpu time    0.0013: real time    0.0013
    CHARGE:  cpu time   27.0521: real time   27.0520
    MIXING:  cpu time    1.1815: real time    1.1815
    --------------------------------------------
      LOOP:  cpu time  309.5734: real time  309.5806

 eigenvalue-minimisations  :   701
 total energy-change (2. order) : 0.7251925E-01  (-0.2532267E-01)
 number of electron     559.9999858 magnetization 
 augmentation part      241.1307178 magnetization 

 Broyden mixing:
  rms(total) = 0.59991E+00    rms(broyden)= 0.59969E+00
  rms(prec ) = 0.70321E+00
  weight for this iteration     100.00

 eigenvalues of (default mixing * dielectric matrix)
  average eigenvalue GAMMA=   0.3412
  1.8990  1.1646  0.5377  0.3025  0.3025  0.1356  0.1356  0.1291  0.0868  0.0868
  0.0916  0.0916  0.0460  0.0562  0.0530

 Free energy of the ion-electron system (eV)
  ---------------------------------------------------
  alpha Z        PSCENC =        75.25431677
  Ewald energy   TEWEN  =    138676.01251582
  -Hartree energ DENC   =   -182866.84867013
  -exchange      EXHF   =         0.00000000
  -V(xc)+E(xc)   XCENC  =     -1694.21751752
  PAW double counting   =     46120.13438282   -42591.92696436
  entropy T*S    EENTRO =        -0.05397050
  eigenvalues    EBANDS =     -2979.46089762
  atomic energy  EATOM  =     45086.50549395
  Solvation  Ediel_sol  =         0.00000000
  ---------------------------------------------------
  free energy    TOTEN  =      -174.60131076 eV

  energy without entropy =     -174.54734026  energy(sigma->0) =     -174.58781814


--------------------------------------------------------------------------------------------------------




--------------------------------------- Iteration      1(  21)  ---------------------------------------


    POTLOK:  cpu time   13.8142: real time   13.8177
    SETDIJ:  cpu time    0.1128: real time    0.1128
    EDDIAG:  cpu time   67.6440: real time   67.6438
  RMM-DIIS:  cpu time  185.7656: real time  185.7664
    ORTHCH:  cpu time   12.9864: real time   12.9862
       DOS:  cpu time    0.0013: real time    0.0013
    CHARGE:  cpu time   27.0522: real time   27.0517
    MIXING:  cpu time    1.1987: real time    1.1987
    --------------------------------------------
      LOOP:  cpu time  308.5752: real time  308.5787

 eigenvalue-minimisations  :   697
 total energy-change (2. order) :-0.4410137E-01  (-0.2475792E-01)
 number of electron     559.9999853 magnetization 
 augmentation part      241.1026046 magnetization 

 Broyden mixing:
  rms(total) = 0.76544E+00    rms(broyden)= 0.76527E+00
  rms(prec ) = 0.88396E+00
  weight for this iteration     100.00

 eigenvalues of (default mixing * dielectric matrix)
  average eigenvalue GAMMA=   0.3536
  2.0051  1.3304  0.6254  0.3382  0.3382  0.1358  0.1358  0.1288  0.1288  0.0870
  0.0870  0.0812  0.0812  0.0460  0.0564  0.0523

 Free energy of the ion-electron system (eV)
  ---------------------------------------------------
  alpha Z        PSCENC =        75.25431677
  Ewald energy   TEWEN  =    138676.01251582
  -Hartree energ DENC   =   -182884.82541798
  -exchange      EXHF   =         0.00000000
  -V(xc)+E(xc)   XCENC  =     -1694.00010788
  PAW double counting   =     46120.40592526   -42591.23984256
  entropy T*S    EENTRO =        -0.02007083
  eigenvalues    EBANDS =     -2962.73822469
  atomic energy  EATOM  =     45086.50549395
  Solvation  Ediel_sol  =         0.00000000
  ---------------------------------------------------
  free energy    TOTEN  =      -174.64541213 eV

  energy without entropy =     -174.62534131  energy(sigma->0) =     -174.64039443


--------------------------------------------------------------------------------------------------------




--------------------------------------- Iteration      1(  22)  ---------------------------------------


    POTLOK:  cpu time   13.8677: real time   13.8709
    SETDIJ:  cpu time    0.1119: real time    0.1119
    EDDIAG:  cpu time   67.8802: real time   67.8811
  RMM-DIIS:  cpu time  185.1001: real time  185.1036
    ORTHCH:  cpu time   13.0512: real time   13.0512
       DOS:  cpu time    0.0014: real time    0.0014
    CHARGE:  cpu time   27.1604: real time   27.1617
    MIXING:  cpu time    1.3168: real time    1.3168
    --------------------------------------------
      LOOP:  cpu time  308.4897: real time  308.4986

 eigenvalue-minimisations  :   698
 total energy-change (2. order) : 0.7089207E-01  (-0.2047009E-01)
 number of electron     559.9999845 magnetization 
 augmentation part      241.0540631 magnetization 

 Broyden mixing:
  rms(total) = 0.64200E+00    rms(broyden)= 0.64183E+00
  rms(prec ) = 0.74368E+00
  weight for this iteration     100.00

 eigenvalues of (default mixing * dielectric matrix)
  average eigenvalue GAMMA=   0.3561
  2.0886  1.4069  0.7013  0.3486  0.3486  0.1353  0.1353  0.1553  0.1553  0.0869
  0.0869  0.0899  0.0899  0.0697  0.0460  0.0563  0.0521

 Free energy of the ion-electron system (eV)
  ---------------------------------------------------
  alpha Z        PSCENC =        75.25431677
  Ewald energy   TEWEN  =    138676.01251582
  -Hartree energ DENC   =   -182904.33462548
  -exchange      EXHF   =         0.00000000
  -V(xc)+E(xc)   XCENC  =     -1693.75745154
  PAW double counting   =     46120.83231839   -42590.78612828
  entropy T*S    EENTRO =        -0.05781815
  eigenvalues    EBANDS =     -2944.24314154
  atomic energy  EATOM  =     45086.50549395
  Solvation  Ediel_sol  =         0.00000000
  ---------------------------------------------------
  free energy    TOTEN  =      -174.57452007 eV

  energy without entropy =     -174.51670191  energy(sigma->0) =     -174.56006553


--------------------------------------------------------------------------------------------------------




--------------------------------------- Iteration      1(  23)  ---------------------------------------


    POTLOK:  cpu time   13.8314: real time   13.8342
    SETDIJ:  cpu time    0.1146: real time    0.1146
    EDDIAG:  cpu time   68.2027: real time   68.2043
  RMM-DIIS:  cpu time  185.9776: real time  185.9766
    ORTHCH:  cpu time   13.0581: real time   13.0579
       DOS:  cpu time    0.0013: real time    0.0013
    CHARGE:  cpu time   26.9676: real time   26.9672
    MIXING:  cpu time    1.3735: real time    1.3735
    --------------------------------------------
      LOOP:  cpu time  309.5269: real time  309.5296

 eigenvalue-minimisations  :   702
 total energy-change (2. order) : 0.6768254E-01  (-0.1437598E-01)
 number of electron     559.9999859 magnetization 
 augmentation part      241.1127009 magnetization 

 Broyden mixing:
  rms(total) = 0.67637E+00    rms(broyden)= 0.67621E+00
  rms(prec ) = 0.80980E+00
  weight for this iteration     100.00

 eigenvalues of (default mixing * dielectric matrix)
  average eigenvalue GAMMA=   0.3520
  2.1531  1.4056  0.6754  0.5140  0.2519  0.2519  0.1348  0.1348  0.1532  0.1001
[...]
 -0.006  -0.012   0.004   0.004   0.005  -0.006  -0.012   0.004
 -0.011  -0.020   0.007   0.007   0.009  -0.010  -0.020   0.007
 -0.015  -0.005   0.012   0.000   0.022  -0.014  -0.005   0.012
  0.000  -0.023  -0.006  -0.015  -0.000   0.000  -0.022  -0.006
 -0.022   0.000   0.009  -0.005  -0.016  -0.021   0.000   0.008
 -0.017  -0.006   0.015   0.000   0.027  -0.017  -0.006   0.015
  0.000  -0.027  -0.007  -0.018  -0.000   0.000  -0.027  -0.007
 -0.027   0.000   0.010  -0.006  -0.019  -0.026   0.000   0.010
 total augmentation occupancy for first ion, spin component:           1
  1.536  -0.029   0.005   0.016   0.024   0.076  -0.008  -0.002   0.036  -0.010   0.091  -0.030   0.012   0.002   0.002  -0.019
 -0.029   1.395   0.026   0.068  -0.002  -0.007   0.073   0.012  -0.014  -0.008   0.219  -0.066   0.018   0.004   0.003  -0.006
  0.005   0.026   1.542   0.000   0.002  -0.002   0.013   0.074  -0.012   0.017  -0.056   0.020  -0.003  -0.006  -0.005   0.016
  0.016   0.068   0.000   1.336   0.044   0.034  -0.013  -0.012   0.092  -0.023  -0.081   0.021  -0.002  -0.008  -0.003   0.001
  0.024  -0.002   0.002   0.044   1.440  -0.010  -0.008   0.016  -0.022   0.068  -0.093   0.030  -0.002  -0.009  -0.010   0.026
  0.076  -0.007  -0.002   0.034  -0.010   0.217   0.019  -0.002  -0.045   0.004  -0.048   0.002   0.017  -0.010   0.035  -0.004
 -0.008   0.073   0.013  -0.013  -0.008   0.019   0.262  -0.023  -0.004   0.006  -0.109   0.007  -0.001   0.051  -0.010  -0.000
 -0.002   0.012   0.074  -0.012   0.016  -0.002  -0.023   0.215   0.014  -0.020   0.028  -0.001  -0.012   0.009  -0.018   0.003
  0.036  -0.014  -0.012   0.092  -0.022  -0.045  -0.004   0.014   0.261   0.007   0.043  -0.004  -0.009   0.036   0.004   0.000
 -0.010  -0.008   0.017  -0.023   0.068   0.004   0.006  -0.020   0.007   0.259   0.047  -0.003  -0.038   0.002   0.049   0.007
  0.091   0.219  -0.056  -0.081  -0.093  -0.048  -0.109   0.028   0.043   0.047   0.950  -0.141   0.084   0.014   0.064  -0.013
 -0.030  -0.066   0.020   0.021   0.030   0.002   0.007  -0.001  -0.004  -0.003  -0.141   0.023  -0.014  -0.003  -0.010   0.003
  0.012   0.018  -0.003  -0.002  -0.002   0.017  -0.001  -0.012  -0.009  -0.038   0.084  -0.014   0.029  -0.008  -0.004  -0.003
  0.002   0.004  -0.006  -0.008  -0.009  -0.010   0.051   0.009   0.036   0.002   0.014  -0.003  -0.008   0.036   0.004   0.000
  0.002   0.003  -0.005  -0.003  -0.010   0.035  -0.010  -0.018   0.004   0.049   0.064  -0.010  -0.004   0.004   0.035  -0.000
 -0.019  -0.006   0.016   0.001   0.026  -0.004  -0.000   0.003   0.000   0.007  -0.013   0.003  -0.003   0.000  -0.000   0.001
  0.001  -0.028  -0.007  -0.018   0.001   0.001  -0.008  -0.002  -0.006  -0.000  -0.003   0.001   0.000  -0.003  -0.000   0.000
 -0.028   0.001   0.012  -0.005  -0.019  -0.006   0.001   0.003  -0.001  -0.007  -0.008   0.001  -0.000  -0.000  -0.003   0.000


------------------------ aborting loop because EDIFF is reached ----------------------------------------


    CHARGE:  cpu time   20.9051: real time   20.9053
    FORLOC:  cpu time    5.7751: real time    5.7752
    FORNL :  cpu time   54.6271: real time   54.6279
    STRESS:  cpu time  166.2789: real time  166.2822
    FORCOR:  cpu time   17.6668: real time   17.6671
    FORHAR:  cpu time    8.0851: real time    8.0853
    MIXING:  cpu time    2.9301: real time    2.9302
    OFIELD:  cpu time    0.0000: real time    0.0000

  FORCE on cell =-STRESS in cart. coord.  units (eV):
  Direction    XX          YY          ZZ          XY          YZ          ZX
  --------------------------------------------------------------------------------------
  Alpha Z    75.25432    75.25432    75.25432
  Ewald   44485.29362 44597.49820 49593.11496   115.41524   764.74887   592.03391
  Hartree 59387.72027 59482.50935 64176.52735    98.79387   692.87563   530.99412
  E(xc)   -2905.19879 -2904.89339 -2903.28792     0.25155     0.60616     0.59973
  Local  ************************************  -211.46370 -1448.11050 -1115.16017
  n-local  -884.03297  -884.72329  -892.89284    -0.80618    -2.51347    -1.73960
  augment  4104.92283  4104.19487  4102.27833    -0.57442    -1.10254    -1.29535
  Kinetic  7812.81980  7810.70869  7790.96458    -2.14430    -6.88359    -6.14941
  Fock        0.00000     0.00000     0.00000     0.00000     0.00000     0.00000
  -------------------------------------------------------------------------------------
  Total    -114.11686  -114.96398  -111.84677    -0.52793    -0.37944    -0.71677
  in kB      -6.77168    -6.82195    -6.63698    -0.03133    -0.02252    -0.04253
  external pressure =       -6.74 kB  Pullay stress =        0.00 kB


 VOLUME and BASIS-vectors are now :
 -----------------------------------------------------------------------------
  energy-cutoff  :      400.00
  volume of cell :    27000.00
      direct lattice vectors                 reciprocal lattice vectors
    30.000000000  0.000000000  0.000000000     0.033333333  0.000000000  0.000000000
     0.000000000 30.000000000  0.000000000     0.000000000  0.033333333  0.000000000
     0.000000000  0.000000000 30.000000000     0.000000000  0.000000000  0.033333333

  length of vectors
    30.000000000 30.000000000 30.000000000     0.033333333  0.033333333  0.033333333


 FORCES acting on ions
    electron-ion (+dipol)            ewald-force                    non-local-force                 convergence-correction
 -----------------------------------------------------------------------------------------------
   0.396E+03 0.975E+03 0.421E+03   -.393E+03 -.972E+03 -.421E+03   -.150E+01 -.183E+01 -.227E+00   -.186E-02 0.544E-02 0.163E-02
   -.975E+03 -.394E+03 0.425E+03   0.972E+03 0.391E+03 -.424E+03   0.182E+01 0.149E+01 -.197E+00   -.102E-02 -.168E-02 0.340E-02
   -.394E+03 0.975E+03 0.422E+03   0.392E+03 -.972E+03 -.421E+03   0.150E+01 -.183E+01 -.215E+00   -.385E-02 0.181E-02 -.300E-03
   0.975E+03 -.394E+03 0.422E+03   -.972E+03 0.391E+03 -.422E+03   -.183E+01 0.150E+01 -.211E+00   0.263E-02 -.666E-02 -.439E-03
   0.722E+00 0.588E+03 0.968E+03   -.713E+00 -.588E+03 -.964E+03   -.342E-02 -.297E+00 -.237E+01   -.314E-02 0.193E-02 0.428E-02
   0.855E+01 0.623E+03 -.946E+03   -.857E+01 -.622E+03 0.942E+03   0.455E-02 -.342E+00 0.241E+01   0.235E-02 -.328E-02 -.184E-02
   0.112E+01 0.114E+04 0.638E+01   -.112E+01 -.113E+04 -.637E+01   -.325E-03 -.311E+01 -.194E-02   -.186E-02 0.360E-02 -.858E-03
   0.114E+04 0.160E+01 0.686E+01   -.113E+04 -.159E+01 -.684E+01   -.311E+01 -.905E-04 -.438E-02   0.240E-02 -.474E-02 -.399E-02
   -.114E+04 0.262E+01 0.115E+02   0.114E+04 -.261E+01 -.115E+02   0.310E+01 -.571E-02 -.295E-01   -.242E-04 0.796E-03 0.179E-02
   0.219E+01 -.114E+04 0.128E+02   -.217E+01 0.114E+04 -.127E+02   -.100E-01 0.310E+01 -.412E-01   -.258E-03 0.863E-03 0.303E-03
   -.579E+03 0.580E+03 0.816E+03   0.576E+03 -.578E+03 -.812E+03   0.155E+01 -.156E+01 -.221E+01   -.341E-02 -.775E-03 0.175E-02
   -.592E+03 0.610E+03 -.795E+03   0.590E+03 -.608E+03 0.792E+03   0.156E+01 -.156E+01 0.222E+01   -.577E-03 -.346E-02 -.212E-03
   0.580E+03 -.579E+03 0.816E+03   -.578E+03 0.576E+03 -.813E+03   -.156E+01 0.155E+01 -.221E+01   0.767E-03 -.397E-02 0.234E-02
   0.616E+03 -.593E+03 -.791E+03   -.614E+03 0.591E+03 0.787E+03   -.155E+01 0.155E+01 0.223E+01   -.186E-02 0.595E-03 0.116E-02
   0.580E+03 0.580E+03 0.815E+03   -.577E+03 -.578E+03 -.812E+03   -.156E+01 -.156E+01 -.221E+01   0.618E-03 0.260E-02 0.610E-02
   0.594E+03 0.596E+03 -.802E+03   -.592E+03 -.594E+03 0.799E+03   -.156E+01 -.156E+01 0.221E+01   -.262E-03 -.193E-02 -.369E-02
   -.579E+03 -.579E+03 0.817E+03   0.577E+03 0.576E+03 -.814E+03   0.156E+01 0.155E+01 -.220E+01   -.103E-02 -.145E-02 -.553E-03
   -.636E+03 -.625E+03 -.748E+03   0.633E+03 0.623E+03 0.745E+03   0.147E+01 0.148E+01 0.217E+01   0.258E-02 0.479E-04 -.328E-02
   0.399E+03 0.983E+03 -.406E+03   -.397E+03 -.980E+03 0.406E+03   -.151E+01 -.183E+01 0.211E+00   0.131E-03 -.636E-03 -.574E-02
   -.994E+03 -.394E+03 -.388E+03   0.991E+03 0.392E+03 0.388E+03   0.182E+01 0.152E+01 0.261E+00   0.871E-03 0.111E-02 -.302E-02
   -.321E+03 0.324E+03 0.463E+03   0.322E+03 -.325E+03 -.463E+03   -.364E+00 0.367E+00 0.521E+00   -.721E-02 0.103E-02 0.907E-03
   0.974E+03 0.396E+03 0.421E+03   -.972E+03 -.394E+03 -.421E+03   -.184E+01 -.150E+01 -.227E+00   0.432E-02 -.238E-02 0.186E-02
   -.394E+03 -.974E+03 0.425E+03   0.392E+03 0.971E+03 -.425E+03   0.149E+01 0.182E+01 -.192E+00   -.432E-03 -.314E-02 -.274E-03
   -.395E+03 0.986E+03 -.404E+03   0.392E+03 -.983E+03 0.404E+03   0.150E+01 -.182E+01 0.220E+00   -.199E-02 -.116E-02 -.781E-03
   0.987E+03 -.394E+03 -.403E+03   -.984E+03 0.392E+03 0.402E+03   -.183E+01 0.150E+01 0.223E+00   -.997E-03 -.293E-02 -.245E-02
   -.974E+03 0.397E+03 0.424E+03   0.971E+03 -.394E+03 -.423E+03   0.183E+01 -.149E+01 -.204E+00   -.733E-03 -.633E-03 0.206E-02
   0.396E+03 -.974E+03 0.424E+03   -.394E+03 0.971E+03 -.424E+03   -.149E+01 0.183E+01 -.196E+00   -.238E-02 -.323E-02 -.148E-02
   0.324E+03 0.324E+03 0.461E+03   -.324E+03 -.324E+03 -.462E+03   0.371E+00 0.371E+00 0.503E+00   -.225E-02 0.222E-03 0.178E-02
   0.224E+01 0.647E+03 0.132E+02   -.224E+01 -.648E+03 -.132E+02   0.241E-02 0.724E+00 0.149E-02   -.538E-02 0.119E-02 -.491E-02
   -.587E+03 0.115E+01 0.969E+03   0.587E+03 -.114E+01 -.965E+03   0.307E+00 -.116E-02 -.235E+01   -.412E-02 -.147E-02 0.155E-02
   -.652E+03 0.428E+02 -.899E+03   0.651E+03 -.429E+02 0.895E+03   0.699E-01 0.795E-01 0.230E+01   0.110E-02 0.164E-02 -.292E-02
   0.588E+03 0.980E+00 0.968E+03   -.588E+03 -.971E+00 -.964E+03   -.297E+00 -.284E-02 -.237E+01   0.165E-02 -.398E-02 0.614E-02
   0.625E+03 0.130E+02 -.944E+03   -.624E+03 -.130E+02 0.940E+03   -.306E+00 0.652E-02 0.240E+01   -.141E-02 0.594E-03 -.979E-03
   0.765E+03 0.766E+03 0.888E+01   -.763E+03 -.764E+03 -.891E+01   -.114E+01 -.113E+01 0.275E-01   -.834E-04 0.154E-02 -.574E-02
   -.766E+03 -.765E+03 0.198E+02   0.764E+03 0.763E+03 -.197E+02   0.115E+01 0.115E+01 -.487E-01   0.764E-03 -.408E-02 0.298E-02
   -.764E+03 0.768E+03 0.120E+02   0.762E+03 -.766E+03 -.120E+02   0.114E+01 -.114E+01 -.650E-03   -.278E-02 -.283E-04 -.205E-02
   0.768E+03 -.763E+03 0.134E+02   -.766E+03 0.761E+03 -.134E+02   -.114E+01 0.115E+01 -.132E-01   0.322E-03 -.386E-02 -.443E-02
   0.893E+00 0.118E+01 0.107E+04   -.872E+00 -.116E+01 -.107E+04   -.107E-01 -.152E-01 -.163E+01   -.365E-02 -.259E-02 0.553E-02
   0.709E+02 0.942E+02 -.940E+03   -.698E+02 -.929E+02 0.940E+03   -.408E+00 -.508E+00 0.103E+00   0.840E-03 -.690E-03 -.124E-02
   0.983E+03 0.400E+03 -.406E+03   -.981E+03 -.398E+03 0.405E+03   -.183E+01 -.151E+01 0.206E+00   -.116E-02 -.277E-02 -.759E-02
   -.397E+03 -.994E+03 -.385E+03   0.394E+03 0.991E+03 0.384E+03   0.154E+01 0.182E+01 0.273E+00   0.346E-02 -.142E-02 -.277E-03
   -.325E+03 0.344E+03 -.419E+03   0.325E+03 -.345E+03 0.419E+03   -.331E+00 0.373E+00 -.515E+00   -.187E-02 -.228E-04 -.405E-02
   0.324E+03 -.321E+03 0.463E+03   -.325E+03 0.321E+03 -.464E+03   0.363E+00 -.362E+00 0.525E+00   0.843E-03 -.800E-02 -.115E-03
   0.336E+03 0.337E+03 -.428E+03   -.336E+03 -.338E+03 0.429E+03   0.271E+00 0.281E+00 -.656E+00   -.517E-03 -.215E-02 -.912E-02
   -.986E+03 0.407E+03 -.397E+03   0.983E+03 -.404E+03 0.396E+03   0.183E+01 -.154E+01 0.191E+00   0.159E-02 0.237E-02 -.265E-02
   0.407E+03 -.988E+03 -.393E+03   -.405E+03 0.985E+03 0.392E+03   -.156E+01 0.185E+01 0.190E+00   -.372E-03 0.494E-03 -.709E-04
   -.321E+03 -.321E+03 0.465E+03   0.322E+03 0.321E+03 -.465E+03   -.356E+00 -.357E+00 0.541E+00   -.542E-02 -.600E-02 0.183E-02
   0.647E+03 0.314E+01 0.140E+02   -.648E+03 -.314E+01 -.140E+02   0.724E+00 0.118E-02 -.347E-02   0.158E-02 -.714E-02 -.819E-02
   -.644E+03 0.460E+01 0.207E+02   0.645E+03 -.459E+01 -.206E+02   -.718E+00 -.724E-02 -.482E-01   -.215E-02 0.175E-02 -.339E-03
   0.891E+00 -.587E+03 0.969E+03   -.886E+00 0.586E+03 -.965E+03   -.148E-02 0.310E+00 -.235E+01   -.224E-02 -.520E-02 0.148E-02
   0.452E+02 -.664E+03 -.873E+03   -.451E+02 0.663E+03 0.870E+03   0.494E-01 0.671E-01 0.212E+01   0.168E-02 -.671E-03 -.900E-03
   0.388E+01 0.515E+01 0.232E+02   -.387E+01 -.515E+01 -.232E+02   -.973E-03 -.665E-03 -.122E-01   -.173E-02 -.192E-02 -.684E-02
   0.344E+03 -.322E+03 -.414E+03   -.345E+03 0.323E+03 0.415E+03   0.400E+00 -.350E+00 -.465E+00   0.181E-02 -.327E-02 -.438E-02
   -.328E+03 -.323E+03 -.391E+03   0.329E+03 0.324E+03 0.391E+03   -.421E+00 -.396E+00 -.258E+00   0.243E-02 -.102E-02 -.457E-02
   0.372E+01 -.644E+03 0.223E+02   -.371E+01 0.645E+03 -.222E+02   -.510E-02 -.722E+00 -.607E-01   0.815E-03 -.733E-02 -.237E-02
   -.315E+02 -.336E+02 -.243E+03   0.268E+02 0.278E+02 0.218E+03   0.317E+01 0.441E+01 0.200E+02   0.325E-03 -.703E-05 0.552E-03
   -.109E+03 -.142E+03 -.777E+03   0.119E+03 0.155E+03 0.839E+03   -.933E+01 -.126E+02 -.585E+02   0.379E-03 0.714E-04 0.673E-03
 -----------------------------------------------------------------------------------------------
   0.698E+01 0.918E+01 0.402E+02   0.767E-12 0.995E-12 0.000E+00   -.696E+01 -.911E+01 -.402E+02   -.317E-01 -.760E-01 -.526E-01
 
 
 POSITION                                       TOTAL-FORCE (eV/Angst)
 -----------------------------------------------------------------------------------
     13.37281      9.84801     12.50759         0.700202      1.108141      0.293787
     20.15199     16.62719     12.50759        -1.111365     -0.699927      0.290659
     16.62719      9.84801     12.50759        -0.700104      1.106385      0.289323
      9.84801     16.62719     12.50759         1.106468     -0.700158      0.289491
     15.00000     11.47521     10.20639         0.002535      0.404567      1.281140
     15.00000     11.47521     19.79360        -0.009602      0.401864     -1.299861
     15.00000      8.28283     15.00000         0.002852      1.512952      0.001570
      8.28283     15.00000     15.00000         1.512580      0.003829      0.001916
     21.71717     15.00000     15.00000        -1.508208      0.008151      0.010469
     15.00000     21.71717     15.00000         0.010921     -1.508399      0.015544
     18.35858     11.64142     10.25025        -0.751289      0.754845      1.073984
     18.35858     11.64142     19.74975        -0.752819      0.751518     -1.074021
     11.64142     18.35858     10.25025         0.755329     -0.751203      1.073769
     11.64142     18.35858     19.74975         0.745735     -0.749601     -1.074400
     11.64142     11.64142     10.25025         0.751574      0.752442      1.074160
     11.64142     11.64142     19.74975         0.754787      0.755340     -1.069665
     18.35858     18.35858     10.25025        -0.755131     -0.754274      1.072031
     18.35858     18.35858     19.74975        -0.741603     -0.749156     -1.051653
     13.37281      9.84801     17.49241         0.698318      1.111111     -0.290781
     20.15199     16.62719     17.49241        -1.087571     -0.704589     -0.311820
     16.73751     13.26249     12.54279         0.113205     -0.114183     -0.153253
      9.84801     13.37281     12.50759         1.109031      0.700120      0.294059
     16.62719     20.15199     12.50759        -0.700116     -1.112300      0.290289
     16.62719      9.84801     17.49241        -0.698431      1.107886     -0.291356
      9.84801     16.62719     17.49241         1.106057     -0.698950     -0.293254
     20.15199     13.37281     12.50759        -1.111414      0.698471      0.284706
     13.37281     20.15199     12.50759         0.698558     -1.112937      0.283658
     13.26249     13.26249     12.54279        -0.113511     -0.113374     -0.152001
     15.00000     11.52498     15.00000        -0.004745     -0.221311     -0.001347
     18.52479     15.00000     10.20639        -0.409379      0.001890      1.280266
     18.52479     15.00000     19.79360        -0.427462      0.009063     -1.267808
     11.47521     15.00000     10.20640         0.405692      0.002301      1.281084
     11.47521     15.00000     19.79360         0.387014     -0.013562     -1.303227
     11.49535     11.49535     15.00000         0.820461      0.818722     -0.013997
     18.50465     18.50465     15.00000        -0.832267     -0.833014      0.007536
     18.50465     11.49535     15.00000        -0.827516      0.822310     -0.005875
     11.49535     18.50465     15.00000         0.824252     -0.829651     -0.000883
     15.00000     15.00000     10.04368         0.006190      0.008498      1.183307
     15.00000     15.00000     19.95633         0.668214      0.844736     -0.002408
      9.84801     13.37281     17.49241         1.111594      0.700899     -0.288211
     16.62719     20.15199     17.49241        -0.704560     -1.078492     -0.321232
     16.73751     13.26249     17.45721         0.126271     -0.151398      0.131317
     13.26249     16.73751     12.54279        -0.114418      0.112793     -0.154931
     13.26249     13.26249     17.45721        -0.083945     -0.089224      0.191616
     20.15199     13.37281     17.49241        -1.108325      0.709447     -0.281135
     13.37281     20.15199     17.49241         0.708131     -1.102451     -0.284221
     16.73751     16.73751     12.54279         0.114476      0.113801     -0.154138
     11.52498     15.00000     15.00000        -0.222540     -0.006375     -0.003512
     18.47502     15.00000     15.00000         0.222559      0.001409     -0.002123
     15.00000     18.52480     10.20639         0.001664     -0.409917      1.280160
     15.00000     18.52480     19.79360         0.108623     -0.628419     -1.094175
     15.00000     15.00000     15.00000         0.003138      0.002923      0.003289
     13.26249     16.73751     17.45721        -0.161283      0.130263      0.121159
     16.73751     16.73751     17.45721         0.151511      0.139683      0.079308
     15.00000     18.47502     15.00000         0.002447      0.222787     -0.001934
     16.06869     16.42150     21.59914        -1.458939     -1.444602     -4.855167
     16.24507     16.65611     22.68829         0.666153      0.758320      3.618792
 -----------------------------------------------------------------------------------
    total drift:                               -0.003939     -0.001573      0.001637


--------------------------------------------------------------------------------------------------------



  FREE ENERGIE OF THE ION-ELECTRON SYSTEM (eV)
  ---------------------------------------------------
  free  energy   TOTEN  =      -174.28474608 eV

  energy  without entropy=     -174.23210561  energy(sigma->0) =     -174.27158596
 


--------------------------------------------------------------------------------------------------------


    POTLOK:  cpu time   10.7944: real time   10.7947


--------------------------------------------------------------------------------------------------------


     LOOP+:  cpu time17758.5431: real time17759.3357
    4ORBIT:  cpu time    0.0000: real time    0.0000

 total amount of memory used by VASP MPI-rank0  5486942. kBytes
=======================================================================

   base      :      30000. kBytes
   nonlr-proj:      17127. kBytes
   fftplans  :     924480. kBytes
   grid      :    1872000. kBytes
   one-center:        886. kBytes
   wavefun   :    2642449. kBytes
 
  
  
 General timing and accounting informations for this job:
 ========================================================
  
                  Total CPU time used (sec):    17829.111
                            User time (sec):    16835.544
                          System time (sec):      993.567
                         Elapsed time (sec):    17829.997
  
                   Maximum memory used (kb):     7178540.
                   Average memory used (kb):           0.
  
                          Minor page faults:    810732293
                          Major page faults:            0
                 Voluntary context switches:          635
