   57   57    1    1
  0.4736842E+03  0.3000000E-08  0.3000000E-08  0.3000000E-08  0.5000000E-15
  1.000000000000000E-004
  CAR 
 6_Pd100_top_free_z(O)                   
    560      1    336
 
  0.0000000E+00  0.0000000E+00  0.0000000E+00  0.1000000E+01
    1      -28.594393   1.000000
    2      -13.334149   1.000000
    3      -11.102812   1.000000
    4      -10.993398   1.000000
    5      -10.214959   1.000000
    6       -6.642114   1.000000
    7       -6.138753   1.000000
    8       -6.126503   1.000000
    9       -6.122634   1.000000
   10       -5.881706   1.000000
   11       -5.836993   1.000000
   12       -5.807995   1.000000
   13       -5.801152   1.000000
   14       -5.770706   1.000000
   15       -5.738836   1.000000
   16       -5.688072   1.000000
   17       -5.681337   1.000000
   18       -5.679542   1.000000
   19       -5.679024   1.000000
   20       -5.625337   1.000000
   21       -5.611526   1.000000
   22       -5.605020   1.000000
   23       -5.593490   1.000000
   24       -5.590324   1.000000
   25       -5.588015   1.000000
   26       -5.572227   1.000000
   27       -5.554190   1.000000
   28       -5.537699   1.000000
   29       -5.533321   1.000000
   30       -5.524453   1.000000
   31       -5.519264   1.000000
   32       -5.515063   1.000000
   33       -5.514846   1.000000
   34       -5.512447   1.000000
   35       -5.507696   1.000000
   36       -5.504131   1.000000
   37       -5.494655   1.000000
   38       -5.481199   1.000000
   39       -5.475025   1.000000
   40       -5.473858   1.000000
   41       -5.467946   1.000000
   42       -5.462755   1.000000
   43       -5.461833   1.000000
   44       -5.460755   1.000000
   45       -5.459496   1.000000
   46       -5.452611   1.000000
   47       -5.441576   1.000000
   48       -5.432519   1.000000
   49       -5.423493   1.000000
   50       -5.422968   1.000000
   51       -5.419969   1.000000
   52       -5.410144   1.000000
   53       -5.401778   1.000000
   54       -5.399486   1.000000
   55       -5.389739   1.000000
   56       -5.376285   1.000000
   57       -5.356483   1.000000
   58       -5.335294   1.000000
   59       -5.331273   1.000000
   60       -5.318620   1.000000
   61       -5.315268   1.000000
   62       -5.309566   1.000000
   63       -5.308598   1.000000
   64       -5.304896   1.000000
   65       -5.303941   1.000000
   66       -5.293809   1.000000
   67       -5.292010   1.000000
   68       -5.279181   1.000000
   69       -5.256003   1.000000
   70       -5.238134   1.000000
   71       -5.226167   1.000000
   72       -5.186248   1.000000
   73       -5.177774   1.000000
   74       -5.175317   1.000000
   75       -5.174395   1.000000
   76       -5.173816   1.000000
   77       -5.173679   1.000000
   78       -5.168992   1.000000
   79       -5.165934   1.000000
   80       -5.145505   1.000000
   81       -5.142696   1.000000
   82       -5.136936   1.000000
   83       -5.123972   1.000000
   84       -5.122226   1.000000
   85       -5.117292   1.000000
   86       -5.103030   1.000000
   87       -5.100606   1.000000
   88       -5.095410   1.000000
   89       -5.082627   1.000000
   90       -5.074191   1.000000
   91       -5.060759   1.000000
   92       -5.052756   1.000000
   93       -5.052333   1.000000
   94       -5.049505   1.000000
   95       -5.044563   1.000000
   96       -5.044407   1.000000
   97       -5.040927   1.000000
   98       -5.037655   1.000000
   99       -5.022804   1.000000
  100       -5.016160   1.000000
  101       -5.011739   1.000000
  102       -5.003082   1.000000
  103       -5.001047   1.000000
  104       -4.998538   1.000000
  105       -4.998256   1.000000
  106       -4.993019   1.000000
  107       -4.990430   1.000000
  108       -4.984718   1.000000
  109       -4.982601   1.000000
  110       -4.977712   1.000000
  111       -4.975231   1.000000
  112       -4.972693   1.000000
  113       -4.963407   1.000000
  114       -4.960845   1.000000
  115       -4.952371   0.999999
  116       -4.949076   0.999999
  117       -4.942970   0.999999
  118       -4.936194   0.999999
  119       -4.931280   0.999999
  120       -4.914549   0.999998
  121       -4.913578   0.999998
  122       -4.908181   0.999998
  123       -4.907370   0.999997
  124       -4.902478   0.999997
  125       -4.896313   0.999996
  126       -4.892995   0.999996
  127       -4.882320   0.999994
  128       -4.862890   0.999989
  129       -4.859576   0.999988
  130       -4.855636   0.999987
  131       -4.838727   0.999978
  132       -4.836390   0.999976
  133       -4.831526   0.999973
  134       -4.826066   0.999968
  135       -4.825843   0.999968
  136       -4.823597   0.999966
  137       -4.807791   0.999947
  138       -4.798666   0.999931
  139       -4.794193   0.999923
  140       -4.782877   0.999896
  141       -4.775278   0.999873
  142       -4.760946   0.999818
  143       -4.759975   0.999814
  144       -4.746773   0.999744
  145       -4.731710   0.999637
  146       -4.730169   0.999624
  147       -4.729436   0.999618
  148       -4.719175   0.999521
  149       -4.710859   0.999428
  150       -4.700051   0.999284
  151       -4.697184   0.999242
  152       -4.693067   0.999177
  153       -4.676474   0.998871
  154       -4.675234   0.998845
  155       -4.671042   0.998754
  156       -4.669530   0.998719
  157       -4.667186   0.998665
  158       -4.665730   0.998631
  159       -4.665467   0.998624
  160       -4.654557   0.998344
  161       -4.648877   0.998184
  162       -4.645749   0.998092
  163       -4.644271   0.998047
  164       -4.643876   0.998035
  165       -4.642215   0.997984
  166       -4.638819   0.997878
  167       -4.636496   0.997803
  168       -4.631016   0.997621
  169       -4.625950   0.997446
  170       -4.624413   0.997392
  171       -4.617841   0.997156
  172       -4.615378   0.997065
  173       -4.608989   0.996828
  174       -4.590695   0.996144
  175       -4.589040   0.996084
  176       -4.587641   0.996034
  177       -4.585670   0.995965
  178       -4.580502   0.995788
  179       -4.578776   0.995731
  180       -4.567552   0.995400
  181       -4.566923   0.995384
  182       -4.558511   0.995200
  183       -4.551664   0.995103
  184       -4.548972   0.995081
  185       -4.545127   0.995065
  186       -4.544811   0.995065
  187       -4.544194   0.995065
  188       -4.542082   0.995069
  189       -4.542017   0.995069
  190       -4.538357   0.995093
  191       -4.508409   0.996364
  192       -4.505204   0.996641
  193       -4.499600   0.997206
  194       -4.498872   0.997288
  195       -4.496363   0.997582
  196       -4.484383   0.999307
  197       -4.478916   1.000282
  198       -4.475661   1.000923
  199       -4.473686   1.001333
  200       -4.469873   1.002174
  201       -4.462490   1.003987
  202       -4.461286   1.004306
  203       -4.456989   1.005499
  204       -4.454853   1.006123
  205       -4.450900   1.007333
  206       -4.445508   1.009098
  207       -4.444492   1.009445
  208       -4.442009   1.010313
  209       -4.438237   1.011682
  210       -4.431997   1.014080
  211       -4.430278   1.014768
  212       -4.410981   1.023188
  213       -4.409640   1.023812
  214       -4.401622   1.027608
  215       -4.399237   1.028752
  216       -4.395105   1.030741
  217       -4.394982   1.030801
  218       -4.392878   1.031813
  219       -4.389768   1.033306
  220       -4.389179   1.033588
  221       -4.380588   1.037633
  222       -4.376671   1.039413
  223       -4.354549   1.047930
  224       -4.345997   1.050110
  225       -4.343994   1.050497
  226       -4.334285   1.051581
  227       -4.331802   1.051624
  228       -4.329548   1.051572
  229       -4.327628   1.051456
  230       -4.326207   1.051326
  231       -4.323563   1.050982
  232       -4.322616   1.050824
  233       -4.321056   1.050526
  234       -4.317223   1.049574
  235       -4.316435   1.049339
  236       -4.312962   1.048133
  237       -4.312191   1.047828
  238       -4.308411   1.046120
  239       -4.308276   1.046052
  240       -4.301867   1.042303
  241       -4.300724   1.041519
  242       -4.292776   1.035039
  243       -4.289232   1.031544
  244       -4.288268   1.030526
  245       -4.285953   1.027962
  246       -4.280361   1.021051
  247       -4.278115   1.017981
  248       -4.274833   1.013185
  249       -4.274576   1.012794
  250       -4.273515   1.011154
  251       -4.258805   0.984229
  252       -4.252626   0.970513
  253       -4.252070   0.969207
  254       -4.248272   0.959968
  255       -4.243740   0.948214
  256       -4.243045   0.946340
  257       -4.242521   0.944917
  258       -4.241089   0.940971
  259       -4.236098   0.926591
  260       -4.235781   0.925646
  261       -4.231737   0.913239
  262       -4.230000   0.907720
  263       -4.227255   0.898758
  264       -4.226790   0.897214
  265       -4.225263   0.892078
  266       -4.215108   0.855725
  267       -4.212879   0.847246
  268       -4.210359   0.837449
  269       -4.208989   0.832028
  270       -4.207839   0.827429
  271       -4.206212   0.820848
  272       -4.193521   0.766586
  273       -4.188368   0.743188
  274       -4.185625   0.730436
  275       -4.179758   0.702531
  276       -4.175168   0.680152
  277       -4.170498   0.656943
  278       -4.167496   0.641813
  279       -4.161384   0.610575
  280       -4.160338   0.605182
  281       -4.159956   0.603204
  282       -4.146485   0.532707
  283       -4.137657   0.486037
  284       -4.122684   0.407401
  285       -4.121640   0.401982
  286       -4.117450   0.380374
  287       -4.110788   0.346529
  288       -4.101097   0.298728
  289       -4.022197   0.016632
  290       -3.964468  -0.049242
  291       -3.897250  -0.036352
  292       -3.816631  -0.003606
  293       -3.812521  -0.002594
  294       -3.788846   0.001818
  295       -3.492725   0.000092
  296       -3.483792   0.000072
  297       -3.356309   0.000001
  298       -3.053924   0.000000
  299       -3.051000   0.000000
  300       -3.027444   0.000000
  301       -3.015843   0.000000
  302       -3.009455   0.000000
  303       -3.002765   0.000000
  304       -2.924943   0.000000
  305       -2.832901   0.000000
  306       -2.566168   0.000000
  307       -2.540004   0.000000
  308       -2.511454   0.000000
  309       -2.219162   0.000000
  310       -2.126090   0.000000
  311       -2.113226   0.000000
  312       -2.107456   0.000000
  313       -2.003013   0.000000
  314       -1.955899   0.000000
  315       -1.936279   0.000000
  316       -1.843017   0.000000
  317       -1.840698   0.000000
  318       -1.748115   0.000000
  319       -1.702134   0.000000
  320       -1.662031   0.000000
  321       -1.633628   0.000000
  322       -1.545160   0.000000
  323       -1.522818   0.000000
  324       -1.432511   0.000000
  325       -1.332385   0.000000
  326       -1.076782   0.000000
  327       -1.063147   0.000000
  328       -1.004139   0.000000
  329       -0.984781   0.000000
  330       -0.942551   0.000000
  331       -0.936003   0.000000
  332       -0.923597   0.000000
  333       -0.917087   0.000000
  334       -0.894796   0.000000
  335       -0.764180   0.000000
  336       -0.551660   0.000000
