 running on    1 total cores
 distrk:  each k-point on    1 cores,    1 groups
 distr:  one band on    1 cores,    1 groups
 using from now: INCAR     
 vasp.5.4.4.18Apr17-6-g9f103f2a35 (build Sep 03 2018 23:53:05) complex          
  
 POSCAR found type information on POSCAR  Pd C  O 
 POSCAR found :  3 types and      57 ions
 scaLAPACK will be used

 ----------------------------------------------------------------------------- 
|                                                                             |
|  ADVICE TO THIS USER RUNNING 'VASP/VAMP'   (HEAR YOUR MASTER'S VOICE ...):  |
|                                                                             |
|      You enforced a specific xc-type in the INCAR file,                     |
|      a different type was found on the POTCAR file                          |
|          I HOPE YOU KNOW, WHAT YOU ARE  DOING                               |
|                                                                             |
 ----------------------------------------------------------------------------- 

 LDA part: xc-table for Pade appr. of Perdew
 POSCAR, INCAR and KPOINTS ok, starting setup
 FFT: planning ...
 WAVECAR not read
 entering main loop
       N       E                     dE             d eps       ncg     rms          rms(c)
DAV:   1     0.438608087423E+04    0.43861E+04   -0.10052E+05   688   0.815E+02
DAV:   2     0.202883643812E+04   -0.23572E+04   -0.21170E+04  1208   0.105E+02
DAV:   3     0.239108099482E+03   -0.17897E+04   -0.16807E+04  1008   0.919E+01
DAV:   4    -0.132878707190E+03   -0.37199E+03   -0.31564E+03   824   0.438E+01
DAV:   5    -0.179482266954E+03   -0.46604E+02   -0.38207E+02  1048   0.147E+01    0.147E+01
RMM:   6    -0.180703260137E+03   -0.12210E+01   -0.60909E+01   725   0.925E+00    0.233E+01
RMM:   7    -0.182061655740E+03   -0.13584E+01   -0.20418E+01   852   0.485E+00    0.226E+01
RMM:   8    -0.183683157165E+03   -0.16215E+01   -0.62640E+00   790   0.328E+00    0.262E+01
RMM:   9    -0.181483374644E+03    0.21998E+01   -0.53328E+00   735   0.319E+00    0.221E+01
RMM:  10    -0.179894406599E+03    0.15890E+01   -0.32673E+00   735   0.267E+00    0.223E+01
RMM:  11    -0.178061538855E+03    0.18329E+01   -0.19955E+00   731   0.207E+00    0.167E+01
RMM:  12    -0.176945022735E+03    0.11165E+01   -0.14883E+00   717   0.180E+00    0.138E+01
RMM:  13    -0.176950170824E+03   -0.51481E-02   -0.99833E-01   727   0.147E+00    0.134E+01
RMM:  14    -0.177845664369E+03   -0.89549E+00   -0.12491E+00   721   0.164E+00    0.259E+01
RMM:  15    -0.176375283152E+03    0.14704E+01   -0.75771E-01   725   0.129E+00    0.122E+01
RMM:  16    -0.176051077657E+03    0.32421E+00   -0.85859E-01   709   0.139E+00    0.116E+01
RMM:  17    -0.175823256770E+03    0.22782E+00   -0.45069E-01   714   0.102E+00    0.110E+01
RMM:  18    -0.175960613713E+03   -0.13736E+00   -0.35374E-01   716   0.922E-01    0.129E+01
RMM:  19    -0.175725656399E+03    0.23496E+00   -0.46023E-01   710   0.104E+00    0.115E+01
RMM:  20    -0.175390428926E+03    0.33523E+00   -0.38088E-01   698   0.949E-01    0.657E+00
RMM:  21    -0.175366083994E+03    0.24345E-01   -0.25486E-01   703   0.786E-01    0.703E+00
RMM:  22    -0.175304292423E+03    0.61792E-01   -0.18987E-01   699   0.680E-01    0.692E+00
RMM:  23    -0.175241073903E+03    0.63219E-01   -0.17206E-01   698   0.652E-01    0.540E+00
RMM:  24    -0.175123193557E+03    0.11788E+00   -0.75941E-02   696   0.448E-01    0.397E+00
RMM:  25    -0.175091685795E+03    0.31508E-01   -0.51941E-02   697   0.348E-01    0.383E+00
RMM:  26    -0.175049282716E+03    0.42403E-01   -0.45386E-02   697   0.326E-01    0.261E+00
RMM:  27    -0.175034945390E+03    0.14337E-01   -0.28305E-02   696   0.267E-01    0.198E+00
RMM:  28    -0.175018794635E+03    0.16151E-01   -0.19890E-02   699   0.228E-01    0.184E+00
RMM:  29    -0.175005672042E+03    0.13123E-01   -0.10255E-02   699   0.174E-01    0.124E+00
RMM:  30    -0.175001458694E+03    0.42133E-02   -0.88994E-03   695   0.149E-01    0.106E+00
RMM:  31    -0.174997231795E+03    0.42269E-02   -0.73870E-03   697   0.135E-01    0.955E-01
RMM:  32    -0.174996290903E+03    0.94089E-03   -0.48949E-03   693   0.117E-01    0.958E-01
RMM:  33    -0.174994225118E+03    0.20658E-02   -0.36270E-03   694   0.100E-01    0.696E-01
RMM:  34    -0.174993851649E+03    0.37347E-03   -0.23480E-03   691   0.800E-02    0.534E-01
RMM:  35    -0.174994492624E+03   -0.64098E-03   -0.16875E-03   692   0.656E-02    0.410E-01
RMM:  36    -0.174996255406E+03   -0.17628E-02   -0.13637E-03   691   0.583E-02    0.428E-01
RMM:  37    -0.174998879178E+03   -0.26238E-02   -0.11485E-03   690   0.536E-02    0.360E-01
RMM:  38    -0.175000003746E+03   -0.11246E-02   -0.55341E-04   601   0.379E-02    0.222E-01
RMM:  39    -0.175002099705E+03   -0.20960E-02   -0.43579E-04   521   0.317E-02    0.268E-01
RMM:  40    -0.175004688132E+03   -0.25884E-02   -0.44129E-04   510   0.325E-02    0.155E-01
RMM:  41    -0.175006368952E+03   -0.16808E-02   -0.25981E-04   422   0.257E-02    0.181E-01
RMM:  42    -0.175009697204E+03   -0.33283E-02   -0.47993E-04   534   0.297E-02    0.180E-01
RMM:  43    -0.175012360378E+03   -0.26632E-02   -0.45739E-04   508   0.280E-02    0.135E-01
RMM:  44    -0.175013492416E+03   -0.11320E-02   -0.20315E-04   426   0.195E-02    0.120E-01
RMM:  45    -0.175015470920E+03   -0.19785E-02   -0.28029E-04   441   0.200E-02    0.887E-02
RMM:  46    -0.175016118786E+03   -0.64787E-03   -0.11660E-04   415   0.143E-02    0.600E-02
RMM:  47    -0.175017132725E+03   -0.10139E-02   -0.92344E-05   410   0.118E-02    0.596E-02
RMM:  48    -0.175017902905E+03   -0.77018E-03   -0.66801E-05   409   0.998E-03    0.413E-02
RMM:  49    -0.175018462316E+03   -0.55941E-03   -0.40057E-05   407   0.777E-03    0.491E-02
RMM:  50    -0.175019396737E+03   -0.93442E-03   -0.38183E-05   402   0.728E-03    0.301E-02
RMM:  51    -0.175019732261E+03   -0.33552E-03   -0.17494E-05   301   0.534E-03    0.269E-02
RMM:  52    -0.175020209748E+03   -0.47749E-03   -0.13787E-05   293   0.486E-03    0.234E-02
RMM:  53    -0.175020426927E+03   -0.21718E-03   -0.40025E-06   158   0.400E-03    0.148E-02
RMM:  54    -0.175020745851E+03   -0.31892E-03   -0.93973E-06   250   0.440E-03    0.181E-02
RMM:  55    -0.175021125152E+03   -0.37930E-03   -0.89758E-06   205   0.427E-03    0.138E-02
RMM:  56    -0.175021213547E+03   -0.88395E-04   -0.54917E-06   173   0.391E-03
   1 F= -.17502121E+03 E0= -.17501009E+03  d E =-.444946E-01
================================= SLURM INFO ===================================
Command: run-cluster -n 1 -m 10000 -j 0164_vasp --same-node /opt/VASP/vasp
Exit code: 0
Job name: 0164_vasp
Job time: 0 days 4h:49m:44s
MPI task count: 1
Working dir: /home/pashkov/pyFitIt/pyfitit/data/random_pd_co_new/sample/0164
Job was running on nodes: h3
Task per node: 1
       JobID     MaxRSS  MaxDiskRead MaxDiskWrite    Elapsed    JobName 
------------ ---------- ------------ ------------ ---------- ---------- 
105618                                              04:49:44  0164_vasp 
105618.batch                                        04:49:44      batch 
