  57  57   0   0
  0.4736842E+03  0.3000000E-08  0.3000000E-08  0.3000000E-08  0.5000000E-15
  1.000000000000000E-004
  CAR 
 6_Pd100_top_free_z(O)                   
      1.37254373    -30.87179675  301     -4.14491555      1.00000000
    -30.872  0.0000E+00  0.0000E+00
    -30.764  0.0000E+00  0.0000E+00
    -30.657  0.0000E+00  0.0000E+00
    -30.549  0.4103E-27  0.4410E-28
    -30.442  0.2058E-23  0.2212E-24
    -30.334  0.5701E-20  0.6129E-21
    -30.227  0.8699E-17  0.9356E-18
    -30.119  0.7284E-14  0.7838E-15
    -30.012  0.3337E-11  0.3595E-12
    -29.904  0.8279E-09  0.8935E-10
    -29.797  0.1103E-06  0.1194E-07
    -29.690  0.7756E-05  0.8456E-06
    -29.582  0.2802E-03  0.3096E-04
    -29.475  0.4918E-02  0.5596E-03
    -29.367  0.3624E-01  0.4455E-02
    -29.260  0.4611E-01  0.9411E-02
    -29.152 -0.4382E+00 -0.3769E-01
    -29.045 -0.5461E+00 -0.9639E-01
    -28.937  0.4274E+01  0.3630E+00
    -28.830  0.9934E+01  0.1431E+01
    -28.722  0.5896E+01  0.2065E+01
    -28.615 -0.4870E-01  0.2059E+01
    -28.507 -0.6134E+00  0.1993E+01
    -28.400  0.5258E-02  0.1994E+01
    -28.292  0.4790E-01  0.1999E+01
    -28.185  0.8216E-02  0.2000E+01
    -28.077  0.5544E-03  0.2000E+01
    -27.970  0.1782E-04  0.2000E+01
    -27.862  0.2917E-06  0.2000E+01
    -27.755  0.2509E-08  0.2000E+01
    -27.647  0.1156E-10  0.2000E+01
    -27.540  0.2892E-13  0.2000E+01
    -27.432  0.0000E+00  0.2000E+01
    -27.325  0.0000E+00  0.2000E+01
    -27.217  0.0000E+00  0.2000E+01
    -27.110  0.0000E+00  0.2000E+01
    -27.002  0.0000E+00  0.2000E+01
    -26.895  0.0000E+00  0.2000E+01
    -26.788  0.0000E+00  0.2000E+01
    -26.680  0.0000E+00  0.2000E+01
    -26.573  0.0000E+00  0.2000E+01
    -26.465  0.0000E+00  0.2000E+01
    -26.358  0.0000E+00  0.2000E+01
    -26.250  0.0000E+00  0.2000E+01
    -26.143  0.0000E+00  0.2000E+01
    -26.035  0.0000E+00  0.2000E+01
    -25.928  0.0000E+00  0.2000E+01
    -25.820  0.0000E+00  0.2000E+01
    -25.713  0.0000E+00  0.2000E+01
    -25.605  0.0000E+00  0.2000E+01
    -25.498  0.0000E+00  0.2000E+01
    -25.390  0.0000E+00  0.2000E+01
    -25.283  0.0000E+00  0.2000E+01
    -25.175  0.0000E+00  0.2000E+01
    -25.068  0.0000E+00  0.2000E+01
    -24.960  0.0000E+00  0.2000E+01
    -24.853  0.0000E+00  0.2000E+01
    -24.745  0.0000E+00  0.2000E+01
    -24.638  0.0000E+00  0.2000E+01
    -24.530  0.0000E+00  0.2000E+01
    -24.423  0.0000E+00  0.2000E+01
    -24.315  0.0000E+00  0.2000E+01
    -24.208  0.0000E+00  0.2000E+01
    -24.100  0.0000E+00  0.2000E+01
    -23.993  0.0000E+00  0.2000E+01
    -23.886  0.0000E+00  0.2000E+01
    -23.778  0.0000E+00  0.2000E+01
    -23.671  0.0000E+00  0.2000E+01
    -23.563  0.0000E+00  0.2000E+01
    -23.456  0.0000E+00  0.2000E+01
    -23.348  0.0000E+00  0.2000E+01
    -23.241  0.0000E+00  0.2000E+01
    -23.133  0.0000E+00  0.2000E+01
    -23.026  0.0000E+00  0.2000E+01
    -22.918  0.0000E+00  0.2000E+01
    -22.811  0.0000E+00  0.2000E+01
    -22.703  0.0000E+00  0.2000E+01
    -22.596  0.0000E+00  0.2000E+01
    -22.488  0.0000E+00  0.2000E+01
    -22.381  0.0000E+00  0.2000E+01
    -22.273  0.0000E+00  0.2000E+01
    -22.166  0.0000E+00  0.2000E+01
    -22.058  0.0000E+00  0.2000E+01
    -21.951  0.0000E+00  0.2000E+01
    -21.843  0.0000E+00  0.2000E+01
    -21.736  0.0000E+00  0.2000E+01
    -21.628  0.0000E+00  0.2000E+01
    -21.521  0.0000E+00  0.2000E+01
    -21.413  0.0000E+00  0.2000E+01
    -21.306  0.0000E+00  0.2000E+01
    -21.198  0.0000E+00  0.2000E+01
    -21.091  0.0000E+00  0.2000E+01
    -20.984  0.0000E+00  0.2000E+01
    -20.876  0.0000E+00  0.2000E+01
    -20.769  0.0000E+00  0.2000E+01
    -20.661  0.0000E+00  0.2000E+01
    -20.554  0.0000E+00  0.2000E+01
    -20.446  0.0000E+00  0.2000E+01
    -20.339  0.0000E+00  0.2000E+01
    -20.231  0.0000E+00  0.2000E+01
    -20.124  0.0000E+00  0.2000E+01
    -20.016  0.0000E+00  0.2000E+01
    -19.909  0.0000E+00  0.2000E+01
    -19.801  0.0000E+00  0.2000E+01
    -19.694  0.0000E+00  0.2000E+01
    -19.586  0.0000E+00  0.2000E+01
    -19.479  0.0000E+00  0.2000E+01
    -19.371  0.0000E+00  0.2000E+01
    -19.264  0.0000E+00  0.2000E+01
    -19.156  0.0000E+00  0.2000E+01
    -19.049  0.0000E+00  0.2000E+01
    -18.941  0.0000E+00  0.2000E+01
    -18.834  0.0000E+00  0.2000E+01
    -18.726  0.0000E+00  0.2000E+01
    -18.619  0.0000E+00  0.2000E+01
    -18.511  0.0000E+00  0.2000E+01
    -18.404  0.0000E+00  0.2000E+01
    -18.297  0.0000E+00  0.2000E+01
    -18.189  0.0000E+00  0.2000E+01
    -18.082  0.0000E+00  0.2000E+01
    -17.974  0.0000E+00  0.2000E+01
    -17.867  0.0000E+00  0.2000E+01
    -17.759  0.0000E+00  0.2000E+01
    -17.652  0.0000E+00  0.2000E+01
    -17.544  0.0000E+00  0.2000E+01
    -17.437  0.0000E+00  0.2000E+01
    -17.329  0.0000E+00  0.2000E+01
    -17.222  0.0000E+00  0.2000E+01
    -17.114  0.0000E+00  0.2000E+01
    -17.007  0.0000E+00  0.2000E+01
    -16.899  0.0000E+00  0.2000E+01
    -16.792  0.0000E+00  0.2000E+01
    -16.684  0.0000E+00  0.2000E+01
    -16.577  0.0000E+00  0.2000E+01
    -16.469  0.0000E+00  0.2000E+01
    -16.362  0.0000E+00  0.2000E+01
    -16.254  0.0000E+00  0.2000E+01
    -16.147  0.0000E+00  0.2000E+01
    -16.039  0.0000E+00  0.2000E+01
    -15.932  0.0000E+00  0.2000E+01
    -15.824  0.0000E+00  0.2000E+01
    -15.717  0.0000E+00  0.2000E+01
    -15.609  0.0000E+00  0.2000E+01
    -15.502  0.0000E+00  0.2000E+01
    -15.395  0.0000E+00  0.2000E+01
    -15.287  0.0000E+00  0.2000E+01
    -15.180  0.6874E-28  0.2000E+01
    -15.072  0.3884E-24  0.2000E+01
    -14.965  0.1213E-20  0.2000E+01
    -14.857  0.2087E-17  0.2000E+01
    -14.750  0.1973E-14  0.2000E+01
    -14.642  0.1021E-11  0.2000E+01
    -14.535  0.2868E-09  0.2000E+01
    -14.427  0.4334E-07  0.2000E+01
    -14.320  0.3472E-05  0.2000E+01
    -14.212  0.1439E-03  0.2000E+01
    -14.105  0.2941E-02  0.2000E+01
    -13.997  0.2640E-01  0.2003E+01
    -13.890  0.6195E-01  0.2010E+01
    -13.782 -0.2819E+00  0.1980E+01
    -13.675 -0.7690E+00  0.1897E+01
    -13.567  0.2842E+01  0.2202E+01
    -13.460  0.9423E+01  0.3215E+01
    -13.352  0.7348E+01  0.4005E+01
    -13.245  0.6946E+00  0.4080E+01
    -13.137 -0.7502E+00  0.3999E+01
    -13.030 -0.6240E-01  0.3992E+01
    -12.922  0.5790E-01  0.3999E+01
    -12.815  0.1277E-01  0.4000E+01
    -12.707  0.1016E-02  0.4000E+01
    -12.600  0.3763E-04  0.4000E+01
    -12.493  0.7033E-06  0.4000E+01
    -12.385  0.6910E-08  0.4000E+01
    -12.278  0.6832E-08  0.4000E+01
    -12.170  0.7133E-06  0.4000E+01
    -12.063  0.3955E-04  0.4000E+01
    -11.955  0.1124E-02  0.4000E+01
    -11.848  0.1536E-01  0.4002E+01
    -11.740  0.8343E-01  0.4011E+01
    -11.633  0.4263E-02  0.4011E+01
    -11.525 -0.1020E+01  0.3902E+01
    -11.418 -0.1262E+00  0.3888E+01
    -11.310  0.1006E+02  0.4969E+01
    -11.203  0.1885E+02  0.6995E+01
    -11.095  0.1032E+02  0.8105E+01
    -10.988 -0.2693E-01  0.8102E+01
    -10.880 -0.1045E+01  0.7989E+01
    -10.773 -0.4736E-02  0.7989E+01
    -10.665  0.8517E-01  0.7998E+01
    -10.558  0.1604E-01  0.8000E+01
    -10.450  0.1204E-02  0.8000E+01
    -10.343  0.4378E-03  0.8000E+01
    -10.235  0.6383E-02  0.8001E+01
    -10.128  0.4200E-01  0.8005E+01
    -10.020  0.2939E-01  0.8008E+01
     -9.913 -0.5264E+00  0.7952E+01
     -9.805 -0.3351E+00  0.7916E+01
     -9.698  0.5080E+01  0.8462E+01
     -9.591  0.1001E+02  0.9537E+01
     -9.483  0.5087E+01  0.1008E+02
     -9.376 -0.3331E+00  0.1005E+02
     -9.268 -0.5272E+00  0.9992E+01
     -9.161  0.2923E-01  0.9995E+01
     -9.053  0.4205E-01  0.9999E+01
     -8.946  0.6395E-02  0.1000E+02
     -8.838  0.3964E-03  0.1000E+02
     -8.731  0.1182E-04  0.1000E+02
     -8.623  0.1804E-06  0.1000E+02
     -8.516  0.1450E-08  0.1000E+02
     -8.408  0.6247E-11  0.1000E+02
     -8.301  0.1446E-13  0.1000E+02
     -8.193  0.9267E-23  0.1000E+02
     -8.086  0.2301E-19  0.1000E+02
     -7.978  0.3144E-16  0.1000E+02
     -7.871  0.2356E-13  0.1000E+02
     -7.763  0.9651E-11  0.1000E+02
     -7.656  0.2137E-08  0.1000E+02
     -7.548  0.2534E-06  0.1000E+02
     -7.441  0.1581E-04  0.1000E+02
     -7.333  0.5027E-03  0.1000E+02
     -7.226  0.7640E-02  0.1000E+02
     -7.118  0.4618E-01  0.1001E+02
     -7.011  0.1312E-01  0.1001E+02
     -6.904 -0.5884E+00  0.9944E+01
     -6.796 -0.1378E+00  0.9929E+01
     -6.689  0.5692E+01  0.1054E+02
     -6.581  0.1013E+02  0.1163E+02
     -6.474  0.4406E+01  0.1210E+02
     -6.366 -0.2569E+01  0.1183E+02
     -6.259  0.1017E+01  0.1194E+02
     -6.151  0.2083E+02  0.1418E+02
     -6.044  0.2711E+02  0.1709E+02
     -5.936  0.9561E+01  0.1812E+02
     -5.829  0.1728E+02  0.1998E+02
     -5.721  0.5585E+02  0.2598E+02
     -5.614  0.1310E+03  0.4005E+02
     -5.506  0.2526E+03  0.6720E+02
     -5.399  0.3057E+03  0.1001E+03
     -5.291  0.2425E+03  0.1261E+03
     -5.184  0.2114E+03  0.1489E+03
     -5.076  0.2827E+03  0.1792E+03
     -4.969  0.3599E+03  0.2179E+03
     -4.861  0.3418E+03  0.2547E+03
     -4.754  0.3055E+03  0.2875E+03
     -4.646  0.3638E+03  0.3266E+03
     -4.539  0.4152E+03  0.3712E+03
     -4.431  0.4146E+03  0.4158E+03
     -4.324  0.4940E+03  0.4689E+03
     -4.216  0.5616E+03  0.5292E+03
     -4.109  0.3787E+03  0.5700E+03
     -4.002  0.1031E+03  0.5810E+03
     -3.894  0.7222E+01  0.5818E+03
     -3.787  0.2689E+02  0.5847E+03
     -3.679  0.2455E+02  0.5873E+03
     -3.572  0.1280E+02  0.5887E+03
     -3.464  0.2541E+02  0.5914E+03
     -3.357  0.2221E+02  0.5938E+03
     -3.249 -0.7963E+00  0.5937E+03
     -3.142  0.5125E+01  0.5943E+03
     -3.034  0.4776E+02  0.5994E+03
     -2.927  0.6442E+02  0.6064E+03
     -2.819  0.3152E+02  0.6097E+03
     -2.712  0.2043E+01  0.6100E+03
     -2.604  0.5392E+01  0.6105E+03
     -2.497  0.2642E+02  0.6134E+03
     -2.389  0.2750E+02  0.6163E+03
     -2.282  0.1298E+02  0.6177E+03
     -2.174  0.1691E+02  0.6195E+03
     -2.067  0.3460E+02  0.6233E+03
     -1.959  0.4288E+02  0.6279E+03
     -1.852  0.4269E+02  0.6325E+03
     -1.744  0.3648E+02  0.6364E+03
     -1.637  0.3357E+02  0.6400E+03
     -1.529  0.3229E+02  0.6435E+03
     -1.422  0.2249E+02  0.6459E+03
     -1.314  0.2618E+02  0.6487E+03
     -1.207  0.3790E+02  0.6528E+03
     -1.100  0.2622E+02  0.6556E+03
     -0.992  0.3008E+02  0.6588E+03
     -0.885  0.5501E+02  0.6647E+03
     -0.777  0.4178E+02  0.6692E+03
     -0.670  0.1522E+02  0.6709E+03
     -0.562  0.7889E+01  0.6717E+03
     -0.455  0.3351E+01  0.6721E+03
     -0.347 -0.3882E+00  0.6720E+03
     -0.240 -0.3202E+00  0.6720E+03
     -0.132  0.6633E-01  0.6720E+03
     -0.025  0.3777E-01  0.6720E+03
      0.083  0.4975E-02  0.6720E+03
      0.190  0.2813E-03  0.6720E+03
      0.298  0.7767E-05  0.6720E+03
      0.405  0.1103E-06  0.6720E+03
      0.513  0.8281E-09  0.6720E+03
      0.620  0.3336E-11  0.6720E+03
      0.728  0.8264E-14  0.6720E+03
      0.835  0.0000E+00  0.6720E+03
      0.943  0.0000E+00  0.6720E+03
      1.050  0.0000E+00  0.6720E+03
      1.158  0.0000E+00  0.6720E+03
      1.265  0.0000E+00  0.6720E+03
      1.373  0.0000E+00  0.6720E+03
