  57  57   0   0
  0.4736842E+03  0.3000000E-08  0.3000000E-08  0.3000000E-08  0.5000000E-15
  1.000000000000000E-004
  CAR 
 6_Pd100_top_free_z(O)                   
      1.47780438    -31.24599284  301     -4.12791613      1.00000000
    -31.246  0.0000E+00  0.0000E+00
    -31.137  0.0000E+00  0.0000E+00
    -31.028  0.0000E+00  0.0000E+00
    -30.919  0.5987E-27  0.6531E-28
    -30.810  0.3303E-23  0.3604E-24
    -30.701  0.9889E-20  0.1079E-20
    -30.592  0.1601E-16  0.1748E-17
    -30.482  0.1397E-13  0.1526E-14
    -30.373  0.6545E-11  0.7154E-12
    -30.264  0.1629E-08  0.1784E-09
    -30.155  0.2132E-06  0.2343E-07
    -30.046  0.1441E-04  0.1595E-05
    -29.937  0.4874E-03  0.5476E-04
    -29.828  0.7712E-02  0.8960E-03
    -29.719  0.4708E-01  0.6031E-02
    -29.610  0.4408E-02  0.6512E-02
    -29.501 -0.6240E+00 -0.6156E-01
    -29.392  0.5174E-01 -0.5591E-01
    -29.283  0.6224E+01  0.6230E+00
    -29.173  0.9818E+01  0.1694E+01
    -29.064  0.3736E+01  0.2101E+01
    -28.955 -0.6637E+00  0.2029E+01
    -28.846 -0.3559E+00  0.1990E+01
    -28.737  0.5706E-01  0.1996E+01
    -28.628  0.2959E-01  0.2000E+01
    -28.519  0.3401E-02  0.2000E+01
    -28.410  0.1654E-03  0.2000E+01
    -28.301  0.3874E-05  0.2000E+01
    -28.192  0.4598E-07  0.2000E+01
    -28.083  0.2838E-09  0.2000E+01
    -27.974  0.9262E-12  0.2000E+01
    -27.865  0.2036E-14  0.2000E+01
    -27.755  0.0000E+00  0.2000E+01
    -27.646  0.0000E+00  0.2000E+01
    -27.537  0.0000E+00  0.2000E+01
    -27.428  0.0000E+00  0.2000E+01
    -27.319  0.0000E+00  0.2000E+01
    -27.210  0.0000E+00  0.2000E+01
    -27.101  0.0000E+00  0.2000E+01
    -26.992  0.0000E+00  0.2000E+01
    -26.883  0.0000E+00  0.2000E+01
    -26.774  0.0000E+00  0.2000E+01
    -26.665  0.0000E+00  0.2000E+01
    -26.556  0.0000E+00  0.2000E+01
    -26.447  0.0000E+00  0.2000E+01
    -26.337  0.0000E+00  0.2000E+01
    -26.228  0.0000E+00  0.2000E+01
    -26.119  0.0000E+00  0.2000E+01
    -26.010  0.0000E+00  0.2000E+01
    -25.901  0.0000E+00  0.2000E+01
    -25.792  0.0000E+00  0.2000E+01
    -25.683  0.0000E+00  0.2000E+01
    -25.574  0.0000E+00  0.2000E+01
    -25.465  0.0000E+00  0.2000E+01
    -25.356  0.0000E+00  0.2000E+01
    -25.247  0.0000E+00  0.2000E+01
    -25.138  0.0000E+00  0.2000E+01
    -25.028  0.0000E+00  0.2000E+01
    -24.919  0.0000E+00  0.2000E+01
    -24.810  0.0000E+00  0.2000E+01
    -24.701  0.0000E+00  0.2000E+01
    -24.592  0.0000E+00  0.2000E+01
    -24.483  0.0000E+00  0.2000E+01
    -24.374  0.0000E+00  0.2000E+01
    -24.265  0.0000E+00  0.2000E+01
    -24.156  0.0000E+00  0.2000E+01
    -24.047  0.0000E+00  0.2000E+01
    -23.938  0.0000E+00  0.2000E+01
    -23.829  0.0000E+00  0.2000E+01
    -23.720  0.0000E+00  0.2000E+01
    -23.610  0.0000E+00  0.2000E+01
    -23.501  0.0000E+00  0.2000E+01
    -23.392  0.0000E+00  0.2000E+01
    -23.283  0.0000E+00  0.2000E+01
    -23.174  0.0000E+00  0.2000E+01
    -23.065  0.0000E+00  0.2000E+01
    -22.956  0.0000E+00  0.2000E+01
    -22.847  0.0000E+00  0.2000E+01
    -22.738  0.0000E+00  0.2000E+01
    -22.629  0.0000E+00  0.2000E+01
    -22.520  0.0000E+00  0.2000E+01
    -22.411  0.0000E+00  0.2000E+01
    -22.301  0.0000E+00  0.2000E+01
    -22.192  0.0000E+00  0.2000E+01
    -22.083  0.0000E+00  0.2000E+01
    -21.974  0.0000E+00  0.2000E+01
    -21.865  0.0000E+00  0.2000E+01
    -21.756  0.0000E+00  0.2000E+01
    -21.647  0.0000E+00  0.2000E+01
    -21.538  0.0000E+00  0.2000E+01
    -21.429  0.0000E+00  0.2000E+01
    -21.320  0.0000E+00  0.2000E+01
    -21.211  0.0000E+00  0.2000E+01
    -21.102  0.0000E+00  0.2000E+01
    -20.993  0.0000E+00  0.2000E+01
    -20.883  0.0000E+00  0.2000E+01
    -20.774  0.0000E+00  0.2000E+01
    -20.665  0.0000E+00  0.2000E+01
    -20.556  0.0000E+00  0.2000E+01
    -20.447  0.0000E+00  0.2000E+01
    -20.338  0.0000E+00  0.2000E+01
    -20.229  0.0000E+00  0.2000E+01
    -20.120  0.0000E+00  0.2000E+01
    -20.011  0.0000E+00  0.2000E+01
    -19.902  0.0000E+00  0.2000E+01
    -19.793  0.0000E+00  0.2000E+01
    -19.684  0.0000E+00  0.2000E+01
    -19.575  0.0000E+00  0.2000E+01
    -19.465  0.0000E+00  0.2000E+01
    -19.356  0.0000E+00  0.2000E+01
    -19.247  0.0000E+00  0.2000E+01
    -19.138  0.0000E+00  0.2000E+01
    -19.029  0.0000E+00  0.2000E+01
    -18.920  0.0000E+00  0.2000E+01
    -18.811  0.0000E+00  0.2000E+01
    -18.702  0.0000E+00  0.2000E+01
    -18.593  0.0000E+00  0.2000E+01
    -18.484  0.0000E+00  0.2000E+01
    -18.375  0.0000E+00  0.2000E+01
    -18.266  0.0000E+00  0.2000E+01
    -18.156  0.0000E+00  0.2000E+01
    -18.047  0.0000E+00  0.2000E+01
    -17.938  0.0000E+00  0.2000E+01
    -17.829  0.0000E+00  0.2000E+01
    -17.720  0.0000E+00  0.2000E+01
    -17.611  0.0000E+00  0.2000E+01
    -17.502  0.0000E+00  0.2000E+01
    -17.393  0.0000E+00  0.2000E+01
    -17.284  0.0000E+00  0.2000E+01
    -17.175  0.0000E+00  0.2000E+01
    -17.066  0.0000E+00  0.2000E+01
    -16.957  0.0000E+00  0.2000E+01
    -16.848  0.0000E+00  0.2000E+01
    -16.738  0.0000E+00  0.2000E+01
    -16.629  0.0000E+00  0.2000E+01
    -16.520  0.0000E+00  0.2000E+01
    -16.411  0.0000E+00  0.2000E+01
    -16.302  0.0000E+00  0.2000E+01
    -16.193  0.0000E+00  0.2000E+01
    -16.084  0.0000E+00  0.2000E+01
    -15.975  0.0000E+00  0.2000E+01
    -15.866  0.0000E+00  0.2000E+01
    -15.757  0.0000E+00  0.2000E+01
    -15.648  0.0000E+00  0.2000E+01
    -15.539  0.0000E+00  0.2000E+01
    -15.429  0.1584E-26  0.2000E+01
    -15.320  0.8173E-23  0.2000E+01
    -15.211  0.2288E-19  0.2000E+01
    -15.102  0.3463E-16  0.2000E+01
    -14.993  0.2823E-13  0.2000E+01
    -14.884  0.1235E-10  0.2000E+01
    -14.775  0.2866E-08  0.2000E+01
    -14.666  0.3493E-06  0.2000E+01
    -14.557  0.2193E-04  0.2000E+01
    -14.448  0.6855E-03  0.2000E+01
    -14.339  0.9907E-02  0.2001E+01
    -14.230  0.5289E-01  0.2007E+01
    -14.121 -0.2910E-01  0.2004E+01
    -14.011 -0.7031E+00  0.1927E+01
    -13.902  0.4501E+00  0.1976E+01
    -13.793  0.7025E+01  0.2742E+01
    -13.684  0.9517E+01  0.3781E+01
    -13.575  0.2957E+01  0.4103E+01
    -13.466 -0.7627E+00  0.4020E+01
    -13.357 -0.2730E+00  0.3990E+01
    -13.248  0.6250E-01  0.3997E+01
    -13.139  0.2456E-01  0.4000E+01
    -13.030  0.2538E-02  0.4000E+01
    -12.921  0.1135E-03  0.4000E+01
    -12.812  0.2464E-05  0.4000E+01
    -12.703  0.2720E-07  0.4000E+01
    -12.593  0.1467E-08  0.4000E+01
    -12.484  0.1913E-06  0.4000E+01
    -12.375  0.1450E-04  0.4000E+01
    -12.266  0.5539E-03  0.4000E+01
    -12.157  0.1007E-01  0.4001E+01
    -12.048  0.7471E-01  0.4009E+01
    -11.939  0.8039E-01  0.4018E+01
    -11.830 -0.9583E+00  0.3914E+01
    -11.721 -0.8284E+00  0.3823E+01
    -11.612  0.9739E+01  0.4886E+01
    -11.503  0.1995E+02  0.7062E+01
    -11.394  0.1015E+02  0.8170E+01
    -11.284 -0.7118E+00  0.8092E+01
    -11.175 -0.1003E+01  0.7982E+01
    -11.066  0.7191E-01  0.7990E+01
    -10.957  0.7762E-01  0.7999E+01
    -10.848  0.1077E-01  0.8000E+01
    -10.739  0.6053E-03  0.8000E+01
    -10.630  0.1615E-04  0.8000E+01
    -10.521  0.2170E-06  0.8000E+01
    -10.412  0.1912E-08  0.8000E+01
    -10.303  0.6212E-07  0.8000E+01
    -10.194  0.5018E-05  0.8000E+01
    -10.085  0.2050E-03  0.8000E+01
     -9.976  0.4011E-02  0.8000E+01
     -9.866  0.3274E-01  0.8004E+01
     -9.757  0.5160E-01  0.8010E+01
     -9.648 -0.4068E+00  0.7965E+01
     -9.539 -0.5777E+00  0.7902E+01
     -9.430  0.4205E+01  0.8361E+01
     -9.321  0.9925E+01  0.9444E+01
     -9.212  0.5745E+01  0.1007E+02
     -9.103 -0.1406E+00  0.1005E+02
     -8.994 -0.5738E+00  0.9992E+01
     -8.885  0.1975E-01  0.9994E+01
     -8.776  0.4359E-01  0.9999E+01
     -8.667  0.6636E-02  0.1000E+02
     -8.557  0.3983E-03  0.1000E+02
     -8.448  0.1126E-04  0.1000E+02
     -8.339  0.1595E-06  0.1000E+02
     -8.230  0.1170E-08  0.1000E+02
     -8.121  0.4513E-11  0.1000E+02
     -8.012  0.1018E-13  0.1000E+02
     -7.903  0.1151E-14  0.1000E+02
     -7.794  0.6831E-12  0.1000E+02
     -7.685  0.2163E-09  0.1000E+02
     -7.576  0.3619E-07  0.1000E+02
     -7.467  0.3153E-05  0.1000E+02
     -7.358  0.1394E-03  0.1000E+02
     -7.249  0.2979E-02  0.1000E+02
     -7.139  0.2722E-01  0.1000E+02
     -7.030  0.6012E-01  0.1001E+02
     -6.921 -0.3171E+00  0.9975E+01
     -6.812 -0.7155E+00  0.9897E+01
     -6.703  0.3390E+01  0.1027E+02
     -6.594  0.9813E+01  0.1134E+02
     -6.485  0.6709E+01  0.1207E+02
     -6.376 -0.1237E+01  0.1193E+02
     -6.267 -0.1611E+01  0.1176E+02
     -6.158  0.1537E+02  0.1343E+02
     -6.049  0.2879E+02  0.1658E+02
     -5.940  0.1291E+02  0.1798E+02
     -5.831  0.1221E+02  0.1932E+02
     -5.721  0.4548E+02  0.2428E+02
     -5.612  0.1094E+03  0.3621E+02
     -5.503  0.2312E+03  0.6143E+02
     -5.394  0.3108E+03  0.9533E+02
     -5.285  0.2537E+03  0.1230E+03
     -5.176  0.2055E+03  0.1454E+03
     -5.067  0.2743E+03  0.1753E+03
     -4.958  0.3601E+03  0.2146E+03
     -4.849  0.3385E+03  0.2515E+03
     -4.740  0.2957E+03  0.2838E+03
     -4.631  0.3679E+03  0.3239E+03
     -4.522  0.4290E+03  0.3707E+03
     -4.412  0.4205E+03  0.4166E+03
     -4.303  0.4970E+03  0.4708E+03
     -4.194  0.5594E+03  0.5318E+03
     -4.085  0.3632E+03  0.5714E+03
     -3.976  0.8932E+02  0.5812E+03
     -3.867  0.7397E+01  0.5820E+03
     -3.758  0.3027E+02  0.5853E+03
     -3.649  0.2191E+02  0.5877E+03
     -3.540  0.1262E+02  0.5891E+03
     -3.431  0.2750E+02  0.5921E+03
     -3.322  0.1818E+02  0.5940E+03
     -3.213 -0.3716E+01  0.5936E+03
     -3.104  0.1080E+02  0.5948E+03
     -2.994  0.5531E+02  0.6008E+03
     -2.885  0.6167E+02  0.6076E+03
     -2.776  0.2290E+02  0.6101E+03
     -2.667 -0.9935E+00  0.6100E+03
     -2.558  0.1211E+02  0.6113E+03
     -2.449  0.2983E+02  0.6145E+03
     -2.340  0.2142E+02  0.6169E+03
     -2.231  0.1298E+02  0.6183E+03
     -2.122  0.2197E+02  0.6207E+03
     -2.013  0.3493E+02  0.6245E+03
     -1.904  0.4465E+02  0.6294E+03
     -1.795  0.4907E+02  0.6347E+03
     -1.685  0.4236E+02  0.6393E+03
     -1.576  0.3703E+02  0.6434E+03
     -1.467  0.3257E+02  0.6469E+03
     -1.358  0.2189E+02  0.6493E+03
     -1.249  0.2119E+02  0.6516E+03
     -1.140  0.2447E+02  0.6543E+03
     -1.031  0.2346E+02  0.6569E+03
     -0.922  0.4658E+02  0.6619E+03
     -0.813  0.5295E+02  0.6677E+03
     -0.704  0.2137E+02  0.6700E+03
     -0.595  0.4032E+01  0.6705E+03
     -0.486  0.8050E+01  0.6714E+03
     -0.377  0.6152E+01  0.6720E+03
     -0.267  0.2261E+00  0.6721E+03
     -0.158 -0.5807E+00  0.6720E+03
     -0.049  0.8545E-02  0.6720E+03
      0.060  0.4726E-01  0.6720E+03
      0.169  0.7716E-02  0.6720E+03
      0.278  0.4874E-03  0.6720E+03
      0.387  0.1441E-04  0.6720E+03
      0.496  0.2132E-06  0.6720E+03
      0.605  0.1629E-08  0.6720E+03
      0.714  0.6545E-11  0.6720E+03
      0.823  0.1425E-13  0.6720E+03
      0.932  0.0000E+00  0.6720E+03
      1.041  0.0000E+00  0.6720E+03
      1.151  0.0000E+00  0.6720E+03
      1.260  0.0000E+00  0.6720E+03
      1.369  0.0000E+00  0.6720E+03
      1.478  0.0000E+00  0.6720E+03
