   57   57    1    1
  0.4736842E+03  0.3000000E-08  0.3000000E-08  0.3000000E-08  0.5000000E-15
  1.000000000000000E-004
  CAR 
 6_Pd100_top_free_z(O)                   
    560      1    336
 
  0.0000000E+00  0.0000000E+00  0.0000000E+00  0.1000000E+01
    1      -28.720356   1.000000
    2      -13.448393   1.000000
    3      -11.117819   1.000000
    4      -11.102259   1.000000
    5      -10.498607   1.000000
    6       -6.654570   1.000000
    7       -6.155769   1.000000
    8       -6.144647   1.000000
    9       -6.134706   1.000000
   10       -6.038743   1.000000
   11       -5.972475   1.000000
   12       -5.838736   1.000000
   13       -5.809978   1.000000
   14       -5.798762   1.000000
   15       -5.758824   1.000000
   16       -5.724730   1.000000
   17       -5.697342   1.000000
   18       -5.690547   1.000000
   19       -5.682290   1.000000
   20       -5.646555   1.000000
   21       -5.628889   1.000000
   22       -5.628820   1.000000
   23       -5.615276   1.000000
   24       -5.600837   1.000000
   25       -5.589771   1.000000
   26       -5.577732   1.000000
   27       -5.554100   1.000000
   28       -5.553493   1.000000
   29       -5.553184   1.000000
   30       -5.540093   1.000000
   31       -5.534420   1.000000
   32       -5.524394   1.000000
   33       -5.523969   1.000000
   34       -5.522054   1.000000
   35       -5.518827   1.000000
   36       -5.517438   1.000000
   37       -5.504662   1.000000
   38       -5.495528   1.000000
   39       -5.494590   1.000000
   40       -5.479873   1.000000
   41       -5.479337   1.000000
   42       -5.476253   1.000000
   43       -5.472807   1.000000
   44       -5.471822   1.000000
   45       -5.464972   1.000000
   46       -5.457047   1.000000
   47       -5.436580   1.000000
   48       -5.435174   1.000000
   49       -5.432514   1.000000
   50       -5.430710   1.000000
   51       -5.428876   1.000000
   52       -5.427657   1.000000
   53       -5.413177   1.000000
   54       -5.411539   1.000000
   55       -5.400988   1.000000
   56       -5.389825   1.000000
   57       -5.367550   1.000000
   58       -5.351002   1.000000
   59       -5.348832   1.000000
   60       -5.332808   1.000000
   61       -5.331555   1.000000
   62       -5.323360   1.000000
   63       -5.322149   1.000000
   64       -5.319582   1.000000
   65       -5.308713   1.000000
   66       -5.305957   1.000000
   67       -5.303543   1.000000
   68       -5.296404   1.000000
   69       -5.265628   1.000000
   70       -5.219861   1.000000
   71       -5.212986   1.000000
   72       -5.211051   1.000000
   73       -5.202025   1.000000
   74       -5.193588   1.000000
   75       -5.187496   1.000000
   76       -5.185524   1.000000
   77       -5.185079   1.000000
   78       -5.177901   1.000000
   79       -5.170384   1.000000
   80       -5.168395   1.000000
   81       -5.163935   1.000000
   82       -5.150126   1.000000
   83       -5.135198   1.000000
   84       -5.131302   1.000000
   85       -5.129360   1.000000
   86       -5.116489   1.000000
   87       -5.110250   1.000000
   88       -5.097981   1.000000
   89       -5.090791   1.000000
   90       -5.070624   1.000000
   91       -5.069434   1.000000
   92       -5.060305   1.000000
   93       -5.060153   1.000000
   94       -5.058962   1.000000
   95       -5.055544   1.000000
   96       -5.052376   1.000000
   97       -5.045247   1.000000
   98       -5.042655   1.000000
   99       -5.034158   1.000000
  100       -5.028905   1.000000
  101       -5.024988   1.000000
  102       -5.020805   1.000000
  103       -5.017107   1.000000
  104       -5.010473   1.000000
  105       -5.007823   1.000000
  106       -5.003768   1.000000
  107       -5.000056   1.000000
  108       -4.996795   1.000000
  109       -4.990518   1.000000
  110       -4.984634   1.000000
  111       -4.981826   1.000000
  112       -4.978824   1.000000
  113       -4.967206   0.999999
  114       -4.966068   0.999999
  115       -4.962183   0.999999
  116       -4.960001   0.999999
  117       -4.952841   0.999999
  118       -4.943823   0.999999
  119       -4.932919   0.999998
  120       -4.924618   0.999998
  121       -4.921564   0.999997
  122       -4.916686   0.999997
  123       -4.913726   0.999997
  124       -4.907856   0.999996
  125       -4.907180   0.999996
  126       -4.906604   0.999996
  127       -4.893800   0.999994
  128       -4.880145   0.999990
  129       -4.855512   0.999980
  130       -4.847874   0.999974
  131       -4.846552   0.999973
  132       -4.844983   0.999972
  133       -4.843377   0.999971
  134       -4.840978   0.999969
  135       -4.835138   0.999963
  136       -4.829537   0.999957
  137       -4.804887   0.999915
  138       -4.798220   0.999899
  139       -4.796980   0.999896
  140       -4.790429   0.999876
  141       -4.782687   0.999849
  142       -4.769619   0.999792
  143       -4.758167   0.999727
  144       -4.748086   0.999655
  145       -4.742037   0.999605
  146       -4.740460   0.999591
  147       -4.731753   0.999505
  148       -4.726730   0.999448
  149       -4.722019   0.999391
  150       -4.707711   0.999186
  151       -4.691556   0.998891
  152       -4.691189   0.998883
  153       -4.685879   0.998770
  154       -4.684802   0.998746
  155       -4.680148   0.998638
  156       -4.677116   0.998564
  157       -4.675922   0.998535
  158       -4.675303   0.998519
  159       -4.672613   0.998450
  160       -4.669435   0.998365
  161       -4.663730   0.998206
  162       -4.653710   0.997903
  163       -4.652759   0.997872
  164       -4.651496   0.997832
  165       -4.649893   0.997780
  166       -4.649602   0.997770
  167       -4.647936   0.997715
  168       -4.642987   0.997548
  169       -4.637643   0.997361
  170       -4.636889   0.997334
  171       -4.619571   0.996695
  172       -4.613621   0.996471
  173       -4.605133   0.996156
  174       -4.601192   0.996015
  175       -4.599729   0.995963
  176       -4.599301   0.995948
  177       -4.597619   0.995890
  178       -4.593241   0.995742
  179       -4.592402   0.995715
  180       -4.586128   0.995523
  181       -4.580082   0.995360
  182       -4.577114   0.995291
  183       -4.569998   0.995157
  184       -4.561054   0.995070
  185       -4.560145   0.995067
  186       -4.558671   0.995065
  187       -4.554767   0.995076
  188       -4.553218   0.995087
  189       -4.552685   0.995091
  190       -4.551287   0.995106
  191       -4.528802   0.995910
  192       -4.524603   0.996200
  193       -4.516800   0.996882
  194       -4.513042   0.997280
  195       -4.509365   0.997718
  196       -4.504085   0.998433
  197       -4.501995   0.998745
  198       -4.494010   1.000097
  199       -4.484722   1.002006
  200       -4.479420   1.003265
  201       -4.478609   1.003469
  202       -4.469043   1.006098
  203       -4.466427   1.006890
  204       -4.463379   1.007852
  205       -4.458791   1.009379
  206       -4.457011   1.009997
  207       -4.451723   1.011913
  208       -4.449914   1.012597
  209       -4.444961   1.014536
  210       -4.444291   1.014805
  211       -4.428849   1.021460
  212       -4.426916   1.022344
  213       -4.425026   1.023217
  214       -4.413793   1.028536
  215       -4.412946   1.028943
  216       -4.411241   1.029764
  217       -4.409339   1.030680
  218       -4.408691   1.030992
  219       -4.406741   1.031931
  220       -4.394163   1.037877
  221       -4.371971   1.046882
  222       -4.370907   1.047230
  223       -4.366598   1.048527
  224       -4.354882   1.051008
  225       -4.353157   1.051222
  226       -4.348985   1.051556
  227       -4.341751   1.051457
  228       -4.341167   1.051409
  229       -4.339992   1.051292
  230       -4.338311   1.051078
  231       -4.337670   1.050982
  232       -4.335800   1.050654
  233       -4.334336   1.050347
  234       -4.330922   1.049454
  235       -4.328186   1.048551
  236       -4.326546   1.047927
  237       -4.325585   1.047532
  238       -4.323832   1.046754
  239       -4.322726   1.046223
  240       -4.321395   1.045544
  241       -4.312416   1.039743
  242       -4.305591   1.033810
  243       -4.299952   1.027838
  244       -4.292343   1.018151
  245       -4.291320   1.016700
  246       -4.289162   1.013523
  247       -4.287925   1.011627
  248       -4.286186   1.008872
  249       -4.283738   1.004811
  250       -4.273456   0.985369
  251       -4.268427   0.974418
  252       -4.267357   0.971964
  253       -4.261759   0.958408
  254       -4.261058   0.956626
  255       -4.257426   0.947082
  256       -4.254789   0.939834
  257       -4.253350   0.935766
  258       -4.252432   0.933129
  259       -4.248577   0.921695
  260       -4.248181   0.920486
  261       -4.246813   0.916271
  262       -4.243612   0.906127
  263       -4.241688   0.899839
  264       -4.241270   0.898455
  265       -4.238991   0.890790
  266       -4.230948   0.862196
  267       -4.228562   0.853259
  268       -4.225878   0.842968
  269       -4.225267   0.840588
  270       -4.222644   0.830228
  271       -4.219858   0.818969
  272       -4.213604   0.792768
  273       -4.204379   0.751922
  274       -4.197640   0.720581
  275       -4.188057   0.674144
  276       -4.186561   0.666719
  277       -4.180169   0.634539
  278       -4.180013   0.633745
  279       -4.178516   0.626107
  280       -4.173764   0.601663
  281       -4.164523   0.553420
  282       -4.162779   0.544243
  283       -4.138175   0.414603
  284       -4.132138   0.383361
  285       -4.131873   0.382001
  286       -4.130825   0.376627
  287       -4.120070   0.322500
  288       -4.115440   0.299874
  289       -4.113720   0.291586
  290       -3.963803  -0.051614
  291       -3.886026  -0.024263
  292       -3.831800  -0.003880
  293       -3.818355  -0.000784
  294       -3.763867   0.004780
  295       -3.505302   0.000088
  296       -3.490231   0.000059
  297       -3.420829   0.000008
  298       -3.062226   0.000000
  299       -3.061202   0.000000
  300       -3.041722   0.000000
  301       -3.029639   0.000000
  302       -3.022244   0.000000
  303       -2.940392   0.000000
  304       -2.938076   0.000000
  305       -2.910154   0.000000
  306       -2.525361   0.000000
  307       -2.522296   0.000000
  308       -2.429854   0.000000
  309       -2.353395   0.000000
  310       -2.120019   0.000000
  311       -2.118470   0.000000
  312       -2.082054   0.000000
  313       -2.004412   0.000000
  314       -1.965768   0.000000
  315       -1.938194   0.000000
  316       -1.868627   0.000000
  317       -1.806763   0.000000
  318       -1.735984   0.000000
  319       -1.666251   0.000000
  320       -1.640774   0.000000
  321       -1.631153   0.000000
  322       -1.559305   0.000000
  323       -1.451363   0.000000
  324       -1.405496   0.000000
  325       -1.255146   0.000000
  326       -1.191008   0.000000
  327       -1.180201   0.000000
  328       -1.033491   0.000000
  329       -0.994262   0.000000
  330       -0.978049   0.000000
  331       -0.967728   0.000000
  332       -0.934761   0.000000
  333       -0.925297   0.000000
  334       -0.908228   0.000000
  335       -0.853242   0.000000
  336       -0.792139   0.000000
