 vasp.5.4.4.18Apr17-6-g9f103f2a35 (build Sep 03 2018 23:53:05) complex          
  
 executed on             LinuxIFC date 2021.11.27  04:43:08
 running on    1 total cores
 distrk:  each k-point on    1 cores,    1 groups
 distr:  one band on NCORES_PER_BAND=   1 cores,    1 groups


--------------------------------------------------------------------------------------------------------


 INCAR:
 POTCAR:    PAW_PBE Pd 04Jan2005                  
 POTCAR:    PAW_PBE C 08Apr2002                   
 POTCAR:    PAW_PBE O 08Apr2002                   
 POTCAR:    PAW_PBE Pd 04Jan2005                  
   VRHFIN =Pd : s1 d9                                                           
   LEXCH  = PE                                                                  
   EATOM  =   809.7530 eV,   59.5152 Ry                                         
                                                                                
   TITEL  = PAW_PBE Pd 04Jan2005                                                
   LULTRA =        F    use ultrasoft PP ?                                      
   IUNSCR =        1    unscreen: 0-lin 1-nonlin 2-no                           
   RPACOR =    2.000    partial core radius                                     
   POMASS =  106.420; ZVAL   =   10.000    mass and valenz                      
   RCORE  =    2.600    outmost cutoff radius                                   
   RWIGS  =    2.710; RWIGS  =    1.434    wigner-seitz radius (au A)           
   ENMAX  =  250.925; ENMIN  =  188.194 eV                                      
   ICORE  =        3    local potential                                         
   LCOR   =        T    correct aug charges                                     
   LPAW   =        T    paw PP                                                  
   EAUG   =  416.230                                                            
   DEXC   =    0.000                                                            
   RMAX   =    2.653    core radius for proj-oper                               
   RAUG   =    1.300    factor for augmentation sphere                          
   RDEP   =    2.734    radius for radial grids                                 
   RDEPT  =    2.103    core radius for aug-charge                              
                                                                                
   Atomic configuration                                                         
   12 entries                                                                   
     n  l   j            E        occ.                                          
     1  0  0.50    -24164.6631   2.0000                                         
     2  0  0.50     -3530.9218   2.0000                                         
     2  1  1.50     -3165.6822   6.0000                                         
     3  0  0.50      -639.4577   2.0000                                         
     3  1  1.50      -519.4532   6.0000                                         
     3  2  2.50      -328.9757  10.0000                                         
     4  0  0.50       -88.7014   2.0000                                         
     4  1  1.50       -54.4540   6.0000                                         
     4  2  2.50        -6.6878   9.0000                                         
     5  0  0.50        -4.3543   1.0000                                         
     5  1  0.50        -1.3606   0.0000                                         
     4  3  2.50        -1.3606   0.0000                                         
   Description                                                                  
     l       E           TYP  RCUT    TYP  RCUT                                 
     2     -6.6878251     23  2.400                                             
     2     -8.0484077     23  2.400                                             
     0     -4.3542939     23  2.400                                             
     0      4.3406793     23  2.400                                             
     1     -4.0817478     23  2.600                                             
     1     15.8380318     23  2.600                                             
     3     -4.0817478     23  2.400                                             
  local pseudopotential read in
  partial core-charges read in
  partial kinetic energy density read in
  atomic valenz-charges read in
  non local Contribution for L=           2  read in
    real space projection operators read in
  non local Contribution for L=           2  read in
    real space projection operators read in
  non local Contribution for L=           0  read in
    real space projection operators read in
  non local Contribution for L=           0  read in
    real space projection operators read in
  non local Contribution for L=           1  read in
    real space projection operators read in
  non local Contribution for L=           1  read in
    real space projection operators read in
    PAW grid and wavefunctions read in
 
   number of l-projection  operators is LMAX  =           6
   number of lm-projection operators is LMMAX =          18
 
 POTCAR:    PAW_PBE C 08Apr2002                   
   VRHFIN =C: s2p2                                                              
   LEXCH  = PE                                                                  
   EATOM  =   147.1560 eV,   10.8157 Ry                                         
                                                                                
   TITEL  = PAW_PBE C 08Apr2002                                                 
   LULTRA =        F    use ultrasoft PP ?                                      
   IUNSCR =        1    unscreen: 0-lin 1-nonlin 2-no                           
   RPACOR =    1.200    partial core radius                                     
   POMASS =   12.011; ZVAL   =    4.000    mass and valenz                      
   RCORE  =    1.500    outmost cutoff radius                                   
   RWIGS  =    1.630; RWIGS  =    0.863    wigner-seitz radius (au A)           
   ENMAX  =  400.000; ENMIN  =  300.000 eV                                      
   ICORE  =        2    local potential                                         
   LCOR   =        T    correct aug charges                                     
   LPAW   =        T    paw PP                                                  
   EAUG   =  644.873                                                            
   DEXC   =    0.000                                                            
   RMAX   =    1.529    core radius for proj-oper                               
   RAUG   =    1.300    factor for augmentation sphere                          
   RDEP   =    1.501    radius for radial grids                                 
   RDEPT  =    1.300    core radius for aug-charge                              
                                                                                
   Atomic configuration                                                         
    4 entries                                                                   
     n  l   j            E        occ.                                          
     1  0  0.50      -273.3789   2.0000                                         
     2  0  0.50       -13.7508   2.0000                                         
     2  1  0.50        -5.2854   2.0000                                         
     3  2  1.50        -5.4423   0.0000                                         
   Description                                                                  
     l       E           TYP  RCUT    TYP  RCUT                                 
     0    -13.7508458     23  1.200                                             
     0     -8.2022199     23  1.200                                             
     1     -5.2854383     23  1.500                                             
     1     34.0145650     23  1.500                                             
     2     -5.4423304      7  1.500                                             
  local pseudopotential read in
  partial core-charges read in
  partial kinetic energy density read in
  atomic valenz-charges read in
  non local Contribution for L=           0  read in
    real space projection operators read in
  non local Contribution for L=           0  read in
    real space projection operators read in
  non local Contribution for L=           1  read in
    real space projection operators read in
  non local Contribution for L=           1  read in
    real space projection operators read in
    PAW grid and wavefunctions read in
 
   number of l-projection  operators is LMAX  =           4
   number of lm-projection operators is LMMAX =           8
 
 POTCAR:    PAW_PBE O 08Apr2002                   
   VRHFIN =O: s2p4                                                              
   LEXCH  = PE                                                                  
   EATOM  =   432.3788 eV,   31.7789 Ry                                         
                                                                                
   TITEL  = PAW_PBE O 08Apr2002                                                 
   LULTRA =        F    use ultrasoft PP ?                                      
   IUNSCR =        1    unscreen: 0-lin 1-nonlin 2-no                           
   RPACOR =    1.200    partial core radius                                     
   POMASS =   16.000; ZVAL   =    6.000    mass and valenz                      
   RCORE  =    1.520    outmost cutoff radius                                   
   RWIGS  =    1.550; RWIGS  =    0.820    wigner-seitz radius (au A)           
   ENMAX  =  400.000; ENMIN  =  300.000 eV                                      
   ICORE  =        2    local potential                                         
   LCOR   =        T    correct aug charges                                     
   LPAW   =        T    paw PP                                                  
   EAUG   =  605.392                                                            
   DEXC   =    0.000                                                            
   RMAX   =    1.553    core radius for proj-oper                               
   RAUG   =    1.300    factor for augmentation sphere                          
   RDEP   =    1.550    radius for radial grids                                 
   RDEPT  =    1.329    core radius for aug-charge                              
                                                                                
   Atomic configuration                                                         
    4 entries                                                                   
     n  l   j            E        occ.                                          
     1  0  0.50      -514.6923   2.0000                                         
     2  0  0.50       -23.9615   2.0000                                         
     2  1  0.50        -9.0305   4.0000                                         
     3  2  1.50        -9.5241   0.0000                                         
   Description                                                                  
     l       E           TYP  RCUT    TYP  RCUT                                 
     0    -23.9615318     23  1.200                                             
     0     -9.5240782     23  1.200                                             
     1     -9.0304911     23  1.520                                             
     1      8.1634956     23  1.520                                             
     2     -9.5240782      7  1.500                                             
  local pseudopotential read in
  partial core-charges read in
  partial kinetic energy density read in
  kinetic energy density of atom read in
  atomic valenz-charges read in
  non local Contribution for L=           0  read in
    real space projection operators read in
  non local Contribution for L=           0  read in
    real space projection operators read in
  non local Contribution for L=           1  read in
    real space projection operators read in
  non local Contribution for L=           1  read in
    real space projection operators read in
    PAW grid and wavefunctions read in
 
   number of l-projection  operators is LMAX  =           4
   number of lm-projection operators is LMMAX =           8
 
 Optimization of the real space projectors (new method)

 maximal supplied QI-value         = 14.36
 optimisation between [QCUT,QGAM] = [ 10.20, 20.39] = [ 29.12,116.47] Ry 
 Optimized for a Real-space Cutoff    1.51 Angstroem

   l    n(q)    QCUT    max X(q) W(low)/X(q) W(high)/X(q)  e(spline) 
   2      8    10.197    59.108    0.26E-03    0.14E-03    0.96E-07
   2      8    10.197    58.101    0.27E-03    0.14E-03    0.98E-07
   0      9    10.197   102.235    0.54E-04    0.60E-05    0.72E-07
   0      9    10.197    58.388    0.52E-04    0.60E-05    0.68E-07
   1      9    10.197    22.191    0.18E-03    0.25E-03    0.79E-07
   1      9    10.197    15.590    0.15E-03    0.21E-03    0.69E-07
 Optimization of the real space projectors (new method)

 maximal supplied QI-value         = 25.13
 optimisation between [QCUT,QGAM] = [ 10.05, 20.36] = [ 28.30,116.06] Ry 
 Optimized for a Real-space Cutoff    1.30 Angstroem

   l    n(q)    QCUT    max X(q) W(low)/X(q) W(high)/X(q)  e(spline) 
   0      8    10.053   115.676    0.49E-03    0.72E-03    0.18E-06
   0      8    10.053    87.132    0.49E-03    0.71E-03    0.18E-06
   1      7    10.053     4.429    0.32E-03    0.31E-03    0.18E-06
   1      7    10.053     2.733    0.23E-03    0.19E-03    0.20E-06
 Optimization of the real space projectors (new method)

 maximal supplied QI-value         = 24.76
 optimisation between [QCUT,QGAM] = [ 10.15, 20.30] = [ 28.85,115.39] Ry 
 Optimized for a Real-space Cutoff    1.38 Angstroem

   l    n(q)    QCUT    max X(q) W(low)/X(q) W(high)/X(q)  e(spline) 
   0      8    10.150    20.381    0.22E-03    0.32E-03    0.29E-06
   0      8    10.150    15.268    0.23E-03    0.35E-03    0.30E-06
   1      8    10.150     5.964    0.46E-03    0.53E-03    0.21E-06
   1      8    10.150     5.382    0.38E-03    0.45E-03    0.19E-06

 ----------------------------------------------------------------------------- 
|                                                                             |
|  ADVICE TO THIS USER RUNNING 'VASP/VAMP'   (HEAR YOUR MASTER'S VOICE ...):  |
|                                                                             |
|      You enforced a specific xc-type in the INCAR file,                     |
|      a different type was found on the POTCAR file                          |
|          I HOPE YOU KNOW, WHAT YOU ARE  DOING                               |
|                                                                             |
 ----------------------------------------------------------------------------- 

  PAW_PBE Pd 04Jan2005                  :
 energy of atom  1       EATOM= -809.7530
 kinetic energy error for atom=    0.0091 (will be added to EATOM!!)
  PAW_PBE C 08Apr2002                   :
 energy of atom  2       EATOM= -147.1560
 kinetic energy error for atom=    0.0288 (will be added to EATOM!!)
  PAW_PBE O 08Apr2002                   :
 energy of atom  3       EATOM= -432.3788
 kinetic energy error for atom=    0.1156 (will be added to EATOM!!)
 
 
 POSCAR: Pd55PES                                 
  positions in cartesian coordinates
  No initial velocities read in
 exchange correlation table for  LEXCH =        9
   RHO(1)=    0.500       N(1)  =     2000
   RHO(2)=  100.500       N(2)  =     4000
 


--------------------------------------------------------------------------------------------------------


 ion  position               nearest neighbor table
   1  0.446  0.328  0.417-   3 3.25   5 3.25   7 3.36  15 3.36  29 3.42  28 3.42
   2  0.672  0.554  0.417-  26 3.25  30 3.25  17 3.36   9 3.36  47 3.42  49 3.42
   3  0.554  0.328  0.417-   1 3.25   5 3.25   7 3.36  11 3.36  29 3.42  21 3.42
   4  0.328  0.554  0.417-  32 3.25  22 3.25  13 3.36   8 3.36  43 3.42  48 3.42
   5  0.500  0.383  0.340-   1 3.25   3 3.25  11 3.36  15 3.36  21 3.42  28 3.42
   6  0.500  0.383  0.660-  24 3.25  19 3.25  16 3.36  12 3.36  42 3.42  44 3.42
   7  0.500  0.276  0.500-  29 3.24   3 3.36   1 3.36  19 3.36  24 3.36
   8  0.276  0.500  0.500-  48 3.24  22 3.36  40 3.36   4 3.36  25 3.36
   9  0.724  0.500  0.500-  49 3.24  26 3.36  45 3.36   2 3.36  20 3.36
  10  0.500  0.724  0.500-  55 3.24  27 3.36  23 3.36  46 3.36  41 3.36
  11  0.612  0.388  0.342-  21 3.24   5 3.36   3 3.36  30 3.36  26 3.36
  12  0.612  0.388  0.658-  42 3.24  24 3.36  45 3.36   6 3.36  31 3.36
  13  0.388  0.612  0.342-  43 3.24  32 3.36  50 3.36   4 3.36  27 3.36
  14  0.388  0.612  0.658-  53 3.24  25 3.36  33 3.36  51 3.36  46 3.36
  15  0.388  0.388  0.342-  28 3.24   5 3.36   1 3.36  32 3.36  22 3.36
  16  0.388  0.388  0.658-  44 3.24  19 3.36  40 3.36   6 3.36  33 3.36
  17  0.612  0.612  0.342-  47 3.24  30 3.36  50 3.36   2 3.36  23 3.36
  18  0.612  0.612  0.658-  56 2.65  54 3.24  31 3.36  20 3.36  51 3.36  41 3.36
  19  0.446  0.328  0.583-   6 3.25  24 3.25  16 3.36   7 3.36  44 3.42  29 3.42
  20  0.672  0.554  0.583-  31 3.25  45 3.25  18 3.36   9 3.36  54 3.42  49 3.42
  21  0.558  0.442  0.418-  11 3.24   5 3.42   3 3.42  30 3.42  26 3.42
  22  0.328  0.446  0.417-   4 3.25  32 3.25   8 3.36  15 3.36  48 3.42  28 3.42
  23  0.554  0.672  0.417-  27 3.25  50 3.25  10 3.36  17 3.36  55 3.42  47 3.42
  24  0.554  0.328  0.583-   6 3.25  19 3.25  12 3.36   7 3.36  42 3.42  29 3.42
  25  0.328  0.554  0.583-  33 3.25  40 3.25  14 3.36   8 3.36  53 3.42  48 3.42
  26  0.672  0.446  0.417-   2 3.25  30 3.25   9 3.36  11 3.36  49 3.42  21 3.42
  27  0.446  0.672  0.417-  23 3.25  50 3.25  10 3.36  13 3.36  55 3.42  43 3.42
  28  0.442  0.442  0.418-  15 3.24   5 3.42   1 3.42  32 3.42  22 3.42
  29  0.500  0.384  0.500-   7 3.24   3 3.42   1 3.42  24 3.42  19 3.42
  30  0.617  0.500  0.340-   2 3.25  26 3.25  17 3.36  11 3.36  47 3.42  21 3.42
  31  0.617  0.500  0.660-  20 3.25  45 3.25  18 3.36  12 3.36  54 3.42  42 3.42
  32  0.383  0.500  0.340-   4 3.25  22 3.25  13 3.36  15 3.36  43 3.42  28 3.42
  33  0.383  0.500  0.660-  25 3.25  40 3.25  14 3.36  16 3.36  53 3.42  44 3.42
  34  0.383  0.383  0.500-
  35  0.617  0.617  0.500-
  36  0.617  0.383  0.500-
  37  0.383  0.617  0.500-
  38  0.500  0.500  0.335-
  39  0.500  0.500  0.665-
  40  0.328  0.446  0.583-  33 3.25  25 3.25  16 3.36   8 3.36  44 3.42  48 3.42
  41  0.554  0.672  0.583-  56 2.13  46 3.25  51 3.25  10 3.36  18 3.36  54 3.42  55 3.42
  42  0.558  0.442  0.582-  12 3.24   6 3.42  24 3.42  31 3.42  45 3.42
  43  0.442  0.558  0.418-  13 3.24   4 3.42  32 3.42  27 3.42  50 3.42
  44  0.442  0.442  0.582-  16 3.24   6 3.42  19 3.42  33 3.42  40 3.42
  45  0.672  0.446  0.583-  20 3.25  31 3.25   9 3.36  12 3.36  49 3.42  42 3.42
  46  0.446  0.672  0.583-  41 3.25  51 3.25  10 3.36  14 3.36  53 3.42  55 3.42
  47  0.558  0.558  0.418-  17 3.24   2 3.42  30 3.42  23 3.42  50 3.42
  48  0.384  0.500  0.500-   8 3.24   4 3.42  22 3.42  25 3.42  40 3.42
  49  0.616  0.500  0.500-   9 3.24   2 3.42  26 3.42  20 3.42  45 3.42
  50  0.500  0.617  0.340-  27 3.25  23 3.25  13 3.36  17 3.36  43 3.42  47 3.42
  51  0.500  0.617  0.660-  41 3.25  46 3.25  14 3.36  18 3.36  53 3.42  54 3.42
  52  0.500  0.500  0.500-
  53  0.442  0.558  0.582-  14 3.24  25 3.42  33 3.42  51 3.42  46 3.42
  54  0.558  0.558  0.582-  18 3.24  31 3.42  20 3.42  51 3.42  41 3.42
  55  0.500  0.616  0.500-  10 3.24  23 3.42  27 3.42  41 3.42  46 3.42
  56  0.564  0.686  0.652-  57 1.13  41 2.13  18 2.65
  57  0.574  0.714  0.675-  56 1.13
 
  LATTYP: Found a simple cubic cell.
 ALAT       =    30.0000000000
  
  Lattice vectors:
  
 A1 = (  30.0000000000,   0.0000000000,   0.0000000000)
 A2 = (   0.0000000000,  30.0000000000,   0.0000000000)
 A3 = (   0.0000000000,   0.0000000000,  30.0000000000)


Analysis of symmetry for initial positions (statically):
=====================================================================
 Subroutine PRICEL returns:
 Original cell was already a primitive cell.
 

 Routine SETGRP: Setting up the symmetry group for a 
 simple cubic supercell.


 Subroutine GETGRP returns: Found  1 space group operations
 (whereof  1 operations were pure point group operations)
 out of a pool of 48 trial point group operations.


The static configuration has the point symmetry C_1 .


Analysis of symmetry for dynamics (positions and initial velocities):
=====================================================================
 Subroutine PRICEL returns:
 Original cell was already a primitive cell.
 

 Routine SETGRP: Setting up the symmetry group for a 
 simple cubic supercell.


 Subroutine GETGRP returns: Found  1 space group operations
 (whereof  1 operations were pure point group operations)
 out of a pool of 48 trial point group operations.


The dynamic configuration has the point symmetry C_1 .


Analysis of constrained symmetry for selective dynamics:
=====================================================================
 Subroutine PRICEL returns:
 Original cell was already a primitive cell.
 

 Routine SETGRP: Setting up the symmetry group for a 
 simple cubic supercell.


 Subroutine GETGRP returns: Found  1 space group operations
 (whereof  1 operations were pure point group operations)
 out of a pool of 48 trial point group operations.


The constrained configuration has the point symmetry C_1 .


 Subroutine INISYM returns: Found  1 space group operations
 (whereof  1 operations are pure point group operations),
 and found     1 'primitive' translations

 
 
 KPOINTS: K-points                                

Automatic generation of k-mesh.
Space group operators:
 irot       det(A)        alpha          n_x          n_y          n_z        tau_x        tau_y        tau_z
    1     1.000000     0.000000     1.000000     0.000000     0.000000     0.000000     0.000000     0.000000
 
 Subroutine IBZKPT returns following result:
 ===========================================
 
 Found      1 irreducible k-points:
 
 Following reciprocal coordinates:
            Coordinates               Weight
  0.000000  0.000000  0.000000      1.000000
 
 Following cartesian coordinates:
            Coordinates               Weight
  0.000000  0.000000  0.000000      1.000000
 


--------------------------------------------------------------------------------------------------------




 Dimension of arrays:
   k-points           NKPTS =      1   k-points in BZ     NKDIM =      1   number of bands    NBANDS=    336
   number of dos      NEDOS =    301   number of ions     NIONS =     57
   non local maximal  LDIM  =      6   non local SUM 2l+1 LMDIM =     18
   total plane-waves  NPLWV = ******
   max r-space proj   IRMAX =   1847   max aug-charges    IRDMAX=   6262
   dimension x,y,z NGX =   150 NGY =  150 NGZ =  150
   dimension x,y,z NGXF=   300 NGYF=  300 NGZF=  300
   support grid    NGXF=   300 NGYF=  300 NGZF=  300
   ions per type =              55   1   1
   NGX,Y,Z   is equivalent  to a cutoff of   8.31,  8.31,  8.31 a.u.
   NGXF,Y,Z  is equivalent  to a cutoff of  16.62, 16.62, 16.62 a.u.

 SYSTEM =  6_Pd100_top_free_z(O)                   
 POSCAR =  Pd55PES                                 

 Startparameter for this run:
   NWRITE =      2    write-flag & timer
   PREC   = normal    normal or accurate (medium, high low for compatibility)
   ISTART =      0    job   : 0-new  1-cont  2-samecut
   ICHARG =      2    charge: 1-file 2-atom 10-const
   ISPIN  =      1    spin polarized calculation?
   LNONCOLLINEAR =      F non collinear calculations
   LSORBIT =      F    spin-orbit coupling
   INIWAV =      1    electr: 0-lowe 1-rand  2-diag
   LASPH  =      F    aspherical Exc in radial PAW
   METAGGA=      F    non-selfconsistent MetaGGA calc.

 Electronic Relaxation 1
   ENCUT  =  400.0 eV  29.40 Ry    5.42 a.u.  48.92 48.92 48.92*2*pi/ulx,y,z
   ENINI  =  400.0     initial cutoff
   ENAUG  =  644.9 eV  augmentation charge cutoff
   NELM   =    100;   NELMIN=  6; NELMDL= -5     # of ELM steps 
   EDIFF  = 0.1E-03   stopping-criterion for ELM
   LREAL  =      T    real-space projection
   NLSPLINE    = F    spline interpolate recip. space projectors
   LCOMPAT=      F    compatible to vasp.4.4
   GGA_COMPAT  = T    GGA compatible to vasp.4.4-vasp.4.6
   LMAXPAW     = -100 max onsite density
   LMAXMIX     =    2 max onsite mixed and CHGCAR
   VOSKOWN=      0    Vosko Wilk Nusair interpolation
   ROPT   =   -0.00050  -0.00050  -0.00050
 Ionic relaxation
   EDIFFG = -.5E-01   stopping-criterion for IOM
   NSW    =      0    number of steps for IOM
   NBLOCK =      1;   KBLOCK =      1    inner block; outer block 
   IBRION =     -1    ionic relax: 0-MD 1-quasi-New 2-CG
   NFREE  =      1    steps in history (QN), initial steepest desc. (CG)
   ISIF   =      2    stress and relaxation
   IWAVPR =     10    prediction:  0-non 1-charg 2-wave 3-comb
   ISYM   =      2    0-nonsym 1-usesym 2-fastsym
   LCORR  =      T    Harris-Foulkes like correction to forces

   POTIM  = 0.5000    time-step for ionic-motion
   TEIN   =    0.0    initial temperature
   TEBEG  =    0.0;   TEEND  =   0.0 temperature during run
   SMASS  =  -3.00    Nose mass-parameter (am)
   estimated Nose-frequenzy (Omega)   =  0.10E-29 period in steps =****** mass=  -0.206E-25a.u.
   SCALEE = 1.0000    scale energy and forces
   NPACO  =    256;   APACO  = 16.0  distance and # of slots for P.C.
   PSTRESS=    0.0 pullay stress

  Mass of Ions in am
   POMASS = 106.42 12.01 16.00
  Ionic Valenz
   ZVAL   =  10.00  4.00  6.00
  Atomic Wigner-Seitz radii
   RWIGS  =  -1.00 -1.00 -1.00
  virtual crystal weights 
   VCA    =   1.00  1.00  1.00
   NELECT =     560.0000    total number of electrons
   NUPDOWN=      -1.0000    fix difference up-down

 DOS related values:
   EMIN   =  10.00;   EMAX   =-10.00  energy-range for DOS
   EFERMI =   0.00
   ISMEAR =     2;   SIGMA  =   0.20  broadening in eV -4-tet -1-fermi 0-gaus

 Electronic relaxation 2 (details)
   IALGO  =     68    algorithm
   LDIAG  =      T    sub-space diagonalisation (order eigenvalues)
   LSUBROT=      F    optimize rotation matrix (better conditioning)
   TURBO    =      0    0=normal 1=particle mesh
   IRESTART =      0    0=no restart 2=restart with 2 vectors
   NREBOOT  =      0    no. of reboots
   NMIN     =      0    reboot dimension
   EREF     =   0.00    reference energy to select bands
   IMIX   =      4    mixing-type and parameters
     AMIX     =   0.40;   BMIX     =  1.00
     AMIX_MAG =   1.60;   BMIX_MAG =  1.00
     AMIN     =   0.10
     WC   =   100.;   INIMIX=   1;  MIXPRE=   1;  MAXMIX= -45

 Intra band minimization:
   WEIMIN = 0.0000     energy-eigenvalue tresh-hold
   EBREAK =  0.74E-07  absolut break condition
   DEPER  =   0.30     relativ break condition  

   TIME   =   0.40     timestep for ELM

  volume/ion in A,a.u.               =     473.68      3196.58
  Fermi-wavevector in a.u.,A,eV,Ry     =   0.449797  0.849992  2.752691  0.202317
  Thomas-Fermi vector in A             =   1.430086
 
 Write flags
   LWAVE        =      F    write WAVECAR
   LDOWNSAMPLE  =      F    k-point downsampling of WAVECAR
   LCHARG       =      F    write CHGCAR
   LVTOT        =      F    write LOCPOT, total local potential
   LVHAR        =      F    write LOCPOT, Hartree potential only
   LELF         =      F    write electronic localiz. function (ELF)
   LORBIT       =      0    0 simple, 1 ext, 2 COOP (PROOUT), +10 PAW based schemes


 Dipole corrections
   LMONO  =      F    monopole corrections only (constant potential shift)
   LDIPOL =      F    correct potential (dipole corrections)
   IDIPOL =      0    1-x, 2-y, 3-z, 4-all directions 
   EPSILON=  1.0000000 bulk dielectric constant

 Exchange correlation treatment:
   GGA     =    RP    GGA type
   LEXCH   =     9    internal setting for exchange type
   VOSKOWN=      0    Vosko Wilk Nusair interpolation
   LHFCALC =     F    Hartree Fock is set to
   LHFONE  =     F    Hartree Fock one center treatment
   AEXX    =    0.0000 exact exchange contribution

 Linear response parameters
   LEPSILON=     F    determine dielectric tensor
   LRPA    =     F    only Hartree local field effects (RPA)
   LNABLA  =     F    use nabla operator in PAW spheres
   LVEL    =     F    velocity operator in full k-point grid
   LINTERFAST=   F  fast interpolation
   KINTER  =     0    interpolate to denser k-point grid
   CSHIFT  =0.1000    complex shift for real part using Kramers Kronig
   OMEGAMAX=  -1.0    maximum frequency
   DEG_THRESHOLD= 0.2000000E-02 threshold for treating states as degnerate
   RTIME   =   -0.100 relaxation time in fs
  (WPLASMAI=    0.000 imaginary part of plasma frequency in eV, 0.658/RTIME)
   DFIELD  = 0.0000000 0.0000000 0.0000000 field for delta impulse in time
 
 Orbital magnetization related:
   ORBITALMAG=     F  switch on orbital magnetization
   LCHIMAG   =     F  perturbation theory with respect to B field
   DQ        =  0.001000  dq finite difference perturbation B field
   LLRAUG    =     F  two centre corrections for induced B field



--------------------------------------------------------------------------------------------------------


 Static calculation
 charge density and potential will be updated during run
 non-spin polarized calculation
 RMM-DIIS sequential band-by-band and
  variant of blocked Davidson during initial phase
 perform sub-space diagonalisation
    before iterative eigenvector-optimisation
 modified Broyden-mixing scheme, WC =      100.0
 initial mixing is a Kerker type mixing with AMIX =  0.4000 and BMIX =      1.0000
 Hartree-type preconditioning will be used
 using additional bands           56
 real space projection scheme for non local part
 use partial core corrections
 calculate Harris-corrections to forces 
   (improved forces if not selfconsistent)
 use gradient corrections 
 use of overlap-Matrix (Vanderbilt PP)
 Methfessel and Paxton  Order N= 2 SIGMA  =   0.20


--------------------------------------------------------------------------------------------------------


  energy-cutoff  :      400.00
  volume of cell :    27000.00
      direct lattice vectors                 reciprocal lattice vectors
    30.000000000  0.000000000  0.000000000     0.033333333  0.000000000  0.000000000
     0.000000000 30.000000000  0.000000000     0.000000000  0.033333333  0.000000000
     0.000000000  0.000000000 30.000000000     0.000000000  0.000000000  0.033333333

  length of vectors
    30.000000000 30.000000000 30.000000000     0.033333333  0.033333333  0.033333333


 
 k-points in units of 2pi/SCALE and weight: K-points                                
   0.00000000  0.00000000  0.00000000       1.000
 
 k-points in reciprocal lattice and weights: K-points                                
   0.00000000  0.00000000  0.00000000       1.000
 
 position of ions in fractional coordinates (direct lattice) 
   0.44576020  0.32826710  0.41691983
   0.67173288  0.55423978  0.41691983
   0.55423980  0.32826710  0.41691983
   0.32826712  0.55423978  0.41691983
   0.50000000  0.38250690  0.34021317
   0.50000000  0.38250690  0.65978680
   0.50000000  0.27609440  0.50000000
   0.27609443  0.49999998  0.50000000
   0.72390557  0.49999998  0.50000000
   0.50000000  0.72390555  0.50000000
   0.61195280  0.38804720  0.34167483
   0.61195280  0.38804720  0.65832513
   0.38804722  0.61195278  0.34167483
   0.38804722  0.61195278  0.65832513
   0.38804720  0.38804720  0.34167483
   0.38804720  0.38804720  0.65832513
   0.61195278  0.61195278  0.34167483
   0.61195278  0.61195278  0.65832513
   0.44576020  0.32826710  0.58308023
   0.67173288  0.55423978  0.58308023
   0.55791699  0.44208301  0.41809300
   0.32826705  0.44576024  0.41691983
   0.55423973  0.67173293  0.41691983
   0.55423980  0.32826710  0.58308023
   0.32826712  0.55423978  0.58308023
   0.67173295  0.44576024  0.41691983
   0.44576027  0.67173293  0.41691983
   0.44208301  0.44208301  0.41809300
   0.50000000  0.38416601  0.50000000
   0.61749315  0.50000005  0.34021317
   0.61749315  0.50000005  0.65978680
   0.38250685  0.50000005  0.34021317
   0.38250685  0.50000005  0.65978680
   0.38317830  0.38317830  0.50000000
   0.61682172  0.61682172  0.50000000
   0.61682170  0.38317830  0.50000000
   0.38317828  0.61682172  0.50000000
   0.50000000  0.50000000  0.33478917
   0.50000000  0.50000000  0.66521087
   0.32826705  0.44576024  0.58308023
   0.55423973  0.67173293  0.58308023
   0.55791699  0.44208301  0.58190703
   0.44208298  0.55791702  0.41809300
   0.44208301  0.44208301  0.58190703
   0.67173295  0.44576024  0.58308023
   0.44576027  0.67173293  0.58308023
   0.55791702  0.55791702  0.41809300
   0.38416599  0.50000002  0.50000000
   0.61583401  0.50000002  0.50000000
   0.50000000  0.61749319  0.34021317
   0.50000000  0.61749319  0.65978680
   0.50000000  0.50000000  0.50000000
   0.44208298  0.55791702  0.58190703
   0.55791702  0.55791702  0.58190703
   0.50000000  0.61583404  0.50000000
   0.56392653  0.68579743  0.65216613
   0.57359840  0.71390787  0.67518830
 
 position of ions in cartesian coordinates  (Angst):
  13.37280588  9.84801292 12.50759500
  20.15198637 16.62719342 12.50759500
  16.62719412  9.84801292 12.50759500
   9.84801363 16.62719342 12.50759500
  15.00000000 11.47520705 10.20639500
  15.00000000 11.47520705 19.79360400
  15.00000000  8.28283206 15.00000000
   8.28283277 14.99999929 15.00000000
  21.71716723 14.99999929 15.00000000
  15.00000000 21.71716652 14.99999999
  18.35858397 11.64141603 10.25024500
  18.35858397 11.64141603 19.74975399
  11.64141674 18.35858326 10.25024500
  11.64141674 18.35858326 19.74975400
  11.64141603 11.64141603 10.25024500
  11.64141603 11.64141603 19.74975400
  18.35858326 18.35858326 10.25024500
  18.35858326 18.35858326 19.74975400
  13.37280588  9.84801291 17.49240700
  20.15198638 16.62719341 17.49240700
  16.73750985 13.26249015 12.54279000
   9.84801151 13.37280729 12.50759500
  16.62719200 20.15198779 12.50759500
  16.62719412  9.84801292 17.49240700
   9.84801363 16.62719342 17.49240700
  20.15198849 13.37280729 12.50759500
  13.37280800 20.15198779 12.50759500
  13.26249015 13.26249015 12.54279000
  15.00000000 11.52498029 15.00000000
  18.52479437 15.00000140 10.20639500
  18.52479437 15.00000141 19.79360400
  11.47520562 15.00000141 10.20639501
  11.47520563 15.00000141 19.79360400
  11.49534898 11.49534898 15.00000000
  18.50465172 18.50465172 15.00000000
  18.50465102 11.49534898 15.00000000
  11.49534828 18.50465172 15.00000000
  15.00000000 15.00000000 10.04367500
  15.00000000 15.00000000 19.95632599
   9.84801151 13.37280729 17.49240700
  16.62719200 20.15198779 17.49240700
  16.73750985 13.26249015 17.45721100
  13.26248944 16.73751056 12.54279001
  13.26249015 13.26249015 17.45721100
  20.15198849 13.37280729 17.49240699
  13.37280800 20.15198779 17.49240700
  16.73751056 16.73751056 12.54279000
  11.52497959 15.00000071 15.00000000
  18.47502041 15.00000071 15.00000000
  14.99999999 18.52479579 10.20639500
  15.00000000 18.52479578 19.79360400
  15.00000000 15.00000000 15.00000000
  13.26248944 16.73751057 17.45721101
  16.73751056 16.73751057 17.45721100
  15.00000000 18.47502112 15.00000000
  16.91779600 20.57392300 19.56498400
  17.20795200 21.41723600 20.25564900
 


--------------------------------------------------------------------------------------------------------


 k-point  1 :   0.0000 0.0000 0.0000  plane waves:  490521

 maximum and minimum number of plane-waves per node :    490521   490521

 maximum number of plane-waves:    490521
 maximum index in each direction: 
   IXMAX=   48   IYMAX=   48   IZMAX=   48
   IXMIN=  -48   IYMIN=  -48   IZMIN=  -48


 serial   3D FFT for wavefunctions
 parallel 3D FFT for charge:
    minimum data exchange during FFTs selected (reduces bandwidth)


 total amount of memory used by VASP MPI-rank0  5486942. kBytes
=======================================================================

   base      :      30000. kBytes
   nonlr-proj:      17127. kBytes
   fftplans  :     924480. kBytes
   grid      :    1872000. kBytes
   one-center:        886. kBytes
   wavefun   :    2642449. kBytes
 
     INWAV:  cpu time    0.0001: real time    0.0004
 Broyden mixing: mesh for mixing (old mesh)
   NGX = 97   NGY = 97   NGZ = 97
  (NGX  =300   NGY  =300   NGZ  =300)
  gives a total of 912673 points

 initial charge density was supplied:
 charge density of overlapping atoms calculated
 number of electron     560.0000000 magnetization 
 keeping initial charge density in first step


--------------------------------------------------------------------------------------------------------


 Maximum index for non-local projection operator         1763
 Maximum index for augmentation-charges         5898 (set IRDMAX)


--------------------------------------------------------------------------------------------------------


 First call to EWALD:  gamma=   0.059
 Maximum number of real-space cells 3x 3x 3
 Maximum number of reciprocal cells 3x 3x 3

    FEWALD:  cpu time    0.0152: real time    0.0152


--------------------------------------- Iteration      1(   1)  ---------------------------------------


    POTLOK:  cpu time   14.3398: real time   14.3435
    SETDIJ:  cpu time    0.1239: real time    0.1239
     EDDAV:  cpu time  366.3931: real time  366.4890
       DOS:  cpu time    0.0013: real time    0.0013
    --------------------------------------------
      LOOP:  cpu time  380.8581: real time  380.9577

 eigenvalue-minimisations  :   688
 total energy-change (2. order) : 0.4387054E+04  (-0.1005178E+05)
 number of electron     560.0000000 magnetization 
 augmentation part      560.0000000 magnetization 

 Free energy of the ion-electron system (eV)
  ---------------------------------------------------
  alpha Z        PSCENC =        75.25431677
  Ewald energy   TEWEN  =    138294.99100042
  -Hartree energ DENC   =   -181657.09947359
  -exchange      EXHF   =         0.00000000
  -V(xc)+E(xc)   XCENC  =     -1703.00262412
  PAW double counting   =     44873.02882129   -41398.84523641
  entropy T*S    EENTRO =        -0.01402705
  eigenvalues    EBANDS =       816.23614473
  atomic energy  EATOM  =     45086.50549395
  Solvation  Ediel_sol  =         0.00000000
  ---------------------------------------------------
  free energy    TOTEN  =      4387.05441599 eV

  energy without entropy =     4387.06844304  energy(sigma->0) =     4387.05792275


--------------------------------------------------------------------------------------------------------




--------------------------------------- Iteration      1(   2)  ---------------------------------------


     EDDAV:  cpu time  592.1729: real time  592.2314
       DOS:  cpu time    0.0012: real time    0.0012
    --------------------------------------------
      LOOP:  cpu time  592.1741: real time  592.2326

 eigenvalue-minimisations  :  1224
 total energy-change (2. order) :-0.2376916E+04  (-0.2138950E+04)
 number of electron     560.0000000 magnetization 
 augmentation part      560.0000000 magnetization 

 Free energy of the ion-electron system (eV)
  ---------------------------------------------------
  alpha Z        PSCENC =        75.25431677
  Ewald energy   TEWEN  =    138294.99100042
  -Hartree energ DENC   =   -181657.09947359
  -exchange      EXHF   =         0.00000000
  -V(xc)+E(xc)   XCENC  =     -1703.00262412
  PAW double counting   =     44873.02882129   -41398.84523641
  entropy T*S    EENTRO =        -0.03188048
  eigenvalues    EBANDS =     -1560.66198594
  atomic energy  EATOM  =     45086.50549395
  Solvation  Ediel_sol  =         0.00000000
  ---------------------------------------------------
  free energy    TOTEN  =      2010.13843190 eV

  energy without entropy =     2010.17031237  energy(sigma->0) =     2010.14640202


--------------------------------------------------------------------------------------------------------




--------------------------------------- Iteration      1(   3)  ---------------------------------------


     EDDAV:  cpu time  498.7551: real time  498.8024
       DOS:  cpu time    0.0011: real time    0.0011
    --------------------------------------------
      LOOP:  cpu time  498.7562: real time  498.8035

 eigenvalue-minimisations  :  1000
 total energy-change (2. order) :-0.1777580E+04  (-0.1673834E+04)
 number of electron     560.0000000 magnetization 
 augmentation part      560.0000000 magnetization 

 Free energy of the ion-electron system (eV)
  ---------------------------------------------------
  alpha Z        PSCENC =        75.25431677
  Ewald energy   TEWEN  =    138294.99100042
  -Hartree energ DENC   =   -181657.09947359
  -exchange      EXHF   =         0.00000000
  -V(xc)+E(xc)   XCENC  =     -1703.00262412
  PAW double counting   =     44873.02882129   -41398.84523641
  entropy T*S    EENTRO =        -0.06245364
  eigenvalues    EBANDS =     -3338.21133196
  atomic energy  EATOM  =     45086.50549395
  Solvation  Ediel_sol  =         0.00000000
  ---------------------------------------------------
  free energy    TOTEN  =       232.55851270 eV

  energy without entropy =      232.62096635  energy(sigma->0) =      232.57412611


--------------------------------------------------------------------------------------------------------




--------------------------------------- Iteration      1(   4)  ---------------------------------------


     EDDAV:  cpu time  432.1856: real time  432.2106
       DOS:  cpu time    0.0011: real time    0.0011
    --------------------------------------------
      LOOP:  cpu time  432.1868: real time  432.2117

 eigenvalue-minimisations  :   840
 total energy-change (2. order) :-0.3678245E+03  (-0.3169101E+03)
 number of electron     560.0000000 magnetization 
 augmentation part      560.0000000 magnetization 

 Free energy of the ion-electron system (eV)
  ---------------------------------------------------
  alpha Z        PSCENC =        75.25431677
  Ewald energy   TEWEN  =    138294.99100042
  -Hartree energ DENC   =   -181657.09947359
  -exchange      EXHF   =         0.00000000
  -V(xc)+E(xc)   XCENC  =     -1703.00262412
  PAW double counting   =     44873.02882129   -41398.84523641
  entropy T*S    EENTRO =        -0.03927413
  eigenvalues    EBANDS =     -3706.05903833
  atomic energy  EATOM  =     45086.50549395
  Solvation  Ediel_sol  =         0.00000000
  ---------------------------------------------------
  free energy    TOTEN  =      -135.26601416 eV

  energy without entropy =     -135.22674002  energy(sigma->0) =     -135.25619562


--------------------------------------------------------------------------------------------------------




--------------------------------------- Iteration      1(   5)  ---------------------------------------


     EDDAV:  cpu time  520.1395: real time  520.1558
       DOS:  cpu time    0.0014: real time    0.0014
    CHARGE:  cpu time   26.0031: real time   26.0054
    MIXING:  cpu time    0.4634: real time    0.4634
    --------------------------------------------
      LOOP:  cpu time  546.6075: real time  546.6261

 eigenvalue-minimisations  :  1048
 total energy-change (2. order) :-0.4438333E+02  (-0.3623415E+02)
 number of electron     559.9999870 magnetization 
 augmentation part      245.0447909 magnetization 

 Broyden mixing:
  rms(total) = 0.14452E+01    rms(broyden)= 0.14443E+01
  rms(prec ) = 0.15489E+01
  weight for this iteration     100.00

 Free energy of the ion-electron system (eV)
  ---------------------------------------------------
  alpha Z        PSCENC =        75.25431677
  Ewald energy   TEWEN  =    138294.99100042
  -Hartree energ DENC   =   -181657.09947359
  -exchange      EXHF   =         0.00000000
  -V(xc)+E(xc)   XCENC  =     -1703.00262412
  PAW double counting   =     44873.02882129   -41398.84523641
  entropy T*S    EENTRO =         0.52194145
  eigenvalues    EBANDS =     -3751.00358044
  atomic energy  EATOM  =     45086.50549395
  Solvation  Ediel_sol  =         0.00000000
  ---------------------------------------------------
  free energy    TOTEN  =      -179.64934068 eV

  energy without entropy =     -180.17128213  energy(sigma->0) =     -179.77982605


--------------------------------------------------------------------------------------------------------




--------------------------------------- Iteration      1(   6)  ---------------------------------------


    POTLOK:  cpu time   13.4912: real time   13.4934
    SETDIJ:  cpu time    0.1224: real time    0.1224
    EDDIAG:  cpu time   67.9933: real time   67.9992
  RMM-DIIS:  cpu time  192.5019: real time  192.5123
    ORTHCH:  cpu time   13.5158: real time   13.5157
       DOS:  cpu time    0.0014: real time    0.0014
    CHARGE:  cpu time   25.6647: real time   25.6644
    MIXING:  cpu time    0.4745: real time    0.4745
    --------------------------------------------
      LOOP:  cpu time  313.7653: real time  313.7834

 eigenvalue-minimisations  :   730
 total energy-change (2. order) :-0.6578064E+00  (-0.5688743E+01)
 number of electron     559.9999895 magnetization 
 augmentation part      240.5696760 magnetization 

 Broyden mixing:
  rms(total) = 0.23790E+01    rms(broyden)= 0.23788E+01
  rms(prec ) = 0.27574E+01
  weight for this iteration     100.00

 eigenvalues of (default mixing * dielectric matrix)
  average eigenvalue GAMMA=   0.3143
  0.3143

 Free energy of the ion-electron system (eV)
  ---------------------------------------------------
  alpha Z        PSCENC =        75.25431677
  Ewald energy   TEWEN  =    138294.99100042
  -Hartree energ DENC   =   -182054.28447334
  -exchange      EXHF   =         0.00000000
  -V(xc)+E(xc)   XCENC  =     -1696.76371645
  PAW double counting   =     45620.45980945   -42119.67034974
  entropy T*S    EENTRO =        -0.30072591
  eigenvalues    EBANDS =     -3386.49850228
  atomic energy  EATOM  =     45086.50549395
  Solvation  Ediel_sol  =         0.00000000
  ---------------------------------------------------
  free energy    TOTEN  =      -180.30714712 eV

  energy without entropy =     -180.00642121  energy(sigma->0) =     -180.23196564


--------------------------------------------------------------------------------------------------------




--------------------------------------- Iteration      1(   7)  ---------------------------------------


    POTLOK:  cpu time   13.1824: real time   13.1832
    SETDIJ:  cpu time    0.1244: real time    0.1244
    EDDIAG:  cpu time   67.3122: real time   67.3123
  RMM-DIIS:  cpu time  227.5440: real time  227.5452
    ORTHCH:  cpu time   13.5701: real time   13.5699
       DOS:  cpu time    0.0014: real time    0.0014
    CHARGE:  cpu time   25.0734: real time   25.0731
    MIXING:  cpu time    0.4900: real time    0.4900
    --------------------------------------------
      LOOP:  cpu time  347.2979: real time  347.2994

 eigenvalue-minimisations  :   852
 total energy-change (2. order) :-0.1889612E+01  (-0.1961371E+01)
 number of electron     559.9999844 magnetization 
 augmentation part      240.4901784 magnetization 

 Broyden mixing:
  rms(total) = 0.24345E+01    rms(broyden)= 0.24343E+01
  rms(prec ) = 0.29905E+01
  weight for this iteration     100.00

 eigenvalues of (default mixing * dielectric matrix)
  average eigenvalue GAMMA=   0.2853
  0.4350  0.1356

 Free energy of the ion-electron system (eV)
  ---------------------------------------------------
  alpha Z        PSCENC =        75.25431677
  Ewald energy   TEWEN  =    138294.99100042
  -Hartree energ DENC   =   -182137.93854634
  -exchange      EXHF   =         0.00000000
  -V(xc)+E(xc)   XCENC  =     -1696.97913180
  PAW double counting   =     45681.94068495   -42178.77948649
  entropy T*S    EENTRO =         0.05299873
  eigenvalues    EBANDS =     -3307.24408903
  atomic energy  EATOM  =     45086.50549395
  Solvation  Ediel_sol  =         0.00000000
  ---------------------------------------------------
  free energy    TOTEN  =      -182.19675883 eV

  energy without entropy =     -182.24975757  energy(sigma->0) =     -182.21000851


--------------------------------------------------------------------------------------------------------




--------------------------------------- Iteration      1(   8)  ---------------------------------------


    POTLOK:  cpu time   13.2377: real time   13.2403
    SETDIJ:  cpu time    0.1195: real time    0.1195
    EDDIAG:  cpu time   69.0854: real time   69.0874
  RMM-DIIS:  cpu time  212.9366: real time  212.9538
    ORTHCH:  cpu time   13.3859: real time   13.3857
       DOS:  cpu time    0.0014: real time    0.0014
    CHARGE:  cpu time   25.2078: real time   25.2074
    MIXING:  cpu time    0.5320: real time    0.5320
    --------------------------------------------
      LOOP:  cpu time  334.5063: real time  334.5275

 eigenvalue-minimisations  :   795
 total energy-change (2. order) :-0.1554611E+01  (-0.6123564E+00)
 number of electron     559.9999841 magnetization 
 augmentation part      240.2177951 magnetization 

 Broyden mixing:
  rms(total) = 0.24013E+01    rms(broyden)= 0.24009E+01
  rms(prec ) = 0.28029E+01
  weight for this iteration     100.00

 eigenvalues of (default mixing * dielectric matrix)
  average eigenvalue GAMMA=   0.3025
  0.6419  0.1328  0.1328

 Free energy of the ion-electron system (eV)
  ---------------------------------------------------
  alpha Z        PSCENC =        75.25431677
  Ewald energy   TEWEN  =    138294.99100042
  -Hartree energ DENC   =   -182174.51235866
  -exchange      EXHF   =         0.00000000
  -V(xc)+E(xc)   XCENC  =     -1696.99210468
  PAW double counting   =     45731.70278665   -42226.53705785
  entropy T*S    EENTRO =        -0.17916520
  eigenvalues    EBANDS =     -3273.98428130
  atomic energy  EATOM  =     45086.50549395
  Solvation  Ediel_sol  =         0.00000000
  ---------------------------------------------------
  free energy    TOTEN  =      -183.75136989 eV

  energy without entropy =     -183.57220469  energy(sigma->0) =     -183.70657859


--------------------------------------------------------------------------------------------------------




--------------------------------------- Iteration      1(   9)  ---------------------------------------


    POTLOK:  cpu time   13.5145: real time   13.5179
    SETDIJ:  cpu time    0.1260: real time    0.1261
    EDDIAG:  cpu time   68.0461: real time   68.0460
  RMM-DIIS:  cpu time  194.2689: real time  194.2712
    ORTHCH:  cpu time   13.1498: real time   13.1496
       DOS:  cpu time    0.0014: real time    0.0014
    CHARGE:  cpu time   25.3669: real time   25.3666
    MIXING:  cpu time    0.5467: real time    0.5467
    --------------------------------------------
      LOOP:  cpu time  315.0204: real time  315.0254

 eigenvalue-minimisations  :   721
 total energy-change (2. order) : 0.1183743E+01  (-0.5623272E+00)
 number of electron     559.9999857 magnetization 
 augmentation part      240.9347844 magnetization 

 Broyden mixing:
  rms(total) = 0.26464E+01    rms(broyden)= 0.26461E+01
  rms(prec ) = 0.30303E+01
  weight for this iteration     100.00

 eigenvalues of (default mixing * dielectric matrix)
  average eigenvalue GAMMA=   0.2842
  0.7437  0.1473  0.1473  0.0986

 Free energy of the ion-electron system (eV)
  ---------------------------------------------------
  alpha Z        PSCENC =        75.25431677
  Ewald energy   TEWEN  =    138294.99100042
  -Hartree energ DENC   =   -182200.68656977
  -exchange      EXHF   =         0.00000000
  -V(xc)+E(xc)   XCENC  =     -1696.98220834
  PAW double counting   =     45804.03109706   -42295.96248635
  entropy T*S    EENTRO =        -0.10497006
  eigenvalues    EBANDS =     -3249.61330094
  atomic energy  EATOM  =     45086.50549395
  Solvation  Ediel_sol  =         0.00000000
  ---------------------------------------------------
  free energy    TOTEN  =      -182.56762725 eV

  energy without entropy =     -182.46265718  energy(sigma->0) =     -182.54138473


--------------------------------------------------------------------------------------------------------




--------------------------------------- Iteration      1(  10)  ---------------------------------------


    POTLOK:  cpu time   13.1737: real time   13.1744
    SETDIJ:  cpu time    0.1186: real time    0.1186
    EDDIAG:  cpu time   67.2374: real time   67.2371
  RMM-DIIS:  cpu time  197.9779: real time  197.9773
    ORTHCH:  cpu time   13.1434: real time   13.1432
       DOS:  cpu time    0.0015: real time    0.0015
    CHARGE:  cpu time   25.1688: real time   25.1698
    MIXING:  cpu time    0.5608: real time    0.5608
    --------------------------------------------
      LOOP:  cpu time  317.3820: real time  317.3827

 eigenvalue-minimisations  :   735
 total energy-change (2. order) : 0.2188757E+01  (-0.2977521E+00)
 number of electron     559.9999857 magnetization 
 augmentation part      241.2460616 magnetization 

 Broyden mixing:
  rms(total) = 0.23322E+01    rms(broyden)= 0.23319E+01
  rms(prec ) = 0.26812E+01
  weight for this iteration     100.00

 eigenvalues of (default mixing * dielectric matrix)
  average eigenvalue GAMMA=   0.2663
  0.8213  0.1547  0.1547  0.1226  0.0784

 Free energy of the ion-electron system (eV)
  ---------------------------------------------------
  alpha Z        PSCENC =        75.25431677
  Ewald energy   TEWEN  =    138294.99100042
  -Hartree energ DENC   =   -182228.91196447
  -exchange      EXHF   =         0.00000000
  -V(xc)+E(xc)   XCENC  =     -1696.86829510
  PAW double counting   =     45847.63034554   -42337.87641168
  entropy T*S    EENTRO =        -0.13786021
  eigenvalues    EBANDS =     -3220.96549579
  atomic energy  EATOM  =     45086.50549395
  Solvation  Ediel_sol  =         0.00000000
  ---------------------------------------------------
  free energy    TOTEN  =      -180.37887057 eV

  energy without entropy =     -180.24101035  energy(sigma->0) =     -180.34440551


--------------------------------------------------------------------------------------------------------




--------------------------------------- Iteration      1(  11)  ---------------------------------------


    POTLOK:  cpu time   13.0983: real time   13.0990
    SETDIJ:  cpu time    0.1222: real time    0.1222
    EDDIAG:  cpu time   68.3058: real time   68.3077
  RMM-DIIS:  cpu time  192.7341: real time  192.7338
    ORTHCH:  cpu time   13.4112: real time   13.4110
       DOS:  cpu time    0.0015: real time    0.0015
    CHARGE:  cpu time   25.7968: real time   25.7966
    MIXING:  cpu time    0.6074: real time    0.6074
    --------------------------------------------
      LOOP:  cpu time  314.0772: real time  314.0792

 eigenvalue-minimisations  :   723
 total energy-change (2. order) : 0.2047039E+01  (-0.2100969E+00)
 number of electron     559.9999870 magnetization 
 augmentation part      241.4694700 magnetization 

 Broyden mixing:
  rms(total) = 0.16012E+01    rms(broyden)= 0.16010E+01
  rms(prec ) = 0.18342E+01
  weight for this iteration     100.00

 eigenvalues of (default mixing * dielectric matrix)
  average eigenvalue GAMMA=   0.2629
  0.8977  0.1921  0.1921  0.1106  0.1106  0.0740

 Free energy of the ion-electron system (eV)
  ---------------------------------------------------
  alpha Z        PSCENC =        75.25431677
  Ewald energy   TEWEN  =    138294.99100042
  -Hartree energ DENC   =   -182248.86658758
  -exchange      EXHF   =         0.00000000
  -V(xc)+E(xc)   XCENC  =     -1696.71881414
  PAW double counting   =     45883.70815288   -42372.44218865
  entropy T*S    EENTRO =        -0.16999693
  eigenvalues    EBANDS =     -3200.59320807
  atomic energy  EATOM  =     45086.50549395
  Solvation  Ediel_sol  =         0.00000000
  ---------------------------------------------------
  free energy    TOTEN  =      -178.33183135 eV

  energy without entropy =     -178.16183442  energy(sigma->0) =     -178.28933212


--------------------------------------------------------------------------------------------------------




--------------------------------------- Iteration      1(  12)  ---------------------------------------


    POTLOK:  cpu time   13.3432: real time   13.3441
    SETDIJ:  cpu time    0.1215: real time    0.1215
    EDDIAG:  cpu time   69.1629: real time   69.1635
  RMM-DIIS:  cpu time  189.3289: real time  189.3287
    ORTHCH:  cpu time   13.7647: real time   13.7645
       DOS:  cpu time    0.0015: real time    0.0015
    CHARGE:  cpu time   25.7367: real time   25.7364
    MIXING:  cpu time    0.6380: real time    0.6380
    --------------------------------------------
      LOOP:  cpu time  312.0975: real time  312.0982

 eigenvalue-minimisations  :   714
 total energy-change (2. order) : 0.7276521E+00  (-0.1469643E+00)
 number of electron     559.9999860 magnetization 
 augmentation part      241.6327874 magnetization 

 Broyden mixing:
  rms(total) = 0.17199E+01    rms(broyden)= 0.17197E+01
  rms(prec ) = 0.21261E+01
  weight for this iteration     100.00

 eigenvalues of (default mixing * dielectric matrix)
  average eigenvalue GAMMA=   0.2502
  0.9328  0.2201  0.2201  0.1102  0.1102  0.0920  0.0661

 Free energy of the ion-electron system (eV)
  ---------------------------------------------------
  alpha Z        PSCENC =        75.25431677
  Ewald energy   TEWEN  =    138294.99100042
  -Hartree energ DENC   =   -182264.99723833
  -exchange      EXHF   =         0.00000000
  -V(xc)+E(xc)   XCENC  =     -1696.48557429
  PAW double counting   =     45918.83605709   -42405.96174757
  entropy T*S    EENTRO =        -0.08816378
  eigenvalues    EBANDS =     -3185.65832347
  atomic energy  EATOM  =     45086.50549395
  Solvation  Ediel_sol  =         0.00000000
  ---------------------------------------------------
  free energy    TOTEN  =      -177.60417920 eV

  energy without entropy =     -177.51601542  energy(sigma->0) =     -177.58213826


--------------------------------------------------------------------------------------------------------




--------------------------------------- Iteration      1(  13)  ---------------------------------------


    POTLOK:  cpu time   13.2733: real time   13.2743
    SETDIJ:  cpu time    0.1188: real time    0.1188
    EDDIAG:  cpu time   68.4207: real time   68.4209
  RMM-DIIS:  cpu time  194.3088: real time  194.3091
    ORTHCH:  cpu time   14.0920: real time   14.0918
       DOS:  cpu time    0.0015: real time    0.0015
    CHARGE:  cpu time   25.2844: real time   25.2842
    MIXING:  cpu time    0.6820: real time    0.6820
    --------------------------------------------
      LOOP:  cpu time  316.1814: real time  316.1825

 eigenvalue-minimisations  :   729
 total energy-change (2. order) : 0.6906482E+00  (-0.7125816E-01)
 number of electron     559.9999850 magnetization 
 augmentation part      241.7150422 magnetization 

 Broyden mixing:
  rms(total) = 0.14276E+01    rms(broyden)= 0.14273E+01
  rms(prec ) = 0.16866E+01
  weight for this iteration     100.00

 eigenvalues of (default mixing * dielectric matrix)
  average eigenvalue GAMMA=   0.2629
  1.0402  0.2845  0.2845  0.1198  0.1198  0.1295  0.0749  0.0499

 Free energy of the ion-electron system (eV)
  ---------------------------------------------------
  alpha Z        PSCENC =        75.25431677
  Ewald energy   TEWEN  =    138294.99100042
  -Hartree energ DENC   =   -182279.34600001
  -exchange      EXHF   =         0.00000000
  -V(xc)+E(xc)   XCENC  =     -1696.30401932
  PAW double counting   =     45940.56875947   -42426.64972580
  entropy T*S    EENTRO =        -0.10497533
  eigenvalues    EBANDS =     -3171.82838114
  atomic energy  EATOM  =     45086.50549395
  Solvation  Ediel_sol  =         0.00000000
  ---------------------------------------------------
  free energy    TOTEN  =      -176.91353099 eV

  energy without entropy =     -176.80855565  energy(sigma->0) =     -176.88728715


--------------------------------------------------------------------------------------------------------




--------------------------------------- Iteration      1(  14)  ---------------------------------------


    POTLOK:  cpu time   13.0676: real time   13.0683
    SETDIJ:  cpu time    0.1229: real time    0.1229
    EDDIAG:  cpu time   68.0148: real time   68.0187
  RMM-DIIS:  cpu time  189.4755: real time  189.4818
    ORTHCH:  cpu time   13.6126: real time   13.6126
       DOS:  cpu time    0.0014: real time    0.0014
    CHARGE:  cpu time   25.2165: real time   25.2164
    MIXING:  cpu time    0.7051: real time    0.7051
    --------------------------------------------
      LOOP:  cpu time  310.2164: real time  310.2272

 eigenvalue-minimisations  :   712
 total energy-change (2. order) :-0.1506434E+00  (-0.1232224E+00)
 number of electron     559.9999848 magnetization 
 augmentation part      241.4787788 magnetization 

 Broyden mixing:
  rms(total) = 0.17325E+01    rms(broyden)= 0.17323E+01
  rms(prec ) = 0.19882E+01
  weight for this iteration     100.00

 eigenvalues of (default mixing * dielectric matrix)
  average eigenvalue GAMMA=   0.2722
  1.1669  0.4229  0.2657  0.1238  0.1238  0.1256  0.1008  0.0695  0.0503

 Free energy of the ion-electron system (eV)
  ---------------------------------------------------
  alpha Z        PSCENC =        75.25431677
  Ewald energy   TEWEN  =    138294.99100042
  -Hartree energ DENC   =   -182317.05252536
  -exchange      EXHF   =         0.00000000
  -V(xc)+E(xc)   XCENC  =     -1695.81908688
  PAW double counting   =     45995.63936129   -42479.01967124
  entropy T*S    EENTRO =        -0.15310771
  eigenvalues    EBANDS =     -3137.40995562
  atomic energy  EATOM  =     45086.50549395
  Solvation  Ediel_sol  =         0.00000000
  ---------------------------------------------------
  free energy    TOTEN  =      -177.06417439 eV

  energy without entropy =     -176.91106667  energy(sigma->0) =     -177.02589746


--------------------------------------------------------------------------------------------------------




--------------------------------------- Iteration      1(  15)  ---------------------------------------


    POTLOK:  cpu time   13.1698: real time   13.1706
    SETDIJ:  cpu time    0.1211: real time    0.1211
    EDDIAG:  cpu time   68.3331: real time   68.3332
  RMM-DIIS:  cpu time  189.8598: real time  189.8671
    ORTHCH:  cpu time   13.2698: real time   13.2697
       DOS:  cpu time    0.0015: real time    0.0015
    CHARGE:  cpu time   25.3597: real time   25.3596
    MIXING:  cpu time    0.8446: real time    0.8446
    --------------------------------------------
      LOOP:  cpu time  310.9594: real time  310.9675

 eigenvalue-minimisations  :   714
 total energy-change (2. order) : 0.3341701E+00  (-0.1045884E+00)
 number of electron     559.9999862 magnetization 
 augmentation part      241.2519450 magnetization 

 Broyden mixing:
  rms(total) = 0.17689E+01    rms(broyden)= 0.17687E+01
  rms(prec ) = 0.20453E+01
  weight for this iteration     100.00

 eigenvalues of (default mixing * dielectric matrix)
  average eigenvalue GAMMA=   0.2814
  1.2989  0.5912  0.2238  0.1436  0.1436  0.1086  0.1086  0.0742  0.0742  0.0475

 Free energy of the ion-electron system (eV)
  ---------------------------------------------------
  alpha Z        PSCENC =        75.25431677
  Ewald energy   TEWEN  =    138294.99100042
  -Hartree energ DENC   =   -182351.88055982
  -exchange      EXHF   =         0.00000000
  -V(xc)+E(xc)   XCENC  =     -1695.29222575
  PAW double counting   =     46049.24662657   -42529.95135375
  entropy T*S    EENTRO =        -0.06365151
  eigenvalues    EBANDS =     -3105.53965119
  atomic energy  EATOM  =     45086.50549395
  Solvation  Ediel_sol  =         0.00000000
  ---------------------------------------------------
  free energy    TOTEN  =      -176.73000431 eV

  energy without entropy =     -176.66635280  energy(sigma->0) =     -176.71409143


--------------------------------------------------------------------------------------------------------




--------------------------------------- Iteration      1(  16)  ---------------------------------------


    POTLOK:  cpu time   13.3247: real time   13.3311
    SETDIJ:  cpu time    0.1283: real time    0.1284
    EDDIAG:  cpu time   68.5021: real time   68.5064
  RMM-DIIS:  cpu time  184.9358: real time  184.9440
    ORTHCH:  cpu time   13.4739: real time   13.4738
       DOS:  cpu time    0.0015: real time    0.0015
    CHARGE:  cpu time   25.0773: real time   25.0771
    MIXING:  cpu time    0.8119: real time    0.8119
    --------------------------------------------
      LOOP:  cpu time  306.2556: real time  306.2740

 eigenvalue-minimisations  :   701
 total energy-change (2. order) : 0.5270777E+00  (-0.8591616E-01)
 number of electron     559.9999866 magnetization 
 augmentation part      241.1518588 magnetization 

 Broyden mixing:
  rms(total) = 0.13849E+01    rms(broyden)= 0.13847E+01
  rms(prec ) = 0.16470E+01
  weight for this iteration     100.00

 eigenvalues of (default mixing * dielectric matrix)
  average eigenvalue GAMMA=   0.2943
  1.4443  0.6992  0.1989  0.1989  0.1998  0.1136  0.1136  0.0761  0.0761  0.0692
  0.0475

 Free energy of the ion-electron system (eV)
  ---------------------------------------------------
  alpha Z        PSCENC =        75.25431677
  Ewald energy   TEWEN  =    138294.99100042
  -Hartree energ DENC   =   -182380.94936912
  -exchange      EXHF   =         0.00000000
  -V(xc)+E(xc)   XCENC  =     -1694.86495570
  PAW double counting   =     46091.22220469   -42569.78398036
  entropy T*S    EENTRO =        -0.06074614
  eigenvalues    EBANDS =     -3078.51689116
  atomic energy  EATOM  =     45086.50549395
  Solvation  Ediel_sol  =         0.00000000
  ---------------------------------------------------
  free energy    TOTEN  =      -176.20292665 eV

  energy without entropy =     -176.14218051  energy(sigma->0) =     -176.18774011


--------------------------------------------------------------------------------------------------------




--------------------------------------- Iteration      1(  17)  ---------------------------------------


    POTLOK:  cpu time   13.3890: real time   13.3898
    SETDIJ:  cpu time    0.1215: real time    0.1215
    EDDIAG:  cpu time   68.7110: real time   68.7122
  RMM-DIIS:  cpu time  186.6095: real time  186.6103
    ORTHCH:  cpu time   13.5901: real time   13.5899
       DOS:  cpu time    0.0015: real time    0.0015
    CHARGE:  cpu time   25.4348: real time   25.4344
    MIXING:  cpu time    0.8819: real time    0.8819
    --------------------------------------------
      LOOP:  cpu time  308.7393: real time  308.7414

 eigenvalue-minimisations  :   712
 total energy-change (2. order) :-0.1439621E+00  (-0.6328809E-01)
 number of electron     559.9999859 magnetization 
 augmentation part      241.0487519 magnetization 

 Broyden mixing:
  rms(total) = 0.15777E+01    rms(broyden)= 0.15775E+01
  rms(prec ) = 0.18975E+01
  weight for this iteration     100.00

 eigenvalues of (default mixing * dielectric matrix)
  average eigenvalue GAMMA=   0.2961
  1.5073  0.7849  0.2532  0.2532  0.1802  0.1172  0.1172  0.0818  0.0818  0.0709
  0.0579  0.0477

 Free energy of the ion-electron system (eV)
  ---------------------------------------------------
  alpha Z        PSCENC =        75.25431677
  Ewald energy   TEWEN  =    138294.99100042
  -Hartree energ DENC   =   -182405.42031162
  -exchange      EXHF   =         0.00000000
  -V(xc)+E(xc)   XCENC  =     -1694.53570724
  PAW double counting   =     46123.30829879   -42600.11967137
  entropy T*S    EENTRO =        -0.03354796
  eigenvalues    EBANDS =     -3056.29676052
  atomic energy  EATOM  =     45086.50549395
  Solvation  Ediel_sol  =         0.00000000
  ---------------------------------------------------
  free energy    TOTEN  =      -176.34688877 eV

  energy without entropy =     -176.31334081  energy(sigma->0) =     -176.33850178


--------------------------------------------------------------------------------------------------------




--------------------------------------- Iteration      1(  18)  ---------------------------------------


    POTLOK:  cpu time   13.3204: real time   13.3212
    SETDIJ:  cpu time    0.1260: real time    0.1260
    EDDIAG:  cpu time   68.3505: real time   68.3673
  RMM-DIIS:  cpu time  185.4598: real time  185.4723
    ORTHCH:  cpu time   13.5233: real time   13.5264
       DOS:  cpu time    0.0015: real time    0.0015
    CHARGE:  cpu time   25.3329: real time   25.3369
    MIXING:  cpu time    0.9358: real time    0.9358
    --------------------------------------------
      LOOP:  cpu time  307.0503: real time  307.0874

 eigenvalue-minimisations  :   707
 total energy-change (2. order) : 0.4000094E+00  (-0.4651225E-01)
 number of electron     559.9999875 magnetization 
 augmentation part      241.0885229 magnetization 

 Broyden mixing:
  rms(total) = 0.12153E+01    rms(broyden)= 0.12150E+01
  rms(prec ) = 0.13884E+01
  weight for this iteration     100.00

 eigenvalues of (default mixing * dielectric matrix)
  average eigenvalue GAMMA=   0.3031
  1.5956  0.9067  0.3039  0.3039  0.1246  0.1246  0.1258  0.1258  0.0819  0.0819
  0.0684  0.0497  0.0470

 Free energy of the ion-electron system (eV)
  ---------------------------------------------------
  alpha Z        PSCENC =        75.25431677
  Ewald energy   TEWEN  =    138294.99100042
  -Hartree energ DENC   =   -182418.44055925
  -exchange      EXHF   =         0.00000000
  -V(xc)+E(xc)   XCENC  =     -1694.35813278
  PAW double counting   =     46137.33957969   -42613.23428173
  entropy T*S    EENTRO =        -0.04222193
  eigenvalues    EBANDS =     -3043.96207451
  atomic energy  EATOM  =     45086.50549395
  Solvation  Ediel_sol  =         0.00000000
  ---------------------------------------------------
  free energy    TOTEN  =      -175.94687937 eV

  energy without entropy =     -175.90465744  energy(sigma->0) =     -175.93632389


--------------------------------------------------------------------------------------------------------




--------------------------------------- Iteration      1(  19)  ---------------------------------------


    POTLOK:  cpu time   13.3369: real time   13.3376
    SETDIJ:  cpu time    0.1228: real time    0.1228
    EDDIAG:  cpu time   67.4606: real time   67.4605
  RMM-DIIS:  cpu time  185.4146: real time  185.4194
    ORTHCH:  cpu time   13.6582: real time   13.6605
       DOS:  cpu time    0.0015: real time    0.0015
    CHARGE:  cpu time   25.2638: real time   25.2638
    MIXING:  cpu time    0.9930: real time    0.9930
    --------------------------------------------
      LOOP:  cpu time  306.2514: real time  306.2591

 eigenvalue-minimisations  :   704
 total energy-change (2. order) : 0.2501264E-01  (-0.4162251E-01)
 number of electron     559.9999869 magnetization 
 augmentation part      241.0907237 magnetization 

 Broyden mixing:
  rms(total) = 0.11521E+01    rms(broyden)= 0.11519E+01
  rms(prec ) = 0.13231E+01
  weight for this iteration     100.00

 eigenvalues of (default mixing * dielectric matrix)
  average eigenvalue GAMMA=   0.3162
  1.6186  1.1558  0.3508  0.3508  0.1568  0.1568  0.1152  0.1152  0.0795  0.0795
  0.0752  0.0752  0.0478  0.0491

 Free energy of the ion-electron system (eV)
  ---------------------------------------------------
  alpha Z        PSCENC =        75.25431677
  Ewald energy   TEWEN  =    138294.99100042
  -Hartree energ DENC   =   -182434.55288582
  -exchange      EXHF   =         0.00000000
  -V(xc)+E(xc)   XCENC  =     -1694.16447437
  PAW double counting   =     46150.59526080   -42625.46666902
  entropy T*S    EENTRO =        -0.03298891
  eigenvalues    EBANDS =     -3029.05092056
  atomic energy  EATOM  =     45086.50549395
  Solvation  Ediel_sol  =         0.00000000
  ---------------------------------------------------
  free energy    TOTEN  =      -175.92186674 eV

  energy without entropy =     -175.88887783  energy(sigma->0) =     -175.91361951


--------------------------------------------------------------------------------------------------------




--------------------------------------- Iteration      1(  20)  ---------------------------------------


    POTLOK:  cpu time   13.0657: real time   13.0665
    SETDIJ:  cpu time    0.1183: real time    0.1183
    EDDIAG:  cpu time   67.6138: real time   67.6144
  RMM-DIIS:  cpu time  189.2419: real time  189.2561
    ORTHCH:  cpu time   13.4362: real time   13.4362
       DOS:  cpu time    0.0015: real time    0.0015
    CHARGE:  cpu time   25.2482: real time   25.2480
    MIXING:  cpu time    1.0164: real time    1.0164
    --------------------------------------------
      LOOP:  cpu time  309.7420: real time  309.7574

 eigenvalue-minimisations  :   718
 total energy-change (2. order) :-0.9499832E-01  (-0.3538864E-01)
 number of electron     559.9999880 magnetization 
 augmentation part      241.1000404 magnetization 

 Broyden mixing:
  rms(total) = 0.15302E+01    rms(broyden)= 0.15301E+01
  rms(prec ) = 0.18185E+01
  weight for this iteration     100.00

 eigenvalues of (default mixing * dielectric matrix)
  average eigenvalue GAMMA=   0.3123
  1.7521  1.1207  0.3774  0.3774  0.1730  0.1730  0.1153  0.1153  0.0884  0.0884
  0.0711  0.0695  0.0695  0.0467  0.0467

 Free energy of the ion-electron system (eV)
  ---------------------------------------------------
  alpha Z        PSCENC =        75.25431677
  Ewald energy   TEWEN  =    138294.99100042
  -Hartree energ DENC   =   -182455.95752401
  -exchange      EXHF   =         0.00000000
  -V(xc)+E(xc)   XCENC  =     -1693.98101604
  PAW double counting   =     46159.45489671   -42633.26764666
  entropy T*S    EENTRO =         0.02871943
  eigenvalues    EBANDS =     -3009.04510563
  atomic energy  EATOM  =     45086.50549395
  Solvation  Ediel_sol  =         0.00000000
  ---------------------------------------------------
  free energy    TOTEN  =      -176.01686506 eV

  energy without entropy =     -176.04558449  energy(sigma->0) =     -176.02404492


--------------------------------------------------------------------------------------------------------




--------------------------------------- Iteration      1(  21)  ---------------------------------------


    POTLOK:  cpu time   13.3007: real time   13.3043
    SETDIJ:  cpu time    0.1222: real time    0.1222
    EDDIAG:  cpu time   67.3159: real time   67.3243
  RMM-DIIS:  cpu time  184.5035: real time  184.5062
    ORTHCH:  cpu time   13.4189: real time   13.4189
       DOS:  cpu time    0.0015: real time    0.0015
    CHARGE:  cpu time   24.9645: real time   24.9645
    MIXING:  cpu time    1.0655: real time    1.0655
    --------------------------------------------
      LOOP:  cpu time  304.6927: real time  304.7075

 eigenvalue-minimisations  :   705
 total energy-change (2. order) : 0.4304615E+00  (-0.2196934E-01)
 number of electron     559.9999876 magnetization 
 augmentation part      241.1078208 magnetization 

 Broyden mixing:
  rms(total) = 0.92713E+00    rms(broyden)= 0.92698E+00
  rms(prec ) = 0.10693E+01
  weight for this iteration     100.00

 eigenvalues of (default mixing * dielectric matrix)
  average eigenvalue GAMMA=   0.3109
  1.8173  1.1664  0.4010  0.4010  0.1890  0.1890  0.1171  0.1171  0.0957  0.0957
  0.0828  0.0828  0.0634  0.0634  0.0475  0.0452

 Free energy of the ion-electron system (eV)
  ---------------------------------------------------
  alpha Z        PSCENC =        75.25431677
  Ewald energy   TEWEN  =    138294.99100042
  -Hartree energ DENC   =   -182466.29002841
  -exchange      EXHF   =         0.00000000
  -V(xc)+E(xc)   XCENC  =     -1693.87867287
  PAW double counting   =     46166.11898590   -42639.36804583
  entropy T*S    EENTRO =        -0.04840221
  eigenvalues    EBANDS =     -2998.87105131
  atomic energy  EATOM  =     45086.50549395
  Solvation  Ediel_sol  =         0.00000000
  ---------------------------------------------------
  free energy    TOTEN  =      -175.58640359 eV

  energy without entropy =     -175.53800138  energy(sigma->0) =     -175.57430304


--------------------------------------------------------------------------------------------------------




--------------------------------------- Iteration      1(  22)  ---------------------------------------


    POTLOK:  cpu time   13.1544: real time   13.1566
    SETDIJ:  cpu time    0.1229: real time    0.1229
    EDDIAG:  cpu time   67.6956: real time   67.6965
  RMM-DIIS:  cpu time  180.6916: real time  180.6985
    ORTHCH:  cpu time   13.6456: real time   13.6455
       DOS:  cpu time    0.0015: real time    0.0015
    CHARGE:  cpu time   24.9449: real time   24.9446
    MIXING:  cpu time    1.1416: real time    1.1415
    --------------------------------------------
      LOOP:  cpu time  301.3981: real time  301.4076

 eigenvalue-minimisations  :   696
 total energy-change (2. order) : 0.1516901E+00  (-0.1927426E-01)
 number of electron     559.9999873 magnetization 
 augmentation part      241.1344198 magnetization 

 Broyden mixing:
  rms(total) = 0.78522E+00    rms(broyden)= 0.78510E+00
  rms(prec ) = 0.93775E+00
  weight for this iteration     100.00

 eigenvalues of (default mixing * dielectric matrix)
  average eigenvalue GAMMA=   0.3146
  1.9296  1.2331  0.3812  0.3812  0.2487  0.1774  0.1774  0.1194  0.1194  0.1251
  0.0839  0.0839  0.0665  0.0665  0.0632  0.0476  0.0446

 Free energy of the ion-electron system (eV)
  ---------------------------------------------------
  alpha Z        PSCENC =        75.25431677
  Ewald energy   TEWEN  =    138294.99100042
  -Hartree energ DENC   =   -182477.33215663
  -exchange      EXHF   =         0.00000000
  -V(xc)+E(xc)   XCENC  =     -1693.78568204
  PAW double counting   =     46168.36610887   -42641.13198989
  entropy T*S    EENTRO =        -0.07261240
  eigenvalues    EBANDS =     -2988.22919250
  atomic energy  EATOM  =     45086.50549395
  Solvation  Ediel_sol  =         0.00000000
  ---------------------------------------------------
  free energy    TOTEN  =      -175.43471345 eV

  energy without entropy =     -175.36210105  energy(sigma->0) =     -175.41656035


--------------------------------------------------------------------------------------------------------




--------------------------------------- Iteration      1(  23)  ---------------------------------------


    POTLOK:  cpu time   13.1722: real time   13.1790
    SETDIJ:  cpu time    0.1214: real time    0.1214
    EDDIAG:  cpu time   67.3427: real time   67.3508
  RMM-DIIS:  cpu time  181.0938: real time  181.0962
    ORTHCH:  cpu time   13.4542: real time   13.4540
       DOS:  cpu time    0.0015: real time    0.0015
    CHARGE:  cpu time   24.9757: real time   24.9754
    MIXING:  cpu time    1.1783: real time    1.1783
    --------------------------------------------
      LOOP:  cpu time  301.3399: real time  301.3568

 eigenvalue-minimisations  :   692
 total energy-change (2. order) : 0.3769174E-01  (-0.1915313E-01)
 number of electron     559.9999872 magnetization 
 augmentation part      241.1360307 magnetization 

 Broyden mixing:
  rms(total) = 0.84421E+00    rms(broyden)= 0.84408E+00
  rms(prec ) = 0.97656E+00
  weight for this iteration     100.00

 eigenvalues of (default mixing * dielectric matrix)
  average eigenvalue GAMMA=   0.3270
[...]
 -0.007  -0.012   0.004   0.004   0.005  -0.006  -0.011   0.004
 -0.011  -0.020   0.006   0.007   0.009  -0.011  -0.019   0.006
 -0.015  -0.005   0.013   0.000   0.022  -0.014  -0.005   0.012
  0.000  -0.023  -0.006  -0.015  -0.000   0.000  -0.022  -0.006
 -0.022   0.000   0.009  -0.005  -0.016  -0.022   0.000   0.009
 -0.018  -0.006   0.015   0.000   0.027  -0.017  -0.006   0.015
  0.000  -0.027  -0.007  -0.019   0.000   0.000  -0.027  -0.007
 -0.027   0.000   0.011  -0.006  -0.019  -0.026   0.000   0.010
 total augmentation occupancy for first ion, spin component:           1
  1.537  -0.031   0.004   0.015   0.022   0.076  -0.008  -0.002   0.036  -0.009   0.088  -0.031   0.012   0.003   0.003  -0.019
 -0.031   1.402   0.029   0.069  -0.001  -0.007   0.070   0.011  -0.014  -0.007   0.214  -0.064   0.019   0.002   0.003  -0.006
  0.004   0.029   1.544   0.002   0.002  -0.002   0.012   0.073  -0.013   0.017  -0.052   0.018  -0.003  -0.007  -0.005   0.016
  0.015   0.069   0.002   1.338   0.044   0.034  -0.013  -0.012   0.091  -0.023  -0.084   0.022  -0.001  -0.008  -0.003   0.001
  0.022  -0.001   0.002   0.044   1.441  -0.010  -0.008   0.016  -0.022   0.067  -0.096   0.031  -0.003  -0.010  -0.009   0.026
  0.076  -0.007  -0.002   0.034  -0.010   0.217   0.019  -0.002  -0.045   0.003  -0.047   0.002   0.017  -0.010   0.034  -0.004
 -0.008   0.070   0.012  -0.013  -0.008   0.019   0.262  -0.023  -0.003   0.006  -0.109   0.007  -0.001   0.051  -0.010  -0.000
 -0.002   0.011   0.073  -0.012   0.016  -0.002  -0.023   0.215   0.014  -0.020   0.027  -0.001  -0.012   0.009  -0.018   0.003
  0.036  -0.014  -0.013   0.091  -0.022  -0.045  -0.003   0.014   0.260   0.007   0.043  -0.004  -0.009   0.036   0.004   0.000
 -0.009  -0.007   0.017  -0.023   0.067   0.003   0.006  -0.020   0.007   0.258   0.047  -0.003  -0.038   0.002   0.049   0.007
  0.088   0.214  -0.052  -0.084  -0.096  -0.047  -0.109   0.027   0.043   0.047   0.949  -0.141   0.084   0.014   0.064  -0.013
 -0.031  -0.064   0.018   0.022   0.031   0.002   0.007  -0.001  -0.004  -0.003  -0.141   0.023  -0.014  -0.003  -0.010   0.003
  0.012   0.019  -0.003  -0.001  -0.003   0.017  -0.001  -0.012  -0.009  -0.038   0.084  -0.014   0.029  -0.008  -0.004  -0.003
  0.003   0.002  -0.007  -0.008  -0.010  -0.010   0.051   0.009   0.036   0.002   0.014  -0.003  -0.008   0.036   0.004   0.000
  0.003   0.003  -0.005  -0.003  -0.009   0.034  -0.010  -0.018   0.004   0.049   0.064  -0.010  -0.004   0.004   0.034  -0.000
 -0.019  -0.006   0.016   0.001   0.026  -0.004  -0.000   0.003   0.000   0.007  -0.013   0.003  -0.003   0.000  -0.000   0.001
  0.001  -0.028  -0.007  -0.018   0.001   0.001  -0.008  -0.001  -0.006  -0.000  -0.003   0.001   0.000  -0.003  -0.000   0.000
 -0.028   0.001   0.012  -0.005  -0.020  -0.006   0.001   0.003  -0.001  -0.007  -0.008   0.001  -0.000  -0.000  -0.003   0.000


------------------------ aborting loop because EDIFF is reached ----------------------------------------


    CHARGE:  cpu time   25.1297: real time   25.1325
    FORLOC:  cpu time    6.7836: real time    6.7835
    FORNL :  cpu time   67.0558: real time   67.0605
    STRESS:  cpu time  202.9047: real time  202.9198
    FORCOR:  cpu time   22.1291: real time   22.1291
    FORHAR:  cpu time    9.7925: real time    9.7924
    MIXING:  cpu time    3.9144: real time    3.9144
    OFIELD:  cpu time    0.0000: real time    0.0000

  FORCE on cell =-STRESS in cart. coord.  units (eV):
  Direction    XX          YY          ZZ          XY          YZ          ZX
  --------------------------------------------------------------------------------------
  Alpha Z    75.25432    75.25432    75.25432
  Ewald   44419.07929 47519.17240 46356.63357   778.37950  1994.43030   813.76793
  Hartree 59320.21729 62230.02677 61099.88093   720.98952  1824.98052   738.48317
  E(xc)   -2905.41882 -2904.27566 -2904.06948     0.32116     0.99658     0.38617
  Local  ************************************ -1492.00200 -3801.88752 -1546.02956
  n-local  -883.31146  -886.04401  -884.89860    -1.42901    -1.16808    -1.27993
  augment  4105.55411  4103.94532  4101.74514    -0.56972    -2.28138    -0.44926
  Kinetic  7813.46622  7801.46424  7798.44644    -4.71369   -12.74045    -4.38385
  Fock        0.00000     0.00000     0.00000     0.00000     0.00000     0.00000
  -------------------------------------------------------------------------------------
  Total    -114.18922  -111.94278  -114.43659     0.97577     2.32997     0.49467
  in kB      -6.77598    -6.64267    -6.79066     0.05790     0.13826     0.02935
  external pressure =       -6.74 kB  Pullay stress =        0.00 kB


 VOLUME and BASIS-vectors are now :
 -----------------------------------------------------------------------------
  energy-cutoff  :      400.00
  volume of cell :    27000.00
      direct lattice vectors                 reciprocal lattice vectors
    30.000000000  0.000000000  0.000000000     0.033333333  0.000000000  0.000000000
     0.000000000 30.000000000  0.000000000     0.000000000  0.033333333  0.000000000
     0.000000000  0.000000000 30.000000000     0.000000000  0.000000000  0.033333333

  length of vectors
    30.000000000 30.000000000 30.000000000     0.033333333  0.033333333  0.033333333


 FORCES acting on ions
    electron-ion (+dipol)            ewald-force                    non-local-force                 convergence-correction
 -----------------------------------------------------------------------------------------------
   0.395E+03 0.973E+03 0.419E+03   -.393E+03 -.970E+03 -.418E+03   -.151E+01 -.182E+01 -.218E+00   -.341E-02 0.416E-02 -.414E-02
   -.975E+03 -.386E+03 0.428E+03   0.972E+03 0.384E+03 -.427E+03   0.181E+01 0.152E+01 -.193E+00   -.422E-02 0.128E-02 0.418E-02
   -.393E+03 0.974E+03 0.419E+03   0.391E+03 -.971E+03 -.419E+03   0.150E+01 -.183E+01 -.224E+00   -.142E-02 0.214E-02 -.288E-02
   0.976E+03 -.390E+03 0.422E+03   -.973E+03 0.388E+03 -.421E+03   -.182E+01 0.153E+01 -.196E+00   0.401E-02 0.782E-03 0.551E-03
   0.101E+01 0.589E+03 0.967E+03   -.101E+01 -.588E+03 -.963E+03   0.524E-03 -.307E+00 -.236E+01   -.445E-02 0.341E-02 -.862E-03
   0.293E+01 0.597E+03 -.963E+03   -.293E+01 -.597E+03 0.960E+03   0.638E-02 -.271E+00 0.235E+01   -.678E-02 0.149E-02 -.116E-02
   0.111E+01 0.113E+04 0.254E+01   -.111E+01 -.113E+04 -.252E+01   0.114E-02 -.311E+01 -.605E-02   -.470E-03 -.973E-03 -.221E-02
   0.114E+04 0.443E+01 0.370E+01   -.113E+04 -.444E+01 -.372E+01   -.311E+01 0.524E-02 0.124E-01   0.653E-02 0.234E-02 0.218E-03
   -.114E+04 0.103E+02 0.855E+01   0.114E+04 -.103E+02 -.855E+01   0.309E+01 0.211E-01 0.273E-02   0.408E-03 0.188E-02 -.423E-02
   0.183E+02 -.114E+04 0.432E+02   -.183E+02 0.113E+04 -.433E+02   -.388E-01 0.323E+01 0.217E-01   -.129E-02 -.613E-02 -.435E-02
   -.578E+03 0.581E+03 0.815E+03   0.576E+03 -.579E+03 -.812E+03   0.155E+01 -.156E+01 -.220E+01   -.330E-02 0.255E-03 0.505E-03
   -.579E+03 0.590E+03 -.811E+03   0.577E+03 -.588E+03 0.808E+03   0.154E+01 -.152E+01 0.219E+01   -.175E-02 -.556E-02 0.270E-03
   0.582E+03 -.575E+03 0.818E+03   -.580E+03 0.573E+03 -.815E+03   -.155E+01 0.157E+01 -.220E+01   0.314E-02 -.223E-03 0.425E-02
   0.611E+03 -.561E+03 -.810E+03   -.609E+03 0.559E+03 0.807E+03   -.157E+01 0.161E+01 0.219E+01   -.118E-02 -.263E-02 -.427E-02
   0.579E+03 0.580E+03 0.814E+03   -.577E+03 -.578E+03 -.811E+03   -.156E+01 -.156E+01 -.220E+01   -.298E-03 0.327E-02 -.662E-04
   0.583E+03 0.586E+03 -.811E+03   -.580E+03 -.583E+03 0.808E+03   -.156E+01 -.154E+01 0.220E+01   -.539E-02 0.580E-02 -.329E-02
   -.579E+03 -.574E+03 0.822E+03   0.577E+03 0.572E+03 -.819E+03   0.155E+01 0.157E+01 -.219E+01   -.863E-02 0.347E-02 0.207E-02
   -.650E+03 -.435E+03 -.805E+03   0.647E+03 0.434E+03 0.802E+03   0.151E+01 0.877E+00 0.181E+01   -.465E-02 0.722E-02 -.303E-02
   0.396E+03 0.976E+03 -.414E+03   -.394E+03 -.973E+03 0.413E+03   -.151E+01 -.181E+01 0.200E+00   -.334E-02 -.256E-03 -.512E-02
   -.991E+03 -.364E+03 -.399E+03   0.988E+03 0.362E+03 0.399E+03   0.188E+01 0.156E+01 0.216E+00   -.172E-02 0.944E-02 -.820E-02
   -.320E+03 0.328E+03 0.460E+03   0.320E+03 -.328E+03 -.460E+03   -.366E+00 0.378E+00 0.526E+00   -.394E-02 0.309E-02 -.183E-02
   0.974E+03 0.397E+03 0.419E+03   -.971E+03 -.395E+03 -.419E+03   -.182E+01 -.152E+01 -.231E+00   0.258E-02 0.394E-02 0.589E-03
   -.392E+03 -.967E+03 0.439E+03   0.390E+03 0.964E+03 -.438E+03   0.150E+01 0.182E+01 -.266E+00   -.613E-02 -.360E-02 0.163E-03
   -.393E+03 0.977E+03 -.413E+03   0.391E+03 -.974E+03 0.413E+03   0.152E+01 -.181E+01 0.197E+00   -.225E-02 -.561E-02 -.681E-02
   0.984E+03 -.385E+03 -.411E+03   -.981E+03 0.383E+03 0.410E+03   -.183E+01 0.149E+01 0.217E+00   0.771E-03 -.219E-02 -.368E-02
   -.973E+03 0.400E+03 0.422E+03   0.970E+03 -.398E+03 -.421E+03   0.180E+01 -.152E+01 -.193E+00   -.231E-02 -.145E-02 0.206E-03
   0.402E+03 -.968E+03 0.432E+03   -.400E+03 0.965E+03 -.432E+03   -.151E+01 0.182E+01 -.233E+00   -.767E-03 -.608E-02 -.448E-02
   0.324E+03 0.326E+03 0.458E+03   -.324E+03 -.327E+03 -.459E+03   0.349E+00 0.368E+00 0.510E+00   -.411E-02 0.464E-02 -.340E-02
   0.207E+01 0.646E+03 0.478E+01   -.207E+01 -.647E+03 -.479E+01   -.266E-02 0.738E+00 0.155E-01   -.298E-02 0.313E-02 -.510E-02
   -.587E+03 0.478E+01 0.970E+03   0.586E+03 -.478E+01 -.966E+03   0.285E+00 0.162E-02 -.235E+01   -.591E-02 -.166E-02 0.918E-03
   -.594E+03 0.344E+02 -.963E+03   0.593E+03 -.345E+02 0.959E+03   0.303E+00 -.317E-01 0.242E+01   -.484E-02 0.985E-02 -.252E-04
   0.589E+03 0.347E+01 0.968E+03   -.588E+03 -.343E+01 -.964E+03   -.305E+00 -.254E-01 -.236E+01   0.651E-03 0.294E-02 0.348E-02
   0.599E+03 0.142E+02 -.963E+03   -.598E+03 -.141E+02 0.959E+03   -.331E+00 -.279E-01 0.234E+01   -.340E-02 0.495E-02 -.567E-02
   0.763E+03 0.765E+03 0.342E+01   -.761E+03 -.763E+03 -.341E+01   -.114E+01 -.115E+01 -.571E-02   -.498E-02 0.609E-02 -.272E-02
   -.770E+03 -.741E+03 0.364E+02   0.768E+03 0.739E+03 -.365E+02   0.124E+01 0.118E+01 0.103E-01   -.582E-02 0.290E-02 -.158E-02
   -.761E+03 0.768E+03 0.490E+01   0.759E+03 -.766E+03 -.490E+01   0.116E+01 -.114E+01 0.124E-01   -.203E-02 0.179E-04 -.770E-02
   0.775E+03 -.752E+03 0.136E+02   -.773E+03 0.750E+03 -.135E+02   -.117E+01 0.111E+01 -.417E-01   -.999E-04 -.380E-02 -.411E-02
   0.164E+01 0.449E+01 0.107E+04   -.163E+01 -.449E+01 -.107E+04   0.140E-02 -.852E-02 -.162E+01   -.562E-02 0.314E-02 0.256E-02
   0.110E+02 0.318E+02 -.107E+04   -.111E+02 -.318E+02 0.107E+04   0.955E-02 -.208E-01 0.166E+01   -.964E-02 0.756E-02 -.218E-02
   0.977E+03 0.401E+03 -.413E+03   -.974E+03 -.398E+03 0.413E+03   -.182E+01 -.149E+01 0.227E+00   -.910E-03 0.713E-02 -.529E-02
   -.359E+03 -.906E+03 -.208E+03   0.357E+03 0.905E+03 0.212E+03   0.677E+00 0.658E-01 -.290E+01   -.121E-02 -.279E-02 -.318E-02
   -.320E+03 0.339E+03 -.446E+03   0.320E+03 -.339E+03 0.447E+03   -.381E+00 0.317E+00 -.528E+00   -.945E-02 0.560E-02 -.104E-01
   0.326E+03 -.314E+03 0.464E+03   -.327E+03 0.314E+03 -.464E+03   0.386E+00 -.338E+00 0.560E+00   -.299E-02 0.467E-02 -.269E-02
   0.327E+03 0.334E+03 -.448E+03   -.328E+03 -.334E+03 0.449E+03   0.368E+00 0.369E+00 -.518E+00   -.799E-02 0.871E-02 -.543E-02
   -.976E+03 0.409E+03 -.410E+03   0.974E+03 -.407E+03 0.410E+03   0.182E+01 -.154E+01 0.207E+00   0.324E-02 0.226E-02 -.104E-01
   0.450E+03 -.957E+03 -.379E+03   -.448E+03 0.955E+03 0.378E+03   -.134E+01 0.182E+01 0.305E+00   -.118E-02 -.352E-02 -.157E-02
   -.320E+03 -.311E+03 0.468E+03   0.320E+03 0.312E+03 -.468E+03   -.365E+00 -.366E+00 0.507E+00   -.893E-02 0.405E-02 0.229E-02
   0.646E+03 0.866E+01 0.719E+01   -.647E+03 -.870E+01 -.722E+01   0.745E+00 0.244E-01 0.215E-01   -.403E-02 0.346E-02 -.142E-02
   -.641E+03 0.161E+02 0.133E+02   0.642E+03 -.161E+02 -.133E+02   -.709E+00 -.338E-01 -.447E-01   -.588E-02 0.560E-02 -.659E-02
   0.254E+01 -.582E+03 0.974E+03   -.252E+01 0.582E+03 -.970E+03   -.447E-02 0.315E+00 -.234E+01   -.785E-02 0.784E-03 0.480E-02
   0.877E+02 -.482E+03 -.961E+03   -.877E+02 0.482E+03 0.958E+03   0.195E+00 0.212E+00 0.189E+01   -.330E-02 0.576E-03 -.346E-02
   0.536E+01 0.152E+02 0.126E+02   -.534E+01 -.152E+02 -.126E+02   -.147E-01 -.897E-02 -.161E-01   -.459E-02 0.619E-02 -.489E-02
   0.342E+03 -.296E+03 -.438E+03   -.343E+03 0.297E+03 0.439E+03   0.363E+00 -.391E+00 -.569E+00   -.473E-02 0.785E-03 -.301E-02
   -.317E+03 -.271E+03 -.424E+03   0.317E+03 0.271E+03 0.424E+03   -.364E+00 -.100E+00 -.351E+00   -.680E-02 0.777E-02 -.768E-02
   0.141E+02 -.621E+03 0.330E+02   -.139E+02 0.622E+03 -.330E+02   -.105E+00 -.874E+00 -.891E-01   -.102E-02 -.926E-03 -.540E-02
   -.608E+02 -.200E+03 -.178E+03   0.552E+02 0.183E+03 0.163E+03   0.452E+01 0.121E+02 0.101E+02   -.111E-02 -.452E-03 -.119E-02
   -.204E+03 -.606E+03 -.490E+03   0.221E+03 0.655E+03 0.530E+03   -.158E+02 -.452E+02 -.367E+02   -.959E-03 -.724E-03 -.132E-02
 -----------------------------------------------------------------------------------------------
   0.121E+02 0.352E+02 0.305E+02   0.284E-12 -.182E-11 -.148E-11   -.120E+02 -.353E+02 -.304E+02   -.169E+00 0.108E+00 -.140E+00
 
 
 POSITION                                       TOTAL-FORCE (eV/Angst)
 -----------------------------------------------------------------------------------
     13.37281      9.84801     12.50759         0.709801      1.107620      0.291287
     20.15199     16.62719     12.50759        -1.109576     -0.727173      0.271244
     16.62719      9.84801     12.50759        -0.706116      1.106512      0.288915
      9.84801     16.62719     12.50759         1.105353     -0.714417      0.279769
     15.00000     11.47521     10.20639         0.002679      0.411508      1.285704
     15.00000     11.47521     19.79360        -0.001427      0.397444     -1.294464
     15.00000      8.28283     15.00000         0.001162      1.520380      0.006247
      8.28283     15.00000     15.00000         1.520464     -0.001256     -0.006401
     21.71717     15.00000     15.00000        -1.518577     -0.006645     -0.008129
     15.00000     21.71717     15.00000         0.006820     -1.539542     -0.021817
     18.35858     11.64142     10.25025        -0.751744      0.761694      1.073934
     18.35858     11.64142     19.74975        -0.764720      0.737794     -1.076331
     11.64142     18.35858     10.25025         0.754019     -0.766760      1.074251
     11.64142     18.35858     19.74975         0.782968     -0.776746     -1.077754
     11.64142     11.64142     10.25025         0.753166      0.757881      1.070822
     11.64142     11.64142     19.74975         0.763701      0.752305     -1.076765
     18.35858     18.35858     10.25025        -0.755191     -0.764016      1.072829
     18.35858     18.35858     19.74975        -1.084501     -0.186218     -1.053404
     13.37281      9.84801     17.49241         0.710000      1.109719     -0.283529
     20.15199     16.62719     17.49241        -1.076099     -0.753417     -0.303157
     16.73751     13.26249     12.54279         0.110302     -0.106142     -0.156864
      9.84801     13.37281     12.50759         1.104568      0.716466      0.303105
     16.62719     20.15199     12.50759        -0.711133     -1.107519      0.299229
     16.62719      9.84801     17.49241        -0.713427      1.110162     -0.285946
      9.84801     16.62719     17.49241         1.112321     -0.698185     -0.287382
     20.15199     13.37281     12.50759        -1.111373      0.711918      0.282702
     13.37281     20.15199     12.50759         0.708467     -1.104047      0.301815
     13.26249     13.26249     12.54279        -0.104779     -0.116785     -0.155213
     15.00000     11.52498     15.00000        -0.002139     -0.227593      0.001973
     18.52479     15.00000     10.20639        -0.406283      0.000537      1.286348
     18.52479     15.00000     19.79360        -0.381049     -0.050421     -1.291656
     11.47521     15.00000     10.20640         0.412396      0.017310      1.285434
     11.47521     15.00000     19.79360         0.411882      0.007507     -1.281937
     11.49535     11.49535     15.00000         0.827396      0.826175      0.001876
     18.50465     18.50465     15.00000        -0.824296     -0.846953     -0.053655
     18.50465     11.49535     15.00000        -0.829965      0.825220     -0.004261
     11.49535     18.50465     15.00000         0.835452     -0.817397      0.017630
     15.00000     15.00000     10.04368         0.002724      0.000381      1.175322
     15.00000     15.00000     19.95633        -0.014938     -0.019467     -1.177511
      9.84801     13.37281     17.49241         1.109082      0.702221     -0.293113
     16.62719     20.15199     17.49241        -0.540855     -0.632094      1.333958
     16.73751     13.26249     17.45721         0.109308     -0.115847      0.156334
     13.26249     16.73751     12.54279        -0.133287      0.100272     -0.180647
     13.26249     13.26249     17.45721        -0.111560     -0.109794      0.162354
     20.15199     13.37281     17.49241        -1.107530      0.727664     -0.275950
     13.37281     20.15199     17.49241         0.597761     -1.123430     -0.359324
     16.73751     16.73751     12.54279         0.115274      0.122341     -0.152138
     11.52498     15.00000     15.00000        -0.237807     -0.008954     -0.013198
     18.47502     15.00000     15.00000         0.229934      0.000959      0.004397
     15.00000     18.52480     10.20639         0.002086     -0.414842      1.281124
     15.00000     18.52480     19.79360         0.218193     -0.020030     -1.199411
     15.00000     15.00000     15.00000        -0.001387      0.011776      0.010742
     13.26249     16.73751     17.45721        -0.121030      0.096405      0.147448
     16.73751     16.73751     17.45721         0.107387      0.009012      0.105062
     15.00000     18.47502     15.00000         0.018583      0.227251     -0.014499
     16.91780     20.57392     19.56498        -1.090765     -4.884366     -4.725566
     17.20795     21.41724     20.25565         1.068309      3.763621      3.238166
 -----------------------------------------------------------------------------------
    total drift:                                0.001333      0.003694      0.001333


--------------------------------------------------------------------------------------------------------



  FREE ENERGIE OF THE ION-ELECTRON SYSTEM (eV)
  ---------------------------------------------------
  free  energy   TOTEN  =      -175.00280047 eV

  energy  without entropy=     -174.89662905  energy(sigma->0) =     -174.97625761
 


--------------------------------------------------------------------------------------------------------


    POTLOK:  cpu time   14.0762: real time   14.0760


--------------------------------------------------------------------------------------------------------


     LOOP+:  cpu time18343.7267: real time18344.7275
    4ORBIT:  cpu time    0.0000: real time    0.0000

 total amount of memory used by VASP MPI-rank0  5486942. kBytes
=======================================================================

   base      :      30000. kBytes
   nonlr-proj:      17127. kBytes
   fftplans  :     924480. kBytes
   grid      :    1872000. kBytes
   one-center:        886. kBytes
   wavefun   :    2642449. kBytes
 
  
  
 General timing and accounting informations for this job:
 ========================================================
  
                  Total CPU time used (sec):    18419.457
                            User time (sec):    17411.874
                          System time (sec):     1007.584
                         Elapsed time (sec):    18420.556
  
                   Maximum memory used (kb):     7179100.
                   Average memory used (kb):           0.
  
                          Minor page faults:    817345451
                          Major page faults:            0
                 Voluntary context switches:          443
