  57  57   0   0
  0.4736842E+03  0.3000000E-08  0.3000000E-08  0.3000000E-08  0.5000000E-15
  1.000000000000000E-004
  CAR 
 6_Pd100_top_free_z(O)                   
      1.31102677    -31.07392030  301     -4.13923576      1.00000000
    -31.074  0.0000E+00  0.0000E+00
    -30.966  0.0000E+00  0.0000E+00
    -30.858  0.0000E+00  0.0000E+00
    -30.750  0.4584E-27  0.4949E-28
    -30.642  0.2365E-23  0.2553E-24
    -30.534  0.6702E-20  0.7237E-21
    -30.426  0.1041E-16  0.1124E-17
    -30.318  0.8823E-14  0.9535E-15
    -30.210  0.4069E-11  0.4402E-12
    -30.102  0.1011E-08  0.1096E-09
    -29.994  0.1340E-06  0.1457E-07
    -29.886  0.9318E-05  0.1020E-05
    -29.779  0.3304E-03  0.3668E-04
    -29.671  0.5630E-02  0.6444E-03
    -29.563  0.3938E-01  0.4896E-02
    -29.455  0.3687E-01  0.8876E-02
    -29.347 -0.4937E+00 -0.4442E-01
    -29.239 -0.4103E+00 -0.8872E-01
    -29.131  0.4845E+01  0.4343E+00
    -29.023  0.9998E+01  0.1514E+01
    -28.915  0.5256E+01  0.2081E+01
    -28.807 -0.2881E+00  0.2050E+01
    -28.699 -0.5384E+00  0.1992E+01
    -28.591  0.2721E-01  0.1995E+01
    -28.483  0.4233E-01  0.1999E+01
    -28.375  0.6416E-02  0.2000E+01
    -28.267  0.3929E-03  0.2000E+01
    -28.159  0.1151E-04  0.2000E+01
    -28.051  0.1715E-06  0.2000E+01
    -27.943  0.1339E-08  0.2000E+01
    -27.835  0.5576E-11  0.2000E+01
    -27.727  0.1234E-13  0.2000E+01
    -27.620  0.0000E+00  0.2000E+01
    -27.512  0.0000E+00  0.2000E+01
    -27.404  0.0000E+00  0.2000E+01
    -27.296  0.0000E+00  0.2000E+01
    -27.188  0.0000E+00  0.2000E+01
    -27.080  0.0000E+00  0.2000E+01
    -26.972  0.0000E+00  0.2000E+01
    -26.864  0.0000E+00  0.2000E+01
    -26.756  0.0000E+00  0.2000E+01
    -26.648  0.0000E+00  0.2000E+01
    -26.540  0.0000E+00  0.2000E+01
    -26.432  0.0000E+00  0.2000E+01
    -26.324  0.0000E+00  0.2000E+01
    -26.216  0.0000E+00  0.2000E+01
    -26.108  0.0000E+00  0.2000E+01
    -26.000  0.0000E+00  0.2000E+01
    -25.892  0.0000E+00  0.2000E+01
    -25.784  0.0000E+00  0.2000E+01
    -25.676  0.0000E+00  0.2000E+01
    -25.568  0.0000E+00  0.2000E+01
    -25.461  0.0000E+00  0.2000E+01
    -25.353  0.0000E+00  0.2000E+01
    -25.245  0.0000E+00  0.2000E+01
    -25.137  0.0000E+00  0.2000E+01
    -25.029  0.0000E+00  0.2000E+01
    -24.921  0.0000E+00  0.2000E+01
    -24.813  0.0000E+00  0.2000E+01
    -24.705  0.0000E+00  0.2000E+01
    -24.597  0.0000E+00  0.2000E+01
    -24.489  0.0000E+00  0.2000E+01
    -24.381  0.0000E+00  0.2000E+01
    -24.273  0.0000E+00  0.2000E+01
    -24.165  0.0000E+00  0.2000E+01
    -24.057  0.0000E+00  0.2000E+01
    -23.949  0.0000E+00  0.2000E+01
    -23.841  0.0000E+00  0.2000E+01
    -23.733  0.0000E+00  0.2000E+01
    -23.625  0.0000E+00  0.2000E+01
    -23.517  0.0000E+00  0.2000E+01
    -23.409  0.0000E+00  0.2000E+01
    -23.302  0.0000E+00  0.2000E+01
    -23.194  0.0000E+00  0.2000E+01
    -23.086  0.0000E+00  0.2000E+01
    -22.978  0.0000E+00  0.2000E+01
    -22.870  0.0000E+00  0.2000E+01
    -22.762  0.0000E+00  0.2000E+01
    -22.654  0.0000E+00  0.2000E+01
    -22.546  0.0000E+00  0.2000E+01
    -22.438  0.0000E+00  0.2000E+01
    -22.330  0.0000E+00  0.2000E+01
    -22.222  0.0000E+00  0.2000E+01
    -22.114  0.0000E+00  0.2000E+01
    -22.006  0.0000E+00  0.2000E+01
    -21.898  0.0000E+00  0.2000E+01
    -21.790  0.0000E+00  0.2000E+01
    -21.682  0.0000E+00  0.2000E+01
    -21.574  0.0000E+00  0.2000E+01
    -21.466  0.0000E+00  0.2000E+01
    -21.358  0.0000E+00  0.2000E+01
    -21.250  0.0000E+00  0.2000E+01
    -21.143  0.0000E+00  0.2000E+01
    -21.035  0.0000E+00  0.2000E+01
    -20.927  0.0000E+00  0.2000E+01
    -20.819  0.0000E+00  0.2000E+01
    -20.711  0.0000E+00  0.2000E+01
    -20.603  0.0000E+00  0.2000E+01
    -20.495  0.0000E+00  0.2000E+01
    -20.387  0.0000E+00  0.2000E+01
    -20.279  0.0000E+00  0.2000E+01
    -20.171  0.0000E+00  0.2000E+01
    -20.063  0.0000E+00  0.2000E+01
    -19.955  0.0000E+00  0.2000E+01
    -19.847  0.0000E+00  0.2000E+01
    -19.739  0.0000E+00  0.2000E+01
    -19.631  0.0000E+00  0.2000E+01
    -19.523  0.0000E+00  0.2000E+01
    -19.415  0.0000E+00  0.2000E+01
    -19.307  0.0000E+00  0.2000E+01
    -19.199  0.0000E+00  0.2000E+01
    -19.091  0.0000E+00  0.2000E+01
    -18.984  0.0000E+00  0.2000E+01
    -18.876  0.0000E+00  0.2000E+01
    -18.768  0.0000E+00  0.2000E+01
    -18.660  0.0000E+00  0.2000E+01
    -18.552  0.0000E+00  0.2000E+01
    -18.444  0.0000E+00  0.2000E+01
    -18.336  0.0000E+00  0.2000E+01
    -18.228  0.0000E+00  0.2000E+01
    -18.120  0.0000E+00  0.2000E+01
    -18.012  0.0000E+00  0.2000E+01
    -17.904  0.0000E+00  0.2000E+01
    -17.796  0.0000E+00  0.2000E+01
    -17.688  0.0000E+00  0.2000E+01
    -17.580  0.0000E+00  0.2000E+01
    -17.472  0.0000E+00  0.2000E+01
    -17.364  0.0000E+00  0.2000E+01
    -17.256  0.0000E+00  0.2000E+01
    -17.148  0.0000E+00  0.2000E+01
    -17.040  0.0000E+00  0.2000E+01
    -16.932  0.0000E+00  0.2000E+01
    -16.825  0.0000E+00  0.2000E+01
    -16.717  0.0000E+00  0.2000E+01
    -16.609  0.0000E+00  0.2000E+01
    -16.501  0.0000E+00  0.2000E+01
    -16.393  0.0000E+00  0.2000E+01
    -16.285  0.0000E+00  0.2000E+01
    -16.177  0.0000E+00  0.2000E+01
    -16.069  0.0000E+00  0.2000E+01
    -15.961  0.0000E+00  0.2000E+01
    -15.853  0.0000E+00  0.2000E+01
    -15.745  0.0000E+00  0.2000E+01
    -15.637  0.0000E+00  0.2000E+01
    -15.529  0.0000E+00  0.2000E+01
    -15.421  0.0000E+00  0.2000E+01
    -15.313  0.8069E-28  0.2000E+01
    -15.205  0.4676E-24  0.2000E+01
    -15.097  0.1490E-20  0.2000E+01
    -14.989  0.2603E-17  0.2000E+01
    -14.881  0.2484E-14  0.2000E+01
    -14.773  0.1291E-11  0.2000E+01
    -14.666  0.3620E-09  0.2000E+01
    -14.558  0.5429E-07  0.2000E+01
    -14.450  0.4290E-05  0.2000E+01
    -14.342  0.1740E-03  0.2000E+01
    -14.234  0.3446E-02  0.2000E+01
    -14.126  0.2939E-01  0.2004E+01
    -14.018  0.5835E-01  0.2010E+01
    -13.910 -0.3365E+00  0.1974E+01
    -13.802 -0.7058E+00  0.1897E+01
    -13.694  0.3408E+01  0.2265E+01
    -13.586  0.9695E+01  0.3312E+01
    -13.478  0.6712E+01  0.4036E+01
    -13.370  0.3124E+00  0.4070E+01
    -13.262 -0.6883E+00  0.3996E+01
    -13.154 -0.2397E-01  0.3993E+01
    -13.046  0.5279E-01  0.3999E+01
    -12.938  0.1005E-01  0.4000E+01
    -12.830  0.7200E-03  0.4000E+01
    -12.722  0.2420E-04  0.4000E+01
    -12.615  0.4101E-06  0.4000E+01
    -12.507  0.3659E-08  0.4000E+01
    -12.399  0.6854E-08  0.4000E+01
    -12.291  0.7783E-06  0.4000E+01
    -12.183  0.4625E-04  0.4000E+01
    -12.075  0.1387E-02  0.4000E+01
    -11.967  0.1954E-01  0.4002E+01
    -11.859  0.1042E+00  0.4014E+01
    -11.751 -0.3974E-01  0.4009E+01
    -11.643 -0.1358E+01  0.3863E+01
    -11.535  0.5319E+00  0.3920E+01
    -11.427  0.1323E+02  0.5348E+01
    -11.319  0.1945E+02  0.7448E+01
    -11.211  0.7003E+01  0.8204E+01
    -11.103 -0.1382E+01  0.8055E+01
    -10.995 -0.6935E+00  0.7980E+01
    -10.887  0.1147E+00  0.7993E+01
    -10.779  0.6005E-01  0.7999E+01
    -10.671  0.7142E-02  0.8000E+01
    -10.563  0.3647E-03  0.8000E+01
    -10.456  0.9083E-05  0.8000E+01
    -10.348  0.1338E-06  0.8000E+01
    -10.240  0.1630E-05  0.8000E+01
    -10.132  0.7757E-04  0.8000E+01
    -10.024  0.1831E-02  0.8000E+01
     -9.916  0.1942E-01  0.8002E+01
     -9.808  0.6393E-01  0.8009E+01
     -9.700 -0.1739E+00  0.7990E+01
     -9.592 -0.8151E+00  0.7902E+01
     -9.484  0.1869E+01  0.8104E+01
     -9.376  0.8751E+01  0.9049E+01
     -9.268  0.8275E+01  0.9942E+01
     -9.160  0.1385E+01  0.1009E+02
     -9.052 -0.8047E+00  0.1000E+02
     -8.944 -0.1253E+00  0.9991E+01
     -8.836  0.6237E-01  0.9998E+01
     -8.728  0.1645E-01  0.1000E+02
     -8.620  0.1438E-02  0.1000E+02
     -8.512  0.5721E-04  0.1000E+02
     -8.404  0.1134E-05  0.1000E+02
     -8.297  0.1166E-07  0.1000E+02
     -8.189  0.6355E-10  0.1000E+02
     -8.081  0.1851E-12  0.1000E+02
     -7.973  0.2277E-16  0.1000E+02
     -7.865  0.1803E-13  0.1000E+02
     -7.757  0.7768E-11  0.1000E+02
     -7.649  0.1800E-08  0.1000E+02
     -7.541  0.2222E-06  0.1000E+02
     -7.433  0.1436E-04  0.1000E+02
     -7.325  0.4709E-03  0.1000E+02
     -7.217  0.7347E-02  0.1000E+02
     -7.109  0.4547E-01  0.1001E+02
     -7.001  0.1495E-01  0.1001E+02
     -6.893 -0.5847E+00  0.9944E+01
     -6.785 -0.1357E+00  0.9930E+01
     -6.677  0.5723E+01  0.1055E+02
     -6.569  0.1012E+02  0.1164E+02
     -6.461  0.4307E+01  0.1210E+02
     -6.353 -0.2593E+01  0.1182E+02
     -6.245  0.1173E+01  0.1195E+02
     -6.138  0.2102E+02  0.1422E+02
     -6.030  0.2683E+02  0.1712E+02
     -5.922  0.9686E+01  0.1816E+02
     -5.814  0.1822E+02  0.2013E+02
     -5.706  0.5710E+02  0.2629E+02
     -5.598  0.1366E+03  0.4104E+02
     -5.490  0.2625E+03  0.6937E+02
     -5.382  0.3076E+03  0.1026E+03
     -5.274  0.2339E+03  0.1278E+03
     -5.166  0.2082E+03  0.1503E+03
     -5.058  0.2945E+03  0.1821E+03
     -4.950  0.3681E+03  0.2218E+03
     -4.842  0.3248E+03  0.2569E+03
     -4.734  0.2892E+03  0.2881E+03
     -4.626  0.3761E+03  0.3287E+03
     -4.518  0.4361E+03  0.3758E+03
     -4.410  0.4303E+03  0.4222E+03
     -4.302  0.5127E+03  0.4776E+03
     -4.194  0.5532E+03  0.5373E+03
     -4.086  0.3342E+03  0.5734E+03
     -3.979  0.7077E+02  0.5810E+03
     -3.871  0.6966E+01  0.5818E+03
     -3.763  0.3488E+02  0.5855E+03
     -3.655  0.2178E+02  0.5879E+03
     -3.547  0.8766E+01  0.5888E+03
     -3.439  0.2486E+02  0.5915E+03
     -3.331  0.2066E+02  0.5937E+03
     -3.223 -0.4465E+00  0.5937E+03
     -3.115  0.1215E+02  0.5950E+03
     -3.007  0.5421E+02  0.6009E+03
     -2.899  0.6134E+02  0.6075E+03
     -2.791  0.2426E+02  0.6101E+03
     -2.683 -0.3299E+00  0.6101E+03
     -2.575  0.1319E+02  0.6115E+03
     -2.467  0.2906E+02  0.6146E+03
     -2.359  0.1833E+02  0.6166E+03
     -2.251  0.6886E+01  0.6173E+03
     -2.143  0.1962E+02  0.6195E+03
     -2.035  0.4480E+02  0.6243E+03
     -1.927  0.4476E+02  0.6291E+03
     -1.820  0.3229E+02  0.6326E+03
     -1.712  0.3806E+02  0.6367E+03
     -1.604  0.4803E+02  0.6419E+03
     -1.496  0.3828E+02  0.6460E+03
     -1.388  0.2286E+02  0.6485E+03
     -1.280  0.1732E+02  0.6504E+03
     -1.172  0.2149E+02  0.6527E+03
     -1.064  0.2866E+02  0.6558E+03
     -0.956  0.4955E+02  0.6611E+03
     -0.848  0.5931E+02  0.6675E+03
     -0.740  0.3079E+02  0.6709E+03
     -0.632  0.8533E+01  0.6718E+03
     -0.524  0.2397E+01  0.6720E+03
     -0.416 -0.2987E+00  0.6720E+03
     -0.308 -0.2721E+00  0.6720E+03
     -0.200  0.7716E-01  0.6720E+03
     -0.092  0.4246E-01  0.6720E+03
      0.016  0.5746E-02  0.6720E+03
      0.124  0.3327E-03  0.6720E+03
      0.232  0.9342E-05  0.6720E+03
      0.339  0.1341E-06  0.6720E+03
      0.447  0.1011E-08  0.6720E+03
      0.555  0.4071E-11  0.6720E+03
      0.663  0.8228E-14  0.6720E+03
      0.771  0.0000E+00  0.6720E+03
      0.879  0.0000E+00  0.6720E+03
      0.987  0.0000E+00  0.6720E+03
      1.095  0.0000E+00  0.6720E+03
      1.203  0.0000E+00  0.6720E+03
      1.311  0.0000E+00  0.6720E+03
