  57  57   0   0
  0.4736842E+03  0.3000000E-08  0.3000000E-08  0.3000000E-08  0.5000000E-15
  1.000000000000000E-004
  CAR 
 6_Pd100_top_free_z(O)                   
      1.34168354    -30.87146058  301     -4.15259340      1.00000000
    -30.871  0.0000E+00  0.0000E+00
    -30.764  0.0000E+00  0.0000E+00
    -30.657  0.0000E+00  0.0000E+00
    -30.549  0.4003E-27  0.4298E-28
    -30.442  0.1995E-23  0.2143E-24
    -30.335  0.5499E-20  0.5907E-21
    -30.227  0.8359E-17  0.8981E-18
    -30.120  0.6980E-14  0.7504E-15
    -30.012  0.3193E-11  0.3436E-12
    -29.905  0.7920E-09  0.8538E-10
    -29.798  0.1056E-06  0.1142E-07
    -29.690  0.7445E-05  0.8109E-06
    -29.583  0.2701E-03  0.2981E-04
    -29.476  0.4771E-02  0.5421E-03
    -29.368  0.3556E-01  0.4360E-02
    -29.261  0.4786E-01  0.9500E-02
    -29.153 -0.4260E+00 -0.3624E-01
    -29.046 -0.5721E+00 -0.9767E-01
    -28.939  0.4149E+01  0.3478E+00
    -28.831  0.9909E+01  0.1412E+01
    -28.724  0.6037E+01  0.2060E+01
    -28.617  0.1159E-01  0.2061E+01
    -28.509 -0.6295E+00  0.1994E+01
    -28.402 -0.5063E-03  0.1994E+01
    -28.294  0.4912E-01  0.1999E+01
    -28.187  0.8668E-02  0.2000E+01
    -28.080  0.5977E-03  0.2000E+01
    -27.972  0.1961E-04  0.2000E+01
    -27.865  0.3278E-06  0.2000E+01
    -27.758  0.2881E-08  0.2000E+01
    -27.650  0.1357E-10  0.2000E+01
    -27.543  0.3515E-13  0.2000E+01
    -27.435  0.0000E+00  0.2000E+01
    -27.328  0.0000E+00  0.2000E+01
    -27.221  0.0000E+00  0.2000E+01
    -27.113  0.0000E+00  0.2000E+01
    -27.006  0.0000E+00  0.2000E+01
    -26.899  0.0000E+00  0.2000E+01
    -26.791  0.0000E+00  0.2000E+01
    -26.684  0.0000E+00  0.2000E+01
    -26.576  0.0000E+00  0.2000E+01
    -26.469  0.0000E+00  0.2000E+01
    -26.362  0.0000E+00  0.2000E+01
    -26.254  0.0000E+00  0.2000E+01
    -26.147  0.0000E+00  0.2000E+01
    -26.039  0.0000E+00  0.2000E+01
    -25.932  0.0000E+00  0.2000E+01
    -25.825  0.0000E+00  0.2000E+01
    -25.717  0.0000E+00  0.2000E+01
    -25.610  0.0000E+00  0.2000E+01
    -25.503  0.0000E+00  0.2000E+01
    -25.395  0.0000E+00  0.2000E+01
    -25.288  0.0000E+00  0.2000E+01
    -25.180  0.0000E+00  0.2000E+01
    -25.073  0.0000E+00  0.2000E+01
    -24.966  0.0000E+00  0.2000E+01
    -24.858  0.0000E+00  0.2000E+01
    -24.751  0.0000E+00  0.2000E+01
    -24.644  0.0000E+00  0.2000E+01
    -24.536  0.0000E+00  0.2000E+01
    -24.429  0.0000E+00  0.2000E+01
    -24.321  0.0000E+00  0.2000E+01
    -24.214  0.0000E+00  0.2000E+01
    -24.107  0.0000E+00  0.2000E+01
    -23.999  0.0000E+00  0.2000E+01
    -23.892  0.0000E+00  0.2000E+01
    -23.785  0.0000E+00  0.2000E+01
    -23.677  0.0000E+00  0.2000E+01
    -23.570  0.0000E+00  0.2000E+01
    -23.462  0.0000E+00  0.2000E+01
    -23.355  0.0000E+00  0.2000E+01
    -23.248  0.0000E+00  0.2000E+01
    -23.140  0.0000E+00  0.2000E+01
    -23.033  0.0000E+00  0.2000E+01
    -22.926  0.0000E+00  0.2000E+01
    -22.818  0.0000E+00  0.2000E+01
    -22.711  0.0000E+00  0.2000E+01
    -22.603  0.0000E+00  0.2000E+01
    -22.496  0.0000E+00  0.2000E+01
    -22.389  0.0000E+00  0.2000E+01
    -22.281  0.0000E+00  0.2000E+01
    -22.174  0.0000E+00  0.2000E+01
    -22.067  0.0000E+00  0.2000E+01
    -21.959  0.0000E+00  0.2000E+01
    -21.852  0.0000E+00  0.2000E+01
    -21.744  0.0000E+00  0.2000E+01
    -21.637  0.0000E+00  0.2000E+01
    -21.530  0.0000E+00  0.2000E+01
    -21.422  0.0000E+00  0.2000E+01
    -21.315  0.0000E+00  0.2000E+01
    -21.208  0.0000E+00  0.2000E+01
    -21.100  0.0000E+00  0.2000E+01
    -20.993  0.0000E+00  0.2000E+01
    -20.885  0.0000E+00  0.2000E+01
    -20.778  0.0000E+00  0.2000E+01
    -20.671  0.0000E+00  0.2000E+01
    -20.563  0.0000E+00  0.2000E+01
    -20.456  0.0000E+00  0.2000E+01
    -20.349  0.0000E+00  0.2000E+01
    -20.241  0.0000E+00  0.2000E+01
    -20.134  0.0000E+00  0.2000E+01
    -20.026  0.0000E+00  0.2000E+01
    -19.919  0.0000E+00  0.2000E+01
    -19.812  0.0000E+00  0.2000E+01
    -19.704  0.0000E+00  0.2000E+01
    -19.597  0.0000E+00  0.2000E+01
    -19.489  0.0000E+00  0.2000E+01
    -19.382  0.0000E+00  0.2000E+01
    -19.275  0.0000E+00  0.2000E+01
    -19.167  0.0000E+00  0.2000E+01
    -19.060  0.0000E+00  0.2000E+01
    -18.953  0.0000E+00  0.2000E+01
    -18.845  0.0000E+00  0.2000E+01
    -18.738  0.0000E+00  0.2000E+01
    -18.630  0.0000E+00  0.2000E+01
    -18.523  0.0000E+00  0.2000E+01
    -18.416  0.0000E+00  0.2000E+01
    -18.308  0.0000E+00  0.2000E+01
    -18.201  0.0000E+00  0.2000E+01
    -18.094  0.0000E+00  0.2000E+01
    -17.986  0.0000E+00  0.2000E+01
    -17.879  0.0000E+00  0.2000E+01
    -17.771  0.0000E+00  0.2000E+01
    -17.664  0.0000E+00  0.2000E+01
    -17.557  0.0000E+00  0.2000E+01
    -17.449  0.0000E+00  0.2000E+01
    -17.342  0.0000E+00  0.2000E+01
    -17.235  0.0000E+00  0.2000E+01
    -17.127  0.0000E+00  0.2000E+01
    -17.020  0.0000E+00  0.2000E+01
    -16.912  0.0000E+00  0.2000E+01
    -16.805  0.0000E+00  0.2000E+01
    -16.698  0.0000E+00  0.2000E+01
    -16.590  0.0000E+00  0.2000E+01
    -16.483  0.0000E+00  0.2000E+01
    -16.376  0.0000E+00  0.2000E+01
    -16.268  0.0000E+00  0.2000E+01
    -16.161  0.0000E+00  0.2000E+01
    -16.053  0.0000E+00  0.2000E+01
    -15.946  0.0000E+00  0.2000E+01
    -15.839  0.0000E+00  0.2000E+01
    -15.731  0.0000E+00  0.2000E+01
    -15.624  0.0000E+00  0.2000E+01
    -15.517  0.0000E+00  0.2000E+01
    -15.409  0.0000E+00  0.2000E+01
    -15.302  0.0000E+00  0.2000E+01
    -15.194  0.0000E+00  0.2000E+01
    -15.087  0.7730E-25  0.2000E+01
    -14.980  0.2685E-21  0.2000E+01
    -14.872  0.5150E-18  0.2000E+01
    -14.765  0.5435E-15  0.2000E+01
    -14.658  0.3153E-12  0.2000E+01
    -14.550  0.9918E-10  0.2000E+01
    -14.443  0.1687E-07  0.2000E+01
    -14.335  0.1529E-05  0.2000E+01
    -14.228  0.7221E-04  0.2000E+01
    -14.121  0.1705E-02  0.2000E+01
    -14.013  0.1833E-01  0.2002E+01
    -13.906  0.6355E-01  0.2009E+01
    -13.798 -0.1499E+00  0.1993E+01
    -13.691 -0.8136E+00  0.1906E+01
    -13.584  0.1574E+01  0.2074E+01
    -13.476  0.8450E+01  0.2982E+01
    -13.369  0.8627E+01  0.3908E+01
    -13.262  0.1755E+01  0.4097E+01
    -13.154 -0.8163E+00  0.4009E+01
    -13.047 -0.1685E+00  0.3991E+01
    -12.939  0.6399E-01  0.3998E+01
    -12.832  0.1948E-01  0.4000E+01
    -12.725  0.1864E-02  0.4000E+01
    -12.617  0.8079E-04  0.4000E+01
    -12.510  0.1748E-05  0.4000E+01
    -12.403  0.1969E-07  0.4000E+01
    -12.295  0.6535E-09  0.4000E+01
    -12.188  0.7955E-07  0.4000E+01
    -12.080  0.6302E-05  0.4000E+01
    -11.973  0.2599E-03  0.4000E+01
    -11.866  0.5328E-02  0.4001E+01
    -11.758  0.4858E-01  0.4006E+01
    -11.651  0.1223E+00  0.4019E+01
    -11.544 -0.4923E+00  0.3966E+01
    -11.436 -0.1533E+01  0.3801E+01
    -11.329  0.4967E+01  0.4335E+01
    -11.221  0.1819E+02  0.6287E+01
    -11.114  0.1543E+02  0.7945E+01
    -11.007  0.2088E+01  0.8169E+01
    -10.899 -0.1528E+01  0.8005E+01
    -10.792 -0.1969E+00  0.7984E+01
    -10.685  0.1189E+00  0.7996E+01
    -10.577  0.3013E-01  0.8000E+01
    -10.470  0.2953E-02  0.8000E+01
    -10.362  0.5531E-02  0.8001E+01
    -10.255  0.3832E-01  0.8005E+01
    -10.148  0.4097E-01  0.8009E+01
    -10.040 -0.4687E+00  0.7959E+01
     -9.933 -0.4832E+00  0.7907E+01
     -9.826  0.4537E+01  0.8394E+01
     -9.718  0.9974E+01  0.9465E+01
     -9.611  0.5646E+01  0.1007E+02
     -9.503 -0.1430E+00  0.1006E+02
     -9.396 -0.5887E+00  0.9993E+01
     -9.289  0.1290E-01  0.9994E+01
     -9.181  0.4630E-01  0.9999E+01
     -9.074  0.7692E-02  0.1000E+02
     -8.967  0.5088E-03  0.1000E+02
     -8.859  0.1610E-04  0.1000E+02
     -8.752  0.2599E-06  0.1000E+02
     -8.644  0.2211E-08  0.1000E+02
     -8.537  0.1008E-10  0.1000E+02
     -8.430  0.2481E-13  0.1000E+02
     -8.322  0.4124E-27  0.1000E+02
     -8.215  0.2051E-23  0.1000E+02
     -8.108  0.5643E-20  0.1000E+02
     -8.000  0.8559E-17  0.1000E+02
     -7.893  0.7133E-14  0.1000E+02
     -7.785  0.3257E-11  0.1000E+02
     -7.678  0.8060E-09  0.1000E+02
     -7.571  0.1072E-06  0.1000E+02
     -7.463  0.7544E-05  0.1000E+02
     -7.356  0.2731E-03  0.1000E+02
     -7.248  0.4811E-02  0.1000E+02
     -7.141  0.3573E-01  0.1000E+02
     -7.034  0.4746E-01  0.1001E+02
     -6.926 -0.4287E+00  0.9963E+01
     -6.819 -0.5654E+00  0.9903E+01
     -6.712  0.4195E+01  0.1035E+02
     -6.604  0.1005E+02  0.1143E+02
     -6.497  0.6075E+01  0.1208E+02
     -6.389 -0.1644E+01  0.1191E+02
     -6.282 -0.1105E+01  0.1179E+02
     -6.175  0.1645E+02  0.1356E+02
     -6.067  0.2857E+02  0.1662E+02
     -5.960  0.1274E+02  0.1799E+02
     -5.853  0.1340E+02  0.1943E+02
     -5.745  0.4951E+02  0.2475E+02
     -5.638  0.1198E+03  0.3761E+02
     -5.530  0.2379E+03  0.6315E+02
     -5.423  0.3066E+03  0.9608E+02
     -5.316  0.2498E+03  0.1229E+03
     -5.208  0.2005E+03  0.1444E+03
     -5.101  0.2657E+03  0.1730E+03
     -4.994  0.3584E+03  0.2114E+03
     -4.886  0.3437E+03  0.2483E+03
     -4.779  0.2851E+03  0.2790E+03
     -4.671  0.3422E+03  0.3157E+03
     -4.564  0.4287E+03  0.3617E+03
     -4.457  0.4289E+03  0.4078E+03
     -4.349  0.4786E+03  0.4592E+03
     -4.242  0.5638E+03  0.5197E+03
     -4.135  0.4263E+03  0.5655E+03
     -4.027  0.1386E+03  0.5804E+03
     -3.920  0.5615E+01  0.5810E+03
     -3.812  0.2590E+02  0.5838E+03
     -3.705  0.3250E+02  0.5873E+03
     -3.598  0.1055E+02  0.5884E+03
     -3.490  0.1656E+02  0.5902E+03
     -3.383  0.2482E+02  0.5928E+03
     -3.276  0.8109E+01  0.5937E+03
     -3.168  0.4254E+01  0.5942E+03
     -3.061  0.3881E+02  0.5983E+03
     -2.953  0.6177E+02  0.6050E+03
     -2.846  0.3868E+02  0.6091E+03
     -2.739  0.7910E+01  0.6100E+03
     -2.631  0.6996E+01  0.6107E+03
     -2.524  0.2568E+02  0.6135E+03
     -2.417  0.2341E+02  0.6160E+03
     -2.309  0.8365E+01  0.6169E+03
     -2.202  0.1106E+02  0.6181E+03
     -2.094  0.3568E+02  0.6219E+03
     -1.987  0.4917E+02  0.6272E+03
     -1.880  0.3425E+02  0.6309E+03
     -1.772  0.2843E+02  0.6339E+03
     -1.665  0.4603E+02  0.6389E+03
     -1.557  0.4878E+02  0.6441E+03
     -1.450  0.2596E+02  0.6469E+03
     -1.343  0.1559E+02  0.6486E+03
     -1.235  0.2002E+02  0.6507E+03
     -1.128  0.2576E+02  0.6535E+03
     -1.021  0.3890E+02  0.6576E+03
     -0.913  0.6116E+02  0.6642E+03
     -0.806  0.4851E+02  0.6694E+03
     -0.698  0.1531E+02  0.6711E+03
     -0.591  0.5906E+01  0.6717E+03
     -0.484  0.3223E+01  0.6720E+03
     -0.376 -0.2376E+00  0.6720E+03
     -0.269 -0.3050E+00  0.6720E+03
     -0.162  0.6176E-01  0.6720E+03
     -0.054  0.3630E-01  0.6720E+03
      0.053  0.4791E-02  0.6720E+03
      0.161  0.2704E-03  0.6720E+03
      0.268  0.7447E-05  0.6720E+03
      0.375  0.1056E-06  0.6720E+03
      0.483  0.7920E-09  0.6720E+03
      0.590  0.3193E-11  0.6720E+03
      0.697  0.6204E-14  0.6720E+03
      0.805  0.0000E+00  0.6720E+03
      0.912  0.0000E+00  0.6720E+03
      1.020  0.0000E+00  0.6720E+03
      1.127  0.0000E+00  0.6720E+03
      1.234  0.0000E+00  0.6720E+03
      1.342  0.0000E+00  0.6720E+03
