<?xml version="1.0" encoding="ISO-8859-1"?>
<modeling>
 <generator>
  <i name="program" type="string">vasp </i>
  <i name="version" type="string">5.4.4.18Apr17-6-g9f103f2a35  </i>
  <i name="subversion" type="string">(build Sep 03 2018 23:53:05) complex            parallel </i>
  <i name="platform" type="string">LinuxIFC </i>
  <i name="date" type="string">2021 12 01 </i>
  <i name="time" type="string">20:34:15 </i>
 </generator>
 <incar>
  <i type="string" name="SYSTEM"> 6_Pd100_top_free_z(O)</i>
  <i type="int" name="ISTART">     0</i>
  <i type="string" name="PREC">normal   			! encut=max(enmax), ngx,y,z</i>
  <i type="string" name="ALGO"> Fast     			! Mix RMM-DIIS and Dav</i>
  <i type="logical" name="ADDGRID"> F  </i>
  <i type="int" name="ISPIN">     1</i>
  <i type="int" name="ICHARG">     2</i>
  <i type="int" name="NELM">   100</i>
  <i type="int" name="NELMIN">     6</i>
  <i type="int" name="IBRION">     2</i>
  <i name="EDIFF">      0.00010000</i>
  <i name="EDIFFG">     -0.05000000</i>
  <i type="int" name="NSW">     0</i>
  <i type="int" name="ISIF">     2</i>
  <i type="int" name="ISYM">     2</i>
  <i name="ENCUT">    400.00000000</i>
  <i type="string" name="LREAL"> Auto     			! Auto or A projection done</i>
  <i type="int" name="ISMEAR">     2</i>
  <i name="SIGMA">      0.20000000</i>
  <i type="logical" name="LWAVE"> F  </i>
  <i type="logical" name="LCHARG"> F  </i>
  <v type="int" name="KPOINT_BSE">    -1     0     0     0</v>
  <i type="int" name="MAXMEM"> 10000</i>
  <i type="int" name="NELM">   100</i>
  <i type="string" name="GGA"> RP         			! Revised PBE</i>
 </incar>
 <structure name="primitive_cell" >
  <crystal>
   <varray name="basis" >
    <v>      30.00000000       0.00000000       0.00000000 </v>
    <v>       0.00000000      30.00000000       0.00000000 </v>
    <v>       0.00000000       0.00000000      30.00000000 </v>
   </varray>
   <i name="volume">  27000.00000000 </i>
   <varray name="rec_basis" >
    <v>       0.03333333       0.00000000       0.00000000 </v>
    <v>       0.00000000       0.03333333       0.00000000 </v>
    <v>       0.00000000       0.00000000       0.03333333 </v>
   </varray>
  </crystal>
  <varray name="positions" >
   <v>       0.44576020       0.32826710       0.41691983 </v>
   <v>      -0.44576020       0.32826710       0.41691983 </v>
   <v>      -0.50000000       0.38250690       0.34021317 </v>
   <v>      -0.50000000       0.27609440      -0.50000000 </v>
   <v>       0.38804720       0.38804720       0.34167483 </v>
   <v>      -0.50000000       0.38416601      -0.50000000 </v>
   <v>       0.44208300       0.44208300       0.41809300 </v>
   <v>       0.38317830       0.38317830      -0.50000000 </v>
   <v>      -0.44208300       0.44208300       0.41809300 </v>
   <v>       0.44576020       0.32826710      -0.41691977 </v>
   <v>       0.32826705       0.44576024       0.41691983 </v>
   <v>      -0.38804720       0.38804720       0.34167483 </v>
   <v>      -0.38317830       0.38317830      -0.50000000 </v>
   <v>      -0.50000000      -0.50000000       0.33478917 </v>
   <v>      -0.50000000      -0.50000000      -0.50000000 </v>
   <v>      -0.44576020       0.32826710      -0.41691977 </v>
   <v>       0.38250685      -0.49999995       0.34021317 </v>
   <v>       0.44208300       0.44208300      -0.41809297 </v>
   <v>       0.38416599      -0.49999998      -0.50000000 </v>
   <v>      -0.44208300       0.44208300      -0.41809297 </v>
   <v>       0.44208298      -0.44208298       0.41809300 </v>
   <v>       0.32826705       0.44576024      -0.41691977 </v>
   <v>      -0.50000000       0.38250690      -0.34021320 </v>
   <v>       0.32826712      -0.44576022       0.41691983 </v>
   <v>      -0.38250685      -0.49999995       0.34021317 </v>
   <v>      -0.32826705       0.44576024       0.41691983 </v>
   <v>       0.27609443       0.49999998      -0.50000000 </v>
   <v>       0.38804720       0.38804720      -0.34167487 </v>
   <v>      -0.38416599      -0.49999998      -0.50000000 </v>
   <v>      -0.44208298      -0.44208298       0.41809300 </v>
   <v>       0.44208298      -0.44208298      -0.41809297 </v>
   <v>      -0.38804720       0.38804720      -0.34167487 </v>
   <v>       0.38804722      -0.38804722       0.34167483 </v>
   <v>       0.38250685      -0.49999995      -0.34021320 </v>
   <v>       0.32826712      -0.44576022      -0.41691977 </v>
   <v>      -0.32826705       0.44576024      -0.41691977 </v>
   <v>       0.50000000      -0.38250681       0.34021317 </v>
   <v>      -0.50000000      -0.38416596      -0.50000000 </v>
   <v>      -0.44208298      -0.44208298      -0.41809297 </v>
   <v>      -0.50000000      -0.50000000      -0.33478913 </v>
   <v>       0.38317828      -0.38317828      -0.50000000 </v>
   <v>      -0.32826712      -0.44576022       0.41691983 </v>
   <v>      -0.27609443       0.49999998      -0.50000000 </v>
   <v>      -0.38804722      -0.38804722       0.34167483 </v>
   <v>      -0.38250685      -0.49999995      -0.34021320 </v>
   <v>       0.44576027      -0.32826707       0.41691983 </v>
   <v>      -0.38317828      -0.38317828      -0.50000000 </v>
   <v>      -0.32826712      -0.44576022      -0.41691977 </v>
   <v>      -0.44576027      -0.32826707       0.41691983 </v>
   <v>       0.38804722      -0.38804722      -0.34167487 </v>
   <v>      -0.50000000      -0.38250681      -0.34021320 </v>
   <v>       0.44576027      -0.32826707      -0.41691977 </v>
   <v>      -0.44576027      -0.32826707      -0.41691977 </v>
   <v>      -0.35239367      -0.48809573      -0.29314267 </v>
   <v>      -0.50000000      -0.27609445       0.50000000 </v>
   <v>      -0.38804722      -0.38804722      -0.34167487 </v>
   <v>      -0.33057763      -0.48633630      -0.26256940 </v>
  </varray>
 </structure>
 <varray name="primitive_index" >
  <v type="int" >        1 </v>
  <v type="int" >        3 </v>
  <v type="int" >        5 </v>
  <v type="int" >        7 </v>
  <v type="int" >       15 </v>
  <v type="int" >       29 </v>
  <v type="int" >       28 </v>
  <v type="int" >       34 </v>
  <v type="int" >       21 </v>
  <v type="int" >       19 </v>
  <v type="int" >       22 </v>
  <v type="int" >       11 </v>
  <v type="int" >       36 </v>
  <v type="int" >       38 </v>
  <v type="int" >       52 </v>
  <v type="int" >       24 </v>
  <v type="int" >       32 </v>
  <v type="int" >       44 </v>
  <v type="int" >       48 </v>
  <v type="int" >       42 </v>
  <v type="int" >       43 </v>
  <v type="int" >       40 </v>
  <v type="int" >        6 </v>
  <v type="int" >        4 </v>
  <v type="int" >       30 </v>
  <v type="int" >       26 </v>
  <v type="int" >        8 </v>
  <v type="int" >       16 </v>
  <v type="int" >       49 </v>
  <v type="int" >       47 </v>
  <v type="int" >       53 </v>
  <v type="int" >       12 </v>
  <v type="int" >       13 </v>
  <v type="int" >       33 </v>
  <v type="int" >       25 </v>
  <v type="int" >       45 </v>
  <v type="int" >       50 </v>
  <v type="int" >       55 </v>
  <v type="int" >       54 </v>
  <v type="int" >       39 </v>
  <v type="int" >       37 </v>
  <v type="int" >        2 </v>
  <v type="int" >        9 </v>
  <v type="int" >       17 </v>
  <v type="int" >       31 </v>
  <v type="int" >       27 </v>
  <v type="int" >       35 </v>
  <v type="int" >       20 </v>
  <v type="int" >       23 </v>
  <v type="int" >       14 </v>
  <v type="int" >       51 </v>
  <v type="int" >       46 </v>
  <v type="int" >       41 </v>
  <v type="int" >       56 </v>
  <v type="int" >       10 </v>
  <v type="int" >       18 </v>
  <v type="int" >       57 </v>
 </varray>
 <kpoints>
  <generation param="Monkhorst-Pack">
   <v type="int" name="divisions">       1        1        1 </v>
   <v name="usershift">      0.00000000       0.00000000       0.00000000 </v>
   <v name="genvec1">      1.00000000       0.00000000       0.00000000 </v>
   <v name="genvec2">      0.00000000       1.00000000       0.00000000 </v>
   <v name="genvec3">      0.00000000       0.00000000       1.00000000 </v>
   <v name="shift">      0.00000000       0.00000000       0.00000000 </v>
  </generation>
  <varray name="kpointlist" >
   <v>       0.00000000       0.00000000       0.00000000 </v>
  </varray>
  <varray name="weights" >
   <v>       1.00000000 </v>
  </varray>
 </kpoints>
 <parameters>
  <separator name="general" >
   <i type="string" name="SYSTEM">6_Pd100_top_free_z(O)</i>
   <i type="logical" name="LCOMPAT"> F  </i>
  </separator>
  <separator name="electronic" >
   <i type="string" name="PREC">normal</i>
   <i name="ENMAX">    400.00000000</i>
   <i name="ENAUG">    644.87300000</i>
   <i name="EDIFF">      0.00010000</i>
   <i type="int" name="IALGO">    68</i>
   <i type="int" name="IWAVPR">    10</i>
   <i type="int" name="NBANDS">   336</i>
   <i name="NELECT">    560.00000000</i>
   <i type="int" name="TURBO">     0</i>
   <i type="int" name="IRESTART">     0</i>
   <i type="int" name="NREBOOT">     0</i>
   <i type="int" name="NMIN">     0</i>
   <i name="EREF">      0.00000000</i>
   <separator name="electronic smearing" >
    <i type="int" name="ISMEAR">     2</i>
    <i name="SIGMA">      0.20000000</i>
    <i name="KSPACING">      0.50000000</i>
    <i type="logical" name="KGAMMA"> T  </i>
   </separator>
   <separator name="electronic projectors" >
    <i type="logical" name="LREAL"> T  </i>
    <v name="ROPT">     -0.00050000     -0.00050000     -0.00050000</v>
    <i type="int" name="LMAXPAW">  -100</i>
    <i type="int" name="LMAXMIX">     2</i>
    <i type="logical" name="NLSPLINE"> F  </i>
   </separator>
   <separator name="electronic startup" >
    <i type="int" name="ISTART">     0</i>
    <i type="int" name="ICHARG">     2</i>
    <i type="int" name="INIWAV">     1</i>
   </separator>
   <separator name="electronic spin" >
    <i type="int" name="ISPIN">     1</i>
    <i type="logical" name="LNONCOLLINEAR"> F  </i>
    <v name="MAGMOM">      1.00000000      1.00000000      1.00000000      1.00000000      1.00000000      1.00000000      1.00000000      1.00000000      1.00000000      1.00000000      1.00000000      1.00000000      1.00000000      1.00000000      1.00000000      1.00000000      1.00000000      1.00000000      1.00000000      1.00000000
      1.00000000      1.00000000      1.00000000      1.00000000      1.00000000      1.00000000      1.00000000      1.00000000      1.00000000      1.00000000      1.00000000      1.00000000      1.00000000      1.00000000      1.00000000      1.00000000      1.00000000      1.00000000      1.00000000      1.00000000
      1.00000000      1.00000000      1.00000000      1.00000000      1.00000000      1.00000000      1.00000000      1.00000000      1.00000000      1.00000000      1.00000000      1.00000000      1.00000000      1.00000000      1.00000000      1.00000000      1.00000000</v>
    <i name="NUPDOWN">     -1.00000000</i>
    <i type="logical" name="LSORBIT"> F  </i>
    <v name="SAXIS">      0.00000000      0.00000000      1.00000000</v>
    <i type="logical" name="LSPIRAL"> F  </i>
    <v name="QSPIRAL">      0.00000000      0.00000000      0.00000000</v>
    <i type="logical" name="LZEROZ"> F  </i>
   </separator>
   <separator name="electronic exchange-correlation" >
    <i type="logical" name="LASPH"> F  </i>
    <i type="logical" name="LMETAGGA"> F  </i>
   </separator>
   <separator name="electronic convergence" >
    <i type="int" name="NELM">   100</i>
    <i type="int" name="NELMDL">    -5</i>
    <i type="int" name="NELMIN">     6</i>
    <i name="ENINI">    400.00000000</i>
    <separator name="electronic convergence detail" >
     <i type="logical" name="LDIAG"> T  </i>
     <i type="logical" name="LSUBROT"> F  </i>
     <i name="WEIMIN">      0.00000000</i>
     <i name="EBREAK">      0.00000007</i>
     <i name="DEPER">      0.30000000</i>
     <i type="int" name="NRMM">     4</i>
     <i name="TIME">      0.40000000</i>
    </separator>
   </separator>
   <separator name="electronic mixer" >
    <i name="AMIX">      0.40000000</i>
    <i name="BMIX">      1.00000000</i>
    <i name="AMIN">      0.10000000</i>
    <i name="AMIX_MAG">      1.60000000</i>
    <i name="BMIX_MAG">      1.00000000</i>
    <separator name="electronic mixer details" >
     <i type="int" name="IMIX">     4</i>
     <i type="logical" name="MIXFIRST"> F  </i>
     <i type="int" name="MAXMIX">   -45</i>
     <i name="WC">    100.00000000</i>
     <i type="int" name="INIMIX">     1</i>
     <i type="int" name="MIXPRE">     1</i>
     <i type="int" name="MREMOVE">     5</i>
    </separator>
   </separator>
   <separator name="electronic dipolcorrection" >
    <i type="logical" name="LDIPOL"> F  </i>
    <i type="logical" name="LMONO"> F  </i>
    <i type="int" name="IDIPOL">     0</i>
    <i name="EPSILON">      1.00000000</i>
    <v name="DIPOL">   -100.00000000   -100.00000000   -100.00000000</v>
    <i name="EFIELD">      0.00000000</i>
   </separator>
  </separator>
  <separator name="grids" >
   <i type="int" name="NGX">   150</i>
   <i type="int" name="NGY">   150</i>
   <i type="int" name="NGZ">   150</i>
   <i type="int" name="NGXF">   300</i>
   <i type="int" name="NGYF">   300</i>
   <i type="int" name="NGZF">   300</i>
   <i type="logical" name="ADDGRID"> F  </i>
  </separator>
  <separator name="ionic" >
   <i type="int" name="NSW">     0</i>
   <i type="int" name="IBRION">    -1</i>
   <i type="int" name="MDALGO">     0</i>
   <i type="int" name="ISIF">     2</i>
   <i name="PSTRESS">      0.00000000</i>
   <i name="EDIFFG">     -0.05000000</i>
   <i type="int" name="NFREE">     1</i>
   <i name="POTIM">      0.50000000</i>
   <i name="SMASS">     -3.00000000</i>
   <i name="SCALEE">      1.00000000</i>
  </separator>
  <separator name="ionic md" >
   <i name="TEBEG">      0.00010000</i>
   <i name="TEEND">      0.00010000</i>
   <i type="int" name="NBLOCK">     1</i>
   <i type="int" name="KBLOCK">     1</i>
   <i type="int" name="NPACO">   256</i>
   <i name="APACO">     16.00000000</i>
  </separator>
  <separator name="symmetry" >
   <i type="int" name="ISYM">     2</i>
   <i name="SYMPREC">      0.00001000</i>
  </separator>
  <separator name="dos" >
   <i type="int" name="LORBIT">     0</i>
   <v name="RWIGS">     -1.00000000     -1.00000000     -1.00000000</v>
   <i type="int" name="NEDOS">   301</i>
   <i name="EMIN">     10.00000000</i>
   <i name="EMAX">    -10.00000000</i>
   <i name="EFERMI">      0.00000000</i>
  </separator>
  <separator name="writing" >
   <i type="int" name="NWRITE">     2</i>
   <i type="logical" name="LWAVE"> F  </i>
   <i type="logical" name="LDOWNSAMPLE"> F  </i>
   <i type="logical" name="LCHARG"> F  </i>
   <i type="logical" name="LPARD"> F  </i>
   <i type="logical" name="LVTOT"> F  </i>
   <i type="logical" name="LVHAR"> F  </i>
   <i type="logical" name="LELF"> F  </i>
   <i type="logical" name="LOPTICS"> F  </i>
   <v name="STM">      0.00000000      0.00000000      0.00000000      0.00000000      0.00000000      0.00000000      0.00000000</v>
  </separator>
  <separator name="performance" >
   <i type="int" name="NPAR">     1</i>
   <i type="int" name="NSIM">     4</i>
   <i type="int" name="NBLK">    -1</i>
   <i type="logical" name="LPLANE"> T  </i>
   <i type="logical" name="LSCALAPACK"> T  </i>
   <i type="logical" name="LSCAAWARE"> F  </i>
   <i type="logical" name="LSCALU"> F  </i>
   <i type="logical" name="LASYNC"> F  </i>
   <i type="logical" name="LORBITALREAL"> F  </i>
  </separator>
  <separator name="miscellaneous" >
   <i type="int" name="IDIOT">     3</i>
   <i type="int" name="ISPECIAL">     0</i>
   <i type="logical" name="LMUSIC"> F  </i>
   <v name="POMASS">    106.42000000     12.01100000     16.00000000</v>
   <v name="DARWINR">      0.00000000      0.00000000      0.00000000</v>
   <v name="DARWINV">      1.00000000      1.00000000      1.00000000</v>
   <i type="logical" name="LCORR"> T  </i>
  </separator>
  <i type="logical" name="GGA_COMPAT"> T  </i>
  <i type="logical" name="LBERRY"> F  </i>
  <i type="int" name="ICORELEVEL">     0</i>
  <i type="logical" name="LDAU"> F  </i>
  <i type="int" name="I_CONSTRAINED_M">     0</i>
  <separator name="electronic exchange-correlation" >
   <i type="string" name="GGA">RP</i>
   <i type="int" name="VOSKOWN">     0</i>
   <i type="logical" name="LHFCALC"> F  </i>
   <i type="string" name="PRECFOCK"></i>
   <i type="logical" name="LSYMGRAD"> F  </i>
   <i type="logical" name="LHFONE"> F  </i>
   <i type="logical" name="LRHFCALC"> F  </i>
   <i type="logical" name="LTHOMAS"> F  </i>
   <i type="logical" name="LMODELHF"> F  </i>
   <i name="ENCUT4O">     -1.00000000</i>
   <i type="int" name="EXXOEP">     0</i>
   <i type="int" name="FOURORBIT">     0</i>
   <i name="AEXX">      0.00000000</i>
   <i name="HFALPHA">      0.00000000</i>
   <i name="MCALPHA">      0.00000000</i>
   <i name="ALDAX">      1.00000000</i>
   <i name="AGGAX">      1.00000000</i>
   <i name="ALDAC">      1.00000000</i>
   <i name="AGGAC">      1.00000000</i>
   <i type="int" name="NKREDX">     1</i>
   <i type="int" name="NKREDY">     1</i>
   <i type="int" name="NKREDZ">     1</i>
   <i type="logical" name="SHIFTRED"> F  </i>
   <i type="logical" name="ODDONLY"> F  </i>
   <i type="logical" name="EVENONLY"> F  </i>
   <i type="int" name="LMAXFOCK">     0</i>
   <i type="int" name="NMAXFOCKAE">     0</i>
   <i type="logical" name="LFOCKAEDFT"> F  </i>
   <i name="HFSCREEN">      0.00000000</i>
   <i name="HFSCREENC">      0.00000000</i>
   <i type="int" name="NBANDSGWLOW">     0</i>
  </separator>
  <separator name="vdW DFT" >
   <i type="logical" name="LUSE_VDW"> F  </i>
   <i name="Zab_VDW">     -0.84910000</i>
   <i name="PARAM1">      0.12340000</i>
   <i name="PARAM2">      1.00000000</i>
   <i name="PARAM3">      0.00000000</i>
  </separator>
  <separator name="model GW" >
   <i type="int" name="MODEL_GW">     0</i>
   <i name="MODEL_EPS0">    284.21052632</i>
   <i name="MODEL_ALPHA">      1.00000000</i>
  </separator>
  <separator name="linear response parameters" >
   <i type="logical" name="LEPSILON"> F  </i>
   <i type="logical" name="LRPA"> F  </i>
   <i type="logical" name="LNABLA"> F  </i>
   <i type="logical" name="LVEL"> F  </i>
   <i type="int" name="KINTER">     0</i>
   <i name="CSHIFT">      0.10000000</i>
   <i name="OMEGAMAX">     -1.00000000</i>
   <i name="DEG_THRESHOLD">      0.00200000</i>
   <i name="RTIME">     -0.10000000</i>
   <i name="WPLASMAI">      0.00000000</i>
   <v name="DFIELD">      0.00000000      0.00000000      0.00000000</v>
   <v name="WPLASMA">      0.00000000      0.00000000      0.00000000      0.00000000      0.00000000      0.00000000      0.00000000      0.00000000      0.00000000</v>
  </separator>
  <separator name="orbital magnetization" >
   <i type="logical" name="NUCIND"> F  </i>
   <v name="MAGPOS">      0.00000000      0.00000000      0.00000000</v>
   <i type="logical" name="LNICSALL"> T  </i>
   <i type="logical" name="ORBITALMAG"> F  </i>
   <i type="logical" name="LMAGBLOCH"> F  </i>
   <i type="logical" name="LCHIMAG"> F  </i>
   <i type="logical" name="LGAUGE"> T  </i>
   <i type="int" name="MAGATOM">     0</i>
   <v name="MAGDIPOL">      0.00000000      0.00000000      0.00000000</v>
   <v name="AVECCONST">      0.00000000      0.00000000      0.00000000</v>
  </separator>
  <separator name="response functions" >
   <i type="logical" name="LADDER"> F  </i>
   <i type="logical" name="LRPAFORCE"> F  </i>
   <i type="logical" name="LFXC"> F  </i>
   <i type="logical" name="LHARTREE"> T  </i>
   <i type="int" name="IBSE">     0</i>
   <v type="int" name="KPOINT">    -1     0     0     0</v>
   <i type="logical" name="LTCTE"> F  </i>
   <i type="logical" name="LTETE"> F  </i>
   <i type="logical" name="LTRIPLET"> F  </i>
   <i type="logical" name="LFXCEPS"> F  </i>
   <i type="logical" name="LFXHEG"> F  </i>
   <i type="int" name="NATURALO">     2</i>
   <i type="logical" name="L2ORDER"> F  </i>
   <i type="logical" name="LMP2LT"> F  </i>
   <i type="logical" name="LUSEW"> F  </i>
   <i name="ENCUTGW">     -2.00000000</i>
   <i name="ENCUTGWSOFT">     -2.00000000</i>
   <i name="ENCUTLF">     -1.00000000</i>
   <i type="int" name="LMAXMP2">    -1</i>
   <i name="SCISSOR">      0.00000000</i>
   <i type="int" name="NOMEGA">     0</i>
   <i type="int" name="NOMEGAR">     0</i>
   <i type="int" name="NBANDSGW">    -1</i>
   <i type="int" name="NBANDSO">    -1</i>
   <i type="int" name="NBANDSV">    -1</i>
   <i type="int" name="NELM">   100</i>
   <i type="int" name="NELMHF">     1</i>
   <i type="int" name="DIM">     3</i>
   <i type="int" name="ANTIRES">     0</i>
   <i name="OMEGAMAX">    -30.00000000</i>
   <i name="OMEGAMIN">    -30.00000000</i>
   <i name="OMEGATL">   -200.00000000</i>
   <i type="int" name="OMEGAGRID">   140</i>
   <i name="CSHIFT">     -0.10000000</i>
   <i type="logical" name="SELFENERGY"> F  </i>
   <i type="logical" name="LSPECTRAL"> F  </i>
   <i type="logical" name="LSPECTRALGW"> F  </i>
   <i type="logical" name="LSINGLES"> F  </i>
   <i type="logical" name="LFERMIGW"> F  </i>
   <i type="logical" name="ODDONLYGW"> F  </i>
   <i type="logical" name="EVENONLYGW"> F  </i>
   <i type="int" name="NKREDLFX">     1</i>
   <i type="int" name="NKREDLFY">     1</i>
   <i type="int" name="NKREDLFZ">     1</i>
   <i type="int" name="MAXMEM"> 10000</i>
   <i type="int" name="TELESCOPE">     0</i>
   <i type="int" name="TAUPAR">     1</i>
   <i type="int" name="OMEGAPAR">    -1</i>
   <i name="LAMBDA">      1.00000000</i>
  </separator>
  <separator name="External order field" >
   <i name="OFIELD_KAPPA">      0.00000000</i>
   <v name="OFIELD_K">      0.00000000      0.00000000      0.00000000</v>
   <i name="OFIELD_Q6_NEAR">      0.00000000</i>
   <i name="OFIELD_Q6_FAR">      0.00000000</i>
   <i name="OFIELD_A">      0.00000000</i>
  </separator>
 </parameters>
 <atominfo>
  <atoms>      57 </atoms>
  <types>       3 </types>
  <array name="atoms" >
   <dimension dim="1">ion</dimension>
   <field type="string">element</field>
   <field type="int">atomtype</field>
   <set>
    <rc><c>Pd</c><c>   1</c></rc>
    <rc><c>Pd</c><c>   1</c></rc>
    <rc><c>Pd</c><c>   1</c></rc>
    <rc><c>Pd</c><c>   1</c></rc>
    <rc><c>Pd</c><c>   1</c></rc>
    <rc><c>Pd</c><c>   1</c></rc>
    <rc><c>Pd</c><c>   1</c></rc>
    <rc><c>Pd</c><c>   1</c></rc>
    <rc><c>Pd</c><c>   1</c></rc>
    <rc><c>Pd</c><c>   1</c></rc>
    <rc><c>Pd</c><c>   1</c></rc>
    <rc><c>Pd</c><c>   1</c></rc>
    <rc><c>Pd</c><c>   1</c></rc>
    <rc><c>Pd</c><c>   1</c></rc>
    <rc><c>Pd</c><c>   1</c></rc>
    <rc><c>Pd</c><c>   1</c></rc>
    <rc><c>Pd</c><c>   1</c></rc>
    <rc><c>Pd</c><c>   1</c></rc>
    <rc><c>Pd</c><c>   1</c></rc>
    <rc><c>Pd</c><c>   1</c></rc>
    <rc><c>Pd</c><c>   1</c></rc>
    <rc><c>Pd</c><c>   1</c></rc>
    <rc><c>Pd</c><c>   1</c></rc>
    <rc><c>Pd</c><c>   1</c></rc>
    <rc><c>Pd</c><c>   1</c></rc>
    <rc><c>Pd</c><c>   1</c></rc>
    <rc><c>Pd</c><c>   1</c></rc>
    <rc><c>Pd</c><c>   1</c></rc>
    <rc><c>Pd</c><c>   1</c></rc>
    <rc><c>Pd</c><c>   1</c></rc>
    <rc><c>Pd</c><c>   1</c></rc>
    <rc><c>Pd</c><c>   1</c></rc>
    <rc><c>Pd</c><c>   1</c></rc>
    <rc><c>Pd</c><c>   1</c></rc>
    <rc><c>Pd</c><c>   1</c></rc>
    <rc><c>Pd</c><c>   1</c></rc>
    <rc><c>Pd</c><c>   1</c></rc>
    <rc><c>Pd</c><c>   1</c></rc>
    <rc><c>Pd</c><c>   1</c></rc>
    <rc><c>Pd</c><c>   1</c></rc>
    <rc><c>Pd</c><c>   1</c></rc>
    <rc><c>Pd</c><c>   1</c></rc>
    <rc><c>Pd</c><c>   1</c></rc>
    <rc><c>Pd</c><c>   1</c></rc>
    <rc><c>Pd</c><c>   1</c></rc>
    <rc><c>Pd</c><c>   1</c></rc>
    <rc><c>Pd</c><c>   1</c></rc>
    <rc><c>Pd</c><c>   1</c></rc>
    <rc><c>Pd</c><c>   1</c></rc>
    <rc><c>Pd</c><c>   1</c></rc>
    <rc><c>Pd</c><c>   1</c></rc>
    <rc><c>Pd</c><c>   1</c></rc>
    <rc><c>Pd</c><c>   1</c></rc>
    <rc><c>Pd</c><c>   1</c></rc>
    <rc><c>Pd</c><c>   1</c></rc>
    <rc><c>C </c><c>   2</c></rc>
    <rc><c>O </c><c>   3</c></rc>
   </set>
  </array>
  <array name="atomtypes" >
   <dimension dim="1">type</dimension>
   <field type="int">atomspertype</field>
   <field type="string">element</field>
   <field>mass</field>
   <field>valence</field>
   <field type="string">pseudopotential</field>
   <set>
    <rc><c>  55</c><c>Pd</c><c>    106.42000000</c><c>     10.00000000</c><c>  PAW_PBE Pd 04Jan2005                  </c></rc>
    <rc><c>   1</c><c>C </c><c>     12.01100000</c><c>      4.00000000</c><c>  PAW_PBE C 08Apr2002                   </c></rc>
    <rc><c>   1</c><c>O </c><c>     16.00000000</c><c>      6.00000000</c><c>  PAW_PBE O 08Apr2002                   </c></rc>
   </set>
  </array>
 </atominfo>
 <structure name="initialpos" >
  <crystal>
   <varray name="basis" >
    <v>      30.00000000       0.00000000       0.00000000 </v>
    <v>       0.00000000      30.00000000       0.00000000 </v>
    <v>       0.00000000       0.00000000      30.00000000 </v>
   </varray>
   <i name="volume">  27000.00000000 </i>
   <varray name="rec_basis" >
    <v>       0.03333333       0.00000000       0.00000000 </v>
    <v>       0.00000000       0.03333333       0.00000000 </v>
    <v>       0.00000000       0.00000000       0.03333333 </v>
   </varray>
  </crystal>
  <varray name="positions" >
   <v>       0.44576020       0.32826710       0.41691983 </v>
   <v>       0.67173288       0.55423978       0.41691983 </v>
   <v>       0.55423980       0.32826710       0.41691983 </v>
   <v>       0.32826712       0.55423978       0.41691983 </v>
   <v>       0.50000000       0.38250690       0.34021317 </v>
   <v>       0.50000000       0.38250690       0.65978680 </v>
   <v>       0.50000000       0.27609440       0.50000000 </v>
   <v>       0.27609443       0.49999998       0.50000000 </v>
   <v>       0.72390557       0.49999998       0.50000000 </v>
   <v>       0.50000000       0.72390555       0.50000000 </v>
   <v>       0.61195280       0.38804720       0.34167483 </v>
   <v>       0.61195280       0.38804720       0.65832513 </v>
   <v>       0.38804722       0.61195278       0.34167483 </v>
   <v>       0.38804722       0.61195278       0.65832513 </v>
   <v>       0.38804720       0.38804720       0.34167483 </v>
   <v>       0.38804720       0.38804720       0.65832513 </v>
   <v>       0.61195278       0.61195278       0.34167483 </v>
   <v>       0.61195278       0.61195278       0.65832513 </v>
   <v>       0.44576020       0.32826710       0.58308023 </v>
   <v>       0.67173288       0.55423978       0.58308023 </v>
   <v>       0.55791699       0.44208301       0.41809300 </v>
   <v>       0.32826705       0.44576024       0.41691983 </v>
   <v>       0.55423973       0.67173293       0.41691983 </v>
   <v>       0.55423980       0.32826710       0.58308023 </v>
   <v>       0.32826712       0.55423978       0.58308023 </v>
   <v>       0.67173295       0.44576024       0.41691983 </v>
   <v>       0.44576027       0.67173293       0.41691983 </v>
   <v>       0.44208301       0.44208301       0.41809300 </v>
   <v>       0.50000000       0.38416601       0.50000000 </v>
   <v>       0.61749315       0.50000005       0.34021317 </v>
   <v>       0.61749315       0.50000005       0.65978680 </v>
   <v>       0.38250685       0.50000005       0.34021317 </v>
   <v>       0.38250685       0.50000005       0.65978680 </v>
   <v>       0.38317830       0.38317830       0.50000000 </v>
   <v>       0.61682172       0.61682172       0.50000000 </v>
   <v>       0.61682170       0.38317830       0.50000000 </v>
   <v>       0.38317828       0.61682172       0.50000000 </v>
   <v>       0.50000000       0.50000000       0.33478917 </v>
   <v>       0.50000000       0.50000000       0.66521087 </v>
   <v>       0.32826705       0.44576024       0.58308023 </v>
   <v>       0.55423973       0.67173293       0.58308023 </v>
   <v>       0.55791699       0.44208301       0.58190703 </v>
   <v>       0.44208298       0.55791702       0.41809300 </v>
   <v>       0.44208301       0.44208301       0.58190703 </v>
   <v>       0.67173295       0.44576024       0.58308023 </v>
   <v>       0.44576027       0.67173293       0.58308023 </v>
   <v>       0.55791702       0.55791702       0.41809300 </v>
   <v>       0.38416599       0.50000002       0.50000000 </v>
   <v>       0.61583401       0.50000002       0.50000000 </v>
   <v>       0.50000000       0.61749319       0.34021317 </v>
   <v>       0.50000000       0.61749319       0.65978680 </v>
   <v>       0.50000000       0.50000000       0.50000000 </v>
   <v>       0.44208298       0.55791702       0.58190703 </v>
   <v>       0.55791702       0.55791702       0.58190703 </v>
   <v>       0.50000000       0.61583404       0.50000000 </v>
   <v>       0.64760633       0.51190427       0.70685733 </v>
   <v>       0.66942237       0.51366370       0.73743060 </v>
  </varray>
  <varray name="selective"  type="logical" >
   <v type="logical" >  F  F  F </v>
   <v type="logical" >  F  F  F </v>
   <v type="logical" >  F  F  F </v>
   <v type="logical" >  F  F  F </v>
   <v type="logical" >  F  F  F </v>
   <v type="logical" >  F  F  F </v>
   <v type="logical" >  F  F  F </v>
   <v type="logical" >  F  F  F </v>
   <v type="logical" >  F  F  F </v>
   <v type="logical" >  F  F  F </v>
   <v type="logical" >  F  F  F </v>
   <v type="logical" >  F  F  F </v>
   <v type="logical" >  F  F  F </v>
   <v type="logical" >  F  F  F </v>
   <v type="logical" >  F  F  F </v>
   <v type="logical" >  F  F  F </v>
   <v type="logical" >  F  F  F </v>
   <v type="logical" >  F  F  F </v>
   <v type="logical" >  F  F  F </v>
   <v type="logical" >  F  F  F </v>
   <v type="logical" >  F  F  F </v>
   <v type="logical" >  F  F  F </v>
   <v type="logical" >  F  F  F </v>
   <v type="logical" >  F  F  F </v>
   <v type="logical" >  F  F  F </v>
   <v type="logical" >  F  F  F </v>
   <v type="logical" >  F  F  F </v>
   <v type="logical" >  F  F  F </v>
   <v type="logical" >  F  F  F </v>
   <v type="logical" >  F  F  F </v>
   <v type="logical" >  F  F  F </v>
   <v type="logical" >  F  F  F </v>
   <v type="logical" >  F  F  F </v>
   <v type="logical" >  F  F  F </v>
   <v type="logical" >  F  F  F </v>
   <v type="logical" >  F  F  F </v>
   <v type="logical" >  F  F  F </v>
   <v type="logical" >  F  F  F </v>
   <v type="logical" >  F  F  F </v>
   <v type="logical" >  F  F  F </v>
   <v type="logical" >  F  F  F </v>
   <v type="logical" >  F  F  F </v>
   <v type="logical" >  F  F  F </v>
   <v type="logical" >  F  F  F </v>
   <v type="logical" >  F  F  F </v>
   <v type="logical" >  F  F  F </v>
   <v type="logical" >  F  F  F </v>
   <v type="logical" >  F  F  F </v>
   <v type="logical" >  F  F  F </v>
   <v type="logical" >  F  F  F </v>
   <v type="logical" >  F  F  F </v>
   <v type="logical" >  F  F  F </v>
   <v type="logical" >  F  F  F </v>
   <v type="logical" >  F  F  F </v>
   <v type="logical" >  F  F  F </v>
   <v type="logical" >  F  F  F </v>
   <v type="logical" >  F  F  F </v>
  </varray>
  <nose>
   <v>      -3.00000000       0.00000000       0.00010000       0.00010000 </v>
  </nose>
 </structure>
 <calculation>
  <scstep>
   <time name="dav">  346.03  346.10</time>
   <time name="total">  359.76  359.84</time>
   <energy>
    <i name="alphaZ">     75.25431677 </i>
    <i name="ewald"> 138109.75790240 </i>
    <i name="hartreedc">-181463.45185762 </i>
    <i name="XCdc">  -1702.63243679 </i>
    <i name="pawpsdc">  44873.02882129 </i>
    <i name="pawaedc"> -41398.84523641 </i>
    <i name="eentropy">      0.01780774 </i>
    <i name="bandstr">    815.84040241 </i>
    <i name="atom">  45086.50549395 </i>
    <i name="e_fr_energy">   4395.47521375 </i>
    <i name="e_wo_entrp">   4395.45740600 </i>
    <i name="e_0_energy">   4395.47076181 </i>
   </energy>
  </scstep>
  <scstep>
   <time name="dav">  548.80  548.80</time>
   <time name="total">  548.80  548.80</time>
   <energy>
    <i name="e_fr_energy">   2030.65352282 </i>
    <i name="e_wo_entrp">   2030.67388464 </i>
    <i name="e_0_energy">   2030.65861328 </i>
   </energy>
  </scstep>
  <scstep>
   <time name="dav">  468.87  468.87</time>
   <time name="total">  468.87  468.87</time>
   <energy>
    <i name="e_fr_energy">    242.24208512 </i>
    <i name="e_wo_entrp">    242.23803352 </i>
    <i name="e_0_energy">    242.24107222 </i>
   </energy>
  </scstep>
  <scstep>
   <time name="dav">  405.44  405.45</time>
   <time name="total">  405.44  405.45</time>
   <energy>
    <i name="e_fr_energy">   -135.42408334 </i>
    <i name="e_wo_entrp">   -135.42618664 </i>
    <i name="e_0_energy">   -135.42460916 </i>
   </energy>
  </scstep>
  <scstep>
   <time name="dav">  496.99  497.00</time>
   <time name="total">  522.11  522.12</time>
   <energy>
    <i name="e_fr_energy">   -180.92358450 </i>
    <i name="e_wo_entrp">   -181.42263249 </i>
    <i name="e_0_energy">   -181.04834650 </i>
   </energy>
  </scstep>
  <scstep>
   <time name="diag">   65.77   65.77</time>
   <time name="diis">  186.63  186.63</time>
   <time name="orth">   12.86   12.86</time>
   <time name="total">  302.78  302.78</time>
   <energy>
    <i name="e_fr_energy">   -181.56237084 </i>
    <i name="e_wo_entrp">   -181.40340479 </i>
    <i name="e_0_energy">   -181.52262933 </i>
   </energy>
  </scstep>
  <scstep>
   <time name="diag">   65.70   65.70</time>
   <time name="diis">  211.73  211.73</time>
   <time name="orth">   13.15   13.15</time>
   <time name="total">  328.14  328.14</time>
   <energy>
    <i name="e_fr_energy">   -184.62412932 </i>
    <i name="e_wo_entrp">   -184.47262940 </i>
    <i name="e_0_energy">   -184.58625434 </i>
   </energy>
  </scstep>
  <scstep>
   <time name="diag">   65.73   65.73</time>
   <time name="diis">  194.75  194.75</time>
   <time name="orth">   12.86   12.86</time>
   <time name="total">  311.06  311.07</time>
   <energy>
    <i name="e_fr_energy">   -186.76132775 </i>
    <i name="e_wo_entrp">   -186.69813418 </i>
    <i name="e_0_energy">   -186.74552936 </i>
   </energy>
  </scstep>
  <scstep>
   <time name="diag">   65.41   65.41</time>
   <time name="diis">  185.61  185.61</time>
   <time name="orth">   13.35   13.35</time>
   <time name="total">  303.01  303.01</time>
   <energy>
    <i name="e_fr_energy">   -182.88645787 </i>
    <i name="e_wo_entrp">   -182.78953240 </i>
    <i name="e_0_energy">   -182.86222650 </i>
   </energy>
  </scstep>
  <scstep>
   <time name="diag">   64.62   64.62</time>
   <time name="diis">  184.72  184.72</time>
   <time name="orth">   13.44   13.44</time>
   <time name="total">  300.57  300.57</time>
   <energy>
    <i name="e_fr_energy">   -180.46966272 </i>
    <i name="e_wo_entrp">   -180.36103072 </i>
    <i name="e_0_energy">   -180.44250472 </i>
   </energy>
  </scstep>
  <scstep>
   <time name="diag">   64.44   64.44</time>
   <time name="diis">  185.29  185.29</time>
   <time name="orth">   13.43   13.43</time>
   <time name="total">  300.67  300.67</time>
   <energy>
    <i name="e_fr_energy">   -180.45911751 </i>
    <i name="e_wo_entrp">   -180.30569312 </i>
    <i name="e_0_energy">   -180.42076141 </i>
   </energy>
  </scstep>
  <scstep>
   <time name="diag">   64.77   64.77</time>
   <time name="diis">  183.69  183.69</time>
   <time name="orth">   13.44   13.44</time>
   <time name="total">  299.39  299.39</time>
   <energy>
    <i name="e_fr_energy">   -178.47591653 </i>
    <i name="e_wo_entrp">   -178.53820108 </i>
    <i name="e_0_energy">   -178.49148767 </i>
   </energy>
  </scstep>
  <scstep>
   <time name="diag">   64.60   64.60</time>
   <time name="diis">  185.88  185.88</time>
   <time name="orth">   13.36   13.36</time>
   <time name="total">  301.91  301.91</time>
   <energy>
    <i name="e_fr_energy">   -178.35201797 </i>
    <i name="e_wo_entrp">   -178.22978228 </i>
    <i name="e_0_energy">   -178.32145905 </i>
   </energy>
  </scstep>
  <scstep>
   <time name="diag">   64.66   64.66</time>
   <time name="diis">  182.16  182.16</time>
   <time name="orth">   13.01   13.01</time>
   <time name="total">  298.08  298.08</time>
   <energy>
    <i name="e_fr_energy">   -178.32142594 </i>
    <i name="e_wo_entrp">   -178.29291626 </i>
    <i name="e_0_energy">   -178.31429852 </i>
   </energy>
  </scstep>
  <scstep>
   <time name="diag">   65.37   65.37</time>
   <time name="diis">  180.13  180.13</time>
   <time name="orth">   12.88   12.88</time>
   <time name="total">  295.92  295.92</time>
   <energy>
    <i name="e_fr_energy">   -176.55980195 </i>
    <i name="e_wo_entrp">   -176.50162716 </i>
    <i name="e_0_energy">   -176.54525825 </i>
   </energy>
  </scstep>
  <scstep>
   <time name="diag">   66.12   66.12</time>
   <time name="diis">  177.17  177.17</time>
   <time name="orth">   13.24   13.24</time>
   <time name="total">  294.39  294.39</time>
   <energy>
    <i name="e_fr_energy">   -175.83333426 </i>
    <i name="e_wo_entrp">   -175.82645232 </i>
    <i name="e_0_energy">   -175.83161378 </i>
   </energy>
  </scstep>
  <scstep>
   <time name="diag">   65.23   65.23</time>
   <time name="diis">  179.79  179.79</time>
   <time name="orth">   12.99   12.99</time>
   <time name="total">  295.81  295.81</time>
   <energy>
    <i name="e_fr_energy">   -175.66676486 </i>
    <i name="e_wo_entrp">   -175.61163413 </i>
    <i name="e_0_energy">   -175.65298218 </i>
   </energy>
  </scstep>
  <scstep>
   <time name="diag">   64.54   64.54</time>
   <time name="diis">  184.78  184.78</time>
   <time name="orth">   12.93   12.93</time>
   <time name="total">  299.40  299.40</time>
   <energy>
    <i name="e_fr_energy">   -175.98767045 </i>
    <i name="e_wo_entrp">   -175.95604883 </i>
    <i name="e_0_energy">   -175.97976504 </i>
   </energy>
  </scstep>
  <scstep>
   <time name="diag">   65.81   65.81</time>
   <time name="diis">  177.70  177.71</time>
   <time name="orth">   13.35   13.35</time>
   <time name="total">  294.81  294.82</time>
   <energy>
    <i name="e_fr_energy">   -175.86521441 </i>
    <i name="e_wo_entrp">   -175.80515851 </i>
    <i name="e_0_energy">   -175.85020044 </i>
   </energy>
  </scstep>
  <scstep>
   <time name="diag">   66.15   66.15</time>
   <time name="diis">  176.11  176.11</time>
   <time name="orth">   12.99   12.99</time>
   <time name="total">  292.91  292.91</time>
   <energy>
    <i name="e_fr_energy">   -175.41715925 </i>
    <i name="e_wo_entrp">   -175.32568600 </i>
    <i name="e_0_energy">   -175.39429094 </i>
   </energy>
  </scstep>
  <scstep>
   <time name="diag">   64.68   64.68</time>
   <time name="diis">  176.46  176.46</time>
   <time name="orth">   12.99   12.99</time>
   <time name="total">  291.64  291.64</time>
   <energy>
    <i name="e_fr_energy">   -175.32612467 </i>
    <i name="e_wo_entrp">   -175.22048296 </i>
    <i name="e_0_energy">   -175.29971424 </i>
   </energy>
  </scstep>
  <scstep>
   <time name="diag">   66.26   66.26</time>
   <time name="diis">  174.96  174.96</time>
   <time name="orth">   13.56   13.56</time>
   <time name="total">  293.28  293.29</time>
   <energy>
    <i name="e_fr_energy">   -175.38868521 </i>
    <i name="e_wo_entrp">   -175.29548143 </i>
    <i name="e_0_energy">   -175.36538426 </i>
   </energy>
  </scstep>
  <scstep>
   <time name="diag">   64.76   64.76</time>
   <time name="diis">  176.13  176.14</time>
   <time name="orth">   12.99   12.99</time>
   <time name="total">  291.28  291.28</time>
   <energy>
    <i name="e_fr_energy">   -175.23937845 </i>
    <i name="e_wo_entrp">   -175.16726915 </i>
    <i name="e_0_energy">   -175.22135112 </i>
   </energy>
  </scstep>
  <scstep>
   <time name="diag">   65.49   65.49</time>
   <time name="diis">  176.40  176.40</time>
   <time name="orth">   13.41   13.41</time>
   <time name="total">  293.43  293.43</time>
   <energy>
    <i name="e_fr_energy">   -175.12455016 </i>
    <i name="e_wo_entrp">   -175.04248150 </i>
    <i name="e_0_energy">   -175.10403300 </i>
   </energy>
  </scstep>
  <scstep>
   <time name="diag">   65.94   65.94</time>
   <time name="diis">  173.36  173.36</time>
   <time name="orth">   13.33   13.33</time>
   <time name="total">  291.61  291.61</time>
   <energy>
    <i name="e_fr_energy">   -175.10050686 </i>
    <i name="e_wo_entrp">   -175.01232459 </i>
    <i name="e_0_energy">   -175.07846129 </i>
   </energy>
  </scstep>
  <scstep>
   <time name="diag">   64.93   64.93</time>
   <time name="diis">  176.78  176.78</time>
   <time name="orth">   12.95   12.95</time>
   <time name="total">  292.71  292.71</time>
   <energy>
    <i name="e_fr_energy">   -175.05197580 </i>
    <i name="e_wo_entrp">   -174.95963597 </i>
    <i name="e_0_energy">   -175.02889085 </i>
   </energy>
  </scstep>
  <scstep>
   <time name="diag">   64.66   64.66</time>
   <time name="diis">  178.06  178.06</time>
   <time name="orth">   12.94   12.94</time>
   <time name="total">  293.37  293.37</time>
   <energy>
    <i name="e_fr_energy">   -175.03642181 </i>
    <i name="e_wo_entrp">   -174.94725431 </i>
    <i name="e_0_energy">   -175.01412994 </i>
   </energy>
  </scstep>
  <scstep>
   <time name="diag">   65.52   65.52</time>
   <time name="diis">  176.11  176.11</time>
   <time name="orth">   12.95   12.95</time>
   <time name="total">  292.35  292.35</time>
   <energy>
    <i name="e_fr_energy">   -175.01542085 </i>
    <i name="e_wo_entrp">   -174.91143558 </i>
    <i name="e_0_energy">   -174.98942453 </i>
   </energy>
  </scstep>
  <scstep>
   <time name="diag">   64.59   64.59</time>
   <time name="diis">  178.06  178.06</time>
   <time name="orth">   12.90   12.90</time>
   <time name="total">  293.44  293.44</time>
   <energy>
    <i name="e_fr_energy">   -175.00074900 </i>
    <i name="e_wo_entrp">   -174.88329396 </i>
    <i name="e_0_energy">   -174.97138524 </i>
   </energy>
  </scstep>
  <scstep>
   <time name="diag">   66.05   66.06</time>
   <time name="diis">  173.26  173.26</time>
   <time name="orth">   12.89   12.89</time>
   <time name="total">  290.41  290.42</time>
   <energy>
    <i name="e_fr_energy">   -174.99671625 </i>
    <i name="e_wo_entrp">   -174.89076483 </i>
    <i name="e_0_energy">   -174.97022839 </i>
   </energy>
  </scstep>
  <scstep>
   <time name="diag">   64.91   64.91</time>
   <time name="diis">  176.94  176.94</time>
   <time name="orth">   12.94   12.94</time>
   <time name="total">  292.84  292.84</time>
   <energy>
    <i name="e_fr_energy">   -174.98567033 </i>
    <i name="e_wo_entrp">   -174.87771455 </i>
    <i name="e_0_energy">   -174.95868139 </i>
   </energy>
  </scstep>
  <scstep>
   <time name="diag">   65.54   65.54</time>
   <time name="diis">  175.71  175.71</time>
   <time name="orth">   12.97   12.97</time>
   <time name="total">  292.38  292.38</time>
   <energy>
    <i name="e_fr_energy">   -174.98565618 </i>
    <i name="e_wo_entrp">   -174.88126889 </i>
    <i name="e_0_energy">   -174.95955936 </i>
   </energy>
  </scstep>
  <scstep>
   <time name="diag">   64.57   64.57</time>
   <time name="diis">  176.70  176.70</time>
   <time name="orth">   12.93   12.93</time>
   <time name="total">  292.40  292.41</time>
   <energy>
    <i name="e_fr_energy">   -174.98315694 </i>
    <i name="e_wo_entrp">   -174.87850429 </i>
    <i name="e_0_energy">   -174.95699378 </i>
   </energy>
  </scstep>
  <scstep>
   <time name="diag">   65.77   65.77</time>
   <time name="diis">  173.85  173.85</time>
   <time name="orth">   12.69   12.68</time>
   <time name="total">  291.05  291.05</time>
   <energy>
    <i name="e_fr_energy">   -174.98117747 </i>
    <i name="e_wo_entrp">   -174.87399292 </i>
    <i name="e_0_energy">   -174.95438133 </i>
   </energy>
  </scstep>
  <scstep>
   <time name="diag">   64.44   64.45</time>
   <time name="diis">  174.93  174.93</time>
   <time name="orth">   12.85   12.85</time>
   <time name="total">  290.57  290.58</time>
   <energy>
    <i name="e_fr_energy">   -174.98123983 </i>
    <i name="e_wo_entrp">   -174.87073941 </i>
    <i name="e_0_energy">   -174.95361472 </i>
   </energy>
  </scstep>
  <scstep>
   <time name="diag">   64.60   64.60</time>
   <time name="diis">  174.65  174.65</time>
   <time name="orth">   12.95   12.95</time>
   <time name="total">  290.77  290.78</time>
   <energy>
    <i name="e_fr_energy">   -174.98146442 </i>
    <i name="e_wo_entrp">   -174.87287704 </i>
    <i name="e_0_energy">   -174.95431757 </i>
   </energy>
  </scstep>
  <scstep>
   <time name="diag">   64.80   64.80</time>
   <time name="diis">  170.32  170.32</time>
   <time name="orth">   12.87   12.87</time>
   <time name="total">  287.39  287.40</time>
   <energy>
    <i name="e_fr_energy">   -174.98336023 </i>
    <i name="e_wo_entrp">   -174.87486041 </i>
    <i name="e_0_energy">   -174.95623528 </i>
   </energy>
  </scstep>
  <scstep>
   <time name="diag">   67.02   67.02</time>
   <time name="diis">  169.17  169.17</time>
   <time name="orth">   12.87   12.87</time>
   <time name="total">  288.47  288.47</time>
   <energy>
    <i name="e_fr_energy">   -174.98498008 </i>
    <i name="e_wo_entrp">   -174.87897388 </i>
    <i name="e_0_energy">   -174.95847853 </i>
   </energy>
  </scstep>
  <scstep>
   <time name="diag">   67.40   67.40</time>
   <time name="diis">  144.59  144.59</time>
   <time name="orth">   12.95   12.95</time>
   <time name="total">  264.69  264.69</time>
   <energy>
    <i name="e_fr_energy">   -174.98669617 </i>
    <i name="e_wo_entrp">   -174.87800743 </i>
    <i name="e_0_energy">   -174.95952398 </i>
   </energy>
  </scstep>
  <scstep>
   <time name="diag">   65.22   65.22</time>
   <time name="diis">  162.61  162.61</time>
   <time name="orth">   13.29   13.29</time>
   <time name="total">  281.53  281.53</time>
   <energy>
    <i name="e_fr_energy">   -174.99114037 </i>
    <i name="e_wo_entrp">   -174.88237603 </i>
    <i name="e_0_energy">   -174.96394928 </i>
   </energy>
  </scstep>
  <scstep>
   <time name="diag">   67.50   67.50</time>
   <time name="diis">  130.90  130.90</time>
   <time name="orth">   12.93   12.93</time>
   <time name="total">  251.75  251.76</time>
   <energy>
    <i name="e_fr_energy">   -174.99306444 </i>
    <i name="e_wo_entrp">   -174.88466807 </i>
    <i name="e_0_energy">   -174.96596534 </i>
   </energy>
  </scstep>
  <scstep>
   <time name="diag">   66.85   66.85</time>
   <time name="diis">  135.00  135.00</time>
   <time name="orth">   12.99   12.99</time>
   <time name="total">  254.50  254.50</time>
   <energy>
    <i name="e_fr_energy">   -174.99564358 </i>
    <i name="e_wo_entrp">   -174.88778942 </i>
    <i name="e_0_energy">   -174.96868004 </i>
   </energy>
  </scstep>
  <scstep>
   <time name="diag">   65.29   65.29</time>
   <time name="diis">  130.24  130.24</time>
   <time name="orth">   12.75   12.75</time>
   <time name="total">  249.30  249.30</time>
   <energy>
    <i name="e_fr_energy">   -174.99814993 </i>
    <i name="e_wo_entrp">   -174.88940255 </i>
    <i name="e_0_energy">   -174.97096309 </i>
   </energy>
  </scstep>
  <scstep>
   <time name="diag">   66.70   66.70</time>
   <time name="diis">  112.64  112.64</time>
   <time name="orth">   12.75   12.75</time>
   <time name="total">  232.55  232.56</time>
   <energy>
    <i name="e_fr_energy">   -174.99937025 </i>
    <i name="e_wo_entrp">   -174.89159368 </i>
    <i name="e_0_energy">   -174.97242611 </i>
   </energy>
  </scstep>
  <scstep>
   <time name="diag">   65.07   65.08</time>
   <time name="diis">  120.77  120.77</time>
   <time name="orth">   13.35   13.35</time>
   <time name="total">  240.48  240.48</time>
   <energy>
    <i name="e_fr_energy">   -175.00175912 </i>
    <i name="e_wo_entrp">   -174.89415370 </i>
    <i name="e_0_energy">   -174.97485777 </i>
   </energy>
  </scstep>
  <scstep>
   <time name="diag">   65.11   65.11</time>
   <time name="diis">  110.31  110.31</time>
   <time name="orth">   12.85   12.85</time>
   <time name="total">  229.13  229.13</time>
   <energy>
    <i name="e_fr_energy">   -175.00237313 </i>
    <i name="e_wo_entrp">   -174.89436690 </i>
    <i name="e_0_energy">   -174.97537158 </i>
   </energy>
  </scstep>
  <scstep>
   <time name="diag">   64.82   64.82</time>
   <time name="diis">  108.91  108.92</time>
   <time name="orth">   13.29   13.29</time>
   <time name="total">  228.12  228.13</time>
   <energy>
    <i name="e_fr_energy">   -175.00390364 </i>
    <i name="e_wo_entrp">   -174.89596420 </i>
    <i name="e_0_energy">   -174.97691878 </i>
   </energy>
  </scstep>
  <scstep>
   <time name="diag">   67.16   67.16</time>
   <time name="diis">  108.25  108.25</time>
   <time name="orth">   12.96   12.96</time>
   <time name="total">  229.32  229.32</time>
   <energy>
    <i name="e_fr_energy">   -175.00508056 </i>
    <i name="e_wo_entrp">   -174.89707917 </i>
    <i name="e_0_energy">   -174.97808022 </i>
   </energy>
  </scstep>
  <scstep>
   <time name="diag">   64.81   64.81</time>
   <time name="diis">  110.91  110.91</time>
   <time name="orth">   13.02   13.02</time>
   <time name="total">  229.41  229.41</time>
   <energy>
    <i name="e_fr_energy">   -175.00544311 </i>
    <i name="e_wo_entrp">   -174.89765900 </i>
    <i name="e_0_energy">   -174.97849709 </i>
   </energy>
  </scstep>
  <scstep>
   <time name="diag">   64.60   64.60</time>
   <time name="diis">  105.36  105.36</time>
   <time name="orth">   12.85   12.85</time>
   <time name="total">  223.32  223.33</time>
   <energy>
    <i name="e_fr_energy">   -175.00634993 </i>
    <i name="e_wo_entrp">   -174.89870006 </i>
    <i name="e_0_energy">   -174.97943746 </i>
   </energy>
  </scstep>
  <scstep>
   <time name="diag">   64.82   64.82</time>
   <time name="diis">   94.74   94.74</time>
   <time name="orth">   12.82   12.82</time>
   <time name="total">  212.69  212.69</time>
   <energy>
    <i name="e_fr_energy">   -175.00659883 </i>
    <i name="e_wo_entrp">   -174.89882275 </i>
    <i name="e_0_energy">   -174.97965481 </i>
   </energy>
  </scstep>
  <scstep>
   <time name="diag">   64.71   64.71</time>
   <time name="diis">   97.97   97.97</time>
   <time name="orth">   12.75   12.75</time>
   <time name="total">  215.70  215.70</time>
   <energy>
    <i name="e_fr_energy">   -175.00713394 </i>
    <i name="e_wo_entrp">   -174.89929766 </i>
    <i name="e_0_energy">   -174.98017487 </i>
   </energy>
  </scstep>
  <scstep>
   <time name="diag">   64.87   64.87</time>
   <time name="diis">   84.25   84.25</time>
   <time name="orth">   12.83   12.83</time>
   <time name="total">  202.54  202.54</time>
   <energy>
    <i name="e_fr_energy">   -175.00747829 </i>
    <i name="e_wo_entrp">   -174.89969742 </i>
    <i name="e_0_energy">   -174.98053307 </i>
   </energy>
  </scstep>
  <scstep>
   <time name="diag">   65.07   65.07</time>
   <time name="diis">   82.86   82.86</time>
   <time name="orth">   12.89   12.89</time>
   <time name="total">  201.38  201.38</time>
   <energy>
    <i name="e_fr_energy">   -175.00772695 </i>
    <i name="e_wo_entrp">   -174.89983534 </i>
    <i name="e_0_energy">   -174.98075404 </i>
   </energy>
  </scstep>
  <scstep>
   <time name="diag">   64.59   64.60</time>
   <time name="diis">   88.69   88.69</time>
   <time name="orth">   12.81   12.81</time>
   <time name="total">  206.42  206.43</time>
   <energy>
    <i name="e_fr_energy">   -175.00812644 </i>
    <i name="e_wo_entrp">   -174.90035770 </i>
    <i name="e_0_energy">   -174.98118426 </i>
   </energy>
  </scstep>
  <scstep>
   <time name="diag">   64.46   64.46</time>
   <time name="diis">   71.46   71.46</time>
   <time name="orth">   12.86   12.86</time>
   <time name="total">  161.88  161.88</time>
   <energy>
    <i name="alphaZ">     75.25431677 </i>
    <i name="ewald"> 138109.75790240 </i>
    <i name="hartreedc">-182448.68646440 </i>
    <i name="XCdc">  -1691.93831403 </i>
    <i name="pawpsdc">  46333.79896081 </i>
    <i name="pawaedc"> -42806.44007000 </i>
    <i name="eentropy">     -0.10782088 </i>
    <i name="bandstr">  -2833.15222510 </i>
    <i name="atom">  45086.50549395 </i>
    <i name="e_fr_energy">   -175.00822047 </i>
    <i name="e_wo_entrp">   -174.90039959 </i>
    <i name="e_0_energy">   -174.98126525 </i>
   </energy>
  </scstep>
  <structure>
   <crystal>
    <varray name="basis" >
     <v>      30.00000000       0.00000000       0.00000000 </v>
     <v>       0.00000000      30.00000000       0.00000000 </v>
     <v>       0.00000000       0.00000000      30.00000000 </v>
    </varray>
    <i name="volume">  27000.00000000 </i>
    <varray name="rec_basis" >
     <v>       0.03333333       0.00000000       0.00000000 </v>
     <v>       0.00000000       0.03333333       0.00000000 </v>
     <v>       0.00000000       0.00000000       0.03333333 </v>
    </varray>
   </crystal>
   <varray name="positions" >
    <v>       0.44576020       0.32826710       0.41691983 </v>
    <v>       0.67173288       0.55423978       0.41691983 </v>
    <v>       0.55423980       0.32826710       0.41691983 </v>
    <v>       0.32826712       0.55423978       0.41691983 </v>
    <v>       0.50000000       0.38250690       0.34021317 </v>
    <v>       0.50000000       0.38250690       0.65978680 </v>
    <v>       0.50000000       0.27609440       0.50000000 </v>
    <v>       0.27609443       0.49999998       0.50000000 </v>
    <v>       0.72390557       0.49999998       0.50000000 </v>
    <v>       0.50000000       0.72390555       0.50000000 </v>
    <v>       0.61195280       0.38804720       0.34167483 </v>
    <v>       0.61195280       0.38804720       0.65832513 </v>
    <v>       0.38804722       0.61195278       0.34167483 </v>
    <v>       0.38804722       0.61195278       0.65832513 </v>
    <v>       0.38804720       0.38804720       0.34167483 </v>
    <v>       0.38804720       0.38804720       0.65832513 </v>
    <v>       0.61195278       0.61195278       0.34167483 </v>
    <v>       0.61195278       0.61195278       0.65832513 </v>
    <v>       0.44576020       0.32826710       0.58308023 </v>
    <v>       0.67173288       0.55423978       0.58308023 </v>
    <v>       0.55791699       0.44208301       0.41809300 </v>
    <v>       0.32826705       0.44576024       0.41691983 </v>
    <v>       0.55423973       0.67173293       0.41691983 </v>
    <v>       0.55423980       0.32826710       0.58308023 </v>
    <v>       0.32826712       0.55423978       0.58308023 </v>
    <v>       0.67173295       0.44576024       0.41691983 </v>
    <v>       0.44576027       0.67173293       0.41691983 </v>
    <v>       0.44208301       0.44208301       0.41809300 </v>
    <v>       0.50000000       0.38416601       0.50000000 </v>
    <v>       0.61749315       0.50000005       0.34021317 </v>
    <v>       0.61749315       0.50000005       0.65978680 </v>
    <v>       0.38250685       0.50000005       0.34021317 </v>
    <v>       0.38250685       0.50000005       0.65978680 </v>
    <v>       0.38317830       0.38317830       0.50000000 </v>
    <v>       0.61682172       0.61682172       0.50000000 </v>
    <v>       0.61682170       0.38317830       0.50000000 </v>
    <v>       0.38317828       0.61682172       0.50000000 </v>
    <v>       0.50000000       0.50000000       0.33478917 </v>
    <v>       0.50000000       0.50000000       0.66521087 </v>
    <v>       0.32826705       0.44576024       0.58308023 </v>
    <v>       0.55423973       0.67173293       0.58308023 </v>
    <v>       0.55791699       0.44208301       0.58190703 </v>
    <v>       0.44208298       0.55791702       0.41809300 </v>
    <v>       0.44208301       0.44208301       0.58190703 </v>
    <v>       0.67173295       0.44576024       0.58308023 </v>
    <v>       0.44576027       0.67173293       0.58308023 </v>
    <v>       0.55791702       0.55791702       0.41809300 </v>
    <v>       0.38416599       0.50000002       0.50000000 </v>
    <v>       0.61583401       0.50000002       0.50000000 </v>
    <v>       0.50000000       0.61749319       0.34021317 </v>
    <v>       0.50000000       0.61749319       0.65978680 </v>
    <v>       0.50000000       0.50000000       0.50000000 </v>
    <v>       0.44208298       0.55791702       0.58190703 </v>
    <v>       0.55791702       0.55791702       0.58190703 </v>
    <v>       0.50000000       0.61583404       0.50000000 </v>
    <v>       0.64760633       0.51190427       0.70685733 </v>
    <v>       0.66942237       0.51366370       0.73743060 </v>
   </varray>
  </structure>
  <varray name="forces" >
   <v>       0.71147793       1.10147511       0.30316882 </v>
   <v>      -1.11014033      -0.70310057       0.29129546 </v>
   <v>      -0.71420506       1.10251578       0.28501831 </v>
   <v>       1.10565108      -0.70400549       0.29098403 </v>
   <v>       0.01353287       0.41281571       1.28471580 </v>
   <v>      -0.01408854       0.39988431      -1.29270313 </v>
   <v>      -0.00477339       1.51983215      -0.01686011 </v>
   <v>       1.51487409       0.00026778       0.00844800 </v>
   <v>      -1.53453062       0.01341824       0.02109792 </v>
   <v>      -0.00362127      -1.51547099      -0.01846741 </v>
   <v>      -0.76037926       0.75391042       1.07366500 </v>
   <v>      -0.76447057       0.75922931      -1.07760104 </v>
   <v>       0.75745682      -0.75189204       1.07358093 </v>
   <v>       0.75534158      -0.75672054      -1.07636385 </v>
   <v>       0.75500031       0.75176640       1.07195800 </v>
   <v>       0.75398292       0.75746992      -1.07590277 </v>
   <v>      -0.76215496      -0.75372811       1.07463940 </v>
   <v>      -0.73199926      -0.79028695      -1.03030203 </v>
   <v>       0.70710300       1.11177801      -0.28483321 </v>
   <v>      -1.06128362      -0.68151119      -0.39521859 </v>
   <v>       0.10607954      -0.11442355      -0.16066739 </v>
   <v>       1.10744263       0.70537421       0.29379335 </v>
   <v>      -0.71460274      -1.10677085       0.28607139 </v>
   <v>      -0.70107483       1.10463322      -0.28549304 </v>
   <v>       1.10512868      -0.71215953      -0.28952906 </v>
   <v>      -1.11090804       0.70248167       0.29080084 </v>
   <v>       0.71168141      -1.10393430       0.29837765 </v>
   <v>      -0.11325656      -0.10786331      -0.15350064 </v>
   <v>      -0.01373955      -0.25632368      -0.03330741 </v>
   <v>      -0.41585545      -0.00006419       1.27955098 </v>
   <v>      -2.24397255      -0.64277220      -4.04274786 </v>
   <v>       0.40884270       0.00202653       1.28359271 </v>
   <v>       0.39711510      -0.00115261      -1.29509795 </v>
   <v>       0.82522212       0.82820615      -0.00098888 </v>
   <v>      -0.81735408      -0.83711747      -0.00390962 </v>
   <v>      -0.81362492       0.84174586       0.01062375 </v>
   <v>       0.82492180      -0.82908761      -0.00316795 </v>
   <v>       0.00502185       0.00040915       1.17839919 </v>
   <v>      -0.06762603      -0.00743349      -1.19514223 </v>
   <v>       1.10566521       0.70993874      -0.28986277 </v>
   <v>      -0.71547629      -1.09500427      -0.29137450 </v>
   <v>       0.14577550      -0.03932894       0.19083042 </v>
   <v>      -0.11215997       0.10992732      -0.15544628 </v>
   <v>      -0.10750691      -0.11388269       0.16183282 </v>
   <v>      -1.10515209       0.64910572      -0.39175822 </v>
   <v>       0.71211316      -1.11204402      -0.27896303 </v>
   <v>       0.11034729       0.11532545      -0.15819249 </v>
   <v>      -0.22299947      -0.00275843       0.00248445 </v>
   <v>       0.22091267      -0.00388081       0.02163332 </v>
   <v>       0.00906899      -0.40949062       1.28352249 </v>
   <v>      -0.03345025      -0.38741123      -1.29537863 </v>
   <v>       0.02428623       0.00398937       0.01773636 </v>
   <v>      -0.10872396       0.11616413       0.15809910 </v>
   <v>       0.06165907       0.09343212       0.09296899 </v>
   <v>      -0.00995970       0.24231527      -0.02746102 </v>
   <v>      -0.99227784       0.17692140      -1.19559124 </v>
   <v>       2.92566354       0.45326024       4.18694289 </v>
  </varray>
  <varray name="stress" >
   <v>      -6.50979789       0.04557371       0.32536433 </v>
   <v>       0.04557371      -6.73389740       0.07072929 </v>
   <v>       0.32536428       0.07072931      -6.25643277 </v>
  </varray>
  <energy>
   <i name="e_fr_energy">   -175.00822047 </i>
   <i name="e_wo_entrp">   -174.98126525 </i>
   <i name="e_0_energy">     -0.10782088 </i>
  </energy>
  <time name="totalsc">16517.7016518.01</time>
  <eigenvalues>
   <array>
    <dimension dim="1">band</dimension>
    <dimension dim="2">kpoint</dimension>
    <dimension dim="3">spin</dimension>
    <field>eigene</field>
    <field>occ</field>
    <set>
     <set comment="spin 1">
      <set comment="kpoint 1">
       <r>  -28.2445    1.0000 </r>
       <r>  -13.6097    1.0000 </r>
       <r>  -11.3175    1.0000 </r>
       <r>  -10.8900    1.0000 </r>
       <r>  -10.8747    1.0000 </r>
       <r>   -6.9643    1.0000 </r>
       <r>   -6.9118    1.0000 </r>
       <r>   -6.6809    1.0000 </r>
       <r>   -6.2497    1.0000 </r>
       <r>   -6.1447    1.0000 </r>
       <r>   -6.1440    1.0000 </r>
       <r>   -6.0459    1.0000 </r>
       <r>   -5.9857    1.0000 </r>
       <r>   -5.8841    1.0000 </r>
       <r>   -5.8270    1.0000 </r>
       <r>   -5.8242    1.0000 </r>
       <r>   -5.7790    1.0000 </r>
       <r>   -5.7552    1.0000 </r>
       <r>   -5.7118    1.0000 </r>
       <r>   -5.7042    1.0000 </r>
       <r>   -5.6985    1.0000 </r>
       <r>   -5.6610    1.0000 </r>
       <r>   -5.6438    1.0000 </r>
       <r>   -5.6312    1.0000 </r>
       <r>   -5.6227    1.0000 </r>
       <r>   -5.6152    1.0000 </r>
       <r>   -5.6071    1.0000 </r>
       <r>   -5.5922    1.0000 </r>
       <r>   -5.5687    1.0000 </r>
       <r>   -5.5679    1.0000 </r>
       <r>   -5.5619    1.0000 </r>
       <r>   -5.5450    1.0000 </r>
       <r>   -5.5389    1.0000 </r>
       <r>   -5.5386    1.0000 </r>
       <r>   -5.5345    1.0000 </r>
       <r>   -5.5327    1.0000 </r>
       <r>   -5.5313    1.0000 </r>
       <r>   -5.5289    1.0000 </r>
       <r>   -5.5177    1.0000 </r>
       <r>   -5.5003    1.0000 </r>
       <r>   -5.4944    1.0000 </r>
       <r>   -5.4933    1.0000 </r>
       <r>   -5.4896    1.0000 </r>
       <r>   -5.4870    1.0000 </r>
       <r>   -5.4848    1.0000 </r>
       <r>   -5.4766    1.0000 </r>
       <r>   -5.4544    1.0000 </r>
       <r>   -5.4512    1.0000 </r>
       <r>   -5.4478    1.0000 </r>
       <r>   -5.4469    1.0000 </r>
       <r>   -5.4452    1.0000 </r>
       <r>   -5.4426    1.0000 </r>
       <r>   -5.4302    1.0000 </r>
       <r>   -5.4273    1.0000 </r>
       <r>   -5.4245    1.0000 </r>
       <r>   -5.4202    1.0000 </r>
       <r>   -5.4104    1.0000 </r>
       <r>   -5.3906    1.0000 </r>
       <r>   -5.3686    1.0000 </r>
       <r>   -5.3550    1.0000 </r>
       <r>   -5.3461    1.0000 </r>
       <r>   -5.3413    1.0000 </r>
       <r>   -5.3370    1.0000 </r>
       <r>   -5.3365    1.0000 </r>
       <r>   -5.3305    1.0000 </r>
       <r>   -5.3217    1.0000 </r>
       <r>   -5.3198    1.0000 </r>
       <r>   -5.3130    1.0000 </r>
       <r>   -5.2973    1.0000 </r>
       <r>   -5.2527    1.0000 </r>
       <r>   -5.2311    1.0000 </r>
       <r>   -5.2296    1.0000 </r>
       <r>   -5.2210    1.0000 </r>
       <r>   -5.2146    1.0000 </r>
       <r>   -5.2048    1.0000 </r>
       <r>   -5.2007    1.0000 </r>
       <r>   -5.1997    1.0000 </r>
       <r>   -5.1963    1.0000 </r>
       <r>   -5.1883    1.0000 </r>
       <r>   -5.1867    1.0000 </r>
       <r>   -5.1852    1.0000 </r>
       <r>   -5.1715    1.0000 </r>
       <r>   -5.1585    1.0000 </r>
       <r>   -5.1497    1.0000 </r>
       <r>   -5.1462    1.0000 </r>
       <r>   -5.1335    1.0000 </r>
       <r>   -5.1322    1.0000 </r>
       <r>   -5.1205    1.0000 </r>
       <r>   -5.1136    1.0000 </r>
       <r>   -5.1003    1.0000 </r>
       <r>   -5.0941    1.0000 </r>
       <r>   -5.0754    1.0000 </r>
       <r>   -5.0751    1.0000 </r>
       <r>   -5.0732    1.0000 </r>
       <r>   -5.0707    1.0000 </r>
       <r>   -5.0692    1.0000 </r>
       <r>   -5.0624    1.0000 </r>
       <r>   -5.0614    1.0000 </r>
       <r>   -5.0517    1.0000 </r>
       <r>   -5.0489    1.0000 </r>
       <r>   -5.0447    1.0000 </r>
       <r>   -5.0386    1.0000 </r>
       <r>   -5.0334    1.0000 </r>
       <r>   -5.0265    1.0000 </r>
       <r>   -5.0233    1.0000 </r>
       <r>   -5.0225    1.0000 </r>
       <r>   -5.0188    1.0000 </r>
       <r>   -5.0109    1.0000 </r>
       <r>   -5.0086    1.0000 </r>
       <r>   -4.9997    1.0000 </r>
       <r>   -4.9979    1.0000 </r>
       <r>   -4.9934    1.0000 </r>
       <r>   -4.9824    1.0000 </r>
       <r>   -4.9819    1.0000 </r>
       <r>   -4.9770    1.0000 </r>
       <r>   -4.9740    1.0000 </r>
       <r>   -4.9695    1.0000 </r>
       <r>   -4.9621    1.0000 </r>
       <r>   -4.9526    1.0000 </r>
       <r>   -4.9450    1.0000 </r>
       <r>   -4.9376    1.0000 </r>
       <r>   -4.9331    1.0000 </r>
       <r>   -4.9292    1.0000 </r>
       <r>   -4.9229    1.0000 </r>
       <r>   -4.9216    1.0000 </r>
       <r>   -4.9212    1.0000 </r>
       <r>   -4.9149    1.0000 </r>
       <r>   -4.8979    1.0000 </r>
       <r>   -4.8725    1.0000 </r>
       <r>   -4.8624    1.0000 </r>
       <r>   -4.8610    1.0000 </r>
       <r>   -4.8599    1.0000 </r>
       <r>   -4.8572    1.0000 </r>
       <r>   -4.8567    1.0000 </r>
       <r>   -4.8493    1.0000 </r>
       <r>   -4.8416    1.0000 </r>
       <r>   -4.8238    0.9999 </r>
       <r>   -4.8119    0.9999 </r>
       <r>   -4.8112    0.9999 </r>
       <r>   -4.8056    0.9999 </r>
       <r>   -4.7985    0.9999 </r>
       <r>   -4.7845    0.9998 </r>
       <r>   -4.7746    0.9997 </r>
       <r>   -4.7690    0.9997 </r>
       <r>   -4.7570    0.9996 </r>
       <r>   -4.7551    0.9996 </r>
       <r>   -4.7507    0.9996 </r>
       <r>   -4.7466    0.9995 </r>
       <r>   -4.7393    0.9994 </r>
       <r>   -4.7234    0.9992 </r>
       <r>   -4.7111    0.9990 </r>
       <r>   -4.7060    0.9989 </r>
       <r>   -4.7040    0.9988 </r>
       <r>   -4.7014    0.9988 </r>
       <r>   -4.6959    0.9987 </r>
       <r>   -4.6918    0.9986 </r>
       <r>   -4.6909    0.9985 </r>
       <r>   -4.6899    0.9985 </r>
       <r>   -4.6869    0.9984 </r>
       <r>   -4.6828    0.9983 </r>
       <r>   -4.6799    0.9983 </r>
       <r>   -4.6672    0.9979 </r>
       <r>   -4.6669    0.9979 </r>
       <r>   -4.6656    0.9978 </r>
       <r>   -4.6644    0.9978 </r>
       <r>   -4.6632    0.9977 </r>
       <r>   -4.6621    0.9977 </r>
       <r>   -4.6557    0.9975 </r>
       <r>   -4.6537    0.9974 </r>
       <r>   -4.6518    0.9973 </r>
       <r>   -4.6378    0.9968 </r>
       <r>   -4.6312    0.9966 </r>
       <r>   -4.6217    0.9962 </r>
       <r>   -4.6203    0.9962 </r>
       <r>   -4.6150    0.9960 </r>
       <r>   -4.6127    0.9959 </r>
       <r>   -4.6123    0.9959 </r>
       <r>   -4.6083    0.9958 </r>
       <r>   -4.6072    0.9957 </r>
       <r>   -4.6038    0.9956 </r>
       <r>   -4.5944    0.9954 </r>
       <r>   -4.5912    0.9953 </r>
       <r>   -4.5858    0.9952 </r>
       <r>   -4.5790    0.9951 </r>
       <r>   -4.5772    0.9951 </r>
       <r>   -4.5738    0.9951 </r>
       <r>   -4.5702    0.9951 </r>
       <r>   -4.5679    0.9951 </r>
       <r>   -4.5667    0.9951 </r>
       <r>   -4.5645    0.9951 </r>
       <r>   -4.5507    0.9955 </r>
       <r>   -4.5433    0.9959 </r>
       <r>   -4.5354    0.9965 </r>
       <r>   -4.5289    0.9971 </r>
       <r>   -4.5237    0.9977 </r>
       <r>   -4.5191    0.9984 </r>
       <r>   -4.5177    0.9986 </r>
       <r>   -4.5117    0.9995 </r>
       <r>   -4.4995    1.0019 </r>
       <r>   -4.4955    1.0029 </r>
       <r>   -4.4939    1.0033 </r>
       <r>   -4.4838    1.0060 </r>
       <r>   -4.4814    1.0067 </r>
       <r>   -4.4781    1.0078 </r>
       <r>   -4.4742    1.0091 </r>
       <r>   -4.4712    1.0101 </r>
       <r>   -4.4666    1.0118 </r>
       <r>   -4.4649    1.0124 </r>
       <r>   -4.4593    1.0146 </r>
       <r>   -4.4572    1.0154 </r>
       <r>   -4.4466    1.0200 </r>
       <r>   -4.4428    1.0217 </r>
       <r>   -4.4402    1.0229 </r>
       <r>   -4.4339    1.0259 </r>
       <r>   -4.4297    1.0279 </r>
       <r>   -4.4266    1.0294 </r>
       <r>   -4.4250    1.0301 </r>
       <r>   -4.4237    1.0307 </r>
       <r>   -4.4222    1.0315 </r>
       <r>   -4.4127    1.0360 </r>
       <r>   -4.3929    1.0446 </r>
       <r>   -4.3865    1.0469 </r>
       <r>   -4.3838    1.0477 </r>
       <r>   -4.3815    1.0484 </r>
       <r>   -4.3747    1.0501 </r>
       <r>   -4.3665    1.0513 </r>
       <r>   -4.3561    1.0514 </r>
       <r>   -4.3553    1.0514 </r>
       <r>   -4.3540    1.0512 </r>
       <r>   -4.3524    1.0510 </r>
       <r>   -4.3519    1.0509 </r>
       <r>   -4.3505    1.0507 </r>
       <r>   -4.3478    1.0501 </r>
       <r>   -4.3454    1.0494 </r>
       <r>   -4.3430    1.0487 </r>
       <r>   -4.3408    1.0478 </r>
       <r>   -4.3402    1.0476 </r>
       <r>   -4.3369    1.0461 </r>
       <r>   -4.3364    1.0458 </r>
       <r>   -4.3360    1.0456 </r>
       <r>   -4.3279    1.0405 </r>
       <r>   -4.3198    1.0335 </r>
       <r>   -4.3176    1.0313 </r>
       <r>   -4.3082    1.0200 </r>
       <r>   -4.3072    1.0186 </r>
       <r>   -4.3057    1.0165 </r>
       <r>   -4.3022    1.0113 </r>
       <r>   -4.3001    1.0079 </r>
       <r>   -4.2986    1.0053 </r>
       <r>   -4.2900    0.9895 </r>
       <r>   -4.2839    0.9765 </r>
       <r>   -4.2822    0.9728 </r>
       <r>   -4.2791    0.9655 </r>
       <r>   -4.2767    0.9594 </r>
       <r>   -4.2724    0.9484 </r>
       <r>   -4.2701    0.9421 </r>
       <r>   -4.2682    0.9368 </r>
       <r>   -4.2664    0.9316 </r>
       <r>   -4.2636    0.9233 </r>
       <r>   -4.2627    0.9204 </r>
       <r>   -4.2609    0.9151 </r>
       <r>   -4.2582    0.9063 </r>
       <r>   -4.2565    0.9010 </r>
       <r>   -4.2557    0.8981 </r>
       <r>   -4.2537    0.8914 </r>
       <r>   -4.2461    0.8646 </r>
       <r>   -4.2431    0.8535 </r>
       <r>   -4.2409    0.8448 </r>
       <r>   -4.2392    0.8385 </r>
       <r>   -4.2373    0.8307 </r>
       <r>   -4.2342    0.8183 </r>
       <r>   -4.2280    0.7925 </r>
       <r>   -4.2223    0.7674 </r>
       <r>   -4.2127    0.7232 </r>
       <r>   -4.2034    0.6782 </r>
       <r>   -4.2013    0.6677 </r>
       <r>   -4.1943    0.6325 </r>
       <r>   -4.1941    0.6316 </r>
       <r>   -4.1932    0.6272 </r>
       <r>   -4.1883    0.6019 </r>
       <r>   -4.1783    0.5493 </r>
       <r>   -4.1701    0.5064 </r>
       <r>   -4.1561    0.4326 </r>
       <r>   -4.1475    0.3879 </r>
       <r>   -4.1463    0.3814 </r>
       <r>   -4.1453    0.3765 </r>
       <r>   -4.1352    0.3257 </r>
       <r>   -4.1288    0.2943 </r>
       <r>   -4.1248    0.2754 </r>
       <r>   -3.9761   -0.0516 </r>
       <r>   -3.8883   -0.0187 </r>
       <r>   -3.8493   -0.0047 </r>
       <r>   -3.8321   -0.0006 </r>
       <r>   -3.7469    0.0047 </r>
       <r>   -3.5272    0.0001 </r>
       <r>   -3.5049    0.0001 </r>
       <r>   -3.4048    0.0000 </r>
       <r>   -3.0824    0.0000 </r>
       <r>   -3.0770    0.0000 </r>
       <r>   -3.0606    0.0000 </r>
       <r>   -3.0466    0.0000 </r>
       <r>   -3.0362    0.0000 </r>
       <r>   -2.9562    0.0000 </r>
       <r>   -2.9550    0.0000 </r>
       <r>   -2.8718    0.0000 </r>
       <r>   -2.5419    0.0000 </r>
       <r>   -2.5365    0.0000 </r>
       <r>   -2.4555    0.0000 </r>
       <r>   -2.3542    0.0000 </r>
       <r>   -2.1341    0.0000 </r>
       <r>   -2.1310    0.0000 </r>
       <r>   -2.0796    0.0000 </r>
       <r>   -2.0117    0.0000 </r>
       <r>   -1.9677    0.0000 </r>
       <r>   -1.9468    0.0000 </r>
       <r>   -1.8821    0.0000 </r>
       <r>   -1.8015    0.0000 </r>
       <r>   -1.7382    0.0000 </r>
       <r>   -1.6716    0.0000 </r>
       <r>   -1.6550    0.0000 </r>
       <r>   -1.6486    0.0000 </r>
       <r>   -1.5748    0.0000 </r>
       <r>   -1.4385    0.0000 </r>
       <r>   -1.3690    0.0000 </r>
       <r>   -1.2548    0.0000 </r>
       <r>   -1.1997    0.0000 </r>
       <r>   -1.0919    0.0000 </r>
       <r>   -1.0090    0.0000 </r>
       <r>   -0.9976    0.0000 </r>
       <r>   -0.9785    0.0000 </r>
       <r>   -0.9600    0.0000 </r>
       <r>   -0.9452    0.0000 </r>
       <r>   -0.8889    0.0000 </r>
       <r>   -0.8572    0.0000 </r>
       <r>   -0.8185    0.0000 </r>
       <r>   -0.6344    0.0000 </r>
      </set>
     </set>
    </set>
   </array>
  </eigenvalues>
  <separator name="orbital magnetization" >
   <v name="MAGDIPOLOUT">      0.00000000      0.00000000      0.00000000</v>
  </separator>
  <dos>
   <i name="efermi">     -4.16891155 </i>
   <total>
    <array>
     <dimension dim="1">gridpoints</dimension>
     <dimension dim="2">spin</dimension>
     <field>energy</field>
     <field>total</field>
     <field>integrated</field>
     <set>
      <set comment="spin 1">
       <r>   -30.2445     0.0000     0.0000 </r>
       <r>   -30.1391     0.0000     0.0000 </r>
       <r>   -30.0337     0.0000     0.0000 </r>
       <r>   -29.9284     0.0000     0.0000 </r>
       <r>   -29.8230     0.0000     0.0000 </r>
       <r>   -29.7176     0.0000     0.0000 </r>
       <r>   -29.6122     0.0000     0.0000 </r>
       <r>   -29.5069     0.0000     0.0000 </r>
       <r>   -29.4015     0.0000     0.0000 </r>
       <r>   -29.2961     0.0000     0.0000 </r>
       <r>   -29.1908     0.0000     0.0000 </r>
       <r>   -29.0854     0.0000     0.0000 </r>
       <r>   -28.9800     0.0001     0.0000 </r>
       <r>   -28.8747     0.0026     0.0003 </r>
       <r>   -28.7693     0.0235     0.0028 </r>
       <r>   -28.6639     0.0644     0.0096 </r>
       <r>   -28.5586    -0.2093    -0.0125 </r>
       <r>   -28.4532    -0.8195    -0.0988 </r>
       <r>   -28.3478     1.9234     0.1038 </r>
       <r>   -28.2425     8.7031     1.0208 </r>
       <r>   -28.1371     8.5025     1.9167 </r>
       <r>   -28.0317     1.7087     2.0968 </r>
       <r>   -27.9264    -0.8214     2.0102 </r>
       <r>   -27.8210    -0.1860     1.9906 </r>
       <r>   -27.7156     0.0646     1.9974 </r>
       <r>   -27.6103     0.0220     1.9997 </r>
       <r>   -27.5049     0.0023     2.0000 </r>
       <r>   -27.3995     0.0001     2.0000 </r>
       <r>   -27.2942     0.0000     2.0000 </r>
       <r>   -27.1888     0.0000     2.0000 </r>
       <r>   -27.0834     0.0000     2.0000 </r>
       <r>   -26.9781     0.0000     2.0000 </r>
       <r>   -26.8727     0.0000     2.0000 </r>
       <r>   -26.7673     0.0000     2.0000 </r>
       <r>   -26.6620     0.0000     2.0000 </r>
       <r>   -26.5566     0.0000     2.0000 </r>
       <r>   -26.4512     0.0000     2.0000 </r>
       <r>   -26.3459     0.0000     2.0000 </r>
       <r>   -26.2405     0.0000     2.0000 </r>
       <r>   -26.1351     0.0000     2.0000 </r>
       <r>   -26.0298     0.0000     2.0000 </r>
       <r>   -25.9244     0.0000     2.0000 </r>
       <r>   -25.8190     0.0000     2.0000 </r>
       <r>   -25.7137     0.0000     2.0000 </r>
       <r>   -25.6083     0.0000     2.0000 </r>
       <r>   -25.5029     0.0000     2.0000 </r>
       <r>   -25.3976     0.0000     2.0000 </r>
       <r>   -25.2922     0.0000     2.0000 </r>
       <r>   -25.1868     0.0000     2.0000 </r>
       <r>   -25.0815     0.0000     2.0000 </r>
       <r>   -24.9761     0.0000     2.0000 </r>
       <r>   -24.8707     0.0000     2.0000 </r>
       <r>   -24.7654     0.0000     2.0000 </r>
       <r>   -24.6600     0.0000     2.0000 </r>
       <r>   -24.5546     0.0000     2.0000 </r>
       <r>   -24.4493     0.0000     2.0000 </r>
       <r>   -24.3439     0.0000     2.0000 </r>
       <r>   -24.2385     0.0000     2.0000 </r>
       <r>   -24.1332     0.0000     2.0000 </r>
       <r>   -24.0278     0.0000     2.0000 </r>
       <r>   -23.9224     0.0000     2.0000 </r>
       <r>   -23.8171     0.0000     2.0000 </r>
       <r>   -23.7117     0.0000     2.0000 </r>
       <r>   -23.6063     0.0000     2.0000 </r>
       <r>   -23.5010     0.0000     2.0000 </r>
       <r>   -23.3956     0.0000     2.0000 </r>
       <r>   -23.2902     0.0000     2.0000 </r>
       <r>   -23.1849     0.0000     2.0000 </r>
       <r>   -23.0795     0.0000     2.0000 </r>
       <r>   -22.9741     0.0000     2.0000 </r>
       <r>   -22.8688     0.0000     2.0000 </r>
       <r>   -22.7634     0.0000     2.0000 </r>
       <r>   -22.6580     0.0000     2.0000 </r>
       <r>   -22.5527     0.0000     2.0000 </r>
       <r>   -22.4473     0.0000     2.0000 </r>
       <r>   -22.3419     0.0000     2.0000 </r>
       <r>   -22.2366     0.0000     2.0000 </r>
       <r>   -22.1312     0.0000     2.0000 </r>
       <r>   -22.0258     0.0000     2.0000 </r>
       <r>   -21.9205     0.0000     2.0000 </r>
       <r>   -21.8151     0.0000     2.0000 </r>
       <r>   -21.7097     0.0000     2.0000 </r>
       <r>   -21.6044     0.0000     2.0000 </r>
       <r>   -21.4990     0.0000     2.0000 </r>
       <r>   -21.3936     0.0000     2.0000 </r>
       <r>   -21.2883     0.0000     2.0000 </r>
       <r>   -21.1829     0.0000     2.0000 </r>
       <r>   -21.0775     0.0000     2.0000 </r>
       <r>   -20.9722     0.0000     2.0000 </r>
       <r>   -20.8668     0.0000     2.0000 </r>
       <r>   -20.7614     0.0000     2.0000 </r>
       <r>   -20.6561     0.0000     2.0000 </r>
       <r>   -20.5507     0.0000     2.0000 </r>
       <r>   -20.4453     0.0000     2.0000 </r>
       <r>   -20.3400     0.0000     2.0000 </r>
       <r>   -20.2346     0.0000     2.0000 </r>
       <r>   -20.1292     0.0000     2.0000 </r>
       <r>   -20.0239     0.0000     2.0000 </r>
       <r>   -19.9185     0.0000     2.0000 </r>
       <r>   -19.8131     0.0000     2.0000 </r>
       <r>   -19.7078     0.0000     2.0000 </r>
       <r>   -19.6024     0.0000     2.0000 </r>
       <r>   -19.4970     0.0000     2.0000 </r>
       <r>   -19.3917     0.0000     2.0000 </r>
       <r>   -19.2863     0.0000     2.0000 </r>
       <r>   -19.1809     0.0000     2.0000 </r>
       <r>   -19.0756     0.0000     2.0000 </r>
       <r>   -18.9702     0.0000     2.0000 </r>
       <r>   -18.8648     0.0000     2.0000 </r>
       <r>   -18.7595     0.0000     2.0000 </r>
       <r>   -18.6541     0.0000     2.0000 </r>
       <r>   -18.5487     0.0000     2.0000 </r>
       <r>   -18.4434     0.0000     2.0000 </r>
       <r>   -18.3380     0.0000     2.0000 </r>
       <r>   -18.2326     0.0000     2.0000 </r>
       <r>   -18.1273     0.0000     2.0000 </r>
       <r>   -18.0219     0.0000     2.0000 </r>
       <r>   -17.9165     0.0000     2.0000 </r>
       <r>   -17.8112     0.0000     2.0000 </r>
       <r>   -17.7058     0.0000     2.0000 </r>
       <r>   -17.6004     0.0000     2.0000 </r>
       <r>   -17.4951     0.0000     2.0000 </r>
       <r>   -17.3897     0.0000     2.0000 </r>
       <r>   -17.2843     0.0000     2.0000 </r>
       <r>   -17.1790     0.0000     2.0000 </r>
       <r>   -17.0736     0.0000     2.0000 </r>
       <r>   -16.9682     0.0000     2.0000 </r>
       <r>   -16.8629     0.0000     2.0000 </r>
       <r>   -16.7575     0.0000     2.0000 </r>
       <r>   -16.6521     0.0000     2.0000 </r>
       <r>   -16.5468     0.0000     2.0000 </r>
       <r>   -16.4414     0.0000     2.0000 </r>
       <r>   -16.3360     0.0000     2.0000 </r>
       <r>   -16.2307     0.0000     2.0000 </r>
       <r>   -16.1253     0.0000     2.0000 </r>
       <r>   -16.0199     0.0000     2.0000 </r>
       <r>   -15.9146     0.0000     2.0000 </r>
       <r>   -15.8092     0.0000     2.0000 </r>
       <r>   -15.7038     0.0000     2.0000 </r>
       <r>   -15.5985     0.0000     2.0000 </r>
       <r>   -15.4931     0.0000     2.0000 </r>
       <r>   -15.3877     0.0000     2.0000 </r>
       <r>   -15.2824     0.0000     2.0000 </r>
       <r>   -15.1770     0.0000     2.0000 </r>
       <r>   -15.0716     0.0000     2.0000 </r>
       <r>   -14.9663     0.0000     2.0000 </r>
       <r>   -14.8609     0.0000     2.0000 </r>
       <r>   -14.7555     0.0000     2.0000 </r>
       <r>   -14.6502     0.0000     2.0000 </r>
       <r>   -14.5448     0.0000     2.0000 </r>
       <r>   -14.4394     0.0000     2.0000 </r>
       <r>   -14.3341     0.0002     2.0000 </r>
       <r>   -14.2287     0.0034     2.0004 </r>
       <r>   -14.1233     0.0282     2.0033 </r>
       <r>   -14.0180     0.0617     2.0098 </r>
       <r>   -13.9126    -0.2812     1.9802 </r>
       <r>   -13.8072    -0.7869     1.8973 </r>
       <r>   -13.7019     2.5779     2.1689 </r>
       <r>   -13.5965     9.2076     3.1391 </r>
       <r>   -13.4911     7.8732     3.9687 </r>
       <r>   -13.3858     1.1440     4.0892 </r>
       <r>   -13.2804    -0.8043     4.0045 </r>
       <r>   -13.1750    -0.1258     3.9912 </r>
       <r>   -13.0697     0.0634     3.9979 </r>
       <r>   -12.9643     0.0181     3.9998 </r>
       <r>   -12.8589     0.0018     4.0000 </r>
       <r>   -12.7536     0.0001     4.0000 </r>
       <r>   -12.6482     0.0000     4.0000 </r>
       <r>   -12.5428     0.0000     4.0000 </r>
       <r>   -12.4375     0.0000     4.0000 </r>
       <r>   -12.3321     0.0000     4.0000 </r>
       <r>   -12.2267     0.0000     4.0000 </r>
       <r>   -12.1214     0.0000     4.0000 </r>
       <r>   -12.0160     0.0004     4.0000 </r>
       <r>   -11.9106     0.0062     4.0007 </r>
       <r>   -11.8053     0.0404     4.0050 </r>
       <r>   -11.6999     0.0386     4.0090 </r>
       <r>   -11.5945    -0.4703     3.9595 </r>
       <r>   -11.4892    -0.5116     3.9056 </r>
       <r>   -11.3838     4.3446     4.3633 </r>
       <r>   -11.2784    10.0340     5.4206 </r>
       <r>   -11.1731     5.4488     5.9947 </r>
       <r>   -11.0677    -1.2453     5.8635 </r>
       <r>   -10.9623     6.0508     6.5011 </r>
       <r>   -10.8570    19.1794     8.5219 </r>
       <r>   -10.7516    14.2498    10.0234 </r>
       <r>   -10.6462     1.2731    10.1575 </r>
       <r>   -10.5409    -1.4999     9.9995 </r>
       <r>   -10.4355    -0.1461     9.9841 </r>
       <r>   -10.3301     0.1190     9.9966 </r>
       <r>   -10.2247     0.0292     9.9997 </r>
       <r>   -10.1194     0.0026    10.0000 </r>
       <r>   -10.0140     0.0001    10.0000 </r>
       <r>    -9.9086     0.0000    10.0000 </r>
       <r>    -9.8033     0.0000    10.0000 </r>
       <r>    -9.6979     0.0000    10.0000 </r>
       <r>    -9.5925     0.0000    10.0000 </r>
       <r>    -9.4872     0.0000    10.0000 </r>
       <r>    -9.3818     0.0000    10.0000 </r>
       <r>    -9.2764     0.0000    10.0000 </r>
       <r>    -9.1711     0.0000    10.0000 </r>
       <r>    -9.0657     0.0000    10.0000 </r>
       <r>    -8.9603     0.0000    10.0000 </r>
       <r>    -8.8550     0.0000    10.0000 </r>
       <r>    -8.7496     0.0000    10.0000 </r>
       <r>    -8.6442     0.0000    10.0000 </r>
       <r>    -8.5389     0.0000    10.0000 </r>
       <r>    -8.4335     0.0000    10.0000 </r>
       <r>    -8.3281     0.0000    10.0000 </r>
       <r>    -8.2228     0.0000    10.0000 </r>
       <r>    -8.1174     0.0000    10.0000 </r>
       <r>    -8.0120     0.0000    10.0000 </r>
       <r>    -7.9067     0.0000    10.0000 </r>
       <r>    -7.8013     0.0000    10.0000 </r>
       <r>    -7.6959     0.0002    10.0000 </r>
       <r>    -7.5906     0.0036    10.0004 </r>
       <r>    -7.4852     0.0346    10.0040 </r>
       <r>    -7.3798     0.1147    10.0161 </r>
       <r>    -7.2745    -0.2287     9.9920 </r>
       <r>    -7.1691    -1.3930     9.8453 </r>
       <r>    -7.0637     2.0932    10.0658 </r>
       <r>    -6.9584    14.0895    11.5504 </r>
       <r>    -6.8530    17.7739    13.4232 </r>
       <r>    -6.7476    10.5906    14.5390 </r>
       <r>    -6.6423     8.8468    15.4712 </r>
       <r>    -6.5369     5.2908    16.0287 </r>
       <r>    -6.4315    -1.0862    15.9142 </r>
       <r>    -6.3262     1.2982    16.0510 </r>
       <r>    -6.2208    15.8145    17.7173 </r>
       <r>    -6.1154    30.0657    20.8853 </r>
       <r>    -6.0101    29.5785    24.0019 </r>
       <r>    -5.9047    26.7636    26.8219 </r>
       <r>    -5.7993    40.4397    31.0829 </r>
       <r>    -5.6940    78.9635    39.4030 </r>
       <r>    -5.5886   169.9545    57.3106 </r>
       <r>    -5.4832   276.4895    86.4434 </r>
       <r>    -5.3779   279.5243   115.8960 </r>
       <r>    -5.2725   212.8792   138.3264 </r>
       <r>    -5.1671   225.3413   162.0699 </r>
       <r>    -5.0618   318.1304   195.5903 </r>
       <r>    -4.9564   359.1311   233.4308 </r>
       <r>    -4.8510   303.4468   265.4040 </r>
       <r>    -4.7457   298.5578   296.8621 </r>
       <r>    -4.6403   392.8838   338.2591 </r>
       <r>    -4.5349   431.1964   383.6929 </r>
       <r>    -4.4296   430.3186   429.0342 </r>
       <r>    -4.3242   517.8307   483.5964 </r>
       <r>    -4.2188   537.5405   540.2353 </r>
       <r>    -4.1135   316.9421   573.6305 </r>
       <r>    -4.0081    69.9445   581.0003 </r>
       <r>    -3.9027     6.9026   581.7276 </r>
       <r>    -3.7974    30.2054   584.9103 </r>
       <r>    -3.6920    24.1435   587.4542 </r>
       <r>    -3.5866    12.4187   588.7627 </r>
       <r>    -3.4813    21.8640   591.0665 </r>
       <r>    -3.3759    21.2839   593.3091 </r>
       <r>    -3.2705     3.4138   593.6688 </r>
       <r>    -3.1652     6.8633   594.3919 </r>
       <r>    -3.0598    44.9384   599.1270 </r>
       <r>    -2.9544    62.9968   605.7647 </r>
       <r>    -2.8491    35.6070   609.5165 </r>
       <r>    -2.7437     4.9631   610.0395 </r>
       <r>    -2.6383     1.3844   610.1853 </r>
       <r>    -2.5330    20.0752   612.3006 </r>
       <r>    -2.4276    29.6611   615.4259 </r>
       <r>    -2.3222    17.5142   617.2713 </r>
       <r>    -2.2169    10.1090   618.3365 </r>
       <r>    -2.1115    26.0302   621.0792 </r>
       <r>    -2.0061    43.2659   625.6380 </r>
       <r>    -1.9008    40.8073   629.9377 </r>
       <r>    -1.7954    33.0561   633.4207 </r>
       <r>    -1.6900    39.8223   637.6167 </r>
       <r>    -1.5847    41.7286   642.0135 </r>
       <r>    -1.4793    25.8999   644.7425 </r>
       <r>    -1.3739    18.6832   646.7111 </r>
       <r>    -1.2686    20.9202   648.9154 </r>
       <r>    -1.1632    20.9277   651.1204 </r>
       <r>    -1.0578    33.0212   654.5998 </r>
       <r>    -0.9525    59.8141   660.9022 </r>
       <r>    -0.8471    59.4948   667.1710 </r>
       <r>    -0.7417    28.6771   670.1926 </r>
       <r>    -0.6364     9.8953   671.2352 </r>
       <r>    -0.5310     6.1951   671.8880 </r>
       <r>    -0.4256     1.6739   672.0644 </r>
       <r>    -0.3203    -0.5731   672.0040 </r>
       <r>    -0.2149    -0.1368   671.9896 </r>
       <r>    -0.1095     0.0724   671.9972 </r>
       <r>    -0.0042     0.0240   671.9997 </r>
       <r>     0.1012     0.0026   672.0000 </r>
       <r>     0.2066     0.0001   672.0000 </r>
       <r>     0.3119     0.0000   672.0000 </r>
       <r>     0.4173     0.0000   672.0000 </r>
       <r>     0.5227     0.0000   672.0000 </r>
       <r>     0.6280     0.0000   672.0000 </r>
       <r>     0.7334     0.0000   672.0000 </r>
       <r>     0.8388     0.0000   672.0000 </r>
       <r>     0.9441     0.0000   672.0000 </r>
       <r>     1.0495     0.0000   672.0000 </r>
       <r>     1.1549     0.0000   672.0000 </r>
       <r>     1.2602     0.0000   672.0000 </r>
       <r>     1.3656     0.0000   672.0000 </r>
      </set>
     </set>
    </array>
   </total>
  </dos>
 </calculation>
 <structure name="finalpos" >
  <crystal>
   <varray name="basis" >
    <v>      30.00000000       0.00000000       0.00000000 </v>
    <v>       0.00000000      30.00000000       0.00000000 </v>
    <v>       0.00000000       0.00000000      30.00000000 </v>
   </varray>
   <i name="volume">  27000.00000000 </i>
   <varray name="rec_basis" >
    <v>       0.03333333       0.00000000       0.00000000 </v>
    <v>       0.00000000       0.03333333       0.00000000 </v>
    <v>       0.00000000       0.00000000       0.03333333 </v>
   </varray>
  </crystal>
  <varray name="positions" >
   <v>       0.44576020       0.32826710       0.41691983 </v>
   <v>       0.67173288       0.55423978       0.41691983 </v>
   <v>       0.55423980       0.32826710       0.41691983 </v>
   <v>       0.32826712       0.55423978       0.41691983 </v>
   <v>       0.50000000       0.38250690       0.34021317 </v>
   <v>       0.50000000       0.38250690       0.65978680 </v>
   <v>       0.50000000       0.27609440       0.50000000 </v>
   <v>       0.27609443       0.49999998       0.50000000 </v>
   <v>       0.72390557       0.49999998       0.50000000 </v>
   <v>       0.50000000       0.72390555       0.50000000 </v>
   <v>       0.61195280       0.38804720       0.34167483 </v>
   <v>       0.61195280       0.38804720       0.65832513 </v>
   <v>       0.38804722       0.61195278       0.34167483 </v>
   <v>       0.38804722       0.61195278       0.65832513 </v>
   <v>       0.38804720       0.38804720       0.34167483 </v>
   <v>       0.38804720       0.38804720       0.65832513 </v>
   <v>       0.61195278       0.61195278       0.34167483 </v>
   <v>       0.61195278       0.61195278       0.65832513 </v>
   <v>       0.44576020       0.32826710       0.58308023 </v>
   <v>       0.67173288       0.55423978       0.58308023 </v>
   <v>       0.55791699       0.44208301       0.41809300 </v>
   <v>       0.32826705       0.44576024       0.41691983 </v>
   <v>       0.55423973       0.67173293       0.41691983 </v>
   <v>       0.55423980       0.32826710       0.58308023 </v>
   <v>       0.32826712       0.55423978       0.58308023 </v>
   <v>       0.67173295       0.44576024       0.41691983 </v>
   <v>       0.44576027       0.67173293       0.41691983 </v>
   <v>       0.44208301       0.44208301       0.41809300 </v>
   <v>       0.50000000       0.38416601       0.50000000 </v>
   <v>       0.61749315       0.50000005       0.34021317 </v>
   <v>       0.61749315       0.50000005       0.65978680 </v>
   <v>       0.38250685       0.50000005       0.34021317 </v>
   <v>       0.38250685       0.50000005       0.65978680 </v>
   <v>       0.38317830       0.38317830       0.50000000 </v>
   <v>       0.61682172       0.61682172       0.50000000 </v>
   <v>       0.61682170       0.38317830       0.50000000 </v>
   <v>       0.38317828       0.61682172       0.50000000 </v>
   <v>       0.50000000       0.50000000       0.33478917 </v>
   <v>       0.50000000       0.50000000       0.66521087 </v>
   <v>       0.32826705       0.44576024       0.58308023 </v>
   <v>       0.55423973       0.67173293       0.58308023 </v>
   <v>       0.55791699       0.44208301       0.58190703 </v>
   <v>       0.44208298       0.55791702       0.41809300 </v>
   <v>       0.44208301       0.44208301       0.58190703 </v>
   <v>       0.67173295       0.44576024       0.58308023 </v>
   <v>       0.44576027       0.67173293       0.58308023 </v>
   <v>       0.55791702       0.55791702       0.41809300 </v>
   <v>       0.38416599       0.50000002       0.50000000 </v>
   <v>       0.61583401       0.50000002       0.50000000 </v>
   <v>       0.50000000       0.61749319       0.34021317 </v>
   <v>       0.50000000       0.61749319       0.65978680 </v>
   <v>       0.50000000       0.50000000       0.50000000 </v>
   <v>       0.44208298       0.55791702       0.58190703 </v>
   <v>       0.55791702       0.55791702       0.58190703 </v>
   <v>       0.50000000       0.61583404       0.50000000 </v>
   <v>       0.64760633       0.51190427       0.70685733 </v>
   <v>       0.66942237       0.51366370       0.73743060 </v>
  </varray>
  <varray name="selective"  type="logical" >
   <v type="logical" >  F  F  F </v>
   <v type="logical" >  F  F  F </v>
   <v type="logical" >  F  F  F </v>
   <v type="logical" >  F  F  F </v>
   <v type="logical" >  F  F  F </v>
   <v type="logical" >  F  F  F </v>
   <v type="logical" >  F  F  F </v>
   <v type="logical" >  F  F  F </v>
   <v type="logical" >  F  F  F </v>
   <v type="logical" >  F  F  F </v>
   <v type="logical" >  F  F  F </v>
   <v type="logical" >  F  F  F </v>
   <v type="logical" >  F  F  F </v>
   <v type="logical" >  F  F  F </v>
   <v type="logical" >  F  F  F </v>
   <v type="logical" >  F  F  F </v>
   <v type="logical" >  F  F  F </v>
   <v type="logical" >  F  F  F </v>
   <v type="logical" >  F  F  F </v>
   <v type="logical" >  F  F  F </v>
   <v type="logical" >  F  F  F </v>
   <v type="logical" >  F  F  F </v>
   <v type="logical" >  F  F  F </v>
   <v type="logical" >  F  F  F </v>
   <v type="logical" >  F  F  F </v>
   <v type="logical" >  F  F  F </v>
   <v type="logical" >  F  F  F </v>
   <v type="logical" >  F  F  F </v>
   <v type="logical" >  F  F  F </v>
   <v type="logical" >  F  F  F </v>
   <v type="logical" >  F  F  F </v>
   <v type="logical" >  F  F  F </v>
   <v type="logical" >  F  F  F </v>
   <v type="logical" >  F  F  F </v>
   <v type="logical" >  F  F  F </v>
   <v type="logical" >  F  F  F </v>
   <v type="logical" >  F  F  F </v>
   <v type="logical" >  F  F  F </v>
   <v type="logical" >  F  F  F </v>
   <v type="logical" >  F  F  F </v>
   <v type="logical" >  F  F  F </v>
   <v type="logical" >  F  F  F </v>
   <v type="logical" >  F  F  F </v>
   <v type="logical" >  F  F  F </v>
   <v type="logical" >  F  F  F </v>
   <v type="logical" >  F  F  F </v>
   <v type="logical" >  F  F  F </v>
   <v type="logical" >  F  F  F </v>
   <v type="logical" >  F  F  F </v>
   <v type="logical" >  F  F  F </v>
   <v type="logical" >  F  F  F </v>
   <v type="logical" >  F  F  F </v>
   <v type="logical" >  F  F  F </v>
   <v type="logical" >  F  F  F </v>
   <v type="logical" >  F  F  F </v>
   <v type="logical" >  F  F  F </v>
   <v type="logical" >  F  F  F </v>
  </varray>
  <nose>
   <v>      -3.00000000       0.00000000       0.00010000       0.00010000 </v>
  </nose>
 </structure>
</modeling>
