 running on    1 total cores
 distrk:  each k-point on    1 cores,    1 groups
 distr:  one band on    1 cores,    1 groups
 using from now: INCAR     
 vasp.5.4.4.18Apr17-6-g9f103f2a35 (build Sep 03 2018 23:53:05) complex          
  
 POSCAR found type information on POSCAR  Pd C  O 
 POSCAR found :  3 types and      57 ions
 scaLAPACK will be used

 ----------------------------------------------------------------------------- 
|                                                                             |
|  ADVICE TO THIS USER RUNNING 'VASP/VAMP'   (HEAR YOUR MASTER'S VOICE ...):  |
|                                                                             |
|      You enforced a specific xc-type in the INCAR file,                     |
|      a different type was found on the POTCAR file                          |
|          I HOPE YOU KNOW, WHAT YOU ARE  DOING                               |
|                                                                             |
 ----------------------------------------------------------------------------- 

 LDA part: xc-table for Pade appr. of Perdew
 POSCAR, INCAR and KPOINTS ok, starting setup
 FFT: planning ...
 WAVECAR not read
 entering main loop
       N       E                     dE             d eps       ncg     rms          rms(c)
DAV:   1     0.439564773703E+04    0.43956E+04   -0.10054E+05   688   0.815E+02
DAV:   2     0.202967191977E+04   -0.23660E+04   -0.21246E+04  1208   0.105E+02
DAV:   3     0.245349345315E+03   -0.17843E+04   -0.16762E+04  1000   0.921E+01
DAV:   4    -0.133487784116E+03   -0.37884E+03   -0.32300E+03   840   0.439E+01
DAV:   5    -0.180147620900E+03   -0.46660E+02   -0.38619E+02  1056   0.148E+01    0.157E+01
RMM:   6    -0.181321135629E+03   -0.11735E+01   -0.66857E+01   728   0.953E+00    0.279E+01
RMM:   7    -0.183302860658E+03   -0.19817E+01   -0.22367E+01   869   0.463E+00    0.253E+01
RMM:   8    -0.184099447251E+03   -0.79659E+00   -0.76382E+00   792   0.352E+00    0.236E+01
RMM:   9    -0.182343262672E+03    0.17562E+01   -0.63830E+00   734   0.350E+00    0.236E+01
RMM:  10    -0.180520342680E+03    0.18229E+01   -0.38170E+00   729   0.287E+00    0.223E+01
RMM:  11    -0.179125004141E+03    0.13953E+01   -0.23216E+00   731   0.219E+00    0.183E+01
RMM:  12    -0.178462647371E+03    0.66236E+00   -0.14082E+00   723   0.176E+00    0.178E+01
RMM:  13    -0.177776258942E+03    0.68639E+00   -0.12694E+00   726   0.167E+00    0.165E+01
RMM:  14    -0.177252533198E+03    0.52373E+00   -0.14655E+00   708   0.181E+00    0.202E+01
RMM:  15    -0.176794962680E+03    0.45757E+00   -0.13364E+00   702   0.166E+00    0.157E+01
RMM:  16    -0.176486421986E+03    0.30854E+00   -0.11459E+00   701   0.158E+00    0.140E+01
RMM:  17    -0.176027703035E+03    0.45872E+00   -0.52564E-01   714   0.107E+00    0.110E+01
RMM:  18    -0.176119983489E+03   -0.92280E-01   -0.47480E-01   710   0.101E+00    0.111E+01
RMM:  19    -0.176079952264E+03    0.40031E-01   -0.29621E-01   719   0.829E-01    0.126E+01
RMM:  20    -0.175811922330E+03    0.26803E+00   -0.32396E-01   699   0.885E-01    0.127E+01
RMM:  21    -0.175516718666E+03    0.29520E+00   -0.19439E-01   696   0.677E-01    0.661E+00
RMM:  22    -0.175506111000E+03    0.10608E-01   -0.23308E-01   692   0.732E-01    0.735E+00
RMM:  23    -0.175486759365E+03    0.19352E-01   -0.21733E-01   699   0.723E-01    0.759E+00
RMM:  24    -0.175329564934E+03    0.15719E+00   -0.14416E-01   699   0.596E-01    0.617E+00
RMM:  25    -0.175267759158E+03    0.61806E-01   -0.11759E-01   691   0.521E-01    0.503E+00
RMM:  26    -0.175188974469E+03    0.78785E-01   -0.70117E-02   695   0.426E-01    0.382E+00
RMM:  27    -0.175147655226E+03    0.41319E-01   -0.49219E-02   695   0.351E-01    0.275E+00
RMM:  28    -0.175145649796E+03    0.20054E-02   -0.46968E-02   691   0.345E-01    0.292E+00
RMM:  29    -0.175121600928E+03    0.24049E-01   -0.34168E-02   691   0.298E-01    0.233E+00
RMM:  30    -0.175109693343E+03    0.11908E-01   -0.24327E-02   690   0.251E-01    0.176E+00
RMM:  31    -0.175092715063E+03    0.16978E-01   -0.14090E-02   693   0.195E-01    0.109E+00
RMM:  32    -0.175088797802E+03    0.39173E-02   -0.69112E-03   695   0.138E-01    0.957E-01
RMM:  33    -0.175086367567E+03    0.24302E-02   -0.52240E-03   694   0.115E-01    0.819E-01
RMM:  34    -0.175084242999E+03    0.21246E-02   -0.35616E-03   689   0.986E-02    0.632E-01
RMM:  35    -0.175085025256E+03   -0.78226E-03   -0.30232E-03   686   0.850E-02    0.700E-01
RMM:  36    -0.175083919248E+03    0.11060E-02   -0.15785E-03   690   0.664E-02    0.483E-01
RMM:  37    -0.175084652127E+03   -0.73288E-03   -0.13361E-03   688   0.592E-02    0.407E-01
RMM:  38    -0.175086396305E+03   -0.17442E-02   -0.10421E-03   681   0.527E-02    0.405E-01
RMM:  39    -0.175088136333E+03   -0.17400E-02   -0.91151E-04   680   0.463E-02    0.334E-01
RMM:  40    -0.175090429435E+03   -0.22931E-02   -0.81351E-04   680   0.427E-02    0.296E-01
RMM:  41    -0.175093038873E+03   -0.26094E-02   -0.69010E-04   649   0.392E-02    0.316E-01
RMM:  42    -0.175094943220E+03   -0.19043E-02   -0.46914E-04   533   0.327E-02    0.206E-01
RMM:  43    -0.175096383895E+03   -0.14407E-02   -0.28509E-04   424   0.269E-02    0.180E-01
RMM:  44    -0.175098821409E+03   -0.24375E-02   -0.33180E-04   448   0.258E-02    0.181E-01
RMM:  45    -0.175100322047E+03   -0.15006E-02   -0.23498E-04   414   0.224E-02    0.127E-01
RMM:  46    -0.175102691535E+03   -0.23695E-02   -0.36425E-04   473   0.234E-02    0.133E-01
RMM:  47    -0.175104489009E+03   -0.17975E-02   -0.28754E-04   434   0.211E-02    0.867E-02
RMM:  48    -0.175105656859E+03   -0.11679E-02   -0.16523E-04   416   0.161E-02    0.964E-02
RMM:  49    -0.175107408927E+03   -0.17521E-02   -0.18636E-04   412   0.158E-02    0.800E-02
RMM:  50    -0.175107919863E+03   -0.51094E-03   -0.79820E-05   414   0.106E-02    0.517E-02
RMM:  51    -0.175108849293E+03   -0.92943E-03   -0.63667E-05   403   0.940E-03    0.444E-02
RMM:  52    -0.175109292295E+03   -0.44300E-03   -0.37661E-05   397   0.708E-03    0.333E-02
RMM:  53    -0.175109854722E+03   -0.56243E-03   -0.27800E-05   386   0.614E-03    0.265E-02
RMM:  54    -0.175110149347E+03   -0.29462E-03   -0.12836E-05   260   0.465E-03    0.155E-02
RMM:  55    -0.175110519465E+03   -0.37012E-03   -0.64254E-06   185   0.430E-03    0.181E-02
RMM:  56    -0.175110748566E+03   -0.22910E-03   -0.31246E-06   145   0.422E-03    0.164E-02
RMM:  57    -0.175111046542E+03   -0.29798E-03   -0.12615E-05   269   0.454E-03    0.139E-02
RMM:  58    -0.175111363617E+03   -0.31708E-03   -0.68432E-06   175   0.395E-03    0.119E-02
RMM:  59    -0.175111603003E+03   -0.23939E-03   -0.91909E-06   180   0.401E-03    0.103E-02
RMM:  60    -0.175111764825E+03   -0.16182E-03   -0.73272E-06   165   0.386E-03    0.100E-02
RMM:  61    -0.175111861982E+03   -0.97157E-04   -0.44675E-06   129   0.360E-03
   1 F= -.17511186E+03 E0= -.17510451E+03  d E =-.293958E-01
================================= SLURM INFO ===================================
Command: run-cluster -n 1 -m 10000 -j 000029_vasp --same-node /opt/VASP/vasp
Exit code: 0
Job name: 000029_vasp
Job time: 0 days 6h:52m:47s
MPI task count: 1
Working dir: /home/pashkov/pyFitIt/pyfitit/data/adaptive_pd_co_new_2/sample/000029
Job was running on nodes: b2
Task per node: 1
       JobID     MaxRSS  MaxDiskRead MaxDiskWrite    Elapsed    JobName 
------------ ---------- ------------ ------------ ---------- ---------- 
106489                                              06:52:47 000029_va+ 
106489.batch                                        06:52:47      batch 
