       N       E                     dE             d eps       ncg     rms          rms(c)
DAV:   1     0.438633697471E+04    0.43863E+04   -0.10051E+05   688   0.815E+02
DAV:   2     0.200819670245E+04   -0.23781E+04   -0.21400E+04  1224   0.105E+02
DAV:   3     0.228723939368E+03   -0.17795E+04   -0.16728E+04   992   0.918E+01
DAV:   4    -0.135397152191E+03   -0.36412E+03   -0.31060E+03   832   0.434E+01
DAV:   5    -0.180112648152E+03   -0.44715E+02   -0.37061E+02  1048   0.144E+01    0.143E+01
RMM:   6    -0.179461354832E+03    0.65129E+00   -0.50786E+01   729   0.872E+00    0.215E+01
RMM:   7    -0.182689182933E+03   -0.32278E+01   -0.18501E+01   860   0.452E+00    0.240E+01
RMM:   8    -0.183680591779E+03   -0.99141E+00   -0.63423E+00   808   0.317E+00    0.249E+01
RMM:   9    -0.182509356710E+03    0.11712E+01   -0.52775E+00   731   0.321E+00    0.242E+01
RMM:  10    -0.180297530149E+03    0.22118E+01   -0.27330E+00   737   0.246E+00    0.254E+01
RMM:  11    -0.178274202324E+03    0.20233E+01   -0.20325E+00   720   0.205E+00    0.152E+01
RMM:  12    -0.177753970993E+03    0.52023E+00   -0.14177E+00   721   0.177E+00    0.177E+01
RMM:  13    -0.177224177879E+03    0.52979E+00   -0.73443E-01   723   0.127E+00    0.167E+01
RMM:  14    -0.177493162187E+03   -0.26898E+00   -0.11247E+00   719   0.157E+00    0.200E+01
RMM:  15    -0.176466099039E+03    0.10271E+01   -0.68555E-01   717   0.122E+00    0.132E+01
RMM:  16    -0.176080708010E+03    0.38539E+00   -0.94413E-01   705   0.143E+00    0.112E+01
RMM:  17    -0.176180612274E+03   -0.99904E-01   -0.61300E-01   714   0.116E+00    0.126E+01
RMM:  18    -0.176098466699E+03    0.82146E-01   -0.45823E-01   714   0.102E+00    0.126E+01
RMM:  19    -0.175679208648E+03    0.41926E+00   -0.40044E-01   700   0.974E-01    0.871E+00
RMM:  20    -0.175507215059E+03    0.17199E+00   -0.31000E-01   698   0.843E-01    0.882E+00
RMM:  21    -0.175466763234E+03    0.40452E-01   -0.28361E-01   698   0.799E-01    0.101E+01
RMM:  22    -0.175403014244E+03    0.63749E-01   -0.20512E-01   702   0.670E-01    0.811E+00
RMM:  23    -0.175309280150E+03    0.93734E-01   -0.15960E-01   708   0.613E-01    0.694E+00
RMM:  24    -0.175205557770E+03    0.10372E+00   -0.12092E-01   700   0.545E-01    0.480E+00
RMM:  25    -0.175126830761E+03    0.78727E-01   -0.90069E-02   694   0.461E-01    0.351E+00
RMM:  26    -0.175076730255E+03    0.50101E-01   -0.70813E-02   693   0.418E-01    0.292E+00
RMM:  27    -0.175062135104E+03    0.14595E-01   -0.53836E-02   692   0.362E-01    0.292E+00
RMM:  28    -0.175068836795E+03   -0.67017E-02   -0.38965E-02   694   0.321E-01    0.355E+00
RMM:  29    -0.175021300894E+03    0.47536E-01   -0.27906E-02   694   0.282E-01    0.177E+00
RMM:  30    -0.175012219664E+03    0.90812E-02   -0.16516E-02   693   0.214E-01    0.141E+00
RMM:  31    -0.175007543802E+03    0.46759E-02   -0.90598E-03   697   0.158E-01    0.120E+00
RMM:  32    -0.175001430394E+03    0.61134E-02   -0.53506E-03   693   0.121E-01    0.766E-01
RMM:  33    -0.174999977902E+03    0.14525E-02   -0.41109E-03   691   0.105E-01    0.673E-01
RMM:  34    -0.174998974958E+03    0.10029E-02   -0.27122E-03   692   0.826E-02    0.625E-01
RMM:  35    -0.174998976299E+03   -0.13415E-05   -0.20555E-03   688   0.705E-02    0.559E-01
RMM:  36    -0.174999057972E+03   -0.81673E-04   -0.14161E-03   687   0.605E-02    0.463E-01
RMM:  37    -0.175001065274E+03   -0.20073E-02   -0.14259E-03   685   0.596E-02    0.439E-01
RMM:  38    -0.175003344727E+03   -0.22795E-02   -0.11855E-03   687   0.553E-02    0.320E-01
RMM:  39    -0.175004847058E+03   -0.15023E-02   -0.57177E-04   597   0.378E-02    0.302E-01
RMM:  40    -0.175007385105E+03   -0.25380E-02   -0.58445E-04   609   0.363E-02    0.252E-01
RMM:  41    -0.175009053834E+03   -0.16687E-02   -0.36067E-04   470   0.305E-02    0.169E-01
RMM:  42    -0.175011990470E+03   -0.29366E-02   -0.48973E-04   545   0.316E-02    0.218E-01
RMM:  43    -0.175014629995E+03   -0.26395E-02   -0.44209E-04   506   0.292E-02    0.123E-01
RMM:  44    -0.175016387982E+03   -0.17580E-02   -0.30825E-04   443   0.237E-02    0.140E-01
RMM:  45    -0.175017966902E+03   -0.15789E-02   -0.24126E-04   421   0.207E-02    0.111E-01
RMM:  46    -0.175019550958E+03   -0.15841E-02   -0.19394E-04   414   0.180E-02    0.912E-02
RMM:  47    -0.175020692107E+03   -0.11411E-02   -0.13577E-04   412   0.149E-02    0.924E-02
RMM:  48    -0.175022089474E+03   -0.13974E-02   -0.13381E-04   411   0.143E-02    0.721E-02
RMM:  49    -0.175022795951E+03   -0.70648E-03   -0.82480E-05   412   0.112E-02    0.430E-02
RMM:  50    -0.175023818987E+03   -0.10230E-02   -0.66337E-05   410   0.925E-03    0.484E-02
RMM:  51    -0.175024240289E+03   -0.42130E-03   -0.37096E-05   404   0.728E-03    0.281E-02
RMM:  52    -0.175024612263E+03   -0.37197E-03   -0.19327E-05   320   0.548E-03    0.297E-02
RMM:  53    -0.175025165502E+03   -0.55324E-03   -0.15046E-05   307   0.512E-03    0.180E-02
RMM:  54    -0.175025416154E+03   -0.25065E-03   -0.41103E-06   161   0.408E-03    0.157E-02
RMM:  55    -0.175025944036E+03   -0.52788E-03   -0.14658E-05   289   0.475E-03    0.169E-02
RMM:  56    -0.175026179620E+03   -0.23558E-03   -0.30326E-06   134   0.385E-03    0.154E-02
RMM:  57    -0.175026638579E+03   -0.45896E-03   -0.22882E-05   310   0.512E-03    0.162E-02
RMM:  58    -0.175026787364E+03   -0.14879E-03   -0.27176E-06   128   0.365E-03    0.789E-03
RMM:  59    -0.175026974439E+03   -0.18707E-03   -0.13166E-05   222   0.424E-03    0.860E-03
RMM:  60    -0.175027074808E+03   -0.10037E-03   -0.53388E-06   145   0.352E-03    0.408E-03
RMM:  61    -0.175027187938E+03   -0.11313E-03   -0.41930E-06   134   0.365E-03    0.676E-03
RMM:  62    -0.175027246169E+03   -0.58231E-04   -0.45380E-06   129   0.364E-03
   1 F= -.17502725E+03 E0= -.17500617E+03  d E =-.843130E-01
