 vasp.5.4.4.18Apr17-6-g9f103f2a35 (build Sep 03 2018 23:53:05) complex          
  
 executed on             LinuxIFC date 2021.11.25  16:48:03
 running on    1 total cores
 distrk:  each k-point on    1 cores,    1 groups
 distr:  one band on NCORES_PER_BAND=   1 cores,    1 groups


--------------------------------------------------------------------------------------------------------


 INCAR:
 POTCAR:    PAW_PBE Pd 04Jan2005                  
 POTCAR:    PAW_PBE C 08Apr2002                   
 POTCAR:    PAW_PBE O 08Apr2002                   
 POTCAR:    PAW_PBE Pd 04Jan2005                  
   VRHFIN =Pd : s1 d9                                                           
   LEXCH  = PE                                                                  
   EATOM  =   809.7530 eV,   59.5152 Ry                                         
                                                                                
   TITEL  = PAW_PBE Pd 04Jan2005                                                
   LULTRA =        F    use ultrasoft PP ?                                      
   IUNSCR =        1    unscreen: 0-lin 1-nonlin 2-no                           
   RPACOR =    2.000    partial core radius                                     
   POMASS =  106.420; ZVAL   =   10.000    mass and valenz                      
   RCORE  =    2.600    outmost cutoff radius                                   
   RWIGS  =    2.710; RWIGS  =    1.434    wigner-seitz radius (au A)           
   ENMAX  =  250.925; ENMIN  =  188.194 eV                                      
   ICORE  =        3    local potential                                         
   LCOR   =        T    correct aug charges                                     
   LPAW   =        T    paw PP                                                  
   EAUG   =  416.230                                                            
   DEXC   =    0.000                                                            
   RMAX   =    2.653    core radius for proj-oper                               
   RAUG   =    1.300    factor for augmentation sphere                          
   RDEP   =    2.734    radius for radial grids                                 
   RDEPT  =    2.103    core radius for aug-charge                              
                                                                                
   Atomic configuration                                                         
   12 entries                                                                   
     n  l   j            E        occ.                                          
     1  0  0.50    -24164.6631   2.0000                                         
     2  0  0.50     -3530.9218   2.0000                                         
     2  1  1.50     -3165.6822   6.0000                                         
     3  0  0.50      -639.4577   2.0000                                         
     3  1  1.50      -519.4532   6.0000                                         
     3  2  2.50      -328.9757  10.0000                                         
     4  0  0.50       -88.7014   2.0000                                         
     4  1  1.50       -54.4540   6.0000                                         
     4  2  2.50        -6.6878   9.0000                                         
     5  0  0.50        -4.3543   1.0000                                         
     5  1  0.50        -1.3606   0.0000                                         
     4  3  2.50        -1.3606   0.0000                                         
   Description                                                                  
     l       E           TYP  RCUT    TYP  RCUT                                 
     2     -6.6878251     23  2.400                                             
     2     -8.0484077     23  2.400                                             
     0     -4.3542939     23  2.400                                             
     0      4.3406793     23  2.400                                             
     1     -4.0817478     23  2.600                                             
     1     15.8380318     23  2.600                                             
     3     -4.0817478     23  2.400                                             
  local pseudopotential read in
  partial core-charges read in
  partial kinetic energy density read in
  atomic valenz-charges read in
  non local Contribution for L=           2  read in
    real space projection operators read in
  non local Contribution for L=           2  read in
    real space projection operators read in
  non local Contribution for L=           0  read in
    real space projection operators read in
  non local Contribution for L=           0  read in
    real space projection operators read in
  non local Contribution for L=           1  read in
    real space projection operators read in
  non local Contribution for L=           1  read in
    real space projection operators read in
    PAW grid and wavefunctions read in
 
   number of l-projection  operators is LMAX  =           6
   number of lm-projection operators is LMMAX =          18
 
 POTCAR:    PAW_PBE C 08Apr2002                   
   VRHFIN =C: s2p2                                                              
   LEXCH  = PE                                                                  
   EATOM  =   147.1560 eV,   10.8157 Ry                                         
                                                                                
   TITEL  = PAW_PBE C 08Apr2002                                                 
   LULTRA =        F    use ultrasoft PP ?                                      
   IUNSCR =        1    unscreen: 0-lin 1-nonlin 2-no                           
   RPACOR =    1.200    partial core radius                                     
   POMASS =   12.011; ZVAL   =    4.000    mass and valenz                      
   RCORE  =    1.500    outmost cutoff radius                                   
   RWIGS  =    1.630; RWIGS  =    0.863    wigner-seitz radius (au A)           
   ENMAX  =  400.000; ENMIN  =  300.000 eV                                      
   ICORE  =        2    local potential                                         
   LCOR   =        T    correct aug charges                                     
   LPAW   =        T    paw PP                                                  
   EAUG   =  644.873                                                            
   DEXC   =    0.000                                                            
   RMAX   =    1.529    core radius for proj-oper                               
   RAUG   =    1.300    factor for augmentation sphere                          
   RDEP   =    1.501    radius for radial grids                                 
   RDEPT  =    1.300    core radius for aug-charge                              
                                                                                
   Atomic configuration                                                         
    4 entries                                                                   
     n  l   j            E        occ.                                          
     1  0  0.50      -273.3789   2.0000                                         
     2  0  0.50       -13.7508   2.0000                                         
     2  1  0.50        -5.2854   2.0000                                         
     3  2  1.50        -5.4423   0.0000                                         
   Description                                                                  
     l       E           TYP  RCUT    TYP  RCUT                                 
     0    -13.7508458     23  1.200                                             
     0     -8.2022199     23  1.200                                             
     1     -5.2854383     23  1.500                                             
     1     34.0145650     23  1.500                                             
     2     -5.4423304      7  1.500                                             
  local pseudopotential read in
  partial core-charges read in
  partial kinetic energy density read in
  atomic valenz-charges read in
  non local Contribution for L=           0  read in
    real space projection operators read in
  non local Contribution for L=           0  read in
    real space projection operators read in
  non local Contribution for L=           1  read in
    real space projection operators read in
  non local Contribution for L=           1  read in
    real space projection operators read in
    PAW grid and wavefunctions read in
 
   number of l-projection  operators is LMAX  =           4
   number of lm-projection operators is LMMAX =           8
 
 POTCAR:    PAW_PBE O 08Apr2002                   
   VRHFIN =O: s2p4                                                              
   LEXCH  = PE                                                                  
   EATOM  =   432.3788 eV,   31.7789 Ry                                         
                                                                                
   TITEL  = PAW_PBE O 08Apr2002                                                 
   LULTRA =        F    use ultrasoft PP ?                                      
   IUNSCR =        1    unscreen: 0-lin 1-nonlin 2-no                           
   RPACOR =    1.200    partial core radius                                     
   POMASS =   16.000; ZVAL   =    6.000    mass and valenz                      
   RCORE  =    1.520    outmost cutoff radius                                   
   RWIGS  =    1.550; RWIGS  =    0.820    wigner-seitz radius (au A)           
   ENMAX  =  400.000; ENMIN  =  300.000 eV                                      
   ICORE  =        2    local potential                                         
   LCOR   =        T    correct aug charges                                     
   LPAW   =        T    paw PP                                                  
   EAUG   =  605.392                                                            
   DEXC   =    0.000                                                            
   RMAX   =    1.553    core radius for proj-oper                               
   RAUG   =    1.300    factor for augmentation sphere                          
   RDEP   =    1.550    radius for radial grids                                 
   RDEPT  =    1.329    core radius for aug-charge                              
                                                                                
   Atomic configuration                                                         
    4 entries                                                                   
     n  l   j            E        occ.                                          
     1  0  0.50      -514.6923   2.0000                                         
     2  0  0.50       -23.9615   2.0000                                         
     2  1  0.50        -9.0305   4.0000                                         
     3  2  1.50        -9.5241   0.0000                                         
   Description                                                                  
     l       E           TYP  RCUT    TYP  RCUT                                 
     0    -23.9615318     23  1.200                                             
     0     -9.5240782     23  1.200                                             
     1     -9.0304911     23  1.520                                             
     1      8.1634956     23  1.520                                             
     2     -9.5240782      7  1.500                                             
  local pseudopotential read in
  partial core-charges read in
  partial kinetic energy density read in
  kinetic energy density of atom read in
  atomic valenz-charges read in
  non local Contribution for L=           0  read in
    real space projection operators read in
  non local Contribution for L=           0  read in
    real space projection operators read in
  non local Contribution for L=           1  read in
    real space projection operators read in
  non local Contribution for L=           1  read in
    real space projection operators read in
    PAW grid and wavefunctions read in
 
   number of l-projection  operators is LMAX  =           4
   number of lm-projection operators is LMMAX =           8
 
 Optimization of the real space projectors (new method)

 maximal supplied QI-value         = 14.36
 optimisation between [QCUT,QGAM] = [ 10.20, 20.39] = [ 29.12,116.47] Ry 
 Optimized for a Real-space Cutoff    1.51 Angstroem

   l    n(q)    QCUT    max X(q) W(low)/X(q) W(high)/X(q)  e(spline) 
   2      8    10.197    59.108    0.26E-03    0.14E-03    0.96E-07
   2      8    10.197    58.101    0.27E-03    0.14E-03    0.98E-07
   0      9    10.197   102.235    0.54E-04    0.60E-05    0.72E-07
   0      9    10.197    58.388    0.52E-04    0.60E-05    0.68E-07
   1      9    10.197    22.191    0.18E-03    0.25E-03    0.79E-07
   1      9    10.197    15.590    0.15E-03    0.21E-03    0.69E-07
 Optimization of the real space projectors (new method)

 maximal supplied QI-value         = 25.13
 optimisation between [QCUT,QGAM] = [ 10.05, 20.36] = [ 28.30,116.06] Ry 
 Optimized for a Real-space Cutoff    1.30 Angstroem

   l    n(q)    QCUT    max X(q) W(low)/X(q) W(high)/X(q)  e(spline) 
   0      8    10.053   115.676    0.49E-03    0.72E-03    0.18E-06
   0      8    10.053    87.132    0.49E-03    0.71E-03    0.18E-06
   1      7    10.053     4.429    0.32E-03    0.31E-03    0.18E-06
   1      7    10.053     2.733    0.23E-03    0.19E-03    0.20E-06
 Optimization of the real space projectors (new method)

 maximal supplied QI-value         = 24.76
 optimisation between [QCUT,QGAM] = [ 10.15, 20.30] = [ 28.85,115.39] Ry 
 Optimized for a Real-space Cutoff    1.38 Angstroem

   l    n(q)    QCUT    max X(q) W(low)/X(q) W(high)/X(q)  e(spline) 
   0      8    10.150    20.381    0.22E-03    0.32E-03    0.29E-06
   0      8    10.150    15.268    0.23E-03    0.35E-03    0.30E-06
   1      8    10.150     5.964    0.46E-03    0.53E-03    0.21E-06
   1      8    10.150     5.382    0.38E-03    0.45E-03    0.19E-06

 ----------------------------------------------------------------------------- 
|                                                                             |
|  ADVICE TO THIS USER RUNNING 'VASP/VAMP'   (HEAR YOUR MASTER'S VOICE ...):  |
|                                                                             |
|      You enforced a specific xc-type in the INCAR file,                     |
|      a different type was found on the POTCAR file                          |
|          I HOPE YOU KNOW, WHAT YOU ARE  DOING                               |
|                                                                             |
 ----------------------------------------------------------------------------- 

  PAW_PBE Pd 04Jan2005                  :
 energy of atom  1       EATOM= -809.7530
 kinetic energy error for atom=    0.0091 (will be added to EATOM!!)
  PAW_PBE C 08Apr2002                   :
 energy of atom  2       EATOM= -147.1560
 kinetic energy error for atom=    0.0288 (will be added to EATOM!!)
  PAW_PBE O 08Apr2002                   :
 energy of atom  3       EATOM= -432.3788
 kinetic energy error for atom=    0.1156 (will be added to EATOM!!)
 
 
 POSCAR: Pd55PES                                 
  positions in cartesian coordinates
  No initial velocities read in
 exchange correlation table for  LEXCH =        9
   RHO(1)=    0.500       N(1)  =     2000
   RHO(2)=  100.500       N(2)  =     4000
 


--------------------------------------------------------------------------------------------------------


 ion  position               nearest neighbor table
   1  0.446  0.328  0.417-   3 3.25   5 3.25   7 3.36  15 3.36  29 3.42  28 3.42
   2  0.672  0.554  0.417-  26 3.25  30 3.25  17 3.36   9 3.36  47 3.42  49 3.42
   3  0.554  0.328  0.417-   1 3.25   5 3.25   7 3.36  11 3.36  29 3.42  21 3.42
   4  0.328  0.554  0.417-  32 3.25  22 3.25  13 3.36   8 3.36  43 3.42  48 3.42
   5  0.500  0.383  0.340-   1 3.25   3 3.25  11 3.36  15 3.36  21 3.42  28 3.42
   6  0.500  0.383  0.660-  24 3.25  19 3.25  16 3.36  12 3.36  42 3.42  44 3.42
   7  0.500  0.276  0.500-  29 3.24   3 3.36   1 3.36  19 3.36  24 3.36
   8  0.276  0.500  0.500-  48 3.24  22 3.36  40 3.36   4 3.36  25 3.36
   9  0.724  0.500  0.500-  49 3.24  26 3.36  45 3.36   2 3.36  20 3.36
  10  0.500  0.724  0.500-  55 3.24  27 3.36  23 3.36  46 3.36  41 3.36
  11  0.612  0.388  0.342-  21 3.24   5 3.36   3 3.36  30 3.36  26 3.36
  12  0.612  0.388  0.658-  42 3.24  24 3.36  45 3.36   6 3.36  31 3.36
  13  0.388  0.612  0.342-  43 3.24  32 3.36  50 3.36   4 3.36  27 3.36
  14  0.388  0.612  0.658-  53 3.24  25 3.36  33 3.36  51 3.36  46 3.36
  15  0.388  0.388  0.342-  56 2.22  28 3.24   5 3.36   1 3.36  32 3.36  22 3.36
  16  0.388  0.388  0.658-  44 3.24  19 3.36  40 3.36   6 3.36  33 3.36
  17  0.612  0.612  0.342-  47 3.24  30 3.36  50 3.36   2 3.36  23 3.36
  18  0.612  0.612  0.658-  54 3.24  31 3.36  20 3.36  51 3.36  41 3.36
  19  0.446  0.328  0.583-   6 3.25  24 3.25  16 3.36   7 3.36  44 3.42  29 3.42
  20  0.672  0.554  0.583-  31 3.25  45 3.25  18 3.36   9 3.36  54 3.42  49 3.42
  21  0.558  0.442  0.418-  11 3.24   5 3.42   3 3.42  30 3.42  26 3.42
  22  0.328  0.446  0.417-  56 2.43   4 3.25  32 3.25   8 3.36  15 3.36  48 3.42  28 3.42
  23  0.554  0.672  0.417-  27 3.25  50 3.25  10 3.36  17 3.36  55 3.42  47 3.42
  24  0.554  0.328  0.583-   6 3.25  19 3.25  12 3.36   7 3.36  42 3.42  29 3.42
  25  0.328  0.554  0.583-  33 3.25  40 3.25  14 3.36   8 3.36  53 3.42  48 3.42
  26  0.672  0.446  0.417-   2 3.25  30 3.25   9 3.36  11 3.36  49 3.42  21 3.42
  27  0.446  0.672  0.417-  23 3.25  50 3.25  10 3.36  13 3.36  55 3.42  43 3.42
  28  0.442  0.442  0.418-  15 3.24   5 3.42   1 3.42  32 3.42  22 3.42
  29  0.500  0.384  0.500-   7 3.24   3 3.42   1 3.42  24 3.42  19 3.42
  30  0.617  0.500  0.340-   2 3.25  26 3.25  17 3.36  11 3.36  47 3.42  21 3.42
  31  0.617  0.500  0.660-  20 3.25  45 3.25  18 3.36  12 3.36  54 3.42  42 3.42
  32  0.383  0.500  0.340-   4 3.25  22 3.25  13 3.36  15 3.36  43 3.42  28 3.42
  33  0.383  0.500  0.660-  25 3.25  40 3.25  14 3.36  16 3.36  53 3.42  44 3.42
  34  0.383  0.383  0.500-
  35  0.617  0.617  0.500-
  36  0.617  0.383  0.500-
  37  0.383  0.617  0.500-
  38  0.500  0.500  0.335-
  39  0.500  0.500  0.665-
  40  0.328  0.446  0.583-  33 3.25  25 3.25  16 3.36   8 3.36  44 3.42  48 3.42
  41  0.554  0.672  0.583-  46 3.25  51 3.25  10 3.36  18 3.36  54 3.42  55 3.42
  42  0.558  0.442  0.582-  12 3.24   6 3.42  24 3.42  31 3.42  45 3.42
  43  0.442  0.558  0.418-  13 3.24   4 3.42  32 3.42  27 3.42  50 3.42
  44  0.442  0.442  0.582-  16 3.24   6 3.42  19 3.42  33 3.42  40 3.42
  45  0.672  0.446  0.583-  20 3.25  31 3.25   9 3.36  12 3.36  49 3.42  42 3.42
  46  0.446  0.672  0.583-  41 3.25  51 3.25  10 3.36  14 3.36  53 3.42  55 3.42
  47  0.558  0.558  0.418-  17 3.24   2 3.42  30 3.42  23 3.42  50 3.42
  48  0.384  0.500  0.500-   8 3.24   4 3.42  22 3.42  25 3.42  40 3.42
  49  0.616  0.500  0.500-   9 3.24   2 3.42  26 3.42  20 3.42  45 3.42
  50  0.500  0.617  0.340-  27 3.25  23 3.25  13 3.36  17 3.36  43 3.42  47 3.42
  51  0.500  0.617  0.660-  41 3.25  46 3.25  14 3.36  18 3.36  53 3.42  54 3.42
  52  0.500  0.500  0.500-
  53  0.442  0.558  0.582-  14 3.24  25 3.42  33 3.42  51 3.42  46 3.42
  54  0.558  0.558  0.582-  18 3.24  31 3.42  20 3.42  51 3.42  41 3.42
  55  0.500  0.616  0.500-  10 3.24  23 3.42  27 3.42  41 3.42  46 3.42
  56  0.316  0.397  0.354-  57 1.13  15 2.22  22 2.43
  57  0.289  0.382  0.332-  56 1.13
 
  LATTYP: Found a simple cubic cell.
 ALAT       =    30.0000000000
  
  Lattice vectors:
  
 A1 = (  30.0000000000,   0.0000000000,   0.0000000000)
 A2 = (   0.0000000000,  30.0000000000,   0.0000000000)
 A3 = (   0.0000000000,   0.0000000000,  30.0000000000)


Analysis of symmetry for initial positions (statically):
=====================================================================
 Subroutine PRICEL returns:
 Original cell was already a primitive cell.
 

 Routine SETGRP: Setting up the symmetry group for a 
 simple cubic supercell.


 Subroutine GETGRP returns: Found  1 space group operations
 (whereof  1 operations were pure point group operations)
 out of a pool of 48 trial point group operations.


The static configuration has the point symmetry C_1 .


Analysis of symmetry for dynamics (positions and initial velocities):
=====================================================================
 Subroutine PRICEL returns:
 Original cell was already a primitive cell.
 

 Routine SETGRP: Setting up the symmetry group for a 
 simple cubic supercell.


 Subroutine GETGRP returns: Found  1 space group operations
 (whereof  1 operations were pure point group operations)
 out of a pool of 48 trial point group operations.


The dynamic configuration has the point symmetry C_1 .


Analysis of constrained symmetry for selective dynamics:
=====================================================================
 Subroutine PRICEL returns:
 Original cell was already a primitive cell.
 

 Routine SETGRP: Setting up the symmetry group for a 
 simple cubic supercell.


 Subroutine GETGRP returns: Found  1 space group operations
 (whereof  1 operations were pure point group operations)
 out of a pool of 48 trial point group operations.


The constrained configuration has the point symmetry C_1 .


 Subroutine INISYM returns: Found  1 space group operations
 (whereof  1 operations are pure point group operations),
 and found     1 'primitive' translations

 
 
 KPOINTS: K-points                                

Automatic generation of k-mesh.
Space group operators:
 irot       det(A)        alpha          n_x          n_y          n_z        tau_x        tau_y        tau_z
    1     1.000000     0.000000     1.000000     0.000000     0.000000     0.000000     0.000000     0.000000
 
 Subroutine IBZKPT returns following result:
 ===========================================
 
 Found      1 irreducible k-points:
 
 Following reciprocal coordinates:
            Coordinates               Weight
  0.000000  0.000000  0.000000      1.000000
 
 Following cartesian coordinates:
            Coordinates               Weight
  0.000000  0.000000  0.000000      1.000000
 


--------------------------------------------------------------------------------------------------------




 Dimension of arrays:
   k-points           NKPTS =      1   k-points in BZ     NKDIM =      1   number of bands    NBANDS=    336
   number of dos      NEDOS =    301   number of ions     NIONS =     57
   non local maximal  LDIM  =      6   non local SUM 2l+1 LMDIM =     18
   total plane-waves  NPLWV = ******
   max r-space proj   IRMAX =   1847   max aug-charges    IRDMAX=   6262
   dimension x,y,z NGX =   150 NGY =  150 NGZ =  150
   dimension x,y,z NGXF=   300 NGYF=  300 NGZF=  300
   support grid    NGXF=   300 NGYF=  300 NGZF=  300
   ions per type =              55   1   1
   NGX,Y,Z   is equivalent  to a cutoff of   8.31,  8.31,  8.31 a.u.
   NGXF,Y,Z  is equivalent  to a cutoff of  16.62, 16.62, 16.62 a.u.

 SYSTEM =  6_Pd100_top_free_z(O)                   
 POSCAR =  Pd55PES                                 

 Startparameter for this run:
   NWRITE =      2    write-flag & timer
   PREC   = normal    normal or accurate (medium, high low for compatibility)
   ISTART =      0    job   : 0-new  1-cont  2-samecut
   ICHARG =      2    charge: 1-file 2-atom 10-const
   ISPIN  =      1    spin polarized calculation?
   LNONCOLLINEAR =      F non collinear calculations
   LSORBIT =      F    spin-orbit coupling
   INIWAV =      1    electr: 0-lowe 1-rand  2-diag
   LASPH  =      F    aspherical Exc in radial PAW
   METAGGA=      F    non-selfconsistent MetaGGA calc.

 Electronic Relaxation 1
   ENCUT  =  400.0 eV  29.40 Ry    5.42 a.u.  48.92 48.92 48.92*2*pi/ulx,y,z
   ENINI  =  400.0     initial cutoff
   ENAUG  =  644.9 eV  augmentation charge cutoff
   NELM   =    100;   NELMIN=  6; NELMDL= -5     # of ELM steps 
   EDIFF  = 0.1E-03   stopping-criterion for ELM
   LREAL  =      T    real-space projection
   NLSPLINE    = F    spline interpolate recip. space projectors
   LCOMPAT=      F    compatible to vasp.4.4
   GGA_COMPAT  = T    GGA compatible to vasp.4.4-vasp.4.6
   LMAXPAW     = -100 max onsite density
   LMAXMIX     =    2 max onsite mixed and CHGCAR
   VOSKOWN=      0    Vosko Wilk Nusair interpolation
   ROPT   =   -0.00050  -0.00050  -0.00050
 Ionic relaxation
   EDIFFG = -.5E-01   stopping-criterion for IOM
   NSW    =      0    number of steps for IOM
   NBLOCK =      1;   KBLOCK =      1    inner block; outer block 
   IBRION =     -1    ionic relax: 0-MD 1-quasi-New 2-CG
   NFREE  =      1    steps in history (QN), initial steepest desc. (CG)
   ISIF   =      2    stress and relaxation
   IWAVPR =     10    prediction:  0-non 1-charg 2-wave 3-comb
   ISYM   =      2    0-nonsym 1-usesym 2-fastsym
   LCORR  =      T    Harris-Foulkes like correction to forces

   POTIM  = 0.5000    time-step for ionic-motion
   TEIN   =    0.0    initial temperature
   TEBEG  =    0.0;   TEEND  =   0.0 temperature during run
   SMASS  =  -3.00    Nose mass-parameter (am)
   estimated Nose-frequenzy (Omega)   =  0.10E-29 period in steps =****** mass=  -0.206E-25a.u.
   SCALEE = 1.0000    scale energy and forces
   NPACO  =    256;   APACO  = 16.0  distance and # of slots for P.C.
   PSTRESS=    0.0 pullay stress

  Mass of Ions in am
   POMASS = 106.42 12.01 16.00
  Ionic Valenz
   ZVAL   =  10.00  4.00  6.00
  Atomic Wigner-Seitz radii
   RWIGS  =  -1.00 -1.00 -1.00
  virtual crystal weights 
   VCA    =   1.00  1.00  1.00
   NELECT =     560.0000    total number of electrons
   NUPDOWN=      -1.0000    fix difference up-down

 DOS related values:
   EMIN   =  10.00;   EMAX   =-10.00  energy-range for DOS
   EFERMI =   0.00
   ISMEAR =     2;   SIGMA  =   0.20  broadening in eV -4-tet -1-fermi 0-gaus

 Electronic relaxation 2 (details)
   IALGO  =     68    algorithm
   LDIAG  =      T    sub-space diagonalisation (order eigenvalues)
   LSUBROT=      F    optimize rotation matrix (better conditioning)
   TURBO    =      0    0=normal 1=particle mesh
   IRESTART =      0    0=no restart 2=restart with 2 vectors
   NREBOOT  =      0    no. of reboots
   NMIN     =      0    reboot dimension
   EREF     =   0.00    reference energy to select bands
   IMIX   =      4    mixing-type and parameters
     AMIX     =   0.40;   BMIX     =  1.00
     AMIX_MAG =   1.60;   BMIX_MAG =  1.00
     AMIN     =   0.10
     WC   =   100.;   INIMIX=   1;  MIXPRE=   1;  MAXMIX= -45

 Intra band minimization:
   WEIMIN = 0.0000     energy-eigenvalue tresh-hold
   EBREAK =  0.74E-07  absolut break condition
   DEPER  =   0.30     relativ break condition  

   TIME   =   0.40     timestep for ELM

  volume/ion in A,a.u.               =     473.68      3196.58
  Fermi-wavevector in a.u.,A,eV,Ry     =   0.449797  0.849992  2.752691  0.202317
  Thomas-Fermi vector in A             =   1.430086
 
 Write flags
   LWAVE        =      F    write WAVECAR
   LDOWNSAMPLE  =      F    k-point downsampling of WAVECAR
   LCHARG       =      F    write CHGCAR
   LVTOT        =      F    write LOCPOT, total local potential
   LVHAR        =      F    write LOCPOT, Hartree potential only
   LELF         =      F    write electronic localiz. function (ELF)
   LORBIT       =      0    0 simple, 1 ext, 2 COOP (PROOUT), +10 PAW based schemes


 Dipole corrections
   LMONO  =      F    monopole corrections only (constant potential shift)
   LDIPOL =      F    correct potential (dipole corrections)
   IDIPOL =      0    1-x, 2-y, 3-z, 4-all directions 
   EPSILON=  1.0000000 bulk dielectric constant

 Exchange correlation treatment:
   GGA     =    RP    GGA type
   LEXCH   =     9    internal setting for exchange type
   VOSKOWN=      0    Vosko Wilk Nusair interpolation
   LHFCALC =     F    Hartree Fock is set to
   LHFONE  =     F    Hartree Fock one center treatment
   AEXX    =    0.0000 exact exchange contribution

 Linear response parameters
   LEPSILON=     F    determine dielectric tensor
   LRPA    =     F    only Hartree local field effects (RPA)
   LNABLA  =     F    use nabla operator in PAW spheres
   LVEL    =     F    velocity operator in full k-point grid
   LINTERFAST=   F  fast interpolation
   KINTER  =     0    interpolate to denser k-point grid
   CSHIFT  =0.1000    complex shift for real part using Kramers Kronig
   OMEGAMAX=  -1.0    maximum frequency
   DEG_THRESHOLD= 0.2000000E-02 threshold for treating states as degnerate
   RTIME   =   -0.100 relaxation time in fs
  (WPLASMAI=    0.000 imaginary part of plasma frequency in eV, 0.658/RTIME)
   DFIELD  = 0.0000000 0.0000000 0.0000000 field for delta impulse in time
 
 Orbital magnetization related:
   ORBITALMAG=     F  switch on orbital magnetization
   LCHIMAG   =     F  perturbation theory with respect to B field
   DQ        =  0.001000  dq finite difference perturbation B field
   LLRAUG    =     F  two centre corrections for induced B field



--------------------------------------------------------------------------------------------------------


 Static calculation
 charge density and potential will be updated during run
 non-spin polarized calculation
 RMM-DIIS sequential band-by-band and
  variant of blocked Davidson during initial phase
 perform sub-space diagonalisation
    before iterative eigenvector-optimisation
 modified Broyden-mixing scheme, WC =      100.0
 initial mixing is a Kerker type mixing with AMIX =  0.4000 and BMIX =      1.0000
 Hartree-type preconditioning will be used
 using additional bands           56
 real space projection scheme for non local part
 use partial core corrections
 calculate Harris-corrections to forces 
   (improved forces if not selfconsistent)
 use gradient corrections 
 use of overlap-Matrix (Vanderbilt PP)
 Methfessel and Paxton  Order N= 2 SIGMA  =   0.20


--------------------------------------------------------------------------------------------------------


  energy-cutoff  :      400.00
  volume of cell :    27000.00
      direct lattice vectors                 reciprocal lattice vectors
    30.000000000  0.000000000  0.000000000     0.033333333  0.000000000  0.000000000
     0.000000000 30.000000000  0.000000000     0.000000000  0.033333333  0.000000000
     0.000000000  0.000000000 30.000000000     0.000000000  0.000000000  0.033333333

  length of vectors
    30.000000000 30.000000000 30.000000000     0.033333333  0.033333333  0.033333333


 
 k-points in units of 2pi/SCALE and weight: K-points                                
   0.00000000  0.00000000  0.00000000       1.000
 
 k-points in reciprocal lattice and weights: K-points                                
   0.00000000  0.00000000  0.00000000       1.000
 
 position of ions in fractional coordinates (direct lattice) 
   0.44576020  0.32826710  0.41691983
   0.67173288  0.55423978  0.41691983
   0.55423980  0.32826710  0.41691983
   0.32826712  0.55423978  0.41691983
   0.50000000  0.38250690  0.34021317
   0.50000000  0.38250690  0.65978680
   0.50000000  0.27609440  0.50000000
   0.27609443  0.49999998  0.50000000
   0.72390557  0.49999998  0.50000000
   0.50000000  0.72390555  0.50000000
   0.61195280  0.38804720  0.34167483
   0.61195280  0.38804720  0.65832513
   0.38804722  0.61195278  0.34167483
   0.38804722  0.61195278  0.65832513
   0.38804720  0.38804720  0.34167483
   0.38804720  0.38804720  0.65832513
   0.61195278  0.61195278  0.34167483
   0.61195278  0.61195278  0.65832513
   0.44576020  0.32826710  0.58308023
   0.67173288  0.55423978  0.58308023
   0.55791699  0.44208301  0.41809300
   0.32826705  0.44576024  0.41691983
   0.55423973  0.67173293  0.41691983
   0.55423980  0.32826710  0.58308023
   0.32826712  0.55423978  0.58308023
   0.67173295  0.44576024  0.41691983
   0.44576027  0.67173293  0.41691983
   0.44208301  0.44208301  0.41809300
   0.50000000  0.38416601  0.50000000
   0.61749315  0.50000005  0.34021317
   0.61749315  0.50000005  0.65978680
   0.38250685  0.50000005  0.34021317
   0.38250685  0.50000005  0.65978680
   0.38317830  0.38317830  0.50000000
   0.61682172  0.61682172  0.50000000
   0.61682170  0.38317830  0.50000000
   0.38317828  0.61682172  0.50000000
   0.50000000  0.50000000  0.33478917
   0.50000000  0.50000000  0.66521087
   0.32826705  0.44576024  0.58308023
   0.55423973  0.67173293  0.58308023
   0.55791699  0.44208301  0.58190703
   0.44208298  0.55791702  0.41809300
   0.44208301  0.44208301  0.58190703
   0.67173295  0.44576024  0.58308023
   0.44576027  0.67173293  0.58308023
   0.55791702  0.55791702  0.41809300
   0.38416599  0.50000002  0.50000000
   0.61583401  0.50000002  0.50000000
   0.50000000  0.61749319  0.34021317
   0.50000000  0.61749319  0.65978680
   0.50000000  0.50000000  0.50000000
   0.44208298  0.55791702  0.58190703
   0.55791702  0.55791702  0.58190703
   0.50000000  0.61583404  0.50000000
   0.31554393  0.39666480  0.35384147
   0.28856053  0.38154830  0.33246047
 
 position of ions in cartesian coordinates  (Angst):
  13.37280588  9.84801292 12.50759500
  20.15198637 16.62719342 12.50759500
  16.62719412  9.84801292 12.50759500
   9.84801363 16.62719342 12.50759500
  15.00000000 11.47520705 10.20639500
  15.00000000 11.47520705 19.79360400
  15.00000000  8.28283206 15.00000000
   8.28283277 14.99999929 15.00000000
  21.71716723 14.99999929 15.00000000
  15.00000000 21.71716652 14.99999999
  18.35858397 11.64141603 10.25024500
  18.35858397 11.64141603 19.74975399
  11.64141674 18.35858326 10.25024500
  11.64141674 18.35858326 19.74975400
  11.64141603 11.64141603 10.25024500
  11.64141603 11.64141603 19.74975400
  18.35858326 18.35858326 10.25024500
  18.35858326 18.35858326 19.74975400
  13.37280588  9.84801291 17.49240700
  20.15198638 16.62719341 17.49240700
  16.73750985 13.26249015 12.54279000
   9.84801151 13.37280729 12.50759500
  16.62719200 20.15198779 12.50759500
  16.62719412  9.84801292 17.49240700
   9.84801363 16.62719342 17.49240700
  20.15198849 13.37280729 12.50759500
  13.37280800 20.15198779 12.50759500
  13.26249015 13.26249015 12.54279000
  15.00000000 11.52498029 15.00000000
  18.52479437 15.00000140 10.20639500
  18.52479437 15.00000141 19.79360400
  11.47520562 15.00000141 10.20639501
  11.47520563 15.00000141 19.79360400
  11.49534898 11.49534898 15.00000000
  18.50465172 18.50465172 15.00000000
  18.50465102 11.49534898 15.00000000
  11.49534828 18.50465172 15.00000000
  15.00000000 15.00000000 10.04367500
  15.00000000 15.00000000 19.95632599
   9.84801151 13.37280729 17.49240700
  16.62719200 20.15198779 17.49240700
  16.73750985 13.26249015 17.45721100
  13.26248944 16.73751056 12.54279001
  13.26249015 13.26249015 17.45721100
  20.15198849 13.37280729 17.49240699
  13.37280800 20.15198779 17.49240700
  16.73751056 16.73751056 12.54279000
  11.52497959 15.00000071 15.00000000
  18.47502041 15.00000071 15.00000000
  14.99999999 18.52479579 10.20639500
  15.00000000 18.52479578 19.79360400
  15.00000000 15.00000000 15.00000000
  13.26248944 16.73751057 17.45721101
  16.73751056 16.73751057 17.45721100
  15.00000000 18.47502112 15.00000000
   9.46631800 11.89994400 10.61524400
   8.65681600 11.44644900  9.97381400
 


--------------------------------------------------------------------------------------------------------


 k-point  1 :   0.0000 0.0000 0.0000  plane waves:  490521

 maximum and minimum number of plane-waves per node :    490521   490521

 maximum number of plane-waves:    490521
 maximum index in each direction: 
   IXMAX=   48   IYMAX=   48   IZMAX=   48
   IXMIN=  -48   IYMIN=  -48   IZMIN=  -48


 serial   3D FFT for wavefunctions
 parallel 3D FFT for charge:
    minimum data exchange during FFTs selected (reduces bandwidth)


 total amount of memory used by VASP MPI-rank0  5486941. kBytes
=======================================================================

   base      :      30000. kBytes
   nonlr-proj:      17126. kBytes
   fftplans  :     924480. kBytes
   grid      :    1872000. kBytes
   one-center:        886. kBytes
   wavefun   :    2642449. kBytes
 
     INWAV:  cpu time    0.0001: real time    0.0006
 Broyden mixing: mesh for mixing (old mesh)
   NGX = 97   NGY = 97   NGZ = 97
  (NGX  =300   NGY  =300   NGZ  =300)
  gives a total of 912673 points

 initial charge density was supplied:
 charge density of overlapping atoms calculated
 number of electron     560.0000000 magnetization 
 keeping initial charge density in first step


--------------------------------------------------------------------------------------------------------


 Maximum index for non-local projection operator         1763
 Maximum index for augmentation-charges         5898 (set IRDMAX)


--------------------------------------------------------------------------------------------------------


 First call to EWALD:  gamma=   0.059
 Maximum number of real-space cells 3x 3x 3
 Maximum number of reciprocal cells 3x 3x 3

    FEWALD:  cpu time    0.0144: real time    0.0144


--------------------------------------- Iteration      1(   1)  ---------------------------------------


    POTLOK:  cpu time   12.9079: real time   12.9124
    SETDIJ:  cpu time    0.1125: real time    0.1125
     EDDAV:  cpu time  322.5258: real time  322.5805
       DOS:  cpu time    0.0013: real time    0.0013
    --------------------------------------------
      LOOP:  cpu time  335.5474: real time  335.6067

 eigenvalue-minimisations  :   688
 total energy-change (2. order) : 0.4386337E+04  (-0.1005135E+05)
 number of electron     560.0000000 magnetization 
 augmentation part      560.0000000 magnetization 

 Free energy of the ion-electron system (eV)
  ---------------------------------------------------
  alpha Z        PSCENC =        75.25431677
  Ewald energy   TEWEN  =    138015.88943112
  -Hartree energ DENC   =   -181378.75109595
  -exchange      EXHF   =         0.00000000
  -V(xc)+E(xc)   XCENC  =     -1703.13140262
  PAW double counting   =     44873.02882129   -41398.84523641
  entropy T*S    EENTRO =         0.00977917
  eigenvalues    EBANDS =       816.37686738
  atomic energy  EATOM  =     45086.50549395
  Solvation  Ediel_sol  =         0.00000000
  ---------------------------------------------------
  free energy    TOTEN  =      4386.33697471 eV

  energy without entropy =     4386.32719554  energy(sigma->0) =     4386.33452992


--------------------------------------------------------------------------------------------------------




--------------------------------------- Iteration      1(   2)  ---------------------------------------


     EDDAV:  cpu time  522.0562: real time  522.1305
       DOS:  cpu time    0.0012: real time    0.0012
    --------------------------------------------
      LOOP:  cpu time  522.0574: real time  522.1317

 eigenvalue-minimisations  :  1224
 total energy-change (2. order) :-0.2378140E+04  (-0.2139991E+04)
 number of electron     560.0000000 magnetization 
 augmentation part      560.0000000 magnetization 

 Free energy of the ion-electron system (eV)
  ---------------------------------------------------
  alpha Z        PSCENC =        75.25431677
  Ewald energy   TEWEN  =    138015.88943112
  -Hartree energ DENC   =   -181378.75109595
  -exchange      EXHF   =         0.00000000
  -V(xc)+E(xc)   XCENC  =     -1703.13140262
  PAW double counting   =     44873.02882129   -41398.84523641
  entropy T*S    EENTRO =        -0.02514680
  eigenvalues    EBANDS =     -1561.72847891
  atomic energy  EATOM  =     45086.50549395
  Solvation  Ediel_sol  =         0.00000000
  ---------------------------------------------------
  free energy    TOTEN  =      2008.19670245 eV

  energy without entropy =     2008.22184925  energy(sigma->0) =     2008.20298915


--------------------------------------------------------------------------------------------------------




--------------------------------------- Iteration      1(   3)  ---------------------------------------


     EDDAV:  cpu time  434.7428: real time  434.8073
       DOS:  cpu time    0.0010: real time    0.0010
    --------------------------------------------
      LOOP:  cpu time  434.7438: real time  434.8083

 eigenvalue-minimisations  :   992
 total energy-change (2. order) :-0.1779473E+04  (-0.1672803E+04)
 number of electron     560.0000000 magnetization 
 augmentation part      560.0000000 magnetization 

 Free energy of the ion-electron system (eV)
  ---------------------------------------------------
  alpha Z        PSCENC =        75.25431677
  Ewald energy   TEWEN  =    138015.88943112
  -Hartree energ DENC   =   -181378.75109595
  -exchange      EXHF   =         0.00000000
  -V(xc)+E(xc)   XCENC  =     -1703.13140262
  PAW double counting   =     44873.02882129   -41398.84523641
  entropy T*S    EENTRO =         0.01339436
  eigenvalues    EBANDS =     -3341.23978315
  atomic energy  EATOM  =     45086.50549395
  Solvation  Ediel_sol  =         0.00000000
  ---------------------------------------------------
  free energy    TOTEN  =       228.72393937 eV

  energy without entropy =      228.71054501  energy(sigma->0) =      228.72059078


--------------------------------------------------------------------------------------------------------




--------------------------------------- Iteration      1(   4)  ---------------------------------------


     EDDAV:  cpu time  383.5103: real time  383.5255
       DOS:  cpu time    0.0011: real time    0.0011
    --------------------------------------------
      LOOP:  cpu time  383.5115: real time  383.5267

 eigenvalue-minimisations  :   832
 total energy-change (2. order) :-0.3641211E+03  (-0.3106023E+03)
 number of electron     560.0000000 magnetization 
 augmentation part      560.0000000 magnetization 

 Free energy of the ion-electron system (eV)
  ---------------------------------------------------
  alpha Z        PSCENC =        75.25431677
  Ewald energy   TEWEN  =    138015.88943112
  -Hartree energ DENC   =   -181378.75109595
  -exchange      EXHF   =         0.00000000
  -V(xc)+E(xc)   XCENC  =     -1703.13140262
  PAW double counting   =     44873.02882129   -41398.84523641
  entropy T*S    EENTRO =        -0.01874754
  eigenvalues    EBANDS =     -3705.32873281
  atomic energy  EATOM  =     45086.50549395
  Solvation  Ediel_sol  =         0.00000000
  ---------------------------------------------------
  free energy    TOTEN  =      -135.39715219 eV

  energy without entropy =     -135.37840465  energy(sigma->0) =     -135.39246531


--------------------------------------------------------------------------------------------------------




--------------------------------------- Iteration      1(   5)  ---------------------------------------


     EDDAV:  cpu time  458.4177: real time  458.4289
       DOS:  cpu time    0.0014: real time    0.0014
    CHARGE:  cpu time   23.1299: real time   23.1297
    MIXING:  cpu time    0.3974: real time    0.3974
    --------------------------------------------
      LOOP:  cpu time  481.9464: real time  481.9574

 eigenvalue-minimisations  :  1048
 total energy-change (2. order) :-0.4471550E+02  (-0.3706066E+02)
 number of electron     559.9999829 magnetization 
 augmentation part      245.1906557 magnetization 

 Broyden mixing:
  rms(total) = 0.14271E+01    rms(broyden)= 0.14260E+01
  rms(prec ) = 0.15329E+01
  weight for this iteration     100.00

 Free energy of the ion-electron system (eV)
  ---------------------------------------------------
  alpha Z        PSCENC =        75.25431677
  Ewald energy   TEWEN  =    138015.88943112
  -Hartree energ DENC   =   -181378.75109595
  -exchange      EXHF   =         0.00000000
  -V(xc)+E(xc)   XCENC  =     -1703.13140262
  PAW double counting   =     44873.02882129   -41398.84523641
  entropy T*S    EENTRO =         0.50641199
  eigenvalues    EBANDS =     -3750.56938831
  atomic energy  EATOM  =     45086.50549395
  Solvation  Ediel_sol  =         0.00000000
  ---------------------------------------------------
  free energy    TOTEN  =      -180.11264815 eV

  energy without entropy =     -180.61906015  energy(sigma->0) =     -180.23925115


--------------------------------------------------------------------------------------------------------




--------------------------------------- Iteration      1(   6)  ---------------------------------------


    POTLOK:  cpu time   11.2066: real time   11.2073
    SETDIJ:  cpu time    0.1138: real time    0.1138
    EDDIAG:  cpu time   62.0257: real time   62.0257
  RMM-DIIS:  cpu time  169.8323: real time  169.8329
    ORTHCH:  cpu time   12.1990: real time   12.1989
       DOS:  cpu time    0.0014: real time    0.0014
    CHARGE:  cpu time   23.0502: real time   23.0500
    MIXING:  cpu time    0.4147: real time    0.4147
    --------------------------------------------
      LOOP:  cpu time  278.8437: real time  278.8448

 eigenvalue-minimisations  :   729
 total energy-change (2. order) : 0.6512933E+00  (-0.5078636E+01)
 number of electron     559.9999844 magnetization 
 augmentation part      240.6173081 magnetization 

 Broyden mixing:
  rms(total) = 0.21455E+01    rms(broyden)= 0.21453E+01
  rms(prec ) = 0.25047E+01
  weight for this iteration     100.00

 eigenvalues of (default mixing * dielectric matrix)
  average eigenvalue GAMMA=   0.3445
  0.3445

 Free energy of the ion-electron system (eV)
  ---------------------------------------------------
  alpha Z        PSCENC =        75.25431677
  Ewald energy   TEWEN  =    138015.88943112
  -Hartree energ DENC   =   -181788.19695537
  -exchange      EXHF   =         0.00000000
  -V(xc)+E(xc)   XCENC  =     -1696.76498786
  PAW double counting   =     45626.73967946   -42125.53770574
  entropy T*S    EENTRO =        -0.17550482
  eigenvalues    EBANDS =     -3373.17512234
  atomic energy  EATOM  =     45086.50549395
  Solvation  Ediel_sol  =         0.00000000
  ---------------------------------------------------
  free energy    TOTEN  =      -179.46135483 eV

  energy without entropy =     -179.28585001  energy(sigma->0) =     -179.41747863


--------------------------------------------------------------------------------------------------------




--------------------------------------- Iteration      1(   7)  ---------------------------------------


    POTLOK:  cpu time   11.0953: real time   11.0962
    SETDIJ:  cpu time    0.1137: real time    0.1137
    EDDIAG:  cpu time   61.9900: real time   61.9901
  RMM-DIIS:  cpu time  199.2218: real time  199.2231
    ORTHCH:  cpu time   12.2885: real time   12.2884
       DOS:  cpu time    0.0014: real time    0.0014
    CHARGE:  cpu time   23.0655: real time   23.0653
    MIXING:  cpu time    0.4364: real time    0.4363
    --------------------------------------------
      LOOP:  cpu time  308.2127: real time  308.2146

 eigenvalue-minimisations  :   860
 total energy-change (2. order) :-0.3227828E+01  (-0.1850136E+01)
 number of electron     559.9999817 magnetization 
 augmentation part      240.2860210 magnetization 

 Broyden mixing:
  rms(total) = 0.24019E+01    rms(broyden)= 0.24017E+01
  rms(prec ) = 0.29588E+01
  weight for this iteration     100.00

 eigenvalues of (default mixing * dielectric matrix)
  average eigenvalue GAMMA=   0.3076
  0.4769  0.1382

 Free energy of the ion-electron system (eV)
  ---------------------------------------------------
  alpha Z        PSCENC =        75.25431677
  Ewald energy   TEWEN  =    138015.88943112
  -Hartree energ DENC   =   -181873.03219438
  -exchange      EXHF   =         0.00000000
  -V(xc)+E(xc)   XCENC  =     -1696.96113534
  PAW double counting   =     45692.39017833   -42188.49722160
  entropy T*S    EENTRO =        -0.08048418
  eigenvalues    EBANDS =     -3294.15756761
  atomic energy  EATOM  =     45086.50549395
  Solvation  Ediel_sol  =         0.00000000
  ---------------------------------------------------
  free energy    TOTEN  =      -182.68918293 eV

  energy without entropy =     -182.60869876  energy(sigma->0) =     -182.66906189


--------------------------------------------------------------------------------------------------------




--------------------------------------- Iteration      1(   8)  ---------------------------------------


    POTLOK:  cpu time   11.2016: real time   11.2025
    SETDIJ:  cpu time    0.1137: real time    0.1137
    EDDIAG:  cpu time   62.0205: real time   62.0207
  RMM-DIIS:  cpu time  189.1816: real time  189.1811
    ORTHCH:  cpu time   12.4422: real time   12.4420
       DOS:  cpu time    0.0014: real time    0.0014
    CHARGE:  cpu time   23.3815: real time   23.3813
    MIXING:  cpu time    0.4711: real time    0.4711
    --------------------------------------------
      LOOP:  cpu time  298.8137: real time  298.8139

 eigenvalue-minimisations  :   808
 total energy-change (2. order) :-0.9914088E+00  (-0.6342339E+00)
 number of electron     559.9999811 magnetization 
 augmentation part      240.1915754 magnetization 

 Broyden mixing:
  rms(total) = 0.24905E+01    rms(broyden)= 0.24902E+01
  rms(prec ) = 0.29006E+01
  weight for this iteration     100.00

 eigenvalues of (default mixing * dielectric matrix)
  average eigenvalue GAMMA=   0.3050
  0.6496  0.1327  0.1327

 Free energy of the ion-electron system (eV)
  ---------------------------------------------------
  alpha Z        PSCENC =        75.25431677
  Ewald energy   TEWEN  =    138015.88943112
  -Hartree energ DENC   =   -181909.69100865
  -exchange      EXHF   =         0.00000000
  -V(xc)+E(xc)   XCENC  =     -1697.00964801
  PAW double counting   =     45743.68077080   -42237.68283264
  entropy T*S    EENTRO =        -0.10768570
  eigenvalues    EBANDS =     -3260.51942942
  atomic energy  EATOM  =     45086.50549395
  Solvation  Ediel_sol  =         0.00000000
  ---------------------------------------------------
  free energy    TOTEN  =      -183.68059178 eV

  energy without entropy =     -183.57290608  energy(sigma->0) =     -183.65367035


--------------------------------------------------------------------------------------------------------




--------------------------------------- Iteration      1(   9)  ---------------------------------------


    POTLOK:  cpu time   11.4492: real time   11.4499
    SETDIJ:  cpu time    0.1149: real time    0.1149
    EDDIAG:  cpu time   62.3506: real time   62.3505
  RMM-DIIS:  cpu time  173.9640: real time  173.9643
    ORTHCH:  cpu time   12.6121: real time   12.6120
       DOS:  cpu time    0.0014: real time    0.0014
    CHARGE:  cpu time   23.4599: real time   23.4597
    MIXING:  cpu time    0.4994: real time    0.4994
    --------------------------------------------
      LOOP:  cpu time  284.4515: real time  284.4521

 eigenvalue-minimisations  :   731
 total energy-change (2. order) : 0.1171235E+01  (-0.5277451E+00)
 number of electron     559.9999829 magnetization 
 augmentation part      240.8904550 magnetization 

 Broyden mixing:
  rms(total) = 0.24241E+01    rms(broyden)= 0.24237E+01
  rms(prec ) = 0.28132E+01
  weight for this iteration     100.00

 eigenvalues of (default mixing * dielectric matrix)
  average eigenvalue GAMMA=   0.2855
  0.7381  0.1513  0.1513  0.1012

 Free energy of the ion-electron system (eV)
  ---------------------------------------------------
  alpha Z        PSCENC =        75.25431677
  Ewald energy   TEWEN  =    138015.88943112
  -Hartree energ DENC   =   -181924.99185714
  -exchange      EXHF   =         0.00000000
  -V(xc)+E(xc)   XCENC  =     -1696.99179966
  PAW double counting   =     45805.33822358   -42296.79294423
  entropy T*S    EENTRO =        -0.14714796
  eigenvalues    EBANDS =     -3246.57307316
  atomic energy  EATOM  =     45086.50549395
  Solvation  Ediel_sol  =         0.00000000
  ---------------------------------------------------
  free energy    TOTEN  =      -182.50935671 eV

  energy without entropy =     -182.36220875  energy(sigma->0) =     -182.47256972


--------------------------------------------------------------------------------------------------------




--------------------------------------- Iteration      1(  10)  ---------------------------------------


    POTLOK:  cpu time   11.9572: real time   11.9579
    SETDIJ:  cpu time    0.1162: real time    0.1162
    EDDIAG:  cpu time   62.2372: real time   62.2370
  RMM-DIIS:  cpu time  171.6891: real time  171.6885
    ORTHCH:  cpu time   12.2157: real time   12.2156
       DOS:  cpu time    0.0014: real time    0.0014
    CHARGE:  cpu time   22.9868: real time   22.9866
    MIXING:  cpu time    0.5228: real time    0.5228
    --------------------------------------------
      LOOP:  cpu time  281.7265: real time  281.7260

 eigenvalue-minimisations  :   737
 total energy-change (2. order) : 0.2211827E+01  (-0.2733037E+00)
 number of electron     559.9999830 magnetization 
 augmentation part      241.3597837 magnetization 

 Broyden mixing:
  rms(total) = 0.25365E+01    rms(broyden)= 0.25362E+01
  rms(prec ) = 0.29434E+01
  weight for this iteration     100.00

 eigenvalues of (default mixing * dielectric matrix)
  average eigenvalue GAMMA=   0.2658
  0.8213  0.1523  0.1523  0.1271  0.0760

 Free energy of the ion-electron system (eV)
  ---------------------------------------------------
  alpha Z        PSCENC =        75.25431677
  Ewald energy   TEWEN  =    138015.88943112
  -Hartree energ DENC   =   -181952.94505268
  -exchange      EXHF   =         0.00000000
  -V(xc)+E(xc)   XCENC  =     -1696.88492417
  PAW double counting   =     45846.08947438   -42335.93960131
  entropy T*S    EENTRO =        -0.00123511
  eigenvalues    EBANDS =     -3218.26543310
  atomic energy  EATOM  =     45086.50549395
  Solvation  Ediel_sol  =         0.00000000
  ---------------------------------------------------
  free energy    TOTEN  =      -180.29753015 eV

  energy without entropy =     -180.29629504  energy(sigma->0) =     -180.29722137


--------------------------------------------------------------------------------------------------------




--------------------------------------- Iteration      1(  11)  ---------------------------------------


    POTLOK:  cpu time   11.1506: real time   11.1514
    SETDIJ:  cpu time    0.1139: real time    0.1139
    EDDIAG:  cpu time   62.0000: real time   62.0005
  RMM-DIIS:  cpu time  168.2220: real time  168.2227
    ORTHCH:  cpu time   12.1658: real time   12.1658
       DOS:  cpu time    0.0014: real time    0.0014
    CHARGE:  cpu time   23.0701: real time   23.0699
    MIXING:  cpu time    0.5472: real time    0.5472
    --------------------------------------------
      LOOP:  cpu time  277.2710: real time  277.2728

 eigenvalue-minimisations  :   720
 total energy-change (2. order) : 0.2023328E+01  (-0.2032479E+00)
 number of electron     559.9999831 magnetization 
 augmentation part      241.4976287 magnetization 

 Broyden mixing:
  rms(total) = 0.15166E+01    rms(broyden)= 0.15163E+01
  rms(prec ) = 0.17463E+01
  weight for this iteration     100.00

 eigenvalues of (default mixing * dielectric matrix)
  average eigenvalue GAMMA=   0.2638
  0.8930  0.2018  0.2018  0.1082  0.1082  0.0700

 Free energy of the ion-electron system (eV)
  ---------------------------------------------------
  alpha Z        PSCENC =        75.25431677
  Ewald energy   TEWEN  =    138015.88943112
  -Hartree energ DENC   =   -181972.07463385
  -exchange      EXHF   =         0.00000000
  -V(xc)+E(xc)   XCENC  =     -1696.73602960
  PAW double counting   =     45881.27995760   -42369.61265322
  entropy T*S    EENTRO =        -0.07164228
  eigenvalues    EBANDS =     -3198.70844281
  atomic energy  EATOM  =     45086.50549395
  Solvation  Ediel_sol  =         0.00000000
  ---------------------------------------------------
  free energy    TOTEN  =      -178.27420232 eV

  energy without entropy =     -178.20256004  energy(sigma->0) =     -178.25629175


--------------------------------------------------------------------------------------------------------




--------------------------------------- Iteration      1(  12)  ---------------------------------------


    POTLOK:  cpu time   10.9848: real time   10.9856
    SETDIJ:  cpu time    0.1136: real time    0.1136
    EDDIAG:  cpu time   61.9463: real time   61.9463
  RMM-DIIS:  cpu time  168.2461: real time  168.2464
    ORTHCH:  cpu time   12.1669: real time   12.1668
       DOS:  cpu time    0.0014: real time    0.0014
    CHARGE:  cpu time   23.0320: real time   23.0318
    MIXING:  cpu time    0.5756: real time    0.5756
    --------------------------------------------
      LOOP:  cpu time  277.0668: real time  277.0675

 eigenvalue-minimisations  :   721
 total energy-change (2. order) : 0.5202313E+00  (-0.1417681E+00)
 number of electron     559.9999814 magnetization 
 augmentation part      241.6652097 magnetization 

 Broyden mixing:
  rms(total) = 0.17705E+01    rms(broyden)= 0.17703E+01
  rms(prec ) = 0.21696E+01
  weight for this iteration     100.00

 eigenvalues of (default mixing * dielectric matrix)
  average eigenvalue GAMMA=   0.2520
  0.9282  0.2343  0.2343  0.1115  0.1115  0.0750  0.0691

 Free energy of the ion-electron system (eV)
  ---------------------------------------------------
  alpha Z        PSCENC =        75.25431677
  Ewald energy   TEWEN  =    138015.88943112
  -Hartree energ DENC   =   -181990.62070000
  -exchange      EXHF   =         0.00000000
  -V(xc)+E(xc)   XCENC  =     -1696.50241218
  PAW double counting   =     45917.05888196   -42403.71798392
  entropy T*S    EENTRO =        -0.02164230
  eigenvalues    EBANDS =     -3181.59935640
  atomic energy  EATOM  =     45086.50549395
  Solvation  Ediel_sol  =         0.00000000
  ---------------------------------------------------
  free energy    TOTEN  =      -177.75397099 eV

  energy without entropy =     -177.73232869  energy(sigma->0) =     -177.74856042


--------------------------------------------------------------------------------------------------------




--------------------------------------- Iteration      1(  13)  ---------------------------------------


    POTLOK:  cpu time   11.0382: real time   11.0390
    SETDIJ:  cpu time    0.1137: real time    0.1137
    EDDIAG:  cpu time   61.9444: real time   61.9441
  RMM-DIIS:  cpu time  168.5032: real time  168.5041
    ORTHCH:  cpu time   12.1248: real time   12.1247
       DOS:  cpu time    0.0015: real time    0.0014
    CHARGE:  cpu time   23.1381: real time   23.1378
    MIXING:  cpu time    0.6068: real time    0.6068
    --------------------------------------------
      LOOP:  cpu time  277.4706: real time  277.4716

 eigenvalue-minimisations  :   723
 total energy-change (2. order) : 0.5297931E+00  (-0.7344333E-01)
 number of electron     559.9999833 magnetization 
 augmentation part      241.6692622 magnetization 

 Broyden mixing:
  rms(total) = 0.16722E+01    rms(broyden)= 0.16719E+01
  rms(prec ) = 0.19812E+01
  weight for this iteration     100.00

 eigenvalues of (default mixing * dielectric matrix)
  average eigenvalue GAMMA=   0.2655
  1.0254  0.3105  0.3105  0.1480  0.0945  0.0945  0.0921  0.0483

 Free energy of the ion-electron system (eV)
  ---------------------------------------------------
  alpha Z        PSCENC =        75.25431677
  Ewald energy   TEWEN  =    138015.88943112
  -Hartree energ DENC   =   -182005.69140299
  -exchange      EXHF   =         0.00000000
  -V(xc)+E(xc)   XCENC  =     -1696.31541587
  PAW double counting   =     45939.58855008   -42425.15123182
  entropy T*S    EENTRO =        -0.03956151
  eigenvalues    EBANDS =     -3167.26435762
  atomic energy  EATOM  =     45086.50549395
  Solvation  Ediel_sol  =         0.00000000
  ---------------------------------------------------
  free energy    TOTEN  =      -177.22417788 eV

  energy without entropy =     -177.18461637  energy(sigma->0) =     -177.21428750


--------------------------------------------------------------------------------------------------------




--------------------------------------- Iteration      1(  14)  ---------------------------------------


    POTLOK:  cpu time   11.0646: real time   11.0654
    SETDIJ:  cpu time    0.1141: real time    0.1141
    EDDIAG:  cpu time   61.9034: real time   61.9031
  RMM-DIIS:  cpu time  168.6200: real time  168.6282
    ORTHCH:  cpu time   12.2575: real time   12.2598
       DOS:  cpu time    0.0014: real time    0.0014
    CHARGE:  cpu time   23.4093: real time   23.4110
    MIXING:  cpu time    0.6639: real time    0.6639
    --------------------------------------------
      LOOP:  cpu time  278.0342: real time  278.0470

 eigenvalue-minimisations  :   719
 total energy-change (2. order) :-0.2689843E+00  (-0.1124661E+00)
 number of electron     559.9999839 magnetization 
 augmentation part      241.4234856 magnetization 

 Broyden mixing:
  rms(total) = 0.20037E+01    rms(broyden)= 0.20035E+01
  rms(prec ) = 0.24614E+01
  weight for this iteration     100.00

 eigenvalues of (default mixing * dielectric matrix)
  average eigenvalue GAMMA=   0.2595
  1.0661  0.3510  0.3510  0.1657  0.0988  0.0988  0.0959  0.0582  0.0506

 Free energy of the ion-electron system (eV)
  ---------------------------------------------------
  alpha Z        PSCENC =        75.25431677
  Ewald energy   TEWEN  =    138015.88943112
  -Hartree energ DENC   =   -182041.44773970
  -exchange      EXHF   =         0.00000000
  -V(xc)+E(xc)   XCENC  =     -1695.84398864
  PAW double counting   =     45991.92169227   -42474.87251059
  entropy T*S    EENTRO =        -0.00326681
  eigenvalues    EBANDS =     -3134.89659057
  atomic energy  EATOM  =     45086.50549395
  Solvation  Ediel_sol  =         0.00000000
  ---------------------------------------------------
  free energy    TOTEN  =      -177.49316219 eV

  energy without entropy =     -177.48989538  energy(sigma->0) =     -177.49234549


--------------------------------------------------------------------------------------------------------




--------------------------------------- Iteration      1(  15)  ---------------------------------------


    POTLOK:  cpu time   11.6083: real time   11.6093
    SETDIJ:  cpu time    0.1151: real time    0.1151
    EDDIAG:  cpu time   62.4449: real time   62.4469
  RMM-DIIS:  cpu time  169.8223: real time  169.8322
    ORTHCH:  cpu time   12.3844: real time   12.3846
       DOS:  cpu time    0.0013: real time    0.0013
    CHARGE:  cpu time   23.4440: real time   23.4443
    MIXING:  cpu time    0.7094: real time    0.7094
    --------------------------------------------
      LOOP:  cpu time  280.5297: real time  280.5431

 eigenvalue-minimisations  :   717
 total energy-change (2. order) : 0.1027063E+01  (-0.6855527E-01)
 number of electron     559.9999825 magnetization 
 augmentation part      241.3528100 magnetization 

 Broyden mixing:
  rms(total) = 0.13191E+01    rms(broyden)= 0.13188E+01
  rms(prec ) = 0.15142E+01
  weight for this iteration     100.00

 eigenvalues of (default mixing * dielectric matrix)
  average eigenvalue GAMMA=   0.2753
  1.2124  0.5546  0.2586  0.1712  0.1712  0.1012  0.0912  0.0912  0.0556  0.0456

 Free energy of the ion-electron system (eV)
  ---------------------------------------------------
  alpha Z        PSCENC =        75.25431677
  Ewald energy   TEWEN  =    138015.88943112
  -Hartree energ DENC   =   -182064.06185648
  -exchange      EXHF   =         0.00000000
  -V(xc)+E(xc)   XCENC  =     -1695.53527534
  PAW double counting   =     46021.81491031   -42503.20614267
  entropy T*S    EENTRO =        -0.12387806
  eigenvalues    EBANDS =     -3113.00309864
  atomic energy  EATOM  =     45086.50549395
  Solvation  Ediel_sol  =         0.00000000
  ---------------------------------------------------
  free energy    TOTEN  =      -176.46609904 eV

  energy without entropy =     -176.34222098  energy(sigma->0) =     -176.43512952


--------------------------------------------------------------------------------------------------------




--------------------------------------- Iteration      1(  16)  ---------------------------------------


    POTLOK:  cpu time   11.6407: real time   11.6414
    SETDIJ:  cpu time    0.1145: real time    0.1145
    EDDIAG:  cpu time   63.0281: real time   63.0302
  RMM-DIIS:  cpu time  164.8922: real time  164.8965
    ORTHCH:  cpu time   12.0415: real time   12.0416
       DOS:  cpu time    0.0014: real time    0.0014
    CHARGE:  cpu time   23.0087: real time   23.0091
    MIXING:  cpu time    0.7217: real time    0.7217
    --------------------------------------------
      LOOP:  cpu time  275.4487: real time  275.4564

 eigenvalue-minimisations  :   705
 total energy-change (2. order) : 0.3853910E+00  (-0.9441268E-01)
 number of electron     559.9999830 magnetization 
 augmentation part      241.1083914 magnetization 

 Broyden mixing:
  rms(total) = 0.11220E+01    rms(broyden)= 0.11217E+01
  rms(prec ) = 0.12819E+01
  weight for this iteration     100.00

 eigenvalues of (default mixing * dielectric matrix)
  average eigenvalue GAMMA=   0.2907
  1.3665  0.6827  0.2358  0.2358  0.1957  0.0938  0.0938  0.0962  0.0962  0.0555
  0.0455

 Free energy of the ion-electron system (eV)
  ---------------------------------------------------
  alpha Z        PSCENC =        75.25431677
  Ewald energy   TEWEN  =    138015.88943112
  -Hartree energ DENC   =   -182103.12281762
  -exchange      EXHF   =         0.00000000
  -V(xc)+E(xc)   XCENC  =     -1694.97554401
  PAW double counting   =     46076.08153909   -42554.63221022
  entropy T*S    EENTRO =        -0.06963479
  eigenvalues    EBANDS =     -3077.01128229
  atomic energy  EATOM  =     45086.50549395
  Solvation  Ediel_sol  =         0.00000000
  ---------------------------------------------------
  free energy    TOTEN  =      -176.08070801 eV

  energy without entropy =     -176.01107322  energy(sigma->0) =     -176.06329931


--------------------------------------------------------------------------------------------------------




--------------------------------------- Iteration      1(  17)  ---------------------------------------


    POTLOK:  cpu time   11.0707: real time   11.0718
    SETDIJ:  cpu time    0.1135: real time    0.1134
    EDDIAG:  cpu time   61.6337: real time   61.6349
  RMM-DIIS:  cpu time  165.8652: real time  165.8697
    ORTHCH:  cpu time   12.1038: real time   12.1039
       DOS:  cpu time    0.0014: real time    0.0014
    CHARGE:  cpu time   23.1197: real time   23.1200
    MIXING:  cpu time    0.7681: real time    0.7681
    --------------------------------------------
      LOOP:  cpu time  274.6761: real time  274.6834

 eigenvalue-minimisations  :   714
 total energy-change (2. order) :-0.9990426E-01  (-0.6129950E-01)
 number of electron     559.9999826 magnetization 
 augmentation part      241.0671337 magnetization 

 Broyden mixing:
  rms(total) = 0.12631E+01    rms(broyden)= 0.12629E+01
  rms(prec ) = 0.15167E+01
  weight for this iteration     100.00

 eigenvalues of (default mixing * dielectric matrix)
  average eigenvalue GAMMA=   0.3023
  1.4641  0.8113  0.3031  0.3031  0.1595  0.0954  0.0954  0.1072  0.1072  0.0821
  0.0537  0.0450

 Free energy of the ion-electron system (eV)
  ---------------------------------------------------
  alpha Z        PSCENC =        75.25431677
  Ewald energy   TEWEN  =    138015.88943112
  -Hartree energ DENC   =   -182127.19633469
  -exchange      EXHF   =         0.00000000
  -V(xc)+E(xc)   XCENC  =     -1694.60916148
  PAW double counting   =     46109.10667619   -42585.79045422
  entropy T*S    EENTRO =        -0.07317842
  eigenvalues    EBANDS =     -3055.26740150
  atomic energy  EATOM  =     45086.50549395
  Solvation  Ediel_sol  =         0.00000000
  ---------------------------------------------------
  free energy    TOTEN  =      -176.18061227 eV

  energy without entropy =     -176.10743385  energy(sigma->0) =     -176.16231767


--------------------------------------------------------------------------------------------------------




--------------------------------------- Iteration      1(  18)  ---------------------------------------


    POTLOK:  cpu time   11.0723: real time   11.0735
    SETDIJ:  cpu time    0.1135: real time    0.1136
    EDDIAG:  cpu time   61.4906: real time   61.4922
  RMM-DIIS:  cpu time  166.3707: real time  166.3767
    ORTHCH:  cpu time   12.1009: real time   12.1011
       DOS:  cpu time    0.0015: real time    0.0015
    CHARGE:  cpu time   23.1106: real time   23.1110
    MIXING:  cpu time    0.8077: real time    0.8077
    --------------------------------------------
      LOOP:  cpu time  275.0679: real time  275.0772

 eigenvalue-minimisations  :   714
 total energy-change (2. order) : 0.8214558E-01  (-0.4582298E-01)
 number of electron     559.9999834 magnetization 
 augmentation part      241.0284285 magnetization 

 Broyden mixing:
  rms(total) = 0.12566E+01    rms(broyden)= 0.12563E+01
  rms(prec ) = 0.14383E+01
  weight for this iteration     100.00

 eigenvalues of (default mixing * dielectric matrix)
  average eigenvalue GAMMA=   0.3107
  1.5726  0.9180  0.3499  0.3499  0.1495  0.1495  0.0941  0.0941  0.0992  0.0992
  0.0648  0.0527  0.0451

 Free energy of the ion-electron system (eV)
  ---------------------------------------------------
  alpha Z        PSCENC =        75.25431677
  Ewald energy   TEWEN  =    138015.88943112
  -Hartree energ DENC   =   -182146.28113293
  -exchange      EXHF   =         0.00000000
  -V(xc)+E(xc)   XCENC  =     -1694.36195332
  PAW double counting   =     46128.69238449   -42604.07273060
  entropy T*S    EENTRO =        -0.00858859
  eigenvalues    EBANDS =     -3037.71568760
  atomic energy  EATOM  =     45086.50549395
  Solvation  Ediel_sol  =         0.00000000
  ---------------------------------------------------
  free energy    TOTEN  =      -176.09846670 eV

  energy without entropy =     -176.08987811  energy(sigma->0) =     -176.09631955


--------------------------------------------------------------------------------------------------------




--------------------------------------- Iteration      1(  19)  ---------------------------------------


    POTLOK:  cpu time   11.0118: real time   11.0129
    SETDIJ:  cpu time    0.1135: real time    0.1135
    EDDIAG:  cpu time   61.5579: real time   61.5590
  RMM-DIIS:  cpu time  163.2074: real time  163.2130
    ORTHCH:  cpu time   12.0951: real time   12.0951
       DOS:  cpu time    0.0015: real time    0.0014
    CHARGE:  cpu time   23.0401: real time   23.0404
    MIXING:  cpu time    0.8592: real time    0.8592
    --------------------------------------------
      LOOP:  cpu time  271.8864: real time  271.8947

 eigenvalue-minimisations  :   700
 total energy-change (2. order) : 0.4192581E+00  (-0.4004380E-01)
 number of electron     559.9999836 magnetization 
 augmentation part      241.0467487 magnetization 

 Broyden mixing:
  rms(total) = 0.87090E+00    rms(broyden)= 0.87072E+00
  rms(prec ) = 0.97305E+00
  weight for this iteration     100.00

 eigenvalues of (default mixing * dielectric matrix)
  average eigenvalue GAMMA=   0.3195
  1.6977  1.0015  0.3853  0.3853  0.1772  0.1772  0.0947  0.0947  0.1033  0.1033
  0.0899  0.0650  0.0525  0.0451

 Free energy of the ion-electron system (eV)
  ---------------------------------------------------
  alpha Z        PSCENC =        75.25431677
  Ewald energy   TEWEN  =    138015.88943112
  -Hartree energ DENC   =   -182164.39353302
  -exchange      EXHF   =         0.00000000
  -V(xc)+E(xc)   XCENC  =     -1694.18266999
  PAW double counting   =     46142.91468139   -42617.26189161
  entropy T*S    EENTRO =         0.00816278
  eigenvalues    EBANDS =     -3020.41320004
  atomic energy  EATOM  =     45086.50549395
  Solvation  Ediel_sol  =         0.00000000
  ---------------------------------------------------
  free energy    TOTEN  =      -175.67920865 eV

  energy without entropy =     -175.68737143  energy(sigma->0) =     -175.68124934


--------------------------------------------------------------------------------------------------------




--------------------------------------- Iteration      1(  20)  ---------------------------------------


    POTLOK:  cpu time   11.0037: real time   11.0045
    SETDIJ:  cpu time    0.1136: real time    0.1136
    EDDIAG:  cpu time   61.5193: real time   61.5205
  RMM-DIIS:  cpu time  163.1775: real time  163.1830
    ORTHCH:  cpu time   12.0818: real time   12.0819
       DOS:  cpu time    0.0014: real time    0.0014
    CHARGE:  cpu time   23.0939: real time   23.0941
    MIXING:  cpu time    0.9210: real time    0.9210
    --------------------------------------------
      LOOP:  cpu time  271.9122: real time  271.9201

 eigenvalue-minimisations  :   698
 total energy-change (2. order) : 0.1719936E+00  (-0.3100041E-01)
 number of electron     559.9999845 magnetization 
 augmentation part      241.1830038 magnetization 

 Broyden mixing:
  rms(total) = 0.88213E+00    rms(broyden)= 0.88196E+00
  rms(prec ) = 0.99629E+00
  weight for this iteration     100.00

 eigenvalues of (default mixing * dielectric matrix)
  average eigenvalue GAMMA=   0.3275
  1.8217  1.0822  0.4185  0.4185  0.2091  0.2091  0.1128  0.1128  0.0943  0.0943
  0.0883  0.0883  0.0647  0.0452  0.0524

 Free energy of the ion-electron system (eV)
  ---------------------------------------------------
  alpha Z        PSCENC =        75.25431677
  Ewald energy   TEWEN  =    138015.88943112
  -Hartree energ DENC   =   -182177.65275042
  -exchange      EXHF   =         0.00000000
  -V(xc)+E(xc)   XCENC  =     -1694.04617125
  PAW double counting   =     46150.60719797   -42624.14230033
  entropy T*S    EENTRO =        -0.01809902
  eigenvalues    EBANDS =     -3007.90433385
  atomic energy  EATOM  =     45086.50549395
  Solvation  Ediel_sol  =         0.00000000
  ---------------------------------------------------
  free energy    TOTEN  =      -175.50721506 eV

  energy without entropy =     -175.48911603  energy(sigma->0) =     -175.50269030


--------------------------------------------------------------------------------------------------------




--------------------------------------- Iteration      1(  21)  ---------------------------------------


    POTLOK:  cpu time   11.0883: real time   11.0908
    SETDIJ:  cpu time    0.1141: real time    0.1141
    EDDIAG:  cpu time   61.5319: real time   61.5331
  RMM-DIIS:  cpu time  162.6189: real time  162.6228
    ORTHCH:  cpu time   12.1254: real time   12.1255
       DOS:  cpu time    0.0014: real time    0.0014
    CHARGE:  cpu time   23.0557: real time   23.0560
    MIXING:  cpu time    0.9559: real time    0.9559
    --------------------------------------------
      LOOP:  cpu time  271.4917: real time  271.4997

 eigenvalue-minimisations  :   698
 total energy-change (2. order) : 0.4045182E-01  (-0.2836129E-01)
 number of electron     559.9999830 magnetization 
 augmentation part      241.2065671 magnetization 

 Broyden mixing:
  rms(total) = 0.10072E+01    rms(broyden)= 0.10071E+01
  rms(prec ) = 0.11712E+01
  weight for this iteration     100.00

 eigenvalues of (default mixing * dielectric matrix)
  average eigenvalue GAMMA=   0.3265
  1.9242  1.0780  0.4511  0.4511  0.2318  0.2318  0.1277  0.1277  0.0943  0.0943
  0.0921  0.0921  0.0452  0.0525  0.0646  0.0646

 Free energy of the ion-electron system (eV)
  ---------------------------------------------------
  alpha Z        PSCENC =        75.25431677
  Ewald energy   TEWEN  =    138015.88943112
  -Hartree energ DENC   =   -182195.00949692
  -exchange      EXHF   =         0.00000000
  -V(xc)+E(xc)   XCENC  =     -1693.88482028
  PAW double counting   =     46157.52819570   -42630.21805593
  entropy T*S    EENTRO =        -0.01032565
  eigenvalues    EBANDS =     -2991.52150201
  atomic energy  EATOM  =     45086.50549395
  Solvation  Ediel_sol  =         0.00000000
  ---------------------------------------------------
  free energy    TOTEN  =      -175.46676323 eV

  energy without entropy =     -175.45643759  energy(sigma->0) =     -175.46418182


--------------------------------------------------------------------------------------------------------




--------------------------------------- Iteration      1(  22)  ---------------------------------------


    POTLOK:  cpu time   11.1297: real time   11.1332
    SETDIJ:  cpu time    0.1108: real time    0.1108
    EDDIAG:  cpu time   61.5402: real time   61.5419
  RMM-DIIS:  cpu time  163.5152: real time  163.5195
    ORTHCH:  cpu time   12.1359: real time   12.1361
       DOS:  cpu time    0.0015: real time    0.0015
    CHARGE:  cpu time   23.1230: real time   23.1233
    MIXING:  cpu time    0.9974: real time    0.9974
    --------------------------------------------
      LOOP:  cpu time  272.5536: real time  272.5636

 eigenvalue-minimisations  :   702
 total energy-change (2. order) : 0.6374899E-01  (-0.2051175E-01)
 number of electron     559.9999839 magnetization 
 augmentation part      241.1629439 magnetization 

 Broyden mixing:
  rms(total) = 0.81069E+00    rms(broyden)= 0.81057E+00
  rms(prec ) = 0.95722E+00
  weight for this iteration     100.00

 eigenvalues of (default mixing * dielectric matrix)
  average eigenvalue GAMMA=   0.3267
  2.0316  1.1139  0.4622  0.4622  0.2528  0.2528  0.1441  0.1441  0.0941  0.0941
  0.1000  0.1000  0.0782  0.0684  0.0451  0.0530  0.0565

 Free energy of the ion-electron system (eV)
  ---------------------------------------------------
  alpha Z        PSCENC =        75.25431677
  Ewald energy   TEWEN  =    138015.88943112
  -Hartree energ DENC   =   -182207.76370768
  -exchange      EXHF   =         0.00000000
  -V(xc)+E(xc)   XCENC  =     -1693.76432573
  PAW double counting   =     46162.14599287   -42634.27354040
  entropy T*S    EENTRO =        -0.00963452
  eigenvalues    EBANDS =     -2979.38704062
  atomic energy  EATOM  =     45086.50549395
  Solvation  Ediel_sol  =         0.00000000
  ---------------------------------------------------
  free energy    TOTEN  =      -175.40301424 eV

  energy without entropy =     -175.39337972  energy(sigma->0) =     -175.40060561


--------------------------------------------------------------------------------------------------------




--------------------------------------- Iteration      1(  23)  ---------------------------------------


    POTLOK:  cpu time   11.1284: real time   11.1311
    SETDIJ:  cpu time    0.1108: real time    0.1108
    EDDIAG:  cpu time   61.5227: real time   61.5238
  RMM-DIIS:  cpu time  166.2302: real time  166.2308
    ORTHCH:  cpu time   12.2529: real time   12.2528
       DOS:  cpu time    0.0014: real time    0.0014
    CHARGE:  cpu time   23.4508: real time   23.4507
    MIXING:  cpu time    1.1117: real time    1.1117
    --------------------------------------------
      LOOP:  cpu time  275.8090: real time  275.8132

 eigenvalue-minimisations  :   708
 total energy-change (2. order) : 0.9373409E-01  (-0.1596011E-01)
 number of electron     559.9999840 magnetization 
 augmentation part      241.1423457 magnetization 

 Broyden mixing:
  rms(total) = 0.69412E+00    rms(broyden)= 0.69398E+00
  rms(prec ) = 0.80852E+00
  weight for this iteration     100.00

 eigenvalues of (default mixing * dielectric matrix)
  average eigenvalue GAMMA=   0.3265
[...]
 -0.004  -0.011   0.005   0.000   0.004  -0.004  -0.011   0.004
 -0.007  -0.019   0.008   0.001   0.007  -0.007  -0.018   0.007
 -0.016  -0.006   0.012   0.000   0.021  -0.016  -0.006   0.012
  0.000  -0.022  -0.007  -0.017  -0.000   0.000  -0.021  -0.007
 -0.021   0.000   0.010  -0.006  -0.017  -0.021   0.000   0.009
 -0.019  -0.007   0.015   0.001   0.026  -0.019  -0.007   0.014
  0.001  -0.026  -0.009  -0.020  -0.000   0.001  -0.026  -0.009
 -0.026   0.001   0.011  -0.007  -0.021  -0.025   0.001   0.011
 total augmentation occupancy for first ion, spin component:           1
  1.531  -0.019  -0.000  -0.010   0.020   0.082  -0.008  -0.001   0.043  -0.008   0.060  -0.020   0.012   0.002  -0.002  -0.021
 -0.019   1.364   0.051   0.049  -0.019  -0.008   0.083   0.004  -0.008  -0.002   0.191  -0.059   0.018   0.006   0.001  -0.007
 -0.000   0.051   1.499   0.002   0.016  -0.001   0.006   0.088  -0.010   0.013  -0.047   0.019  -0.001  -0.011  -0.008   0.015
 -0.010   0.049   0.002   1.362   0.045   0.040  -0.008  -0.011   0.088  -0.020  -0.055   0.006  -0.002  -0.005   0.002   0.001
  0.020  -0.019   0.016   0.045   1.406  -0.009  -0.003   0.013  -0.020   0.079  -0.092   0.025  -0.004  -0.006  -0.007   0.026
  0.082  -0.008  -0.001   0.040  -0.009   0.222   0.022  -0.001  -0.049   0.004  -0.045   0.003   0.018  -0.010   0.035  -0.005
 -0.008   0.083   0.006  -0.008  -0.003   0.022   0.266  -0.022  -0.008   0.005  -0.108   0.008  -0.001   0.051  -0.010  -0.001
 -0.001   0.004   0.088  -0.011   0.013  -0.001  -0.022   0.217   0.015  -0.019   0.028  -0.001  -0.012   0.010  -0.018   0.003
  0.043  -0.008  -0.010   0.088  -0.020  -0.049  -0.008   0.015   0.272   0.009   0.044  -0.007  -0.010   0.036   0.004   0.000
 -0.008  -0.002   0.013  -0.020   0.079   0.004   0.005  -0.019   0.009   0.261   0.047  -0.004  -0.038   0.002   0.049   0.007
  0.060   0.191  -0.047  -0.055  -0.092  -0.045  -0.108   0.028   0.044   0.047   0.942  -0.139   0.082   0.016   0.067  -0.012
 -0.020  -0.059   0.019   0.006   0.025   0.003   0.008  -0.001  -0.007  -0.004  -0.139   0.022  -0.014  -0.003  -0.010   0.003
  0.012   0.018  -0.001  -0.002  -0.004   0.018  -0.001  -0.012  -0.010  -0.038   0.082  -0.014   0.029  -0.008  -0.004  -0.003
  0.002   0.006  -0.011  -0.005  -0.006  -0.010   0.051   0.010   0.036   0.002   0.016  -0.003  -0.008   0.035   0.004   0.000
 -0.002   0.001  -0.008   0.002  -0.007   0.035  -0.010  -0.018   0.004   0.049   0.067  -0.010  -0.004   0.004   0.034  -0.000
 -0.021  -0.007   0.015   0.001   0.026  -0.005  -0.001   0.003   0.000   0.007  -0.012   0.003  -0.003   0.000  -0.000   0.001
  0.001  -0.027  -0.008  -0.020   0.001   0.001  -0.008  -0.002  -0.006  -0.000  -0.003   0.001   0.000  -0.003  -0.000   0.000
 -0.027   0.002   0.013  -0.006  -0.021  -0.006   0.001   0.003  -0.002  -0.008  -0.008   0.001  -0.000  -0.000  -0.003   0.000


------------------------ aborting loop because EDIFF is reached ----------------------------------------


    CHARGE:  cpu time   23.1009: real time   23.1008
    FORLOC:  cpu time    6.4914: real time    6.4914
    FORNL :  cpu time   60.3780: real time   60.3774
    STRESS:  cpu time  183.4965: real time  183.4946
    FORCOR:  cpu time   20.0046: real time   20.0045
    FORHAR:  cpu time    8.9241: real time    8.9241
    MIXING:  cpu time    3.0844: real time    3.0844
    OFIELD:  cpu time    0.0000: real time    0.0000

  FORCE on cell =-STRESS in cart. coord.  units (eV):
  Direction    XX          YY          ZZ          XY          YZ          ZX
  --------------------------------------------------------------------------------------
  Alpha Z    75.25432    75.25432    75.25432
  Ewald   47316.12066 44899.87113 45799.79208  1240.77228  1181.82716  1739.86762
  Hartree 61992.73748 59767.27798 60613.49700  1145.93217  1065.41365  1613.23001
  E(xc)   -2903.81000 -2905.24228 -2904.75737     0.54518     0.82235     0.52328
  Local  ************************************ -2376.08219 -2237.13145 -3341.11294
  n-local  -885.01593  -884.32990  -886.13529    -1.51335    -3.03307    -2.15266
  augment  4101.63031  4105.26719  4104.34855    -1.07204    -0.96867    -0.16554
  Kinetic  7797.33394  7810.96745  7805.61540    -6.97936    -7.42314    -7.57736
  Fock        0.00000     0.00000     0.00000     0.00000     0.00000     0.00000
  -------------------------------------------------------------------------------------
  Total    -113.01554  -113.77082  -113.96337     1.60270    -0.49316     2.61242
  in kB      -6.70633    -6.75115    -6.76258     0.09510    -0.02926     0.15502
  external pressure =       -6.74 kB  Pullay stress =        0.00 kB


 VOLUME and BASIS-vectors are now :
 -----------------------------------------------------------------------------
  energy-cutoff  :      400.00
  volume of cell :    27000.00
      direct lattice vectors                 reciprocal lattice vectors
    30.000000000  0.000000000  0.000000000     0.033333333  0.000000000  0.000000000
     0.000000000 30.000000000  0.000000000     0.000000000  0.033333333  0.000000000
     0.000000000  0.000000000 30.000000000     0.000000000  0.000000000  0.033333333

  length of vectors
    30.000000000 30.000000000 30.000000000     0.033333333  0.033333333  0.033333333


 FORCES acting on ions
    electron-ion (+dipol)            ewald-force                    non-local-force                 convergence-correction
 -----------------------------------------------------------------------------------------------
   0.351E+03 0.988E+03 0.394E+03   -.349E+03 -.985E+03 -.393E+03   -.162E+01 -.183E+01 -.239E+00   0.487E-02 0.375E-02 -.591E-02
   -.975E+03 -.397E+03 0.414E+03   0.972E+03 0.395E+03 -.414E+03   0.182E+01 0.151E+01 -.209E+00   -.427E-02 0.356E-04 0.320E-03
   -.412E+03 0.975E+03 0.410E+03   0.410E+03 -.972E+03 -.410E+03   0.157E+01 -.182E+01 -.219E+00   -.168E-02 0.506E-02 -.633E-02
   0.964E+03 -.435E+03 0.397E+03   -.961E+03 0.433E+03 -.397E+03   -.187E+01 0.146E+01 -.296E+00   0.209E-02 -.989E-04 -.132E-02
   -.385E+02 0.587E+03 0.964E+03   0.384E+02 -.586E+03 -.960E+03   0.177E+00 -.356E+00 -.243E+01   0.250E-02 0.118E-02 0.263E-02
   -.515E+01 0.586E+03 -.971E+03   0.515E+01 -.585E+03 0.967E+03   -.193E-02 -.298E+00 0.235E+01   -.840E-03 -.258E-02 0.183E-02
   -.134E+02 0.114E+04 -.108E+02   0.135E+02 -.114E+04 0.108E+02   -.168E-01 -.309E+01 0.157E-01   0.887E-03 0.973E-03 -.739E-02
   0.114E+04 -.231E+02 -.327E+02   -.113E+04 0.231E+02 0.326E+02   -.322E+01 0.939E-02 0.333E-01   0.881E-03 0.182E-02 -.252E-02
   -.113E+04 -.171E+01 -.235E+01   0.113E+04 0.170E+01 0.235E+01   0.311E+01 -.473E-03 0.325E-02   -.245E-02 0.185E-02 -.190E-02
   -.353E+01 -.114E+04 -.288E+01   0.353E+01 0.113E+04 0.288E+01   -.875E-03 0.311E+01 -.355E-02   0.432E-03 -.295E-02 0.661E-03
   -.591E+03 0.577E+03 0.812E+03   0.589E+03 -.575E+03 -.808E+03   0.150E+01 -.155E+01 -.219E+01   -.674E-02 -.258E-03 0.196E-02
   -.581E+03 0.577E+03 -.815E+03   0.579E+03 -.575E+03 0.812E+03   0.156E+01 -.156E+01 0.220E+01   0.273E-02 -.133E-02 0.121E-02
   0.568E+03 -.601E+03 0.812E+03   -.566E+03 0.599E+03 -.808E+03   -.157E+01 0.160E+01 -.218E+01   -.133E-02 -.329E-02 0.444E-03
   0.575E+03 -.582E+03 -.817E+03   -.573E+03 0.580E+03 0.814E+03   -.157E+01 0.155E+01 0.220E+01   -.848E-03 0.254E-02 -.183E-02
   0.364E+03 0.585E+03 0.822E+03   -.366E+03 -.582E+03 -.819E+03   0.155E+01 -.135E+01 -.198E+01   0.564E-02 0.992E-03 0.398E-03
   0.574E+03 0.577E+03 -.823E+03   -.571E+03 -.575E+03 0.820E+03   -.156E+01 -.156E+01 0.220E+01   -.336E-02 -.175E-02 0.160E-02
   -.584E+03 -.583E+03 0.812E+03   0.582E+03 0.580E+03 -.808E+03   0.155E+01 0.156E+01 -.220E+01   -.589E-03 -.270E-02 0.225E-02
   -.580E+03 -.580E+03 -.814E+03   0.578E+03 0.577E+03 0.811E+03   0.156E+01 0.156E+01 0.220E+01   0.118E-02 0.197E-02 -.195E-02
   0.385E+03 0.974E+03 -.430E+03   -.382E+03 -.971E+03 0.430E+03   -.149E+01 -.183E+01 0.229E+00   -.137E-02 -.255E-02 -.343E-02
   -.973E+03 -.396E+03 -.418E+03   0.970E+03 0.393E+03 0.418E+03   0.182E+01 0.151E+01 0.224E+00   -.142E-02 0.433E-02 -.224E-02
   -.339E+03 0.316E+03 0.447E+03   0.339E+03 -.317E+03 -.448E+03   -.300E+00 0.383E+00 0.529E+00   -.253E-02 -.208E-02 -.611E-02
   0.927E+03 0.290E+03 0.282E+03   -.926E+03 -.290E+03 -.284E+03   -.786E+00 -.444E+00 0.724E+00   0.286E-02 0.981E-03 -.350E-02
   -.399E+03 -.976E+03 0.414E+03   0.397E+03 0.973E+03 -.413E+03   0.149E+01 0.182E+01 -.229E+00   0.200E-02 -.402E-02 0.207E-02
   -.401E+03 0.972E+03 -.423E+03   0.399E+03 -.969E+03 0.422E+03   0.150E+01 -.181E+01 0.196E+00   0.917E-03 -.238E-02 -.476E-02
   0.968E+03 -.403E+03 -.429E+03   -.966E+03 0.401E+03 0.429E+03   -.182E+01 0.151E+01 0.231E+00   0.366E-03 0.382E-02 -.178E-02
   -.977E+03 0.392E+03 0.414E+03   0.974E+03 -.390E+03 -.413E+03   0.181E+01 -.152E+01 -.206E+00   -.587E-02 -.975E-03 -.305E-02
   0.388E+03 -.981E+03 0.413E+03   -.385E+03 0.978E+03 -.412E+03   -.150E+01 0.181E+01 -.223E+00   -.549E-03 -.352E-02 0.151E-02
   0.274E+03 0.303E+03 0.428E+03   -.274E+03 -.303E+03 -.428E+03   0.850E-01 0.298E+00 0.404E+00   0.491E-02 -.132E-02 -.656E-02
   -.180E+02 0.638E+03 -.144E+02   0.180E+02 -.639E+03 0.144E+02   0.309E-01 0.714E+00 0.375E-01   0.198E-02 0.492E-03 -.122E-01
   -.596E+03 -.427E+01 0.963E+03   0.595E+03 0.428E+01 -.960E+03   0.295E+00 -.868E-03 -.235E+01   -.475E-02 -.363E-02 0.253E-02
   -.589E+03 -.158E+01 -.967E+03   0.588E+03 0.156E+01 0.963E+03   0.315E+00 0.237E-02 0.236E+01   0.318E-02 0.569E-02 -.894E-03
   0.538E+03 -.664E+02 0.966E+03   -.537E+03 0.668E+02 -.962E+03   -.468E+00 -.290E+00 -.223E+01   0.271E-02 -.161E-02 0.105E-02
   0.583E+03 -.388E+01 -.973E+03   -.582E+03 0.387E+01 0.969E+03   -.314E+00 0.480E-02 0.235E+01   -.344E-02 0.440E-02 -.323E-03
   0.737E+03 0.761E+03 -.435E+02   -.735E+03 -.759E+03 0.436E+02   -.121E+01 -.115E+01 -.922E-01   0.653E-03 -.267E-03 -.685E-02
   -.764E+03 -.763E+03 -.287E+01   0.762E+03 0.761E+03 0.287E+01   0.116E+01 0.114E+01 0.487E-02   -.157E-02 -.172E-02 -.137E-02
   -.768E+03 0.760E+03 -.504E+01   0.766E+03 -.758E+03 0.507E+01   0.114E+01 -.116E+01 -.134E-01   -.204E-02 0.150E-03 -.916E-02
   0.754E+03 -.773E+03 -.952E+01   -.752E+03 0.771E+03 0.948E+01   -.111E+01 0.118E+01 0.313E-01   0.540E-03 -.811E-03 -.379E-03
   -.252E+02 -.143E+02 0.107E+04   0.252E+02 0.143E+02 -.107E+04   0.104E-01 0.235E-01 -.164E+01   0.905E-03 -.581E-02 0.300E-02
   -.432E+01 -.253E+01 -.107E+04   0.432E+01 0.253E+01 0.107E+04   0.505E-02 -.588E-02 0.161E+01   0.830E-04 0.475E-02 -.575E-03
   0.967E+03 0.388E+03 -.439E+03   -.965E+03 -.386E+03 0.438E+03   -.183E+01 -.150E+01 0.240E+00   -.269E-02 0.154E-02 -.193E-02
   -.397E+03 -.974E+03 -.419E+03   0.395E+03 0.971E+03 0.418E+03   0.152E+01 0.182E+01 0.236E+00   0.679E-03 -.264E-02 -.158E-02
   -.328E+03 0.319E+03 -.459E+03   0.328E+03 -.319E+03 0.460E+03   -.377E+00 0.368E+00 -.529E+00   0.151E-02 0.273E-02 -.736E-02
   0.303E+03 -.341E+03 0.443E+03   -.304E+03 0.341E+03 -.444E+03   0.392E+00 -.347E+00 0.532E+00   0.155E-02 -.304E-02 -.630E-03
   0.311E+03 0.317E+03 -.467E+03   -.312E+03 -.317E+03 0.468E+03   0.372E+00 0.373E+00 -.508E+00   -.128E-02 0.185E-02 -.555E-02
   -.974E+03 0.393E+03 -.419E+03   0.971E+03 -.390E+03 0.419E+03   0.183E+01 -.150E+01 0.228E+00   0.168E-02 0.240E-02 -.336E-02
   0.390E+03 -.975E+03 -.420E+03   -.388E+03 0.973E+03 0.420E+03   -.152E+01 0.182E+01 0.211E+00   -.100E-02 -.204E-02 -.113E-02
   -.331E+03 -.328E+03 0.449E+03   0.332E+03 0.328E+03 -.450E+03   -.372E+00 -.376E+00 0.519E+00   -.616E-03 -.368E-02 0.100E-02
   0.624E+03 -.186E+02 -.262E+02   -.625E+03 0.185E+02 0.261E+02   0.858E+00 0.267E-01 0.108E+00   0.628E-03 0.346E-02 -.536E-02
   -.645E+03 -.315E+01 -.436E+01   0.646E+03 0.314E+01 0.437E+01   -.741E+00 0.595E-02 -.844E-02   -.309E-02 0.331E-02 -.624E-02
   -.101E+02 -.597E+03 0.964E+03   0.101E+02 0.596E+03 -.960E+03   0.615E-02 0.321E+00 -.234E+01   0.538E-03 -.473E-02 0.164E-02
   -.308E+01 -.589E+03 -.967E+03   0.304E+01 0.588E+03 0.964E+03   0.214E-01 0.319E+00 0.236E+01   -.806E-04 0.336E-02 -.228E-02
   -.136E+02 -.777E+01 -.109E+02   0.136E+02 0.777E+01 0.109E+02   -.268E-02 0.513E-02 0.101E-01   0.240E-02 0.293E-02 -.863E-02
   0.315E+03 -.327E+03 -.462E+03   -.315E+03 0.328E+03 0.463E+03   0.338E+00 -.381E+00 -.560E+00   -.874E-03 0.624E-02 -.473E-02
   -.326E+03 -.324E+03 -.458E+03   0.326E+03 0.325E+03 0.458E+03   -.354E+00 -.350E+00 -.512E+00   0.189E-02 0.547E-02 -.574E-02
   -.691E+01 -.645E+03 -.557E+01   0.693E+01 0.646E+03 0.559E+01   -.190E-01 -.742E+00 -.163E-01   0.143E-02 -.293E-02 -.125E-02
   0.205E+03 0.104E+03 0.107E+03   -.188E+03 -.940E+02 -.934E+02   -.120E+02 -.713E+01 -.104E+02   0.152E-02 0.324E-03 -.133E-03
   0.570E+03 0.317E+03 0.418E+03   -.617E+03 -.344E+03 -.455E+03   0.429E+02 0.244E+02 0.345E+02   0.186E-02 0.322E-03 0.817E-04
 -----------------------------------------------------------------------------------------------
   -.347E+02 -.183E+02 -.252E+02   0.114E-11 0.568E-13 -.148E-11   0.347E+02 0.183E+02 0.253E+02   0.270E-02 0.140E-01 -.122E+00
 
 
 POSITION                                       TOTAL-FORCE (eV/Angst)
 -----------------------------------------------------------------------------------
     13.37281      9.84801     12.50759         0.791163      1.065204      0.322316
     20.15199     16.62719     12.50759        -1.108158     -0.705957      0.285713
     16.62719      9.84801     12.50759        -0.740132      1.101102      0.278138
      9.84801     16.62719     12.50759         1.123181     -0.652053      0.333043
     15.00000     11.47521     10.20639         0.064223      0.367333      1.286248
     15.00000     11.47521     19.79360        -0.000767      0.412533     -1.282414
     15.00000      8.28283     15.00000         0.005032      1.516057      0.001556
      8.28283     15.00000     15.00000         1.534671      0.000291     -0.003048
     21.71717     15.00000     15.00000        -1.517622     -0.001327     -0.003735
     15.00000     21.71717     15.00000         0.000195     -1.516477      0.001690
     18.35858     11.64142     10.25025        -0.721169      0.769009      1.068804
     18.35858     11.64142     19.74975        -0.757807      0.752707     -1.071487
     11.64142     18.35858     10.25025         0.761008     -0.791349      1.060797
     11.64142     18.35858     19.74975         0.764448     -0.754606     -1.071798
     11.64142     11.64142     10.25025        -0.723200      0.922731      1.301998
     11.64142     11.64142     19.74975         0.758324      0.755243     -1.073090
     18.35858     18.35858     10.25025        -0.754534     -0.759968      1.074662
     18.35858     18.35858     19.74975        -0.757453     -0.754321     -1.067736
     13.37281      9.84801     17.49241         0.708110      1.110219     -0.285123
     20.15199     16.62719     17.49241        -1.104562     -0.709470     -0.294497
     16.73751     13.26249     12.54279         0.106166     -0.106542     -0.154937
      9.84801     13.37281     12.50759         0.671241     -0.172175     -0.846020
     16.62719     20.15199     12.50759        -0.701692     -1.108444      0.293225
     16.62719      9.84801     17.49241        -0.707057      1.111369     -0.283069
      9.84801     16.62719     17.49241         1.105407     -0.703716     -0.299604
     20.15199     13.37281     12.50759        -1.107287      0.711796      0.287782
     13.37281     20.15199     12.50759         0.703506     -1.105537      0.294388
     13.26249     13.26249     12.54279        -0.002514     -0.081041     -0.085764
     15.00000     11.52498     15.00000         0.005006     -0.227158     -0.003211
     18.52479     15.00000     10.20639        -0.409410      0.000598      1.286549
     18.52479     15.00000     19.79360        -0.414716     -0.005112     -1.282266
     11.47521     15.00000     10.20640         0.404489      0.146509      1.254290
     11.47521     15.00000     19.79360         0.415806     -0.001951     -1.279335
     11.49535     11.49535     15.00000         0.843385      0.815444      0.045192
     18.50465     18.50465     15.00000        -0.829002     -0.827097     -0.002094
     18.50465     11.49535     15.00000        -0.827500      0.832780      0.007519
     11.49535     18.50465     15.00000         0.817020     -0.842974     -0.015366
     15.00000     15.00000     10.04368         0.011341      0.004380      1.178391
     15.00000     15.00000     19.95633        -0.000052     -0.001686     -1.175651
      9.84801     13.37281     17.49241         1.110693      0.708726     -0.292992
     16.62719     20.15199     17.49241        -0.711719     -1.103535     -0.303328
     16.73751     13.26249     17.45721         0.106124     -0.106404      0.160967
     13.26249     16.73751     12.54279        -0.112720      0.111611     -0.150864
     13.26249     13.26249     17.45721        -0.115355     -0.112956      0.154202
     20.15199     13.37281     17.49241        -1.104010      0.703652     -0.289199
     13.37281     20.15199     17.49241         0.709240     -1.102356     -0.281384
     16.73751     16.73751     12.54279         0.111100      0.108684     -0.160384
     11.52498     15.00000     15.00000        -0.228971     -0.006676     -0.004920
     18.47502     15.00000     15.00000         0.226005      0.001380     -0.001884
     15.00000     18.52480     10.20639         0.000229     -0.411216      1.281420
     15.00000     18.52480     19.79360        -0.015936     -0.416764     -1.281952
     15.00000     15.00000     15.00000        -0.007176      0.001389     -0.004902
     13.26249     16.73751     17.45721        -0.101271      0.133485      0.181571
     16.73751     16.73751     17.45721         0.115665      0.107102      0.152939
     15.00000     18.47502     15.00000         0.007512      0.230546      0.007323
      9.46632     11.89994     10.61524         5.429896      2.423576      3.340063
      8.65682     11.44645      9.97381        -3.828393     -1.836590     -2.588732
 -----------------------------------------------------------------------------------
    total drift:                                0.000045     -0.007055     -0.004119


--------------------------------------------------------------------------------------------------------



  FREE ENERGIE OF THE ION-ELECTRON SYSTEM (eV)
  ---------------------------------------------------
  free  energy   TOTEN  =      -175.02724617 eV

  energy  without entropy=     -174.94293321  energy(sigma->0) =     -175.00616793
 


--------------------------------------------------------------------------------------------------------


    POTLOK:  cpu time   12.2350: real time   12.2349


--------------------------------------------------------------------------------------------------------


     LOOP+:  cpu time16643.3546: real time16643.8950
    4ORBIT:  cpu time    0.0000: real time    0.0000

 total amount of memory used by VASP MPI-rank0  5486941. kBytes
=======================================================================

   base      :      30000. kBytes
   nonlr-proj:      17126. kBytes
   fftplans  :     924480. kBytes
   grid      :    1872000. kBytes
   one-center:        886. kBytes
   wavefun   :    2642449. kBytes
 
  
  
 General timing and accounting informations for this job:
 ========================================================
  
                  Total CPU time used (sec):    16712.930
                            User time (sec):    15792.281
                          System time (sec):      920.649
                         Elapsed time (sec):    16713.526
  
                   Maximum memory used (kb):     7178916.
                   Average memory used (kb):           0.
  
                          Minor page faults:    834214655
                          Major page faults:            0
                 Voluntary context switches:          498
