   57   57    1    1
  0.4736842E+03  0.3000000E-08  0.3000000E-08  0.3000000E-08  0.5000000E-15
  1.000000000000000E-004
  CAR 
 6_Pd100_top_free_z(O)                   
    560      1    336
 
  0.0000000E+00  0.0000000E+00  0.0000000E+00  0.1000000E+01
    1      -28.928194   1.000000
    2      -13.490186   1.000000
    3      -11.284972   1.000000
    4      -11.259832   1.000000
    5       -9.399481   1.000000
    6       -6.629315   1.000000
    7       -6.117177   1.000000
    8       -6.114786   1.000000
    9       -6.100174   1.000000
   10       -5.803642   1.000000
   11       -5.801074   1.000000
   12       -5.798809   1.000000
   13       -5.731366   1.000000
   14       -5.679671   1.000000
   15       -5.672332   1.000000
   16       -5.671800   1.000000
   17       -5.670843   1.000000
   18       -5.611837   1.000000
   19       -5.611376   1.000000
   20       -5.598175   1.000000
   21       -5.585323   1.000000
   22       -5.584758   1.000000
   23       -5.582293   1.000000
   24       -5.540999   1.000000
   25       -5.536893   1.000000
   26       -5.536014   1.000000
   27       -5.534630   1.000000
   28       -5.513718   1.000000
   29       -5.512662   1.000000
   30       -5.508719   1.000000
   31       -5.504420   1.000000
   32       -5.503076   1.000000
   33       -5.501219   1.000000
   34       -5.499923   1.000000
   35       -5.497930   1.000000
   36       -5.473795   1.000000
   37       -5.467954   1.000000
   38       -5.464872   1.000000
   39       -5.458436   1.000000
   40       -5.456865   1.000000
   41       -5.455610   1.000000
   42       -5.453492   1.000000
   43       -5.453249   1.000000
   44       -5.427589   1.000000
   45       -5.420809   1.000000
   46       -5.419543   1.000000
   47       -5.415886   1.000000
   48       -5.413870   1.000000
   49       -5.413580   1.000000
   50       -5.412437   1.000000
   51       -5.409227   1.000000
   52       -5.392866   1.000000
   53       -5.391905   1.000000
   54       -5.386130   1.000000
   55       -5.376519   1.000000
   56       -5.324190   1.000000
   57       -5.322376   1.000000
   58       -5.314297   1.000000
   59       -5.313607   1.000000
   60       -5.307717   1.000000
   61       -5.302312   1.000000
   62       -5.301393   1.000000
   63       -5.294394   1.000000
   64       -5.288577   1.000000
   65       -5.286612   1.000000
   66       -5.277502   1.000000
   67       -5.265218   1.000000
   68       -5.207785   1.000000
   69       -5.204295   1.000000
   70       -5.195187   1.000000
   71       -5.193833   1.000000
   72       -5.169831   1.000000
   73       -5.166726   1.000000
   74       -5.166331   1.000000
   75       -5.163937   1.000000
   76       -5.163328   1.000000
   77       -5.157522   1.000000
   78       -5.149278   1.000000
   79       -5.144398   1.000000
   80       -5.134616   1.000000
   81       -5.118838   1.000000
   82       -5.117583   1.000000
   83       -5.110735   1.000000
   84       -5.108303   1.000000
   85       -5.093155   1.000000
   86       -5.090528   1.000000
   87       -5.088501   1.000000
   88       -5.050938   1.000000
   89       -5.046548   1.000000
   90       -5.045491   1.000000
   91       -5.043396   1.000000
   92       -5.040048   1.000000
   93       -5.039635   1.000000
   94       -5.036037   1.000000
   95       -5.033905   1.000000
   96       -5.023683   1.000000
   97       -5.023204   1.000000
   98       -5.014512   1.000000
   99       -5.009089   1.000000
  100       -5.003897   1.000000
  101       -4.994187   1.000000
  102       -4.993508   1.000000
  103       -4.990453   1.000000
  104       -4.983219   1.000000
  105       -4.981318   1.000000
  106       -4.978078   1.000000
  107       -4.976751   1.000000
  108       -4.969825   1.000000
  109       -4.966996   1.000000
  110       -4.964084   1.000000
  111       -4.956822   1.000000
  112       -4.953829   1.000000
  113       -4.951386   1.000000
  114       -4.945131   0.999999
  115       -4.941044   0.999999
  116       -4.938409   0.999999
  117       -4.931422   0.999999
  118       -4.919835   0.999999
  119       -4.907988   0.999998
  120       -4.900980   0.999998
  121       -4.899458   0.999997
  122       -4.897331   0.999997
  123       -4.891783   0.999997
  124       -4.890177   0.999996
  125       -4.889547   0.999996
  126       -4.885483   0.999996
  127       -4.839255   0.999982
  128       -4.837011   0.999981
  129       -4.835232   0.999980
  130       -4.833444   0.999979
  131       -4.829445   0.999976
  132       -4.825357   0.999973
  133       -4.818449   0.999968
  134       -4.816633   0.999966
  135       -4.815590   0.999965
  136       -4.802812   0.999950
  137       -4.787442   0.999923
  138       -4.784094   0.999916
  139       -4.777723   0.999901
  140       -4.768587   0.999874
  141       -4.766793   0.999868
  142       -4.752912   0.999814
  143       -4.725535   0.999644
  144       -4.724415   0.999635
  145       -4.723547   0.999628
  146       -4.722184   0.999616
  147       -4.715968   0.999559
  148       -4.696232   0.999330
  149       -4.687093   0.999194
  150       -4.682586   0.999120
  151       -4.677787   0.999034
  152       -4.669001   0.998862
  153       -4.666747   0.998814
  154       -4.665476   0.998786
  155       -4.660903   0.998683
  156       -4.659914   0.998660
  157       -4.658462   0.998625
  158       -4.657797   0.998609
  159       -4.655751   0.998559
  160       -4.646339   0.998312
  161       -4.637896   0.998068
  162       -4.636563   0.998027
  163       -4.634665   0.997969
  164       -4.633484   0.997932
  165       -4.631487   0.997869
  166       -4.631082   0.997856
  167       -4.629011   0.997789
  168       -4.627892   0.997752
  169       -4.615451   0.997324
  170       -4.613726   0.997262
  171       -4.598484   0.996698
  172       -4.590280   0.996390
  173       -4.586616   0.996253
  174       -4.583079   0.996124
  175       -4.581317   0.996060
  176       -4.579581   0.995998
  177       -4.579172   0.995984
  178       -4.574211   0.995813
  179       -4.569843   0.995670
  180       -4.564736   0.995516
  181       -4.560418   0.995398
  182       -4.547531   0.995138
  183       -4.542729   0.995086
  184       -4.541249   0.995077
  185       -4.537426   0.995065
  186       -4.537399   0.995065
  187       -4.536264   0.995066
  188       -4.535213   0.995068
  189       -4.532947   0.995080
  190       -4.531236   0.995094
  191       -4.504504   0.996122
  192       -4.496218   0.996825
  193       -4.490352   0.997457
  194       -4.489270   0.997587
  195       -4.489048   0.997614
  196       -4.478164   0.999169
  197       -4.471005   1.000447
  198       -4.465949   1.001480
  199       -4.464940   1.001699
  200       -4.456565   1.003695
  201       -4.453949   1.004383
  202       -4.451677   1.005006
  203       -4.445700   1.006757
  204       -4.441978   1.007930
  205       -4.439258   1.008828
  206       -4.435503   1.010120
  207       -4.434048   1.010638
  208       -4.432030   1.011371
  209       -4.430168   1.012063
  210       -4.425146   1.014001
  211       -4.424879   1.014107
  212       -4.400077   1.024991
  213       -4.397561   1.026182
  214       -4.394841   1.027479
  215       -4.391943   1.028869
  216       -4.387445   1.031035
  217       -4.386562   1.031460
  218       -4.384340   1.032528
  219       -4.383681   1.032845
  220       -4.373996   1.037421
  221       -4.369323   1.039546
  222       -4.356825   1.044744
  223       -4.336981   1.050490
  224       -4.328462   1.051523
  225       -4.327206   1.051583
  226       -4.324746   1.051624
  227       -4.322567   1.051575
  228       -4.321254   1.051505
  229       -4.320066   1.051414
  230       -4.318651   1.051271
  231       -4.317756   1.051161
  232       -4.316601   1.050995
  233       -4.313937   1.050512
  234       -4.308836   1.049167
  235       -4.306770   1.048457
  236       -4.306349   1.048300
  237       -4.305473   1.047961
  238       -4.302922   1.046868
  239       -4.302170   1.046515
  240       -4.297234   1.043844
  241       -4.291573   1.039983
  242       -4.286812   1.036034
  243       -4.275498   1.023878
  244       -4.274689   1.022850
  245       -4.274271   1.022311
  246       -4.271108   1.018043
  247       -4.268734   1.014615
  248       -4.267933   1.013414
  249       -4.267248   1.012369
  250       -4.263274   1.005983
  251       -4.248767   0.977778
  252       -4.244455   0.967868
  253       -4.242171   0.962329
  254       -4.240804   0.958920
  255       -4.236271   0.947089
  256       -4.235364   0.944627
  257       -4.233710   0.940054
  258       -4.233362   0.939079
  259       -4.228188   0.924020
  260       -4.228139   0.923872
  261       -4.224620   0.913033
  262       -4.223266   0.908733
  263       -4.220424   0.899487
  264       -4.220174   0.898657
  265       -4.218608   0.893416
  266       -4.208732   0.858257
  267       -4.206680   0.850507
  268       -4.203639   0.838746
  269       -4.202088   0.832622
  270       -4.200922   0.827967
  271       -4.199121   0.820684
  272       -4.190704   0.785245
  273       -4.179458   0.734563
  274       -4.176219   0.719334
  275       -4.170235   0.690533
  276       -4.166405   0.671692
  277       -4.163706   0.658238
  278       -4.161140   0.645330
  279       -4.154625   0.612079
  280       -4.153879   0.608235
  281       -4.152992   0.603653
  282       -4.139829   0.534786
  283       -4.119305   0.426538
  284       -4.113304   0.395330
  285       -4.112508   0.391222
  286       -4.109865   0.377634
  287       -4.100695   0.331326
  288       -4.094166   0.299307
  289       -4.058461   0.144374
  290       -3.956885  -0.049407
  291       -3.885856  -0.034300
  292       -3.807410  -0.003062
  293       -3.801982  -0.001794
  294       -3.784392   0.001446
  295       -3.484376   0.000089
  296       -3.474784   0.000068
  297       -3.395718   0.000007
  298       -3.041440   0.000000
  299       -3.039842   0.000000
  300       -3.021690   0.000000
  301       -3.005951   0.000000
  302       -3.003563   0.000000
  303       -2.991016   0.000000
  304       -2.918496   0.000000
  305       -2.868333   0.000000
  306       -2.566511   0.000000
  307       -2.521780   0.000000
  308       -2.503969   0.000000
  309       -2.267790   0.000000
  310       -2.133726   0.000000
  311       -2.105087   0.000000
  312       -2.101920   0.000000
  313       -2.029128   0.000000
  314       -1.959324   0.000000
  315       -1.927922   0.000000
  316       -1.854074   0.000000
  317       -1.838215   0.000000
  318       -1.731857   0.000000
  319       -1.699791   0.000000
  320       -1.677030   0.000000
  321       -1.627750   0.000000
  322       -1.550738   0.000000
  323       -1.539951   0.000000
  324       -1.440899   0.000000
  325       -1.403185   0.000000
  326       -1.144133   0.000000
  327       -1.117505   0.000000
  328       -1.036954   0.000000
  329       -0.972601   0.000000
  330       -0.967230   0.000000
  331       -0.958192   0.000000
  332       -0.926944   0.000000
  333       -0.906858   0.000000
  334       -0.886035   0.000000
  335       -0.803256   0.000000
  336       -0.626205   0.000000
