       N       E                     dE             d eps       ncg     rms          rms(c)
DAV:   1     0.439066117601E+04    0.43907E+04   -0.10050E+05   688   0.815E+02
DAV:   2     0.202991604740E+04   -0.23607E+04   -0.21212E+04  1208   0.105E+02
DAV:   3     0.236655335389E+03   -0.17933E+04   -0.16838E+04  1008   0.921E+01
DAV:   4    -0.133633851138E+03   -0.37029E+03   -0.31257E+03   824   0.438E+01
DAV:   5    -0.180116958211E+03   -0.46483E+02   -0.38317E+02  1056   0.147E+01    0.158E+01
RMM:   6    -0.180518485505E+03   -0.40153E+00   -0.61510E+01   723   0.921E+00    0.222E+01
RMM:   7    -0.182426749167E+03   -0.19083E+01   -0.18708E+01   835   0.458E+00    0.219E+01
RMM:   8    -0.184728102547E+03   -0.23014E+01   -0.71880E+00   789   0.346E+00    0.286E+01
RMM:   9    -0.182722200928E+03    0.20059E+01   -0.51076E+00   744   0.312E+00    0.258E+01
RMM:  10    -0.181081389091E+03    0.16408E+01   -0.33026E+00   743   0.255E+00    0.252E+01
RMM:  11    -0.179038538511E+03    0.20429E+01   -0.23257E+00   731   0.217E+00    0.176E+01
RMM:  12    -0.178066485602E+03    0.97205E+00   -0.24456E+00   725   0.231E+00    0.170E+01
RMM:  13    -0.177476925948E+03    0.58956E+00   -0.15271E+00   723   0.183E+00    0.156E+01
RMM:  14    -0.177714331220E+03   -0.23741E+00   -0.16163E+00   712   0.190E+00    0.264E+01
RMM:  15    -0.176503329008E+03    0.12110E+01   -0.12812E+00   706   0.165E+00    0.122E+01
RMM:  16    -0.176140207481E+03    0.36312E+00   -0.99207E-01   699   0.148E+00    0.111E+01
RMM:  17    -0.176317520554E+03   -0.17731E+00   -0.69467E-01   703   0.126E+00    0.155E+01
RMM:  18    -0.175928466302E+03    0.38905E+00   -0.35814E-01   711   0.898E-01    0.958E+00
RMM:  19    -0.175801216399E+03    0.12725E+00   -0.47127E-01   703   0.103E+00    0.866E+00
RMM:  20    -0.175637486360E+03    0.16373E+00   -0.28205E-01   700   0.809E-01    0.740E+00
RMM:  21    -0.175569511996E+03    0.67974E-01   -0.22780E-01   697   0.738E-01    0.792E+00
RMM:  22    -0.175422252019E+03    0.14726E+00   -0.17777E-01   696   0.660E-01    0.599E+00
RMM:  23    -0.175338327292E+03    0.83925E-01   -0.13682E-01   696   0.578E-01    0.533E+00
RMM:  24    -0.175269966538E+03    0.68361E-01   -0.10290E-01   696   0.504E-01    0.425E+00
RMM:  25    -0.175213809452E+03    0.56157E-01   -0.64679E-02   695   0.398E-01    0.310E+00
RMM:  26    -0.175191088217E+03    0.22721E-01   -0.38200E-02   698   0.311E-01    0.283E+00
RMM:  27    -0.175173808428E+03    0.17280E-01   -0.25970E-02   695   0.259E-01    0.223E+00
RMM:  28    -0.175157327997E+03    0.16480E-01   -0.22332E-02   695   0.235E-01    0.184E+00
RMM:  29    -0.175156314803E+03    0.10132E-02   -0.19430E-02   694   0.218E-01    0.191E+00
RMM:  30    -0.175141633806E+03    0.14681E-01   -0.11887E-02   694   0.183E-01    0.129E+00
RMM:  31    -0.175136245796E+03    0.53880E-02   -0.65903E-03   694   0.139E-01    0.109E+00
RMM:  32    -0.175134968652E+03    0.12771E-02   -0.61031E-03   693   0.120E-01    0.114E+00
RMM:  33    -0.175131707154E+03    0.32615E-02   -0.34451E-03   692   0.994E-02    0.875E-01
RMM:  34    -0.175132606424E+03   -0.89927E-03   -0.31933E-03   689   0.892E-02    0.883E-01
RMM:  35    -0.175131244638E+03    0.13618E-02   -0.25293E-03   688   0.826E-02    0.564E-01
RMM:  36    -0.175133359246E+03   -0.21146E-02   -0.22411E-03   689   0.775E-02    0.663E-01
RMM:  37    -0.175133793866E+03   -0.43462E-03   -0.15018E-03   682   0.634E-02    0.286E-01
RMM:  38    -0.175134630238E+03   -0.83637E-03   -0.56614E-04   609   0.403E-02    0.272E-01
RMM:  39    -0.175137311838E+03   -0.26816E-02   -0.61060E-04   617   0.387E-02    0.266E-01
RMM:  40    -0.175139043395E+03   -0.17316E-02   -0.38443E-04   490   0.315E-02    0.223E-01
RMM:  41    -0.175140965718E+03   -0.19223E-02   -0.30369E-04   432   0.277E-02    0.218E-01
RMM:  42    -0.175144393745E+03   -0.34280E-02   -0.51688E-04   550   0.323E-02    0.173E-01
RMM:  43    -0.175146160435E+03   -0.17667E-02   -0.28300E-04   430   0.245E-02    0.180E-01
RMM:  44    -0.175148926314E+03   -0.27659E-02   -0.42518E-04   497   0.258E-02    0.131E-01
RMM:  45    -0.175150131153E+03   -0.12048E-02   -0.21315E-04   429   0.196E-02    0.106E-01
RMM:  46    -0.175152349042E+03   -0.22179E-02   -0.31984E-04   444   0.209E-02    0.146E-01
RMM:  47    -0.175153216806E+03   -0.86776E-03   -0.17304E-04   418   0.169E-02    0.754E-02
RMM:  48    -0.175153893676E+03   -0.67687E-03   -0.95189E-05   415   0.123E-02    0.645E-02
RMM:  49    -0.175154957647E+03   -0.10640E-02   -0.89314E-05   409   0.110E-02    0.479E-02
RMM:  50    -0.175155370737E+03   -0.41309E-03   -0.47345E-05   397   0.804E-03    0.450E-02
RMM:  51    -0.175156115267E+03   -0.74453E-03   -0.39728E-05   406   0.721E-03    0.321E-02
RMM:  52    -0.175156438392E+03   -0.32312E-03   -0.18316E-05   304   0.526E-03    0.229E-02
RMM:  53    -0.175157082658E+03   -0.64427E-03   -0.19143E-05   335   0.534E-03    0.240E-02
RMM:  54    -0.175157568055E+03   -0.48540E-03   -0.13611E-05   278   0.482E-03    0.165E-02
RMM:  55    -0.175157901600E+03   -0.33355E-03   -0.90736E-06   223   0.439E-03    0.178E-02
RMM:  56    -0.175158069883E+03   -0.16828E-03   -0.25082E-06   130   0.367E-03    0.125E-02
RMM:  57    -0.175158314681E+03   -0.24480E-03   -0.12179E-05   222   0.427E-03    0.955E-03
RMM:  58    -0.175158463201E+03   -0.14852E-03   -0.29085E-06   128   0.362E-03    0.649E-03
RMM:  59    -0.175158606038E+03   -0.14284E-03   -0.80546E-06   171   0.403E-03    0.974E-03
RMM:  60    -0.175158756839E+03   -0.15080E-03   -0.11312E-05   197   0.405E-03    0.514E-03
RMM:  61    -0.175158805671E+03   -0.48832E-04   -0.40979E-06   126   0.332E-03
   1 F= -.17515881E+03 E0= -.17514847E+03  d E =-.413304E-01
