  57  57   0   0
  0.4736842E+03  0.3000000E-08  0.3000000E-08  0.3000000E-08  0.5000000E-15
  1.000000000000000E-004
  CAR 
 6_Pd100_top_free_z(O)                   
      1.36348100    -31.01158448  301     -4.14427757      1.00000000
    -31.012  0.0000E+00  0.0000E+00
    -30.904  0.0000E+00  0.0000E+00
    -30.796  0.0000E+00  0.0000E+00
    -30.688  0.4549E-27  0.4909E-28
    -30.580  0.2342E-23  0.2527E-24
    -30.472  0.6626E-20  0.7153E-21
    -30.364  0.1028E-16  0.1110E-17
    -30.256  0.8705E-14  0.9405E-15
    -30.148  0.4013E-11  0.4340E-12
    -30.040  0.9967E-09  0.1080E-09
    -29.932  0.1322E-06  0.1437E-07
    -29.824  0.9199E-05  0.1007E-05
    -29.717  0.3266E-03  0.3625E-04
    -29.609  0.5577E-02  0.6381E-03
    -29.501  0.3916E-01  0.4864E-02
    -29.393  0.3759E-01  0.8921E-02
    -29.285 -0.4898E+00 -0.4394E-01
    -29.177 -0.4209E+00 -0.8936E-01
    -29.069  0.4805E+01  0.4292E+00
    -28.961  0.9996E+01  0.1508E+01
    -28.853  0.5301E+01  0.2080E+01
    -28.745 -0.2730E+00  0.2051E+01
    -28.637 -0.5437E+00  0.1992E+01
    -28.529  0.2587E-01  0.1995E+01
    -28.422  0.4272E-01  0.1999E+01
    -28.314  0.6531E-02  0.2000E+01
    -28.206  0.4027E-03  0.2000E+01
    -28.098  0.1187E-04  0.2000E+01
    -27.990  0.1781E-06  0.2000E+01
    -27.882  0.1400E-08  0.2000E+01
    -27.774  0.5872E-11  0.2000E+01
    -27.666  0.1235E-13  0.2000E+01
    -27.558  0.0000E+00  0.2000E+01
    -27.450  0.0000E+00  0.2000E+01
    -27.342  0.0000E+00  0.2000E+01
    -27.234  0.0000E+00  0.2000E+01
    -27.127  0.0000E+00  0.2000E+01
    -27.019  0.0000E+00  0.2000E+01
    -26.911  0.0000E+00  0.2000E+01
    -26.803  0.0000E+00  0.2000E+01
    -26.695  0.0000E+00  0.2000E+01
    -26.587  0.0000E+00  0.2000E+01
    -26.479  0.0000E+00  0.2000E+01
    -26.371  0.0000E+00  0.2000E+01
    -26.263  0.0000E+00  0.2000E+01
    -26.155  0.0000E+00  0.2000E+01
    -26.047  0.0000E+00  0.2000E+01
    -25.939  0.0000E+00  0.2000E+01
    -25.832  0.0000E+00  0.2000E+01
    -25.724  0.0000E+00  0.2000E+01
    -25.616  0.0000E+00  0.2000E+01
    -25.508  0.0000E+00  0.2000E+01
    -25.400  0.0000E+00  0.2000E+01
    -25.292  0.0000E+00  0.2000E+01
    -25.184  0.0000E+00  0.2000E+01
    -25.076  0.0000E+00  0.2000E+01
    -24.968  0.0000E+00  0.2000E+01
    -24.860  0.0000E+00  0.2000E+01
    -24.752  0.0000E+00  0.2000E+01
    -24.644  0.0000E+00  0.2000E+01
    -24.537  0.0000E+00  0.2000E+01
    -24.429  0.0000E+00  0.2000E+01
    -24.321  0.0000E+00  0.2000E+01
    -24.213  0.0000E+00  0.2000E+01
    -24.105  0.0000E+00  0.2000E+01
    -23.997  0.0000E+00  0.2000E+01
    -23.889  0.0000E+00  0.2000E+01
    -23.781  0.0000E+00  0.2000E+01
    -23.673  0.0000E+00  0.2000E+01
    -23.565  0.0000E+00  0.2000E+01
    -23.457  0.0000E+00  0.2000E+01
    -23.349  0.0000E+00  0.2000E+01
    -23.242  0.0000E+00  0.2000E+01
    -23.134  0.0000E+00  0.2000E+01
    -23.026  0.0000E+00  0.2000E+01
    -22.918  0.0000E+00  0.2000E+01
    -22.810  0.0000E+00  0.2000E+01
    -22.702  0.0000E+00  0.2000E+01
    -22.594  0.0000E+00  0.2000E+01
    -22.486  0.0000E+00  0.2000E+01
    -22.378  0.0000E+00  0.2000E+01
    -22.270  0.0000E+00  0.2000E+01
    -22.162  0.0000E+00  0.2000E+01
    -22.054  0.0000E+00  0.2000E+01
    -21.947  0.0000E+00  0.2000E+01
    -21.839  0.0000E+00  0.2000E+01
    -21.731  0.0000E+00  0.2000E+01
    -21.623  0.0000E+00  0.2000E+01
    -21.515  0.0000E+00  0.2000E+01
    -21.407  0.0000E+00  0.2000E+01
    -21.299  0.0000E+00  0.2000E+01
    -21.191  0.0000E+00  0.2000E+01
    -21.083  0.0000E+00  0.2000E+01
    -20.975  0.0000E+00  0.2000E+01
    -20.867  0.0000E+00  0.2000E+01
    -20.759  0.0000E+00  0.2000E+01
    -20.652  0.0000E+00  0.2000E+01
    -20.544  0.0000E+00  0.2000E+01
    -20.436  0.0000E+00  0.2000E+01
    -20.328  0.0000E+00  0.2000E+01
    -20.220  0.0000E+00  0.2000E+01
    -20.112  0.0000E+00  0.2000E+01
    -20.004  0.0000E+00  0.2000E+01
    -19.896  0.0000E+00  0.2000E+01
    -19.788  0.0000E+00  0.2000E+01
    -19.680  0.0000E+00  0.2000E+01
    -19.572  0.0000E+00  0.2000E+01
    -19.464  0.0000E+00  0.2000E+01
    -19.357  0.0000E+00  0.2000E+01
    -19.249  0.0000E+00  0.2000E+01
    -19.141  0.0000E+00  0.2000E+01
    -19.033  0.0000E+00  0.2000E+01
    -18.925  0.0000E+00  0.2000E+01
    -18.817  0.0000E+00  0.2000E+01
    -18.709  0.0000E+00  0.2000E+01
    -18.601  0.0000E+00  0.2000E+01
    -18.493  0.0000E+00  0.2000E+01
    -18.385  0.0000E+00  0.2000E+01
    -18.277  0.0000E+00  0.2000E+01
    -18.169  0.0000E+00  0.2000E+01
    -18.062  0.0000E+00  0.2000E+01
    -17.954  0.0000E+00  0.2000E+01
    -17.846  0.0000E+00  0.2000E+01
    -17.738  0.0000E+00  0.2000E+01
    -17.630  0.0000E+00  0.2000E+01
    -17.522  0.0000E+00  0.2000E+01
    -17.414  0.0000E+00  0.2000E+01
    -17.306  0.0000E+00  0.2000E+01
    -17.198  0.0000E+00  0.2000E+01
    -17.090  0.0000E+00  0.2000E+01
    -16.982  0.0000E+00  0.2000E+01
    -16.874  0.0000E+00  0.2000E+01
    -16.767  0.0000E+00  0.2000E+01
    -16.659  0.0000E+00  0.2000E+01
    -16.551  0.0000E+00  0.2000E+01
    -16.443  0.0000E+00  0.2000E+01
    -16.335  0.0000E+00  0.2000E+01
    -16.227  0.0000E+00  0.2000E+01
    -16.119  0.0000E+00  0.2000E+01
    -16.011  0.0000E+00  0.2000E+01
    -15.903  0.0000E+00  0.2000E+01
    -15.795  0.0000E+00  0.2000E+01
    -15.687  0.0000E+00  0.2000E+01
    -15.579  0.0000E+00  0.2000E+01
    -15.472  0.0000E+00  0.2000E+01
    -15.364  0.0000E+00  0.2000E+01
    -15.256  0.5797E-26  0.2000E+01
    -15.148  0.2508E-22  0.2000E+01
    -15.040  0.5962E-19  0.2000E+01
    -14.932  0.7760E-16  0.2000E+01
    -14.824  0.5508E-13  0.2000E+01
    -14.716  0.2125E-10  0.2000E+01
    -14.608  0.4403E-08  0.2000E+01
    -14.500  0.4851E-06  0.2000E+01
    -14.392  0.2787E-04  0.2000E+01
    -14.284  0.8065E-03  0.2000E+01
    -14.177  0.1090E-01  0.2001E+01
    -14.069  0.5464E-01  0.2007E+01
    -13.961 -0.3678E-01  0.2003E+01
    -13.853 -0.7126E+00  0.1926E+01
    -13.745  0.4523E+00  0.1975E+01
    -13.637  0.6969E+01  0.2727E+01
    -13.529  0.9591E+01  0.3762E+01
    -13.421  0.3160E+01  0.4103E+01
    -13.313 -0.7373E+00  0.4024E+01
    -13.205 -0.3102E+00  0.3990E+01
    -13.097  0.6033E-01  0.3997E+01
    -12.989  0.2778E-01  0.4000E+01
    -12.882  0.3155E-02  0.4000E+01
    -12.774  0.1555E-03  0.4000E+01
    -12.666  0.3750E-05  0.4000E+01
    -12.558  0.4651E-07  0.4000E+01
    -12.450  0.3345E-09  0.4000E+01
    -12.342  0.6518E-08  0.4000E+01
    -12.234  0.7459E-06  0.4000E+01
    -12.126  0.4459E-04  0.4000E+01
    -12.018  0.1346E-02  0.4000E+01
    -11.910  0.1912E-01  0.4002E+01
    -11.802  0.1032E+00  0.4013E+01
    -11.694 -0.3289E-01  0.4010E+01
    -11.587 -0.1344E+01  0.3865E+01
    -11.479  0.4510E+00  0.3913E+01
    -11.371  0.1307E+02  0.5324E+01
    -11.263  0.1952E+02  0.7430E+01
    -11.155  0.7167E+01  0.8204E+01
    -11.047 -0.1359E+01  0.8057E+01
    -10.939 -0.7122E+00  0.7980E+01
    -10.831  0.1136E+00  0.7993E+01
    -10.723  0.6919E-01  0.8000E+01
    -10.615  0.5459E-01  0.8006E+01
    -10.507  0.7600E-02  0.8007E+01
    -10.399 -0.6097E+00  0.7941E+01
    -10.292 -0.4777E-01  0.7936E+01
    -10.184  0.5923E+01  0.8575E+01
    -10.076  0.9919E+01  0.9645E+01
     -9.968  0.4189E+01  0.1010E+02
     -9.860 -0.5693E+00  0.1004E+02
     -9.752 -0.4223E+00  0.9990E+01
     -9.644  0.4879E-01  0.9996E+01
     -9.536  0.3481E-01  0.9999E+01
     -9.428  0.4551E-02  0.1000E+02
     -9.320  0.2500E-03  0.1000E+02
     -9.212  0.6652E-05  0.1000E+02
     -9.104  0.9054E-07  0.1000E+02
     -8.997  0.6482E-09  0.1000E+02
     -8.889  0.2479E-11  0.1000E+02
     -8.781  0.4115E-14  0.1000E+02
     -8.673  0.0000E+00  0.1000E+02
     -8.565  0.0000E+00  0.1000E+02
     -8.457  0.0000E+00  0.1000E+02
     -8.349  0.3468E-28  0.1000E+02
     -8.241  0.2120E-24  0.1000E+02
     -8.133  0.7132E-21  0.1000E+02
     -8.025  0.1316E-17  0.1000E+02
     -7.917  0.1328E-14  0.1000E+02
     -7.809  0.7297E-12  0.1000E+02
     -7.702  0.2168E-09  0.1000E+02
     -7.594  0.3449E-07  0.1000E+02
     -7.486  0.2897E-05  0.1000E+02
     -7.378  0.1254E-03  0.1000E+02
     -7.270  0.2669E-02  0.1000E+02
     -7.162  0.2495E-01  0.1000E+02
     -7.054  0.6281E-01  0.1001E+02
     -6.946 -0.2641E+00  0.9981E+01
     -6.838 -0.7790E+00  0.9897E+01
     -6.730  0.2743E+01  0.1019E+02
     -6.622  0.9473E+01  0.1122E+02
     -6.514  0.7559E+01  0.1203E+02
     -6.407 -0.4964E+00  0.1198E+02
     -6.299 -0.2320E+01  0.1173E+02
     -6.191  0.1263E+02  0.1309E+02
     -6.083  0.2858E+02  0.1617E+02
     -5.975  0.1561E+02  0.1786E+02
     -5.867  0.1279E+02  0.1924E+02
     -5.759  0.4808E+02  0.2443E+02
     -5.651  0.1056E+03  0.3583E+02
     -5.543  0.2090E+03  0.5838E+02
     -5.435  0.3011E+03  0.9088E+02
     -5.327  0.2698E+03  0.1200E+03
     -5.219  0.2038E+03  0.1420E+03
     -5.112  0.2459E+03  0.1685E+03
     -5.004  0.3466E+03  0.2059E+03
     -4.896  0.3536E+03  0.2441E+03
     -4.788  0.2884E+03  0.2752E+03
     -4.680  0.3272E+03  0.3105E+03
     -4.572  0.4212E+03  0.3560E+03
     -4.464  0.4249E+03  0.4018E+03
     -4.356  0.4597E+03  0.4514E+03
     -4.248  0.5589E+03  0.5117E+03
     -4.140  0.4592E+03  0.5613E+03
     -4.032  0.1715E+03  0.5798E+03
     -3.924  0.1301E+02  0.5812E+03
     -3.817  0.2321E+02  0.5837E+03
     -3.709  0.3157E+02  0.5871E+03
     -3.601  0.1084E+02  0.5883E+03
     -3.493  0.1783E+02  0.5902E+03
     -3.385  0.2672E+02  0.5931E+03
     -3.277  0.7247E+01  0.5939E+03
     -3.169 -0.8680E+00  0.5938E+03
     -3.061  0.3378E+02  0.5974E+03
     -2.953  0.6689E+02  0.6047E+03
     -2.845  0.4553E+02  0.6096E+03
     -2.737  0.5814E+01  0.6102E+03
     -2.629 -0.1469E+01  0.6100E+03
     -2.522  0.2033E+02  0.6122E+03
     -2.414  0.3093E+02  0.6156E+03
     -2.306  0.1597E+02  0.6173E+03
     -2.198  0.8745E+01  0.6182E+03
     -2.090  0.2762E+02  0.6212E+03
     -1.982  0.4482E+02  0.6261E+03
     -1.874  0.3946E+02  0.6303E+03
     -1.766  0.3375E+02  0.6340E+03
     -1.658  0.4380E+02  0.6387E+03
     -1.550  0.4665E+02  0.6437E+03
     -1.442  0.3005E+02  0.6470E+03
     -1.334  0.1905E+02  0.6490E+03
     -1.227  0.2141E+02  0.6513E+03
     -1.119  0.2428E+02  0.6539E+03
     -1.011  0.3934E+02  0.6582E+03
     -0.903  0.6084E+02  0.6648E+03
     -0.795  0.4339E+02  0.6694E+03
     -0.687  0.1324E+02  0.6709E+03
     -0.579  0.6903E+01  0.6716E+03
     -0.471  0.4014E+01  0.6720E+03
     -0.363 -0.1609E+00  0.6720E+03
     -0.255 -0.3805E+00  0.6720E+03
     -0.147  0.5187E-01  0.6720E+03
     -0.039  0.4002E-01  0.6720E+03
      0.068  0.5604E-02  0.6720E+03
      0.176  0.3270E-03  0.6720E+03
      0.284  0.9203E-05  0.6720E+03
      0.392  0.1322E-06  0.6720E+03
      0.500  0.9968E-09  0.6720E+03
      0.608  0.4014E-11  0.6720E+03
      0.716  0.8230E-14  0.6720E+03
      0.824  0.0000E+00  0.6720E+03
      0.932  0.0000E+00  0.6720E+03
      1.040  0.0000E+00  0.6720E+03
      1.148  0.0000E+00  0.6720E+03
      1.256  0.0000E+00  0.6720E+03
      1.363  0.0000E+00  0.6720E+03
