 vasp.5.4.4.18Apr17-6-g9f103f2a35 (build Sep 03 2018 23:53:05) complex          
  
 executed on             LinuxIFC date 2021.11.26  08:27:09
 running on    1 total cores
 distrk:  each k-point on    1 cores,    1 groups
 distr:  one band on NCORES_PER_BAND=   1 cores,    1 groups


--------------------------------------------------------------------------------------------------------


 INCAR:
 POTCAR:    PAW_PBE Pd 04Jan2005                  
 POTCAR:    PAW_PBE C 08Apr2002                   
 POTCAR:    PAW_PBE O 08Apr2002                   
 POTCAR:    PAW_PBE Pd 04Jan2005                  
   VRHFIN =Pd : s1 d9                                                           
   LEXCH  = PE                                                                  
   EATOM  =   809.7530 eV,   59.5152 Ry                                         
                                                                                
   TITEL  = PAW_PBE Pd 04Jan2005                                                
   LULTRA =        F    use ultrasoft PP ?                                      
   IUNSCR =        1    unscreen: 0-lin 1-nonlin 2-no                           
   RPACOR =    2.000    partial core radius                                     
   POMASS =  106.420; ZVAL   =   10.000    mass and valenz                      
   RCORE  =    2.600    outmost cutoff radius                                   
   RWIGS  =    2.710; RWIGS  =    1.434    wigner-seitz radius (au A)           
   ENMAX  =  250.925; ENMIN  =  188.194 eV                                      
   ICORE  =        3    local potential                                         
   LCOR   =        T    correct aug charges                                     
   LPAW   =        T    paw PP                                                  
   EAUG   =  416.230                                                            
   DEXC   =    0.000                                                            
   RMAX   =    2.653    core radius for proj-oper                               
   RAUG   =    1.300    factor for augmentation sphere                          
   RDEP   =    2.734    radius for radial grids                                 
   RDEPT  =    2.103    core radius for aug-charge                              
                                                                                
   Atomic configuration                                                         
   12 entries                                                                   
     n  l   j            E        occ.                                          
     1  0  0.50    -24164.6631   2.0000                                         
     2  0  0.50     -3530.9218   2.0000                                         
     2  1  1.50     -3165.6822   6.0000                                         
     3  0  0.50      -639.4577   2.0000                                         
     3  1  1.50      -519.4532   6.0000                                         
     3  2  2.50      -328.9757  10.0000                                         
     4  0  0.50       -88.7014   2.0000                                         
     4  1  1.50       -54.4540   6.0000                                         
     4  2  2.50        -6.6878   9.0000                                         
     5  0  0.50        -4.3543   1.0000                                         
     5  1  0.50        -1.3606   0.0000                                         
     4  3  2.50        -1.3606   0.0000                                         
   Description                                                                  
     l       E           TYP  RCUT    TYP  RCUT                                 
     2     -6.6878251     23  2.400                                             
     2     -8.0484077     23  2.400                                             
     0     -4.3542939     23  2.400                                             
     0      4.3406793     23  2.400                                             
     1     -4.0817478     23  2.600                                             
     1     15.8380318     23  2.600                                             
     3     -4.0817478     23  2.400                                             
  local pseudopotential read in
  partial core-charges read in
  partial kinetic energy density read in
  atomic valenz-charges read in
  non local Contribution for L=           2  read in
    real space projection operators read in
  non local Contribution for L=           2  read in
    real space projection operators read in
  non local Contribution for L=           0  read in
    real space projection operators read in
  non local Contribution for L=           0  read in
    real space projection operators read in
  non local Contribution for L=           1  read in
    real space projection operators read in
  non local Contribution for L=           1  read in
    real space projection operators read in
    PAW grid and wavefunctions read in
 
   number of l-projection  operators is LMAX  =           6
   number of lm-projection operators is LMMAX =          18
 
 POTCAR:    PAW_PBE C 08Apr2002                   
   VRHFIN =C: s2p2                                                              
   LEXCH  = PE                                                                  
   EATOM  =   147.1560 eV,   10.8157 Ry                                         
                                                                                
   TITEL  = PAW_PBE C 08Apr2002                                                 
   LULTRA =        F    use ultrasoft PP ?                                      
   IUNSCR =        1    unscreen: 0-lin 1-nonlin 2-no                           
   RPACOR =    1.200    partial core radius                                     
   POMASS =   12.011; ZVAL   =    4.000    mass and valenz                      
   RCORE  =    1.500    outmost cutoff radius                                   
   RWIGS  =    1.630; RWIGS  =    0.863    wigner-seitz radius (au A)           
   ENMAX  =  400.000; ENMIN  =  300.000 eV                                      
   ICORE  =        2    local potential                                         
   LCOR   =        T    correct aug charges                                     
   LPAW   =        T    paw PP                                                  
   EAUG   =  644.873                                                            
   DEXC   =    0.000                                                            
   RMAX   =    1.529    core radius for proj-oper                               
   RAUG   =    1.300    factor for augmentation sphere                          
   RDEP   =    1.501    radius for radial grids                                 
   RDEPT  =    1.300    core radius for aug-charge                              
                                                                                
   Atomic configuration                                                         
    4 entries                                                                   
     n  l   j            E        occ.                                          
     1  0  0.50      -273.3789   2.0000                                         
     2  0  0.50       -13.7508   2.0000                                         
     2  1  0.50        -5.2854   2.0000                                         
     3  2  1.50        -5.4423   0.0000                                         
   Description                                                                  
     l       E           TYP  RCUT    TYP  RCUT                                 
     0    -13.7508458     23  1.200                                             
     0     -8.2022199     23  1.200                                             
     1     -5.2854383     23  1.500                                             
     1     34.0145650     23  1.500                                             
     2     -5.4423304      7  1.500                                             
  local pseudopotential read in
  partial core-charges read in
  partial kinetic energy density read in
  atomic valenz-charges read in
  non local Contribution for L=           0  read in
    real space projection operators read in
  non local Contribution for L=           0  read in
    real space projection operators read in
  non local Contribution for L=           1  read in
    real space projection operators read in
  non local Contribution for L=           1  read in
    real space projection operators read in
    PAW grid and wavefunctions read in
 
   number of l-projection  operators is LMAX  =           4
   number of lm-projection operators is LMMAX =           8
 
 POTCAR:    PAW_PBE O 08Apr2002                   
   VRHFIN =O: s2p4                                                              
   LEXCH  = PE                                                                  
   EATOM  =   432.3788 eV,   31.7789 Ry                                         
                                                                                
   TITEL  = PAW_PBE O 08Apr2002                                                 
   LULTRA =        F    use ultrasoft PP ?                                      
   IUNSCR =        1    unscreen: 0-lin 1-nonlin 2-no                           
   RPACOR =    1.200    partial core radius                                     
   POMASS =   16.000; ZVAL   =    6.000    mass and valenz                      
   RCORE  =    1.520    outmost cutoff radius                                   
   RWIGS  =    1.550; RWIGS  =    0.820    wigner-seitz radius (au A)           
   ENMAX  =  400.000; ENMIN  =  300.000 eV                                      
   ICORE  =        2    local potential                                         
   LCOR   =        T    correct aug charges                                     
   LPAW   =        T    paw PP                                                  
   EAUG   =  605.392                                                            
   DEXC   =    0.000                                                            
   RMAX   =    1.553    core radius for proj-oper                               
   RAUG   =    1.300    factor for augmentation sphere                          
   RDEP   =    1.550    radius for radial grids                                 
   RDEPT  =    1.329    core radius for aug-charge                              
                                                                                
   Atomic configuration                                                         
    4 entries                                                                   
     n  l   j            E        occ.                                          
     1  0  0.50      -514.6923   2.0000                                         
     2  0  0.50       -23.9615   2.0000                                         
     2  1  0.50        -9.0305   4.0000                                         
     3  2  1.50        -9.5241   0.0000                                         
   Description                                                                  
     l       E           TYP  RCUT    TYP  RCUT                                 
     0    -23.9615318     23  1.200                                             
     0     -9.5240782     23  1.200                                             
     1     -9.0304911     23  1.520                                             
     1      8.1634956     23  1.520                                             
     2     -9.5240782      7  1.500                                             
  local pseudopotential read in
  partial core-charges read in
  partial kinetic energy density read in
  kinetic energy density of atom read in
  atomic valenz-charges read in
  non local Contribution for L=           0  read in
    real space projection operators read in
  non local Contribution for L=           0  read in
    real space projection operators read in
  non local Contribution for L=           1  read in
    real space projection operators read in
  non local Contribution for L=           1  read in
    real space projection operators read in
    PAW grid and wavefunctions read in
 
   number of l-projection  operators is LMAX  =           4
   number of lm-projection operators is LMMAX =           8
 
 Optimization of the real space projectors (new method)

 maximal supplied QI-value         = 14.36
 optimisation between [QCUT,QGAM] = [ 10.20, 20.39] = [ 29.12,116.47] Ry 
 Optimized for a Real-space Cutoff    1.51 Angstroem

   l    n(q)    QCUT    max X(q) W(low)/X(q) W(high)/X(q)  e(spline) 
   2      8    10.197    59.108    0.26E-03    0.14E-03    0.96E-07
   2      8    10.197    58.101    0.27E-03    0.14E-03    0.98E-07
   0      9    10.197   102.235    0.54E-04    0.60E-05    0.72E-07
   0      9    10.197    58.388    0.52E-04    0.60E-05    0.68E-07
   1      9    10.197    22.191    0.18E-03    0.25E-03    0.79E-07
   1      9    10.197    15.590    0.15E-03    0.21E-03    0.69E-07
 Optimization of the real space projectors (new method)

 maximal supplied QI-value         = 25.13
 optimisation between [QCUT,QGAM] = [ 10.05, 20.36] = [ 28.30,116.06] Ry 
 Optimized for a Real-space Cutoff    1.30 Angstroem

   l    n(q)    QCUT    max X(q) W(low)/X(q) W(high)/X(q)  e(spline) 
   0      8    10.053   115.676    0.49E-03    0.72E-03    0.18E-06
   0      8    10.053    87.132    0.49E-03    0.71E-03    0.18E-06
   1      7    10.053     4.429    0.32E-03    0.31E-03    0.18E-06
   1      7    10.053     2.733    0.23E-03    0.19E-03    0.20E-06
 Optimization of the real space projectors (new method)

 maximal supplied QI-value         = 24.76
 optimisation between [QCUT,QGAM] = [ 10.15, 20.30] = [ 28.85,115.39] Ry 
 Optimized for a Real-space Cutoff    1.38 Angstroem

   l    n(q)    QCUT    max X(q) W(low)/X(q) W(high)/X(q)  e(spline) 
   0      8    10.150    20.381    0.22E-03    0.32E-03    0.29E-06
   0      8    10.150    15.268    0.23E-03    0.35E-03    0.30E-06
   1      8    10.150     5.964    0.46E-03    0.53E-03    0.21E-06
   1      8    10.150     5.382    0.38E-03    0.45E-03    0.19E-06

 ----------------------------------------------------------------------------- 
|                                                                             |
|  ADVICE TO THIS USER RUNNING 'VASP/VAMP'   (HEAR YOUR MASTER'S VOICE ...):  |
|                                                                             |
|      You enforced a specific xc-type in the INCAR file,                     |
|      a different type was found on the POTCAR file                          |
|          I HOPE YOU KNOW, WHAT YOU ARE  DOING                               |
|                                                                             |
 ----------------------------------------------------------------------------- 

  PAW_PBE Pd 04Jan2005                  :
 energy of atom  1       EATOM= -809.7530
 kinetic energy error for atom=    0.0091 (will be added to EATOM!!)
  PAW_PBE C 08Apr2002                   :
 energy of atom  2       EATOM= -147.1560
 kinetic energy error for atom=    0.0288 (will be added to EATOM!!)
  PAW_PBE O 08Apr2002                   :
 energy of atom  3       EATOM= -432.3788
 kinetic energy error for atom=    0.1156 (will be added to EATOM!!)
 
 
 POSCAR: Pd55PES                                 
  positions in cartesian coordinates
  No initial velocities read in
 exchange correlation table for  LEXCH =        9
   RHO(1)=    0.500       N(1)  =     2000
   RHO(2)=  100.500       N(2)  =     4000
 


--------------------------------------------------------------------------------------------------------


 ion  position               nearest neighbor table
   1  0.446  0.328  0.417-   3 3.25   5 3.25   7 3.36  15 3.36  29 3.42  28 3.42
   2  0.672  0.554  0.417-  26 3.25  30 3.25  17 3.36   9 3.36  47 3.42  49 3.42
   3  0.554  0.328  0.417-   1 3.25   5 3.25   7 3.36  11 3.36  29 3.42  21 3.42
   4  0.328  0.554  0.417-  32 3.25  22 3.25  13 3.36   8 3.36  43 3.42  48 3.42
   5  0.500  0.383  0.340-   1 3.25   3 3.25  11 3.36  15 3.36  21 3.42  28 3.42
   6  0.500  0.383  0.660-  24 3.25  19 3.25  16 3.36  12 3.36  42 3.42  44 3.42
   7  0.500  0.276  0.500-  29 3.24   3 3.36   1 3.36  19 3.36  24 3.36
   8  0.276  0.500  0.500-  48 3.24  22 3.36  40 3.36   4 3.36  25 3.36
   9  0.724  0.500  0.500-  49 3.24  26 3.36  45 3.36   2 3.36  20 3.36
  10  0.500  0.724  0.500-  55 3.24  27 3.36  23 3.36  46 3.36  41 3.36
  11  0.612  0.388  0.342-  21 3.24   5 3.36   3 3.36  30 3.36  26 3.36
  12  0.612  0.388  0.658-  42 3.24  24 3.36  45 3.36   6 3.36  31 3.36
  13  0.388  0.612  0.342-  43 3.24  32 3.36  50 3.36   4 3.36  27 3.36
  14  0.388  0.612  0.658-  53 3.24  25 3.36  33 3.36  51 3.36  46 3.36
  15  0.388  0.388  0.342-  28 3.24   5 3.36   1 3.36  32 3.36  22 3.36
  16  0.388  0.388  0.658-  44 3.24  19 3.36  40 3.36   6 3.36  33 3.36
  17  0.612  0.612  0.342-  47 3.24  30 3.36  50 3.36   2 3.36  23 3.36
  18  0.612  0.612  0.658-  54 3.24  31 3.36  20 3.36  51 3.36  41 3.36
  19  0.446  0.328  0.583-  56 2.20   6 3.25  24 3.25  16 3.36   7 3.36  44 3.42  29 3.42
  20  0.672  0.554  0.583-  31 3.25  45 3.25  18 3.36   9 3.36  54 3.42  49 3.42
  21  0.558  0.442  0.418-  11 3.24   5 3.42   3 3.42  30 3.42  26 3.42
  22  0.328  0.446  0.417-   4 3.25  32 3.25   8 3.36  15 3.36  48 3.42  28 3.42
  23  0.554  0.672  0.417-  27 3.25  50 3.25  10 3.36  17 3.36  55 3.42  47 3.42
  24  0.554  0.328  0.583-   6 3.25  19 3.25  12 3.36   7 3.36  42 3.42  29 3.42
  25  0.328  0.554  0.583-  33 3.25  40 3.25  14 3.36   8 3.36  53 3.42  48 3.42
  26  0.672  0.446  0.417-   2 3.25  30 3.25   9 3.36  11 3.36  49 3.42  21 3.42
  27  0.446  0.672  0.417-  23 3.25  50 3.25  10 3.36  13 3.36  55 3.42  43 3.42
  28  0.442  0.442  0.418-  15 3.24   5 3.42   1 3.42  32 3.42  22 3.42
  29  0.500  0.384  0.500-   7 3.24   3 3.42   1 3.42  24 3.42  19 3.42
  30  0.617  0.500  0.340-   2 3.25  26 3.25  17 3.36  11 3.36  47 3.42  21 3.42
  31  0.617  0.500  0.660-  20 3.25  45 3.25  18 3.36  12 3.36  54 3.42  42 3.42
  32  0.383  0.500  0.340-   4 3.25  22 3.25  13 3.36  15 3.36  43 3.42  28 3.42
  33  0.383  0.500  0.660-  25 3.25  40 3.25  14 3.36  16 3.36  53 3.42  44 3.42
  34  0.383  0.383  0.500-
  35  0.617  0.617  0.500-
  36  0.617  0.383  0.500-
  37  0.383  0.617  0.500-
  38  0.500  0.500  0.335-
  39  0.500  0.500  0.665-
  40  0.328  0.446  0.583-  33 3.25  25 3.25  16 3.36   8 3.36  44 3.42  48 3.42
  41  0.554  0.672  0.583-  46 3.25  51 3.25  10 3.36  18 3.36  54 3.42  55 3.42
  42  0.558  0.442  0.582-  12 3.24   6 3.42  24 3.42  31 3.42  45 3.42
  43  0.442  0.558  0.418-  13 3.24   4 3.42  32 3.42  27 3.42  50 3.42
  44  0.442  0.442  0.582-  16 3.24   6 3.42  19 3.42  33 3.42  40 3.42
  45  0.672  0.446  0.583-  20 3.25  31 3.25   9 3.36  12 3.36  49 3.42  42 3.42
  46  0.446  0.672  0.583-  41 3.25  51 3.25  10 3.36  14 3.36  53 3.42  55 3.42
  47  0.558  0.558  0.418-  17 3.24   2 3.42  30 3.42  23 3.42  50 3.42
  48  0.384  0.500  0.500-   8 3.24   4 3.42  22 3.42  25 3.42  40 3.42
  49  0.616  0.500  0.500-   9 3.24   2 3.42  26 3.42  20 3.42  45 3.42
  50  0.500  0.617  0.340-  27 3.25  23 3.25  13 3.36  17 3.36  43 3.42  47 3.42
  51  0.500  0.617  0.660-  41 3.25  46 3.25  14 3.36  18 3.36  53 3.42  54 3.42
  52  0.500  0.500  0.500-
  53  0.442  0.558  0.582-  14 3.24  25 3.42  33 3.42  51 3.42  46 3.42
  54  0.558  0.558  0.582-  18 3.24  31 3.42  20 3.42  51 3.42  41 3.42
  55  0.500  0.616  0.500-  10 3.24  23 3.42  27 3.42  41 3.42  46 3.42
  56  0.434  0.263  0.615-  57 1.13  19 2.20
  57  0.425  0.231  0.631-  56 1.13
 
  LATTYP: Found a simple cubic cell.
 ALAT       =    30.0000000000
  
  Lattice vectors:
  
 A1 = (  30.0000000000,   0.0000000000,   0.0000000000)
 A2 = (   0.0000000000,  30.0000000000,   0.0000000000)
 A3 = (   0.0000000000,   0.0000000000,  30.0000000000)


Analysis of symmetry for initial positions (statically):
=====================================================================
 Subroutine PRICEL returns:
 Original cell was already a primitive cell.
 

 Routine SETGRP: Setting up the symmetry group for a 
 simple cubic supercell.


 Subroutine GETGRP returns: Found  1 space group operations
 (whereof  1 operations were pure point group operations)
 out of a pool of 48 trial point group operations.


The static configuration has the point symmetry C_1 .


Analysis of symmetry for dynamics (positions and initial velocities):
=====================================================================
 Subroutine PRICEL returns:
 Original cell was already a primitive cell.
 

 Routine SETGRP: Setting up the symmetry group for a 
 simple cubic supercell.


 Subroutine GETGRP returns: Found  1 space group operations
 (whereof  1 operations were pure point group operations)
 out of a pool of 48 trial point group operations.


The dynamic configuration has the point symmetry C_1 .


Analysis of constrained symmetry for selective dynamics:
=====================================================================
 Subroutine PRICEL returns:
 Original cell was already a primitive cell.
 

 Routine SETGRP: Setting up the symmetry group for a 
 simple cubic supercell.


 Subroutine GETGRP returns: Found  1 space group operations
 (whereof  1 operations were pure point group operations)
 out of a pool of 48 trial point group operations.


The constrained configuration has the point symmetry C_1 .


 Subroutine INISYM returns: Found  1 space group operations
 (whereof  1 operations are pure point group operations),
 and found     1 'primitive' translations

 
 
 KPOINTS: K-points                                

Automatic generation of k-mesh.
Space group operators:
 irot       det(A)        alpha          n_x          n_y          n_z        tau_x        tau_y        tau_z
    1     1.000000     0.000000     1.000000     0.000000     0.000000     0.000000     0.000000     0.000000
 
 Subroutine IBZKPT returns following result:
 ===========================================
 
 Found      1 irreducible k-points:
 
 Following reciprocal coordinates:
            Coordinates               Weight
  0.000000  0.000000  0.000000      1.000000
 
 Following cartesian coordinates:
            Coordinates               Weight
  0.000000  0.000000  0.000000      1.000000
 


--------------------------------------------------------------------------------------------------------




 Dimension of arrays:
   k-points           NKPTS =      1   k-points in BZ     NKDIM =      1   number of bands    NBANDS=    336
   number of dos      NEDOS =    301   number of ions     NIONS =     57
   non local maximal  LDIM  =      6   non local SUM 2l+1 LMDIM =     18
   total plane-waves  NPLWV = ******
   max r-space proj   IRMAX =   1847   max aug-charges    IRDMAX=   6262
   dimension x,y,z NGX =   150 NGY =  150 NGZ =  150
   dimension x,y,z NGXF=   300 NGYF=  300 NGZF=  300
   support grid    NGXF=   300 NGYF=  300 NGZF=  300
   ions per type =              55   1   1
   NGX,Y,Z   is equivalent  to a cutoff of   8.31,  8.31,  8.31 a.u.
   NGXF,Y,Z  is equivalent  to a cutoff of  16.62, 16.62, 16.62 a.u.

 SYSTEM =  6_Pd100_top_free_z(O)                   
 POSCAR =  Pd55PES                                 

 Startparameter for this run:
   NWRITE =      2    write-flag & timer
   PREC   = normal    normal or accurate (medium, high low for compatibility)
   ISTART =      0    job   : 0-new  1-cont  2-samecut
   ICHARG =      2    charge: 1-file 2-atom 10-const
   ISPIN  =      1    spin polarized calculation?
   LNONCOLLINEAR =      F non collinear calculations
   LSORBIT =      F    spin-orbit coupling
   INIWAV =      1    electr: 0-lowe 1-rand  2-diag
   LASPH  =      F    aspherical Exc in radial PAW
   METAGGA=      F    non-selfconsistent MetaGGA calc.

 Electronic Relaxation 1
   ENCUT  =  400.0 eV  29.40 Ry    5.42 a.u.  48.92 48.92 48.92*2*pi/ulx,y,z
   ENINI  =  400.0     initial cutoff
   ENAUG  =  644.9 eV  augmentation charge cutoff
   NELM   =    100;   NELMIN=  6; NELMDL= -5     # of ELM steps 
   EDIFF  = 0.1E-03   stopping-criterion for ELM
   LREAL  =      T    real-space projection
   NLSPLINE    = F    spline interpolate recip. space projectors
   LCOMPAT=      F    compatible to vasp.4.4
   GGA_COMPAT  = T    GGA compatible to vasp.4.4-vasp.4.6
   LMAXPAW     = -100 max onsite density
   LMAXMIX     =    2 max onsite mixed and CHGCAR
   VOSKOWN=      0    Vosko Wilk Nusair interpolation
   ROPT   =   -0.00050  -0.00050  -0.00050
 Ionic relaxation
   EDIFFG = -.5E-01   stopping-criterion for IOM
   NSW    =      0    number of steps for IOM
   NBLOCK =      1;   KBLOCK =      1    inner block; outer block 
   IBRION =     -1    ionic relax: 0-MD 1-quasi-New 2-CG
   NFREE  =      1    steps in history (QN), initial steepest desc. (CG)
   ISIF   =      2    stress and relaxation
   IWAVPR =     10    prediction:  0-non 1-charg 2-wave 3-comb
   ISYM   =      2    0-nonsym 1-usesym 2-fastsym
   LCORR  =      T    Harris-Foulkes like correction to forces

   POTIM  = 0.5000    time-step for ionic-motion
   TEIN   =    0.0    initial temperature
   TEBEG  =    0.0;   TEEND  =   0.0 temperature during run
   SMASS  =  -3.00    Nose mass-parameter (am)
   estimated Nose-frequenzy (Omega)   =  0.10E-29 period in steps =****** mass=  -0.206E-25a.u.
   SCALEE = 1.0000    scale energy and forces
   NPACO  =    256;   APACO  = 16.0  distance and # of slots for P.C.
   PSTRESS=    0.0 pullay stress

  Mass of Ions in am
   POMASS = 106.42 12.01 16.00
  Ionic Valenz
   ZVAL   =  10.00  4.00  6.00
  Atomic Wigner-Seitz radii
   RWIGS  =  -1.00 -1.00 -1.00
  virtual crystal weights 
   VCA    =   1.00  1.00  1.00
   NELECT =     560.0000    total number of electrons
   NUPDOWN=      -1.0000    fix difference up-down

 DOS related values:
   EMIN   =  10.00;   EMAX   =-10.00  energy-range for DOS
   EFERMI =   0.00
   ISMEAR =     2;   SIGMA  =   0.20  broadening in eV -4-tet -1-fermi 0-gaus

 Electronic relaxation 2 (details)
   IALGO  =     68    algorithm
   LDIAG  =      T    sub-space diagonalisation (order eigenvalues)
   LSUBROT=      F    optimize rotation matrix (better conditioning)
   TURBO    =      0    0=normal 1=particle mesh
   IRESTART =      0    0=no restart 2=restart with 2 vectors
   NREBOOT  =      0    no. of reboots
   NMIN     =      0    reboot dimension
   EREF     =   0.00    reference energy to select bands
   IMIX   =      4    mixing-type and parameters
     AMIX     =   0.40;   BMIX     =  1.00
     AMIX_MAG =   1.60;   BMIX_MAG =  1.00
     AMIN     =   0.10
     WC   =   100.;   INIMIX=   1;  MIXPRE=   1;  MAXMIX= -45

 Intra band minimization:
   WEIMIN = 0.0000     energy-eigenvalue tresh-hold
   EBREAK =  0.74E-07  absolut break condition
   DEPER  =   0.30     relativ break condition  

   TIME   =   0.40     timestep for ELM

  volume/ion in A,a.u.               =     473.68      3196.58
  Fermi-wavevector in a.u.,A,eV,Ry     =   0.449797  0.849992  2.752691  0.202317
  Thomas-Fermi vector in A             =   1.430086
 
 Write flags
   LWAVE        =      F    write WAVECAR
   LDOWNSAMPLE  =      F    k-point downsampling of WAVECAR
   LCHARG       =      F    write CHGCAR
   LVTOT        =      F    write LOCPOT, total local potential
   LVHAR        =      F    write LOCPOT, Hartree potential only
   LELF         =      F    write electronic localiz. function (ELF)
   LORBIT       =      0    0 simple, 1 ext, 2 COOP (PROOUT), +10 PAW based schemes


 Dipole corrections
   LMONO  =      F    monopole corrections only (constant potential shift)
   LDIPOL =      F    correct potential (dipole corrections)
   IDIPOL =      0    1-x, 2-y, 3-z, 4-all directions 
   EPSILON=  1.0000000 bulk dielectric constant

 Exchange correlation treatment:
   GGA     =    RP    GGA type
   LEXCH   =     9    internal setting for exchange type
   VOSKOWN=      0    Vosko Wilk Nusair interpolation
   LHFCALC =     F    Hartree Fock is set to
   LHFONE  =     F    Hartree Fock one center treatment
   AEXX    =    0.0000 exact exchange contribution

 Linear response parameters
   LEPSILON=     F    determine dielectric tensor
   LRPA    =     F    only Hartree local field effects (RPA)
   LNABLA  =     F    use nabla operator in PAW spheres
   LVEL    =     F    velocity operator in full k-point grid
   LINTERFAST=   F  fast interpolation
   KINTER  =     0    interpolate to denser k-point grid
   CSHIFT  =0.1000    complex shift for real part using Kramers Kronig
   OMEGAMAX=  -1.0    maximum frequency
   DEG_THRESHOLD= 0.2000000E-02 threshold for treating states as degnerate
   RTIME   =   -0.100 relaxation time in fs
  (WPLASMAI=    0.000 imaginary part of plasma frequency in eV, 0.658/RTIME)
   DFIELD  = 0.0000000 0.0000000 0.0000000 field for delta impulse in time
 
 Orbital magnetization related:
   ORBITALMAG=     F  switch on orbital magnetization
   LCHIMAG   =     F  perturbation theory with respect to B field
   DQ        =  0.001000  dq finite difference perturbation B field
   LLRAUG    =     F  two centre corrections for induced B field



--------------------------------------------------------------------------------------------------------


 Static calculation
 charge density and potential will be updated during run
 non-spin polarized calculation
 RMM-DIIS sequential band-by-band and
  variant of blocked Davidson during initial phase
 perform sub-space diagonalisation
    before iterative eigenvector-optimisation
 modified Broyden-mixing scheme, WC =      100.0
 initial mixing is a Kerker type mixing with AMIX =  0.4000 and BMIX =      1.0000
 Hartree-type preconditioning will be used
 using additional bands           56
 real space projection scheme for non local part
 use partial core corrections
 calculate Harris-corrections to forces 
   (improved forces if not selfconsistent)
 use gradient corrections 
 use of overlap-Matrix (Vanderbilt PP)
 Methfessel and Paxton  Order N= 2 SIGMA  =   0.20


--------------------------------------------------------------------------------------------------------


  energy-cutoff  :      400.00
  volume of cell :    27000.00
      direct lattice vectors                 reciprocal lattice vectors
    30.000000000  0.000000000  0.000000000     0.033333333  0.000000000  0.000000000
     0.000000000 30.000000000  0.000000000     0.000000000  0.033333333  0.000000000
     0.000000000  0.000000000 30.000000000     0.000000000  0.000000000  0.033333333

  length of vectors
    30.000000000 30.000000000 30.000000000     0.033333333  0.033333333  0.033333333


 
 k-points in units of 2pi/SCALE and weight: K-points                                
   0.00000000  0.00000000  0.00000000       1.000
 
 k-points in reciprocal lattice and weights: K-points                                
   0.00000000  0.00000000  0.00000000       1.000
 
 position of ions in fractional coordinates (direct lattice) 
   0.44576020  0.32826710  0.41691983
   0.67173288  0.55423978  0.41691983
   0.55423980  0.32826710  0.41691983
   0.32826712  0.55423978  0.41691983
   0.50000000  0.38250690  0.34021317
   0.50000000  0.38250690  0.65978680
   0.50000000  0.27609440  0.50000000
   0.27609443  0.49999998  0.50000000
   0.72390557  0.49999998  0.50000000
   0.50000000  0.72390555  0.50000000
   0.61195280  0.38804720  0.34167483
   0.61195280  0.38804720  0.65832513
   0.38804722  0.61195278  0.34167483
   0.38804722  0.61195278  0.65832513
   0.38804720  0.38804720  0.34167483
   0.38804720  0.38804720  0.65832513
   0.61195278  0.61195278  0.34167483
   0.61195278  0.61195278  0.65832513
   0.44576020  0.32826710  0.58308023
   0.67173288  0.55423978  0.58308023
   0.55791699  0.44208301  0.41809300
   0.32826705  0.44576024  0.41691983
   0.55423973  0.67173293  0.41691983
   0.55423980  0.32826710  0.58308023
   0.32826712  0.55423978  0.58308023
   0.67173295  0.44576024  0.41691983
   0.44576027  0.67173293  0.41691983
   0.44208301  0.44208301  0.41809300
   0.50000000  0.38416601  0.50000000
   0.61749315  0.50000005  0.34021317
   0.61749315  0.50000005  0.65978680
   0.38250685  0.50000005  0.34021317
   0.38250685  0.50000005  0.65978680
   0.38317830  0.38317830  0.50000000
   0.61682172  0.61682172  0.50000000
   0.61682170  0.38317830  0.50000000
   0.38317828  0.61682172  0.50000000
   0.50000000  0.50000000  0.33478917
   0.50000000  0.50000000  0.66521087
   0.32826705  0.44576024  0.58308023
   0.55423973  0.67173293  0.58308023
   0.55791699  0.44208301  0.58190703
   0.44208298  0.55791702  0.41809300
   0.44208301  0.44208301  0.58190703
   0.67173295  0.44576024  0.58308023
   0.44576027  0.67173293  0.58308023
   0.55791702  0.55791702  0.41809300
   0.38416599  0.50000002  0.50000000
   0.61583401  0.50000002  0.50000000
   0.50000000  0.61749319  0.34021317
   0.50000000  0.61749319  0.65978680
   0.50000000  0.50000000  0.50000000
   0.44208298  0.55791702  0.58190703
   0.55791702  0.55791702  0.58190703
   0.50000000  0.61583404  0.50000000
   0.43380103  0.26342980  0.61508393
   0.42462567  0.23064050  0.63103490
 
 position of ions in cartesian coordinates  (Angst):
  13.37280588  9.84801292 12.50759500
  20.15198637 16.62719342 12.50759500
  16.62719412  9.84801292 12.50759500
   9.84801363 16.62719342 12.50759500
  15.00000000 11.47520705 10.20639500
  15.00000000 11.47520705 19.79360400
  15.00000000  8.28283206 15.00000000
   8.28283277 14.99999929 15.00000000
  21.71716723 14.99999929 15.00000000
  15.00000000 21.71716652 14.99999999
  18.35858397 11.64141603 10.25024500
  18.35858397 11.64141603 19.74975399
  11.64141674 18.35858326 10.25024500
  11.64141674 18.35858326 19.74975400
  11.64141603 11.64141603 10.25024500
  11.64141603 11.64141603 19.74975400
  18.35858326 18.35858326 10.25024500
  18.35858326 18.35858326 19.74975400
  13.37280588  9.84801291 17.49240700
  20.15198638 16.62719341 17.49240700
  16.73750985 13.26249015 12.54279000
   9.84801151 13.37280729 12.50759500
  16.62719200 20.15198779 12.50759500
  16.62719412  9.84801292 17.49240700
   9.84801363 16.62719342 17.49240700
  20.15198849 13.37280729 12.50759500
  13.37280800 20.15198779 12.50759500
  13.26249015 13.26249015 12.54279000
  15.00000000 11.52498029 15.00000000
  18.52479437 15.00000140 10.20639500
  18.52479437 15.00000141 19.79360400
  11.47520562 15.00000141 10.20639501
  11.47520563 15.00000141 19.79360400
  11.49534898 11.49534898 15.00000000
  18.50465172 18.50465172 15.00000000
  18.50465102 11.49534898 15.00000000
  11.49534828 18.50465172 15.00000000
  15.00000000 15.00000000 10.04367500
  15.00000000 15.00000000 19.95632599
   9.84801151 13.37280729 17.49240700
  16.62719200 20.15198779 17.49240700
  16.73750985 13.26249015 17.45721100
  13.26248944 16.73751056 12.54279001
  13.26249015 13.26249015 17.45721100
  20.15198849 13.37280729 17.49240699
  13.37280800 20.15198779 17.49240700
  16.73751056 16.73751056 12.54279000
  11.52497959 15.00000071 15.00000000
  18.47502041 15.00000071 15.00000000
  14.99999999 18.52479579 10.20639500
  15.00000000 18.52479578 19.79360400
  15.00000000 15.00000000 15.00000000
  13.26248944 16.73751057 17.45721101
  16.73751056 16.73751057 17.45721100
  15.00000000 18.47502112 15.00000000
  13.01403100  7.90289400 18.45251800
  12.73877000  6.91921500 18.93104700
 


--------------------------------------------------------------------------------------------------------


 k-point  1 :   0.0000 0.0000 0.0000  plane waves:  490521

 maximum and minimum number of plane-waves per node :    490521   490521

 maximum number of plane-waves:    490521
 maximum index in each direction: 
   IXMAX=   48   IYMAX=   48   IZMAX=   48
   IXMIN=  -48   IYMIN=  -48   IZMIN=  -48


 serial   3D FFT for wavefunctions
 parallel 3D FFT for charge:
    minimum data exchange during FFTs selected (reduces bandwidth)


 total amount of memory used by VASP MPI-rank0  5486941. kBytes
=======================================================================

   base      :      30000. kBytes
   nonlr-proj:      17126. kBytes
   fftplans  :     924480. kBytes
   grid      :    1872000. kBytes
   one-center:        886. kBytes
   wavefun   :    2642449. kBytes
 
     INWAV:  cpu time    0.0001: real time    0.0006
 Broyden mixing: mesh for mixing (old mesh)
   NGX = 97   NGY = 97   NGZ = 97
  (NGX  =300   NGY  =300   NGZ  =300)
  gives a total of 912673 points

 initial charge density was supplied:
 charge density of overlapping atoms calculated
 number of electron     560.0000000 magnetization 
 keeping initial charge density in first step


--------------------------------------------------------------------------------------------------------


 Maximum index for non-local projection operator         1763
 Maximum index for augmentation-charges         5898 (set IRDMAX)


--------------------------------------------------------------------------------------------------------


 First call to EWALD:  gamma=   0.059
 Maximum number of real-space cells 3x 3x 3
 Maximum number of reciprocal cells 3x 3x 3

    FEWALD:  cpu time    0.0153: real time    0.0153


--------------------------------------- Iteration      1(   1)  ---------------------------------------


    POTLOK:  cpu time   14.2571: real time   14.2607
    SETDIJ:  cpu time    0.1207: real time    0.1207
     EDDAV:  cpu time  365.0061: real time  365.0982
       DOS:  cpu time    0.0014: real time    0.0014
    --------------------------------------------
      LOOP:  cpu time  379.3852: real time  379.4809

 eigenvalue-minimisations  :   688
 total energy-change (2. order) : 0.4386181E+04  (-0.1004811E+05)
 number of electron     560.0000000 magnetization 
 augmentation part      560.0000000 magnetization 

 Free energy of the ion-electron system (eV)
  ---------------------------------------------------
  alpha Z        PSCENC =        75.25431677
  Ewald energy   TEWEN  =    137601.90681340
  -Hartree energ DENC   =   -180966.99248717
  -exchange      EXHF   =         0.00000000
  -V(xc)+E(xc)   XCENC  =     -1703.57450751
  PAW double counting   =     44873.02882129   -41398.84523641
  entropy T*S    EENTRO =         0.03178436
  eigenvalues    EBANDS =       818.86577373
  atomic energy  EATOM  =     45086.50549395
  Solvation  Ediel_sol  =         0.00000000
  ---------------------------------------------------
  free energy    TOTEN  =      4386.18077241 eV

  energy without entropy =     4386.14898805  energy(sigma->0) =     4386.17282632


--------------------------------------------------------------------------------------------------------




--------------------------------------- Iteration      1(   2)  ---------------------------------------


     EDDAV:  cpu time  589.7316: real time  589.7784
       DOS:  cpu time    0.0013: real time    0.0013
    --------------------------------------------
      LOOP:  cpu time  589.7329: real time  589.7797

 eigenvalue-minimisations  :  1232
 total energy-change (2. order) :-0.2374556E+04  (-0.2137374E+04)
 number of electron     560.0000000 magnetization 
 augmentation part      560.0000000 magnetization 

 Free energy of the ion-electron system (eV)
  ---------------------------------------------------
  alpha Z        PSCENC =        75.25431677
  Ewald energy   TEWEN  =    137601.90681340
  -Hartree energ DENC   =   -180966.99248717
  -exchange      EXHF   =         0.00000000
  -V(xc)+E(xc)   XCENC  =     -1703.57450751
  PAW double counting   =     44873.02882129   -41398.84523641
  entropy T*S    EENTRO =        -0.03351773
  eigenvalues    EBANDS =     -1555.62506058
  atomic energy  EATOM  =     45086.50549395
  Solvation  Ediel_sol  =         0.00000000
  ---------------------------------------------------
  free energy    TOTEN  =      2011.62463601 eV

  energy without entropy =     2011.65815374  energy(sigma->0) =     2011.63301545


--------------------------------------------------------------------------------------------------------




--------------------------------------- Iteration      1(   3)  ---------------------------------------


     EDDAV:  cpu time  493.5176: real time  493.5349
       DOS:  cpu time    0.0011: real time    0.0011
    --------------------------------------------
      LOOP:  cpu time  493.5187: real time  493.5359

 eigenvalue-minimisations  :   992
 total energy-change (2. order) :-0.1777640E+04  (-0.1671525E+04)
 number of electron     560.0000000 magnetization 
 augmentation part      560.0000000 magnetization 

 Free energy of the ion-electron system (eV)
  ---------------------------------------------------
  alpha Z        PSCENC =        75.25431677
  Ewald energy   TEWEN  =    137601.90681340
  -Hartree energ DENC   =   -180966.99248717
  -exchange      EXHF   =         0.00000000
  -V(xc)+E(xc)   XCENC  =     -1703.57450751
  PAW double counting   =     44873.02882129   -41398.84523641
  entropy T*S    EENTRO =        -0.02971995
  eigenvalues    EBANDS =     -3333.26910486
  atomic energy  EATOM  =     45086.50549395
  Solvation  Ediel_sol  =         0.00000000
  ---------------------------------------------------
  free energy    TOTEN  =       233.98438951 eV

  energy without entropy =      234.01410946  energy(sigma->0) =      233.99181950


--------------------------------------------------------------------------------------------------------




--------------------------------------- Iteration      1(   4)  ---------------------------------------


     EDDAV:  cpu time  426.6575: real time  426.6807
       DOS:  cpu time    0.0011: real time    0.0011
    --------------------------------------------
      LOOP:  cpu time  426.6586: real time  426.6819

 eigenvalue-minimisations  :   824
 total energy-change (2. order) :-0.3682633E+03  (-0.3110471E+03)
 number of electron     560.0000000 magnetization 
 augmentation part      560.0000000 magnetization 

 Free energy of the ion-electron system (eV)
  ---------------------------------------------------
  alpha Z        PSCENC =        75.25431677
  Ewald energy   TEWEN  =    137601.90681340
  -Hartree energ DENC   =   -180966.99248717
  -exchange      EXHF   =         0.00000000
  -V(xc)+E(xc)   XCENC  =     -1703.57450751
  PAW double counting   =     44873.02882129   -41398.84523641
  entropy T*S    EENTRO =         0.01825027
  eigenvalues    EBANDS =     -3701.58039332
  atomic energy  EATOM  =     45086.50549395
  Solvation  Ediel_sol  =         0.00000000
  ---------------------------------------------------
  free energy    TOTEN  =      -134.27892873 eV

  energy without entropy =     -134.29717900  energy(sigma->0) =     -134.28349129


--------------------------------------------------------------------------------------------------------




--------------------------------------- Iteration      1(   5)  ---------------------------------------


     EDDAV:  cpu time  524.2973: real time  524.3422
       DOS:  cpu time    0.0014: real time    0.0014
    CHARGE:  cpu time   26.0047: real time   26.0090
    MIXING:  cpu time    0.4399: real time    0.4399
    --------------------------------------------
      LOOP:  cpu time  550.7434: real time  550.7925

 eigenvalue-minimisations  :  1032
 total energy-change (2. order) :-0.4506790E+02  (-0.3725014E+02)
 number of electron     559.9999855 magnetization 
 augmentation part      245.0767732 magnetization 

 Broyden mixing:
  rms(total) = 0.14411E+01    rms(broyden)= 0.14402E+01
  rms(prec ) = 0.15476E+01
  weight for this iteration     100.00

 Free energy of the ion-electron system (eV)
  ---------------------------------------------------
  alpha Z        PSCENC =        75.25431677
  Ewald energy   TEWEN  =    137601.90681340
  -Hartree energ DENC   =   -180966.99248717
  -exchange      EXHF   =         0.00000000
  -V(xc)+E(xc)   XCENC  =     -1703.57450751
  PAW double counting   =     44873.02882129   -41398.84523641
  entropy T*S    EENTRO =         0.44787001
  eigenvalues    EBANDS =     -3747.07790916
  atomic energy  EATOM  =     45086.50549395
  Solvation  Ediel_sol  =         0.00000000
  ---------------------------------------------------
  free energy    TOTEN  =      -179.34682483 eV

  energy without entropy =     -179.79469484  energy(sigma->0) =     -179.45879233


--------------------------------------------------------------------------------------------------------




--------------------------------------- Iteration      1(   6)  ---------------------------------------


    POTLOK:  cpu time   13.1296: real time   13.1304
    SETDIJ:  cpu time    0.1265: real time    0.1265
    EDDIAG:  cpu time   67.6053: real time   67.6196
  RMM-DIIS:  cpu time  199.2161: real time  199.2321
    ORTHCH:  cpu time   13.8570: real time   13.8572
       DOS:  cpu time    0.0014: real time    0.0014
    CHARGE:  cpu time   25.4384: real time   25.4386
    MIXING:  cpu time    0.4621: real time    0.4621
    --------------------------------------------
      LOOP:  cpu time  319.8365: real time  319.8679

 eigenvalue-minimisations  :   732
 total energy-change (2. order) :-0.2330671E+00  (-0.5647063E+01)
 number of electron     559.9999866 magnetization 
 augmentation part      240.6554521 magnetization 

 Broyden mixing:
  rms(total) = 0.24274E+01    rms(broyden)= 0.24273E+01
  rms(prec ) = 0.28172E+01
  weight for this iteration     100.00

 eigenvalues of (default mixing * dielectric matrix)
  average eigenvalue GAMMA=   0.2995
  0.2995

 Free energy of the ion-electron system (eV)
  ---------------------------------------------------
  alpha Z        PSCENC =        75.25431677
  Ewald energy   TEWEN  =    137601.90681340
  -Hartree energ DENC   =   -181371.51071261
  -exchange      EXHF   =         0.00000000
  -V(xc)+E(xc)   XCENC  =     -1697.39809836
  PAW double counting   =     45617.76702530   -42116.92548180
  entropy T*S    EENTRO =        -0.02793777
  eigenvalues    EBANDS =     -3375.15131085
  atomic energy  EATOM  =     45086.50549395
  Solvation  Ediel_sol  =         0.00000000
  ---------------------------------------------------
  free energy    TOTEN  =      -179.57989197 eV

  energy without entropy =     -179.55195420  energy(sigma->0) =     -179.57290753


--------------------------------------------------------------------------------------------------------




--------------------------------------- Iteration      1(   7)  ---------------------------------------


    POTLOK:  cpu time   13.2300: real time   13.2310
    SETDIJ:  cpu time    0.1227: real time    0.1228
    EDDIAG:  cpu time   67.5667: real time   67.5710
  RMM-DIIS:  cpu time  235.3962: real time  235.4238
    ORTHCH:  cpu time   13.5156: real time   13.5172
       DOS:  cpu time    0.0015: real time    0.0015
    CHARGE:  cpu time   25.3375: real time   25.3393
    MIXING:  cpu time    0.4839: real time    0.4840
    --------------------------------------------
      LOOP:  cpu time  355.6541: real time  355.6904

 eigenvalue-minimisations  :   875
 total energy-change (2. order) :-0.1409209E+01  (-0.1888000E+01)
 number of electron     559.9999834 magnetization 
 augmentation part      240.5360359 magnetization 

 Broyden mixing:
  rms(total) = 0.19095E+01    rms(broyden)= 0.19092E+01
  rms(prec ) = 0.22615E+01
  weight for this iteration     100.00

 eigenvalues of (default mixing * dielectric matrix)
  average eigenvalue GAMMA=   0.3181
  0.4732  0.1630

 Free energy of the ion-electron system (eV)
  ---------------------------------------------------
  alpha Z        PSCENC =        75.25431677
  Ewald energy   TEWEN  =    137601.90681340
  -Hartree energ DENC   =   -181445.17415499
  -exchange      EXHF   =         0.00000000
  -V(xc)+E(xc)   XCENC  =     -1697.52046281
  PAW double counting   =     45674.66789661   -42171.46916111
  entropy T*S    EENTRO =        -0.11211242
  eigenvalues    EBANDS =     -3305.04772989
  atomic energy  EATOM  =     45086.50549395
  Solvation  Ediel_sol  =         0.00000000
  ---------------------------------------------------
  free energy    TOTEN  =      -180.98910050 eV

  energy without entropy =     -180.87698809  energy(sigma->0) =     -180.96107240


--------------------------------------------------------------------------------------------------------




--------------------------------------- Iteration      1(   8)  ---------------------------------------


    POTLOK:  cpu time   13.1924: real time   13.1935
    SETDIJ:  cpu time    0.1212: real time    0.1212
    EDDIAG:  cpu time   68.2766: real time   68.2796
  RMM-DIIS:  cpu time  206.2278: real time  206.2435
    ORTHCH:  cpu time   13.6134: real time   13.6151
       DOS:  cpu time    0.0014: real time    0.0014
    CHARGE:  cpu time   25.2288: real time   25.2320
    MIXING:  cpu time    0.5045: real time    0.5045
    --------------------------------------------
      LOOP:  cpu time  327.1662: real time  327.1908

 eigenvalue-minimisations  :   760
 total energy-change (2. order) :-0.2959144E+01  (-0.7038147E+00)
 number of electron     559.9999835 magnetization 
 augmentation part      240.1741598 magnetization 

 Broyden mixing:
  rms(total) = 0.26535E+01    rms(broyden)= 0.26532E+01
  rms(prec ) = 0.31888E+01
  weight for this iteration     100.00

 eigenvalues of (default mixing * dielectric matrix)
  average eigenvalue GAMMA=   0.2919
  0.5916  0.1421  0.1421

 Free energy of the ion-electron system (eV)
  ---------------------------------------------------
  alpha Z        PSCENC =        75.25431677
  Ewald energy   TEWEN  =    137601.90681340
  -Hartree energ DENC   =   -181492.23253692
  -exchange      EXHF   =         0.00000000
  -V(xc)+E(xc)   XCENC  =     -1697.50483337
  PAW double counting   =     45740.96610714   -42234.80536556
  entropy T*S    EENTRO =        -0.16910847
  eigenvalues    EBANDS =     -3263.86913178
  atomic energy  EATOM  =     45086.50549395
  Solvation  Ediel_sol  =         0.00000000
  ---------------------------------------------------
  free energy    TOTEN  =      -183.94824484 eV

  energy without entropy =     -183.77913637  energy(sigma->0) =     -183.90596772


--------------------------------------------------------------------------------------------------------




--------------------------------------- Iteration      1(   9)  ---------------------------------------


    POTLOK:  cpu time   13.1798: real time   13.1821
    SETDIJ:  cpu time    0.1224: real time    0.1225
    EDDIAG:  cpu time   68.4822: real time   68.4873
  RMM-DIIS:  cpu time  200.9065: real time  200.9204
    ORTHCH:  cpu time   13.4477: real time   13.4490
       DOS:  cpu time    0.0014: real time    0.0014
    CHARGE:  cpu time   25.4166: real time   25.4170
    MIXING:  cpu time    0.5291: real time    0.5291
    --------------------------------------------
      LOOP:  cpu time  322.0856: real time  322.1086

 eigenvalue-minimisations  :   744
 total energy-change (2. order) : 0.2767303E+01  (-0.4334360E+00)
 number of electron     559.9999844 magnetization 
 augmentation part      240.9166429 magnetization 

 Broyden mixing:
  rms(total) = 0.25200E+01    rms(broyden)= 0.25197E+01
  rms(prec ) = 0.29706E+01
  weight for this iteration     100.00

 eigenvalues of (default mixing * dielectric matrix)
  average eigenvalue GAMMA=   0.2760
  0.6929  0.1583  0.1583  0.0946

 Free energy of the ion-electron system (eV)
  ---------------------------------------------------
  alpha Z        PSCENC =        75.25431677
  Ewald energy   TEWEN  =    137601.90681340
  -Hartree energ DENC   =   -181511.94949190
  -exchange      EXHF   =         0.00000000
  -V(xc)+E(xc)   XCENC  =     -1697.48595008
  PAW double counting   =     45786.65956923   -42278.54476071
  entropy T*S    EENTRO =        -0.02282030
  eigenvalues    EBANDS =     -3243.50411219
  atomic energy  EATOM  =     45086.50549395
  Solvation  Ediel_sol  =         0.00000000
  ---------------------------------------------------
  free energy    TOTEN  =      -181.18094183 eV

  energy without entropy =     -181.15812154  energy(sigma->0) =     -181.17523676


--------------------------------------------------------------------------------------------------------




--------------------------------------- Iteration      1(  10)  ---------------------------------------


    POTLOK:  cpu time   13.3036: real time   13.3047
    SETDIJ:  cpu time    0.1235: real time    0.1235
    EDDIAG:  cpu time   68.6467: real time   68.6535
  RMM-DIIS:  cpu time  199.7904: real time  199.8151
    ORTHCH:  cpu time   13.3174: real time   13.3178
       DOS:  cpu time    0.0014: real time    0.0014
    CHARGE:  cpu time   25.6003: real time   25.6046
    MIXING:  cpu time    0.5723: real time    0.5728
    --------------------------------------------
      LOOP:  cpu time  321.3555: real time  321.3933

 eigenvalue-minimisations  :   742
 total energy-change (2. order) : 0.5183672E+00  (-0.2820646E+00)
 number of electron     559.9999853 magnetization 
 augmentation part      240.9654142 magnetization 

 Broyden mixing:
  rms(total) = 0.21650E+01    rms(broyden)= 0.21647E+01
  rms(prec ) = 0.26612E+01
  weight for this iteration     100.00

 eigenvalues of (default mixing * dielectric matrix)
  average eigenvalue GAMMA=   0.2631
  0.7533  0.1939  0.1939  0.0871  0.0871

 Free energy of the ion-electron system (eV)
  ---------------------------------------------------
  alpha Z        PSCENC =        75.25431677
  Ewald energy   TEWEN  =    137601.90681340
  -Hartree energ DENC   =   -181532.93944779
  -exchange      EXHF   =         0.00000000
  -V(xc)+E(xc)   XCENC  =     -1697.37423517
  PAW double counting   =     45826.59842128   -42316.78116253
  entropy T*S    EENTRO =        -0.08274490
  eigenvalues    EBANDS =     -3223.75002960
  atomic energy  EATOM  =     45086.50549395
  Solvation  Ediel_sol  =         0.00000000
  ---------------------------------------------------
  free energy    TOTEN  =      -180.66257459 eV

  energy without entropy =     -180.57982970  energy(sigma->0) =     -180.64188837


--------------------------------------------------------------------------------------------------------




--------------------------------------- Iteration      1(  11)  ---------------------------------------


    POTLOK:  cpu time   13.3076: real time   13.3099
    SETDIJ:  cpu time    0.1232: real time    0.1232
    EDDIAG:  cpu time   68.9286: real time   68.9412
  RMM-DIIS:  cpu time  199.0995: real time  199.1154
    ORTHCH:  cpu time   13.5279: real time   13.5296
       DOS:  cpu time    0.0014: real time    0.0014
    CHARGE:  cpu time   25.5486: real time   25.5531
    MIXING:  cpu time    0.6005: real time    0.6006
    --------------------------------------------
      LOOP:  cpu time  321.1374: real time  321.1744

 eigenvalue-minimisations  :   742
 total energy-change (2. order) : 0.1825614E+01  (-0.1761391E+00)
 number of electron     559.9999864 magnetization 
 augmentation part      241.2915133 magnetization 

 Broyden mixing:
  rms(total) = 0.19468E+01    rms(broyden)= 0.19465E+01
  rms(prec ) = 0.22695E+01
  weight for this iteration     100.00

 eigenvalues of (default mixing * dielectric matrix)
  average eigenvalue GAMMA=   0.2621
  0.8571  0.2258  0.2258  0.0961  0.0961  0.0716

 Free energy of the ion-electron system (eV)
  ---------------------------------------------------
  alpha Z        PSCENC =        75.25431677
  Ewald energy   TEWEN  =    137601.90681340
  -Hartree energ DENC   =   -181554.57922779
  -exchange      EXHF   =         0.00000000
  -V(xc)+E(xc)   XCENC  =     -1697.26177618
  PAW double counting   =     45857.43940679   -42346.29613894
  entropy T*S    EENTRO =        -0.13560843
  eigenvalues    EBANDS =     -3201.67024044
  atomic energy  EATOM  =     45086.50549395
  Solvation  Ediel_sol  =         0.00000000
  ---------------------------------------------------
  free energy    TOTEN  =      -178.83696088 eV

  energy without entropy =     -178.70135245  energy(sigma->0) =     -178.80305877


--------------------------------------------------------------------------------------------------------




--------------------------------------- Iteration      1(  12)  ---------------------------------------


    POTLOK:  cpu time   13.3197: real time   13.3225
    SETDIJ:  cpu time    0.1218: real time    0.1218
    EDDIAG:  cpu time   69.1238: real time   69.1327
  RMM-DIIS:  cpu time  192.6146: real time  192.6364
    ORTHCH:  cpu time   13.6443: real time   13.6446
       DOS:  cpu time    0.0015: real time    0.0015
    CHARGE:  cpu time   25.5214: real time   25.5220
    MIXING:  cpu time    0.6439: real time    0.6439
    --------------------------------------------
      LOOP:  cpu time  314.9909: real time  315.0253

 eigenvalue-minimisations  :   720
 total energy-change (2. order) : 0.1578497E+01  (-0.1758197E+00)
 number of electron     559.9999861 magnetization 
 augmentation part      241.4866842 magnetization 

 Broyden mixing:
  rms(total) = 0.13824E+01    rms(broyden)= 0.13821E+01
  rms(prec ) = 0.16164E+01
  weight for this iteration     100.00

 eigenvalues of (default mixing * dielectric matrix)
  average eigenvalue GAMMA=   0.2670
  0.9528  0.2652  0.2652  0.1003  0.1003  0.1140  0.0709

 Free energy of the ion-electron system (eV)
  ---------------------------------------------------
  alpha Z        PSCENC =        75.25431677
  Ewald energy   TEWEN  =    137601.90681340
  -Hartree energ DENC   =   -181578.61713457
  -exchange      EXHF   =         0.00000000
  -V(xc)+E(xc)   XCENC  =     -1697.04412857
  PAW double counting   =     45897.99565452   -42385.03202264
  entropy T*S    EENTRO =        -0.16405825
  eigenvalues    EBANDS =     -3178.06339881
  atomic energy  EATOM  =     45086.50549395
  Solvation  Ediel_sol  =         0.00000000
  ---------------------------------------------------
  free energy    TOTEN  =      -177.25846420 eV

  energy without entropy =     -177.09440595  energy(sigma->0) =     -177.21744964


--------------------------------------------------------------------------------------------------------




--------------------------------------- Iteration      1(  13)  ---------------------------------------


    POTLOK:  cpu time   13.3019: real time   13.3028
    SETDIJ:  cpu time    0.1243: real time    0.1243
    EDDIAG:  cpu time   69.3247: real time   69.3275
  RMM-DIIS:  cpu time  194.0524: real time  194.0672
    ORTHCH:  cpu time   13.7241: real time   13.7258
       DOS:  cpu time    0.0015: real time    0.0015
    CHARGE:  cpu time   25.5043: real time   25.5085
    MIXING:  cpu time    0.6870: real time    0.6870
    --------------------------------------------
      LOOP:  cpu time  316.7201: real time  316.7445

 eigenvalue-minimisations  :   726
 total energy-change (2. order) : 0.1371434E+00  (-0.1308437E+00)
 number of electron     559.9999845 magnetization 
 augmentation part      241.4601651 magnetization 

 Broyden mixing:
  rms(total) = 0.16582E+01    rms(broyden)= 0.16579E+01
  rms(prec ) = 0.20245E+01
  weight for this iteration     100.00

 eigenvalues of (default mixing * dielectric matrix)
  average eigenvalue GAMMA=   0.2612
  1.0008  0.3006  0.3006  0.1308  0.1079  0.1079  0.0707  0.0707

 Free energy of the ion-electron system (eV)
  ---------------------------------------------------
  alpha Z        PSCENC =        75.25431677
  Ewald energy   TEWEN  =    137601.90681340
  -Hartree energ DENC   =   -181602.25231033
  -exchange      EXHF   =         0.00000000
  -V(xc)+E(xc)   XCENC  =     -1696.73572295
  PAW double counting   =     45939.07944847   -42424.15061723
  entropy T*S    EENTRO =        -0.12694812
  eigenvalues    EBANDS =     -3156.60179479
  atomic energy  EATOM  =     45086.50549395
  Solvation  Ediel_sol  =         0.00000000
  ---------------------------------------------------
  free energy    TOTEN  =      -177.12132083 eV

  energy without entropy =     -176.99437271  energy(sigma->0) =     -177.08958380


--------------------------------------------------------------------------------------------------------




--------------------------------------- Iteration      1(  14)  ---------------------------------------


    POTLOK:  cpu time   13.4075: real time   13.4086
    SETDIJ:  cpu time    0.1217: real time    0.1217
    EDDIAG:  cpu time   69.6610: real time   69.6669
  RMM-DIIS:  cpu time  193.7301: real time  193.7608
    ORTHCH:  cpu time   13.8633: real time   13.8636
       DOS:  cpu time    0.0015: real time    0.0015
    CHARGE:  cpu time   25.3369: real time   25.3398
    MIXING:  cpu time    0.7174: real time    0.7174
    --------------------------------------------
      LOOP:  cpu time  316.8393: real time  316.8803

 eigenvalue-minimisations  :   721
 total energy-change (2. order) : 0.7221546E+00  (-0.8821737E-01)
 number of electron     559.9999828 magnetization 
 augmentation part      241.5259793 magnetization 

 Broyden mixing:
  rms(total) = 0.14814E+01    rms(broyden)= 0.14810E+01
  rms(prec ) = 0.16913E+01
  weight for this iteration     100.00

 eigenvalues of (default mixing * dielectric matrix)
  average eigenvalue GAMMA=   0.2994
  1.2764  0.5510  0.2381  0.1492  0.1492  0.0950  0.0950  0.0797  0.0609

 Free energy of the ion-electron system (eV)
  ---------------------------------------------------
  alpha Z        PSCENC =        75.25431677
  Ewald energy   TEWEN  =    137601.90681340
  -Hartree energ DENC   =   -181621.87001373
  -exchange      EXHF   =         0.00000000
  -V(xc)+E(xc)   XCENC  =     -1696.46802838
  PAW double counting   =     45967.98199813   -42451.60944634
  entropy T*S    EENTRO =        -0.12165503
  eigenvalues    EBANDS =     -3137.97864504
  atomic energy  EATOM  =     45086.50549395
  Solvation  Ediel_sol  =         0.00000000
  ---------------------------------------------------
  free energy    TOTEN  =      -176.39916627 eV

  energy without entropy =     -176.27751124  energy(sigma->0) =     -176.36875251


--------------------------------------------------------------------------------------------------------




--------------------------------------- Iteration      1(  15)  ---------------------------------------


    POTLOK:  cpu time   13.4943: real time   13.4959
    SETDIJ:  cpu time    0.1278: real time    0.1278
    EDDIAG:  cpu time   69.2931: real time   69.2990
  RMM-DIIS:  cpu time  190.6212: real time  190.6357
    ORTHCH:  cpu time   13.8512: real time   13.8515
       DOS:  cpu time    0.0015: real time    0.0015
    CHARGE:  cpu time   25.7217: real time   25.7222
    MIXING:  cpu time    0.7814: real time    0.7814
    --------------------------------------------
      LOOP:  cpu time  313.8922: real time  313.9149

 eigenvalue-minimisations  :   714
 total energy-change (2. order) : 0.3113526E+00  (-0.1293809E+00)
 number of electron     559.9999859 magnetization 
 augmentation part      241.2420657 magnetization 

 Broyden mixing:
  rms(total) = 0.13447E+01    rms(broyden)= 0.13444E+01
  rms(prec ) = 0.15498E+01
  weight for this iteration     100.00

 eigenvalues of (default mixing * dielectric matrix)
  average eigenvalue GAMMA=   0.3083
  1.3998  0.6826  0.2074  0.1875  0.1875  0.0970  0.0970  0.0802  0.0802  0.0640

 Free energy of the ion-electron system (eV)
  ---------------------------------------------------
  alpha Z        PSCENC =        75.25431677
  Ewald energy   TEWEN  =    137601.90681340
  -Hartree energ DENC   =   -181684.06567292
  -exchange      EXHF   =         0.00000000
  -V(xc)+E(xc)   XCENC  =     -1695.65599653
  PAW double counting   =     46056.78941752   -42536.05120823
  entropy T*S    EENTRO =        -0.10590929
  eigenvalues    EBANDS =     -3080.66506835
  atomic energy  EATOM  =     45086.50549395
  Solvation  Ediel_sol  =         0.00000000
  ---------------------------------------------------
  free energy    TOTEN  =      -176.08781369 eV

  energy without entropy =     -175.98190440  energy(sigma->0) =     -176.06133637


--------------------------------------------------------------------------------------------------------




--------------------------------------- Iteration      1(  16)  ---------------------------------------


    POTLOK:  cpu time   13.5134: real time   13.5143
    SETDIJ:  cpu time    0.1239: real time    0.1239
    EDDIAG:  cpu time   69.6973: real time   69.7036
  RMM-DIIS:  cpu time  193.2202: real time  193.2488
    ORTHCH:  cpu time   13.7578: real time   13.7605
       DOS:  cpu time    0.0015: real time    0.0015
    CHARGE:  cpu time   25.5828: real time   25.5851
    MIXING:  cpu time    0.8528: real time    0.8529
    --------------------------------------------
      LOOP:  cpu time  316.7498: real time  316.7907

 eigenvalue-minimisations  :   721
 total energy-change (2. order) : 0.6555695E+00  (-0.7165382E-01)
 number of electron     559.9999866 magnetization 
 augmentation part      241.1086691 magnetization 

 Broyden mixing:
  rms(total) = 0.99190E+00    rms(broyden)= 0.99154E+00
  rms(prec ) = 0.11454E+01
  weight for this iteration     100.00

 eigenvalues of (default mixing * dielectric matrix)
  average eigenvalue GAMMA=   0.3176
  1.5039  0.7828  0.2571  0.2571  0.1586  0.1125  0.1125  0.0893  0.0893  0.0655
  0.0655

 Free energy of the ion-electron system (eV)
  ---------------------------------------------------
  alpha Z        PSCENC =        75.25431677
  Ewald energy   TEWEN  =    137601.90681340
  -Hartree energ DENC   =   -181714.99404191
  -exchange      EXHF   =         0.00000000
  -V(xc)+E(xc)   XCENC  =     -1695.24337666
  PAW double counting   =     46094.57029315   -42571.82147198
  entropy T*S    EENTRO =        -0.09733292
  eigenvalues    EBANDS =     -3051.51293796
  atomic energy  EATOM  =     45086.50549395
  Solvation  Ediel_sol  =         0.00000000
  ---------------------------------------------------
  free energy    TOTEN  =      -175.43224416 eV

  energy without entropy =     -175.33491125  energy(sigma->0) =     -175.40791093


--------------------------------------------------------------------------------------------------------




--------------------------------------- Iteration      1(  17)  ---------------------------------------


    POTLOK:  cpu time   13.4846: real time   13.4880
    SETDIJ:  cpu time    0.1218: real time    0.1218
    EDDIAG:  cpu time   69.3939: real time   69.3972
  RMM-DIIS:  cpu time  191.7536: real time  191.7629
    ORTHCH:  cpu time   13.7646: real time   13.7647
       DOS:  cpu time    0.0016: real time    0.0016
    CHARGE:  cpu time   25.7887: real time   25.7889
    MIXING:  cpu time    0.9048: real time    0.9048
    --------------------------------------------
      LOOP:  cpu time  315.2135: real time  315.2300

 eigenvalue-minimisations  :   717
 total energy-change (2. order) : 0.1012510E+00  (-0.5083466E-01)
 number of electron     559.9999843 magnetization 
 augmentation part      241.0859395 magnetization 

 Broyden mixing:
  rms(total) = 0.96199E+00    rms(broyden)= 0.96175E+00
  rms(prec ) = 0.11002E+01
  weight for this iteration     100.00

 eigenvalues of (default mixing * dielectric matrix)
  average eigenvalue GAMMA=   0.3313
  1.6053  0.9166  0.3301  0.3301  0.1495  0.1495  0.0965  0.0965  0.0851  0.0851
  0.0658  0.0658

 Free energy of the ion-electron system (eV)
  ---------------------------------------------------
  alpha Z        PSCENC =        75.25431677
  Ewald energy   TEWEN  =    137601.90681340
  -Hartree energ DENC   =   -181733.96637156
  -exchange      EXHF   =         0.00000000
  -V(xc)+E(xc)   XCENC  =     -1694.96361250
  PAW double counting   =     46114.95000821   -42590.85755946
  entropy T*S    EENTRO =        -0.03604822
  eigenvalues    EBANDS =     -3034.12403375
  atomic energy  EATOM  =     45086.50549395
  Solvation  Ediel_sol  =         0.00000000
  ---------------------------------------------------
  free energy    TOTEN  =      -175.33099316 eV

  energy without entropy =     -175.29494494  energy(sigma->0) =     -175.32198111


--------------------------------------------------------------------------------------------------------




--------------------------------------- Iteration      1(  18)  ---------------------------------------


    POTLOK:  cpu time   13.5050: real time   13.5060
    SETDIJ:  cpu time    0.1259: real time    0.1259
    EDDIAG:  cpu time   69.4039: real time   69.4045
  RMM-DIIS:  cpu time  188.7359: real time  188.7396
    ORTHCH:  cpu time   13.8059: real time   13.8060
       DOS:  cpu time    0.0015: real time    0.0015
    CHARGE:  cpu time   25.7036: real time   25.7038
    MIXING:  cpu time    0.9498: real time    0.9498
    --------------------------------------------
      LOOP:  cpu time  312.2316: real time  312.2370

 eigenvalue-minimisations  :   708
 total energy-change (2. order) : 0.7183088E-02  (-0.3578684E-01)
 number of electron     559.9999855 magnetization 
 augmentation part      241.0818985 magnetization 

 Broyden mixing:
  rms(total) = 0.11314E+01    rms(broyden)= 0.11313E+01
  rms(prec ) = 0.12930E+01
  weight for this iteration     100.00

 eigenvalues of (default mixing * dielectric matrix)
  average eigenvalue GAMMA=   0.3374
  1.6621  1.0664  0.3785  0.3785  0.1610  0.1610  0.0976  0.0976  0.0901  0.0901
  0.0768  0.0631  0.0631

 Free energy of the ion-electron system (eV)
  ---------------------------------------------------
  alpha Z        PSCENC =        75.25431677
  Ewald energy   TEWEN  =    137601.90681340
  -Hartree energ DENC   =   -181753.88847296
  -exchange      EXHF   =         0.00000000
  -V(xc)+E(xc)   XCENC  =     -1694.70863570
  PAW double counting   =     46130.07222828   -42604.69221994
  entropy T*S    EENTRO =        -0.00166485
  eigenvalues    EBANDS =     -3015.77166903
  atomic energy  EATOM  =     45086.50549395
  Solvation  Ediel_sol  =         0.00000000
  ---------------------------------------------------
  free energy    TOTEN  =      -175.32381008 eV

  energy without entropy =     -175.32214522  energy(sigma->0) =     -175.32339386


--------------------------------------------------------------------------------------------------------




--------------------------------------- Iteration      1(  19)  ---------------------------------------


    POTLOK:  cpu time   13.4569: real time   13.4579
    SETDIJ:  cpu time    0.1222: real time    0.1222
    EDDIAG:  cpu time   69.9335: real time   69.9344
  RMM-DIIS:  cpu time  187.8085: real time  187.8131
    ORTHCH:  cpu time   13.7212: real time   13.7212
       DOS:  cpu time    0.0015: real time    0.0015
    CHARGE:  cpu time   25.8729: real time   25.8730
    MIXING:  cpu time    1.0110: real time    1.0110
    --------------------------------------------
      LOOP:  cpu time  311.9277: real time  311.9343

 eigenvalue-minimisations  :   706
 total energy-change (2. order) : 0.2975399E+00  (-0.2940201E-01)
 number of electron     559.9999857 magnetization 
 augmentation part      241.1112678 magnetization 

 Broyden mixing:
  rms(total) = 0.81097E+00    rms(broyden)= 0.81077E+00
  rms(prec ) = 0.92487E+00
  weight for this iteration     100.00

 eigenvalues of (default mixing * dielectric matrix)
  average eigenvalue GAMMA=   0.3389
  1.7469  1.1143  0.4134  0.4134  0.1769  0.1769  0.1291  0.1017  0.1017  0.0903
  0.0903  0.0652  0.0652  0.0596

 Free energy of the ion-electron system (eV)
  ---------------------------------------------------
  alpha Z        PSCENC =        75.25431677
  Ewald energy   TEWEN  =    137601.90681340
  -Hartree energ DENC   =   -181771.30140694
  -exchange      EXHF   =         0.00000000
  -V(xc)+E(xc)   XCENC  =     -1694.52985269
  PAW double counting   =     46137.20090146   -42610.86710840
  entropy T*S    EENTRO =        -0.03762985
  eigenvalues    EBANDS =     -2999.15779789
  atomic energy  EATOM  =     45086.50549395
  Solvation  Ediel_sol  =         0.00000000
  ---------------------------------------------------
  free energy    TOTEN  =      -175.02627020 eV

  energy without entropy =     -174.98864035  energy(sigma->0) =     -175.01686274


--------------------------------------------------------------------------------------------------------




--------------------------------------- Iteration      1(  20)  ---------------------------------------


    POTLOK:  cpu time   13.4288: real time   13.4296
    SETDIJ:  cpu time    0.1227: real time    0.1227
    EDDIAG:  cpu time   69.6712: real time   69.6721
  RMM-DIIS:  cpu time  189.3729: real time  189.3829
    ORTHCH:  cpu time   13.7138: real time   13.7141
       DOS:  cpu time    0.0015: real time    0.0015
    CHARGE:  cpu time   25.8516: real time   25.8520
    MIXING:  cpu time    1.0731: real time    1.0732
    --------------------------------------------
      LOOP:  cpu time  313.2357: real time  313.2481

 eigenvalue-minimisations  :   710
 total energy-change (2. order) : 0.7605763E-01  (-0.2132621E-01)
 number of electron     559.9999855 magnetization 
 augmentation part      241.1243229 magnetization 

 Broyden mixing:
  rms(total) = 0.70569E+00    rms(broyden)= 0.70550E+00
  rms(prec ) = 0.83665E+00
  weight for this iteration     100.00

 eigenvalues of (default mixing * dielectric matrix)
  average eigenvalue GAMMA=   0.3474
  1.7415  1.3168  0.4212  0.4212  0.3089  0.1690  0.1690  0.0982  0.0982  0.0927
  0.0927  0.0869  0.0723  0.0612  0.0612

 Free energy of the ion-electron system (eV)
  ---------------------------------------------------
  alpha Z        PSCENC =        75.25431677
  Ewald energy   TEWEN  =    137601.90681340
  -Hartree energ DENC   =   -181786.28306846
  -exchange      EXHF   =         0.00000000
  -V(xc)+E(xc)   XCENC  =     -1694.39597157
  PAW double counting   =     46141.59320617   -42614.53091713
  entropy T*S    EENTRO =        -0.09912332
  eigenvalues    EBANDS =     -2984.90096238
  atomic energy  EATOM  =     45086.50549395
  Solvation  Ediel_sol  =         0.00000000
  ---------------------------------------------------
  free energy    TOTEN  =      -174.95021257 eV

  energy without entropy =     -174.85108925  energy(sigma->0) =     -174.92543174


--------------------------------------------------------------------------------------------------------




--------------------------------------- Iteration      1(  21)  ---------------------------------------


    POTLOK:  cpu time   13.4465: real time   13.4499
    SETDIJ:  cpu time    0.1243: real time    0.1243
    EDDIAG:  cpu time   69.7385: real time   69.7400
  RMM-DIIS:  cpu time  187.2712: real time  187.2809
    ORTHCH:  cpu time   13.7610: real time   13.7613
       DOS:  cpu time    0.0015: real time    0.0015
    CHARGE:  cpu time   26.1923: real time   26.1930
    MIXING:  cpu time    1.1523: real time    1.1523
    --------------------------------------------
      LOOP:  cpu time  311.6875: real time  311.7032

 eigenvalue-minimisations  :   707
 total energy-change (2. order) :-0.1282436E+00  (-0.2295256E-01)
 number of electron     559.9999847 magnetization 
 augmentation part      241.0852042 magnetization 

 Broyden mixing:
  rms(total) = 0.80294E+00    rms(broyden)= 0.80279E+00
  rms(prec ) = 0.92561E+00
  weight for this iteration     100.00

 eigenvalues of (default mixing * dielectric matrix)
  average eigenvalue GAMMA=   0.3635
  1.8180  1.4485  0.7213  0.3703  0.3703  0.1671  0.1671  0.0983  0.0983  0.1006
  0.0934  0.0934  0.0780  0.0702  0.0603  0.0603

 Free energy of the ion-electron system (eV)
  ---------------------------------------------------
  alpha Z        PSCENC =        75.25431677
  Ewald energy   TEWEN  =    137601.90681340
  -Hartree energ DENC   =   -181804.82766993
  -exchange      EXHF   =         0.00000000
  -V(xc)+E(xc)   XCENC  =     -1694.22071122
  PAW double counting   =     46140.68635069   -42612.85770060
  entropy T*S    EENTRO =        -0.13513614
  eigenvalues    EBANDS =     -2967.39021311
  atomic energy  EATOM  =     45086.50549395
  Solvation  Ediel_sol  =         0.00000000
  ---------------------------------------------------
  free energy    TOTEN  =      -175.07845619 eV

  energy without entropy =     -174.94332005  energy(sigma->0) =     -175.04467215


--------------------------------------------------------------------------------------------------------




--------------------------------------- Iteration      1(  22)  ---------------------------------------


    POTLOK:  cpu time   13.4123: real time   13.4156
    SETDIJ:  cpu time    0.1244: real time    0.1244
    EDDIAG:  cpu time   69.6892: real time   69.6928
  RMM-DIIS:  cpu time  188.0643: real time  188.0819
    ORTHCH:  cpu time   13.8100: real time   13.8100
       DOS:  cpu time    0.0016: real time    0.0016
    CHARGE:  cpu time   25.9999: real time   26.0000
    MIXING:  cpu time    1.1900: real time    1.1900
    --------------------------------------------
      LOOP:  cpu time  312.2917: real time  312.3164

 eigenvalue-minimisations  :   707
 total energy-change (2. order) : 0.1681153E+00  (-0.1798201E-01)
 number of electron     559.9999857 magnetization 
 augmentation part      241.0624948 magnetization 

 Broyden mixing:
  rms(total) = 0.55711E+00    rms(broyden)= 0.55698E+00
  rms(prec ) = 0.62753E+00
  weight for this iteration     100.00

 eigenvalues of (default mixing * dielectric matrix)
  average eigenvalue GAMMA=   0.3693
  2.0459  1.4151  0.8212  0.3854  0.3854  0.1703  0.1703  0.1455  0.0992  0.0992
  0.0966  0.0966  0.0788  0.0788  0.0682  0.0606  0.0606

 Free energy of the ion-electron system (eV)
  ---------------------------------------------------
  alpha Z        PSCENC =        75.25431677
  Ewald energy   TEWEN  =    137601.90681340
  -Hartree energ DENC   =   -181822.56911120
  -exchange      EXHF   =         0.00000000
  -V(xc)+E(xc)   XCENC  =     -1694.00340324
  PAW double counting   =     46141.58535685   -42612.99614190
  entropy T*S    EENTRO =        -0.12975468
  eigenvalues    EBANDS =     -2950.46391079
  atomic energy  EATOM  =     45086.50549395
  Solvation  Ediel_sol  =         0.00000000
  ---------------------------------------------------
  free energy    TOTEN  =      -174.91034084 eV

  energy without entropy =     -174.78058616  energy(sigma->0) =     -174.87790217


--------------------------------------------------------------------------------------------------------




--------------------------------------- Iteration      1(  23)  ---------------------------------------


    POTLOK:  cpu time   13.4517: real time   13.4538
    SETDIJ:  cpu time    0.1224: real time    0.1224
    EDDIAG:  cpu time   69.7270: real time   69.7318
  RMM-DIIS:  cpu time  185.4232: real time  185.4263
    ORTHCH:  cpu time   13.8070: real time   13.8086
       DOS:  cpu time    0.0015: real time    0.0015
    CHARGE:  cpu time   26.0537: real time   26.0537
    MIXING:  cpu time    1.2857: real time    1.2857
    --------------------------------------------
      LOOP:  cpu time  309.8722: real time  309.8839

 eigenvalue-minimisations  :   700
 total energy-change (2. order) : 0.1288746E+00  (-0.1339905E-01)
 number of electron     559.9999851 magnetization 
 augmentation part      241.1031185 magnetization 

 Broyden mixing:
  rms(total) = 0.45816E+00    rms(broyden)= 0.45804E+00
  rms(prec ) = 0.51973E+00
  weight for this iteration     100.00

 eigenvalues of (default mixing * dielectric matrix)
  average eigenvalue GAMMA=   0.3637
  2.0697  1.4819  0.7932  0.3922  0.3922  0.2106  0.1753  0.1753  0.1127  0.1127
[...]
 -0.006  -0.012   0.004   0.004   0.005  -0.006  -0.011   0.004
 -0.010  -0.020   0.006   0.007   0.009  -0.010  -0.019   0.006
 -0.015  -0.005   0.013   0.000   0.022  -0.014  -0.005   0.012
  0.000  -0.023  -0.006  -0.015  -0.000   0.000  -0.022  -0.006
 -0.022   0.000   0.009  -0.005  -0.016  -0.022   0.000   0.008
 -0.017  -0.006   0.015   0.000   0.027  -0.017  -0.006   0.015
  0.000  -0.027  -0.007  -0.018   0.000   0.000  -0.027  -0.007
 -0.027   0.000   0.010  -0.006  -0.019  -0.026   0.000   0.010
 total augmentation occupancy for first ion, spin component:           1
  1.538  -0.030   0.006   0.019   0.024   0.075  -0.007  -0.002   0.035  -0.010   0.089  -0.029   0.012   0.002   0.002  -0.019
 -0.030   1.400   0.024   0.069   0.002  -0.006   0.070   0.012  -0.014  -0.009   0.212  -0.064   0.019   0.003   0.002  -0.006
  0.006   0.024   1.546   0.002   0.003  -0.002   0.014   0.073  -0.012   0.017  -0.051   0.017  -0.003  -0.006  -0.005   0.016
  0.019   0.069   0.002   1.340   0.041   0.033  -0.013  -0.012   0.091  -0.021  -0.078   0.020  -0.002  -0.008  -0.003   0.001
  0.024   0.002   0.003   0.041   1.442  -0.011  -0.009   0.016  -0.021   0.066  -0.091   0.030  -0.003  -0.009  -0.009   0.027
  0.075  -0.006  -0.002   0.033  -0.011   0.217   0.018  -0.002  -0.045   0.004  -0.049   0.002   0.017  -0.010   0.035  -0.004
 -0.007   0.070   0.014  -0.013  -0.009   0.018   0.262  -0.024  -0.003   0.006  -0.108   0.007  -0.001   0.051  -0.009  -0.000
 -0.002   0.012   0.073  -0.012   0.016  -0.002  -0.024   0.215   0.014  -0.020   0.028  -0.001  -0.012   0.009  -0.018   0.003
  0.035  -0.014  -0.012   0.091  -0.021  -0.045  -0.003   0.014   0.260   0.007   0.043  -0.004  -0.009   0.036   0.004   0.000
 -0.010  -0.009   0.017  -0.021   0.066   0.004   0.006  -0.020   0.007   0.258   0.046  -0.003  -0.038   0.002   0.049   0.007
  0.089   0.212  -0.051  -0.078  -0.091  -0.049  -0.108   0.028   0.043   0.046   0.951  -0.140   0.084   0.014   0.064  -0.013
 -0.029  -0.064   0.017   0.020   0.030   0.002   0.007  -0.001  -0.004  -0.003  -0.140   0.023  -0.014  -0.003  -0.010   0.003
  0.012   0.019  -0.003  -0.002  -0.003   0.017  -0.001  -0.012  -0.009  -0.038   0.084  -0.014   0.029  -0.008  -0.004  -0.003
  0.002   0.003  -0.006  -0.008  -0.009  -0.010   0.051   0.009   0.036   0.002   0.014  -0.003  -0.008   0.036   0.004   0.000
  0.002   0.002  -0.005  -0.003  -0.009   0.035  -0.009  -0.018   0.004   0.049   0.064  -0.010  -0.004   0.004   0.035  -0.000
 -0.019  -0.006   0.016   0.001   0.027  -0.004  -0.000   0.003   0.000   0.007  -0.013   0.003  -0.003   0.000  -0.000   0.001
  0.001  -0.028  -0.007  -0.018   0.001   0.001  -0.008  -0.002  -0.006  -0.000  -0.003   0.001   0.000  -0.003  -0.000   0.000
 -0.028   0.001   0.012  -0.005  -0.020  -0.006   0.001   0.003  -0.001  -0.007  -0.008   0.001  -0.000  -0.000  -0.003   0.000


------------------------ aborting loop because EDIFF is reached ----------------------------------------


    CHARGE:  cpu time   26.1321: real time   26.1325
    FORLOC:  cpu time    6.8675: real time    6.8676
    FORNL :  cpu time   66.7074: real time   66.7081
    STRESS:  cpu time  201.5620: real time  201.5664
    FORCOR:  cpu time   22.3979: real time   22.3984
    FORHAR:  cpu time    9.9703: real time    9.9704
    MIXING:  cpu time    4.2202: real time    4.2203
    OFIELD:  cpu time    0.0000: real time    0.0000

  FORCE on cell =-STRESS in cart. coord.  units (eV):
  Direction    XX          YY          ZZ          XY          YZ          ZX
  --------------------------------------------------------------------------------------
  Alpha Z    75.25432    75.25432    75.25432
  Ewald   43995.58837 48772.21307 44833.99971   986.26100 -1622.45290  -587.85372
  Hartree 58908.65884 63365.55369 59689.23018   897.84869 -1467.70298  -534.54494
  E(xc)   -2905.08277 -2902.68128 -2904.60287     0.58939    -1.21489    -0.34233
  Local  ************************************ -1875.02895  3072.81179  1116.91920
  n-local  -880.46291  -887.94516  -881.60561    -2.05004     3.25495     1.58775
  augment  4105.70037  4101.05549  4104.55375    -0.98117     2.40238     0.64489
  Kinetic  7812.51377  7786.57060  7807.29258    -6.48125    13.37016     3.56923
  Fock        0.00000     0.00000     0.00000     0.00000     0.00000     0.00000
  -------------------------------------------------------------------------------------
  Total    -113.47248  -114.61182  -113.91878     0.15767     0.46851    -0.01992
  in kB      -6.73345    -6.80105    -6.75993     0.00936     0.02780    -0.00118
  external pressure =       -6.76 kB  Pullay stress =        0.00 kB


 VOLUME and BASIS-vectors are now :
 -----------------------------------------------------------------------------
  energy-cutoff  :      400.00
  volume of cell :    27000.00
      direct lattice vectors                 reciprocal lattice vectors
    30.000000000  0.000000000  0.000000000     0.033333333  0.000000000  0.000000000
     0.000000000 30.000000000  0.000000000     0.000000000  0.033333333  0.000000000
     0.000000000  0.000000000 30.000000000     0.000000000  0.000000000  0.033333333

  length of vectors
    30.000000000 30.000000000 30.000000000     0.033333333  0.033333333  0.033333333


 FORCES acting on ions
    electron-ion (+dipol)            ewald-force                    non-local-force                 convergence-correction
 -----------------------------------------------------------------------------------------------
   0.391E+03 0.959E+03 0.444E+03   -.389E+03 -.956E+03 -.443E+03   -.151E+01 -.185E+01 -.237E+00   0.359E-02 0.420E-02 0.172E-02
   -.973E+03 -.397E+03 0.419E+03   0.971E+03 0.395E+03 -.418E+03   0.181E+01 0.151E+01 -.225E+00   -.916E-03 -.598E-02 -.208E-02
   -.405E+03 0.963E+03 0.434E+03   0.403E+03 -.960E+03 -.433E+03   0.152E+01 -.181E+01 -.260E+00   -.242E-02 0.449E-02 0.619E-03
   0.973E+03 -.400E+03 0.420E+03   -.970E+03 0.398E+03 -.420E+03   -.181E+01 0.150E+01 -.205E+00   0.157E-02 -.356E-02 0.147E-02
   -.310E+01 0.580E+03 0.975E+03   0.308E+01 -.579E+03 -.971E+03   0.818E-02 -.310E+00 -.235E+01   0.146E-02 0.312E-03 0.579E-02
   -.280E+02 0.532E+03 -.978E+03   0.282E+02 -.531E+03 0.975E+03   -.125E+00 -.458E+00 0.225E+01   -.361E-02 0.119E-02 -.280E-02
   -.357E+02 0.112E+04 0.620E+02   0.358E+02 -.111E+04 -.622E+02   -.790E-01 -.299E+01 0.114E+00   -.488E-03 0.502E-02 -.344E-02
   0.114E+04 -.104E+02 0.535E+01   -.113E+04 0.104E+02 -.536E+01   -.311E+01 -.830E-02 0.476E-02   0.202E-02 -.288E-02 0.920E-03
   -.114E+04 -.464E+01 0.248E+01   0.113E+04 0.465E+01 -.249E+01   0.311E+01 -.865E-03 0.728E-02   -.117E-02 -.430E-02 -.262E-02
   -.108E+01 -.113E+04 0.183E+01   0.108E+01 0.113E+04 -.184E+01   -.496E-03 0.310E+01 0.856E-02   -.180E-03 0.315E-02 0.103E-02
   -.583E+03 0.573E+03 0.819E+03   0.580E+03 -.571E+03 -.816E+03   0.154E+01 -.157E+01 -.219E+01   -.358E-02 0.608E-03 0.411E-02
   -.599E+03 0.561E+03 -.816E+03   0.596E+03 -.559E+03 0.812E+03   0.155E+01 -.157E+01 0.221E+01   -.281E-02 -.194E-02 -.284E-02
   0.578E+03 -.581E+03 0.815E+03   -.576E+03 0.578E+03 -.812E+03   -.155E+01 0.157E+01 -.220E+01   -.578E-04 -.320E-02 -.143E-02
   0.579E+03 -.585E+03 -.813E+03   -.576E+03 0.583E+03 0.809E+03   -.156E+01 0.154E+01 0.220E+01   0.622E-03 -.240E-02 0.188E-02
   0.579E+03 0.571E+03 0.823E+03   -.577E+03 -.569E+03 -.820E+03   -.156E+01 -.156E+01 -.219E+01   0.517E-02 -.213E-02 0.376E-02
   0.596E+03 0.515E+03 -.827E+03   -.594E+03 -.512E+03 0.824E+03   -.148E+01 -.163E+01 0.209E+01   0.273E-02 0.687E-03 -.233E-02
   -.579E+03 -.580E+03 0.814E+03   0.577E+03 0.578E+03 -.811E+03   0.156E+01 0.155E+01 -.220E+01   0.134E-02 -.422E-02 -.150E-02
   -.581E+03 -.583E+03 -.812E+03   0.579E+03 0.580E+03 0.809E+03   0.156E+01 0.155E+01 0.220E+01   -.129E-02 0.931E-03 0.364E-02
   0.358E+03 0.791E+03 -.327E+03   -.357E+03 -.793E+03 0.329E+03   -.391E+00 0.176E+01 -.137E+01   0.117E-03 0.409E-02 -.275E-02
   -.975E+03 -.399E+03 -.415E+03   0.972E+03 0.397E+03 0.414E+03   0.182E+01 0.149E+01 0.230E+00   0.223E-02 -.380E-02 -.269E-02
   -.326E+03 0.311E+03 0.462E+03   0.327E+03 -.312E+03 -.463E+03   -.389E+00 0.349E+00 0.564E+00   -.221E-02 -.448E-02 0.774E-04
   0.975E+03 0.384E+03 0.426E+03   -.972E+03 -.381E+03 -.425E+03   -.180E+01 -.151E+01 -.198E+00   0.573E-02 -.464E-02 0.196E-02
   -.395E+03 -.972E+03 0.418E+03   0.393E+03 0.969E+03 -.418E+03   0.151E+01 0.183E+01 -.223E+00   0.398E-02 -.195E-02 -.377E-02
   -.446E+03 0.936E+03 -.399E+03   0.444E+03 -.933E+03 0.398E+03   0.127E+01 -.188E+01 0.228E+00   -.315E-02 0.293E-02 -.426E-02
   0.974E+03 -.405E+03 -.414E+03   -.971E+03 0.403E+03 0.413E+03   -.181E+01 0.150E+01 0.228E+00   0.300E-02 -.250E-02 0.247E-02
   -.976E+03 0.389E+03 0.421E+03   0.973E+03 -.386E+03 -.420E+03   0.181E+01 -.151E+01 -.207E+00   -.441E-02 -.251E-02 0.450E-04
   0.393E+03 -.973E+03 0.418E+03   -.391E+03 0.970E+03 -.418E+03   -.150E+01 0.182E+01 -.228E+00   -.755E-03 -.185E-02 -.114E-02
   0.320E+03 0.308E+03 0.465E+03   -.320E+03 -.309E+03 -.466E+03   0.367E+00 0.393E+00 0.502E+00   0.505E-02 -.495E-02 0.270E-02
   -.143E+02 0.610E+03 0.247E+02   0.142E+02 -.611E+03 -.245E+02   0.118E+00 0.733E+00 -.143E+00   -.925E-03 0.112E-02 -.407E-02
   -.589E+03 -.408E+01 0.968E+03   0.588E+03 0.405E+01 -.964E+03   0.312E+00 0.241E-01 -.235E+01   -.210E-02 -.468E-02 0.221E-02
   -.594E+03 -.107E+02 -.965E+03   0.593E+03 0.107E+02 0.961E+03   0.316E+00 0.847E-03 0.234E+01   -.265E-02 -.319E-02 -.120E-02
   0.587E+03 -.576E+01 0.970E+03   -.586E+03 0.577E+01 -.966E+03   -.291E+00 -.599E-02 -.234E+01   0.446E-02 -.567E-02 0.208E-02
   0.589E+03 -.207E+02 -.966E+03   -.589E+03 0.207E+02 0.963E+03   -.324E+00 0.415E-01 0.236E+01   0.243E-02 -.236E-02 -.777E-03
   0.770E+03 0.729E+03 0.278E+02   -.768E+03 -.727E+03 -.278E+02   -.121E+01 -.124E+01 0.147E-01   0.562E-02 -.382E-04 -.106E-02
   -.763E+03 -.764E+03 0.216E+01   0.761E+03 0.762E+03 -.215E+01   0.114E+01 0.115E+01 -.427E-02   0.225E-02 -.404E-02 -.324E-02
   -.775E+03 0.748E+03 0.101E+02   0.773E+03 -.746E+03 -.100E+02   0.118E+01 -.112E+01 -.228E-01   -.366E-02 0.795E-03 -.413E-02
   0.760E+03 -.766E+03 0.294E+01   -.759E+03 0.764E+03 -.294E+01   -.114E+01 0.114E+01 -.384E-02   -.164E-02 -.465E-02 0.238E-02
   -.167E+01 -.539E+01 0.107E+04   0.167E+01 0.539E+01 -.107E+04   -.341E-02 0.393E-03 -.161E+01   0.267E-02 -.662E-02 0.360E-02
   -.559E+01 -.192E+02 -.107E+04   0.559E+01 0.192E+02 0.107E+04   0.107E-01 0.441E-01 0.162E+01   -.479E-02 -.346E-02 -.151E-02
   0.983E+03 0.368E+03 -.410E+03   -.980E+03 -.366E+03 0.410E+03   -.185E+01 -.150E+01 0.231E+00   0.560E-02 -.286E-02 0.121E-03
   -.396E+03 -.973E+03 -.415E+03   0.394E+03 0.971E+03 0.414E+03   0.150E+01 0.183E+01 0.205E+00   -.817E-03 -.685E-03 0.434E-02
   -.335E+03 0.299E+03 -.448E+03   0.335E+03 -.299E+03 0.448E+03   -.342E+00 0.399E+00 -.524E+00   -.514E-02 -.403E-02 -.559E-02
   0.320E+03 -.328E+03 0.458E+03   -.320E+03 0.328E+03 -.458E+03   0.369E+00 -.371E+00 0.524E+00   0.292E-02 -.109E-01 0.135E-02
   0.318E+03 0.283E+03 -.445E+03   -.318E+03 -.284E+03 0.445E+03   0.331E+00 0.591E+00 -.451E+00   0.133E-02 -.309E-02 -.234E-02
   -.981E+03 0.385E+03 -.414E+03   0.978E+03 -.383E+03 0.413E+03   0.182E+01 -.149E+01 0.225E+00   -.559E-03 -.429E-02 -.583E-02
   0.393E+03 -.974E+03 -.415E+03   -.391E+03 0.971E+03 0.414E+03   -.149E+01 0.183E+01 0.206E+00   -.347E-02 -.255E-02 0.530E-02
   -.323E+03 -.326E+03 0.457E+03   0.324E+03 0.327E+03 -.457E+03   -.354E+00 -.375E+00 0.518E+00   0.578E-05 -.100E-01 -.282E-02
   0.640E+03 -.154E+02 0.780E+01   -.641E+03 0.153E+02 -.778E+01   0.727E+00 0.222E-01 -.149E-01   0.570E-02 -.696E-02 0.303E-03
   -.644E+03 -.870E+01 0.452E+01   0.645E+03 0.872E+01 -.452E+01   -.741E+00 -.162E-01 0.899E-02   -.198E-02 -.889E-02 -.451E-02
   -.968E+00 -.589E+03 0.967E+03   0.971E+00 0.588E+03 -.963E+03   -.531E-02 0.314E+00 -.235E+01   0.342E-02 -.602E-02 -.229E-02
   -.192E+01 -.593E+03 -.964E+03   0.192E+01 0.592E+03 0.961E+03   -.590E-04 0.292E+00 0.235E+01   -.381E-02 -.305E-02 0.375E-02
   -.426E+01 -.145E+02 0.737E+01   0.426E+01 0.145E+02 -.735E+01   0.404E-02 0.123E-01 -.527E-02   -.145E-02 -.998E-02 -.271E-02
   0.320E+03 -.333E+03 -.450E+03   -.320E+03 0.334E+03 0.451E+03   0.377E+00 -.421E+00 -.521E+00   -.142E-02 -.662E-02 0.255E-02
   -.325E+03 -.330E+03 -.451E+03   0.326E+03 0.331E+03 0.452E+03   -.375E+00 -.391E+00 -.518E+00   -.446E-02 -.693E-02 0.363E-04
   -.167E+01 -.644E+03 0.285E+01   0.168E+01 0.645E+03 -.287E+01   0.142E-02 -.721E+00 0.143E-01   -.154E-02 -.807E-02 -.338E-03
   0.644E+02 0.191E+03 -.917E+02   -.583E+02 -.169E+03 0.806E+02   -.504E+01 -.178E+02 0.864E+01   -.274E-04 0.101E-02 -.586E-03
   0.187E+03 0.606E+03 -.301E+03   -.203E+03 -.662E+03 0.328E+03   0.151E+02 0.535E+02 -.260E+02   0.769E-05 0.161E-02 -.836E-03
 -----------------------------------------------------------------------------------------------
   -.109E+02 -.391E+02 0.190E+02   0.512E-12 -.455E-12 0.568E-13   0.109E+02 0.393E+02 -.190E+02   0.756E-02 -.155E+00 -.173E-01
 
 
 POSITION                                       TOTAL-FORCE (eV/Angst)
 -----------------------------------------------------------------------------------
     13.37281      9.84801     12.50759         0.706453      1.109583      0.279195
     20.15199     16.62719     12.50759        -1.106430     -0.710833      0.296763
     16.62719      9.84801     12.50759        -0.710220      1.100198      0.298697
      9.84801     16.62719     12.50759         1.109390     -0.708126      0.286270
     15.00000     11.47521     10.20639        -0.002825      0.410994      1.284706
     15.00000     11.47521     19.79360         0.054009      0.498692     -1.233288
     15.00000      8.28283     15.00000         0.022427      1.519063     -0.035955
      8.28283     15.00000     15.00000         1.519231      0.003166     -0.003042
     21.71717     15.00000     15.00000        -1.519611      0.000018     -0.004740
     15.00000     21.71717     15.00000        -0.000400     -1.515498     -0.000534
     18.35858     11.64142     10.25025        -0.750161      0.770826      1.071752
     18.35858     11.64142     19.74975        -0.771837      0.752569     -1.083565
     11.64142     18.35858     10.25025         0.750464     -0.762758      1.072785
     11.64142     18.35858     19.74975         0.766053     -0.746177     -1.078621
     11.64142     11.64142     10.25025         0.757088      0.761282      1.072125
     11.64142     11.64142     19.74975         0.746076      0.796868     -1.062966
     18.35858     18.35858     10.25025        -0.756234     -0.756401      1.071781
     18.35858     18.35858     19.74975        -0.760799     -0.754325     -1.073971
     13.37281      9.84801     17.49241         0.270019     -0.964671      0.712363
     20.15199     16.62719     17.49241        -1.107675     -0.701984     -0.292643
     16.73751     13.26249     12.54279         0.133338     -0.097909     -0.176837
      9.84801     13.37281     12.50759         1.109279      0.725835      0.277450
     16.62719     20.15199     12.50759        -0.705888     -1.108624      0.290636
     16.62719      9.84801     17.49241        -0.598900      1.144386     -0.306230
      9.84801     16.62719     17.49241         1.108072     -0.707886     -0.292233
     20.15199     13.37281     12.50759        -1.107818      0.709038      0.284145
     13.37281     20.15199     12.50759         0.705271     -1.108966      0.291887
     13.26249     13.26249     12.54279        -0.113467     -0.119240     -0.152915
     15.00000     11.52498     15.00000        -0.032131     -0.208232      0.028553
     18.52479     15.00000     10.20639        -0.414102     -0.013183      1.283288
     18.52479     15.00000     19.79360        -0.413753      0.001247     -1.280913
     11.47521     15.00000     10.20640         0.407957      0.002359      1.285460
     11.47521     15.00000     19.79360         0.411992     -0.012021     -1.279467
     11.49535     11.49535     15.00000         0.833836      0.867887     -0.022086
     18.50465     18.50465     15.00000        -0.828358     -0.829057      0.000477
     18.50465     11.49535     15.00000        -0.831316      0.824195      0.014667
     11.49535     18.50465     15.00000         0.827028     -0.827256     -0.000888
     15.00000     15.00000     10.04368        -0.000341      0.001140      1.175618
     15.00000     15.00000     19.95633         0.005936     -0.015770     -1.176448
      9.84801     13.37281     17.49241         1.103481      0.712195     -0.290231
     16.62719     20.15199     17.49241        -0.702252     -1.115197     -0.285420
     16.73751     13.26249     17.45721         0.103452     -0.116441      0.154917
     13.26249     16.73751     12.54279        -0.114030      0.111991     -0.158014
     13.26249     13.26249     17.45721        -0.098100     -0.170383      0.123799
     20.15199     13.37281     17.49241        -1.107638      0.704423     -0.292373
     13.37281     20.15199     17.49241         0.697977     -1.115979     -0.282695
     16.73751     16.73751     12.54279         0.108625      0.115867     -0.155518
     11.52498     15.00000     15.00000        -0.231098     -0.008251      0.004190
     18.47502     15.00000     15.00000         0.230059     -0.000149     -0.002715
     15.00000     18.52480     10.20639         0.000389     -0.412977      1.282488
     15.00000     18.52480     19.79360        -0.002826     -0.405430     -1.283596
     15.00000     15.00000     15.00000        -0.000368     -0.019237      0.012244
     13.26249     16.73751     17.45721        -0.109589      0.143568      0.164103
     16.73751     16.73751     17.45721         0.110227      0.115131      0.157407
     15.00000     18.47502     15.00000         0.001133      0.227532     -0.005440
     13.01403      7.90289     18.45252         1.061046      4.877939     -2.433945
     12.73877      6.91921     18.93105        -0.762143     -2.975030      1.469528
 -----------------------------------------------------------------------------------
    total drift:                                0.006354     -0.001796      0.000558


--------------------------------------------------------------------------------------------------------



  FREE ENERGIE OF THE ION-ELECTRON SYSTEM (eV)
  ---------------------------------------------------
  free  energy   TOTEN  =      -174.65182704 eV

  energy  without entropy=     -174.53114743  energy(sigma->0) =     -174.62165714
 


--------------------------------------------------------------------------------------------------------


    POTLOK:  cpu time   14.3100: real time   14.3101


--------------------------------------------------------------------------------------------------------


     LOOP+:  cpu time18027.1102: real time18028.1666
    4ORBIT:  cpu time    0.0000: real time    0.0000

 total amount of memory used by VASP MPI-rank0  5486941. kBytes
=======================================================================

   base      :      30000. kBytes
   nonlr-proj:      17126. kBytes
   fftplans  :     924480. kBytes
   grid      :    1872000. kBytes
   one-center:        886. kBytes
   wavefun   :    2642449. kBytes
 
  
  
 General timing and accounting informations for this job:
 ========================================================
  
                  Total CPU time used (sec):    18101.488
                            User time (sec):    17117.644
                          System time (sec):      983.844
                         Elapsed time (sec):    18102.679
  
                   Maximum memory used (kb):     7178544.
                   Average memory used (kb):           0.
  
                          Minor page faults:    801817086
                          Major page faults:            0
                 Voluntary context switches:          471
