   57   57    1    1
  0.4736842E+03  0.3000000E-08  0.3000000E-08  0.3000000E-08  0.5000000E-15
  1.000000000000000E-004
  CAR 
 6_Pd100_top_free_z(O)                   
    560      1    336
 
  0.0000000E+00  0.0000000E+00  0.0000000E+00  0.1000000E+01
    1      -28.817963   1.000000
    2      -13.424777   1.000000
    3      -11.196913   1.000000
    4      -11.180710   1.000000
    5       -9.733407   1.000000
    6       -6.631104   1.000000
    7       -6.121939   1.000000
    8       -6.117918   1.000000
    9       -6.103424   1.000000
   10       -5.813807   1.000000
   11       -5.805122   1.000000
   12       -5.800736   1.000000
   13       -5.733757   1.000000
   14       -5.684864   1.000000
   15       -5.676319   1.000000
   16       -5.674644   1.000000
   17       -5.673342   1.000000
   18       -5.632258   1.000000
   19       -5.613775   1.000000
   20       -5.597929   1.000000
   21       -5.594078   1.000000
   22       -5.586830   1.000000
   23       -5.583837   1.000000
   24       -5.579558   1.000000
   25       -5.573121   1.000000
   26       -5.539945   1.000000
   27       -5.536681   1.000000
   28       -5.522749   1.000000
   29       -5.512777   1.000000
   30       -5.511368   1.000000
   31       -5.506241   1.000000
   32       -5.505442   1.000000
   33       -5.505147   1.000000
   34       -5.502151   1.000000
   35       -5.500820   1.000000
   36       -5.488489   1.000000
   37       -5.471814   1.000000
   38       -5.467445   1.000000
   39       -5.463701   1.000000
   40       -5.462059   1.000000
   41       -5.456824   1.000000
   42       -5.455456   1.000000
   43       -5.454931   1.000000
   44       -5.451375   1.000000
   45       -5.436119   1.000000
   46       -5.419244   1.000000
   47       -5.417492   1.000000
   48       -5.417089   1.000000
   49       -5.415711   1.000000
   50       -5.414289   1.000000
   51       -5.411061   1.000000
   52       -5.404009   1.000000
   53       -5.394227   1.000000
   54       -5.390965   1.000000
   55       -5.383009   1.000000
   56       -5.334447   1.000000
   57       -5.325614   1.000000
   58       -5.321380   1.000000
   59       -5.315258   1.000000
   60       -5.307013   1.000000
   61       -5.304779   1.000000
   62       -5.303664   1.000000
   63       -5.296096   1.000000
   64       -5.293762   1.000000
   65       -5.289033   1.000000
   66       -5.282045   1.000000
   67       -5.280127   1.000000
   68       -5.245213   1.000000
   69       -5.218817   1.000000
   70       -5.212532   1.000000
   71       -5.199892   1.000000
   72       -5.174457   1.000000
   73       -5.168664   1.000000
   74       -5.168493   1.000000
   75       -5.166789   1.000000
   76       -5.163294   1.000000
   77       -5.159818   1.000000
   78       -5.155909   1.000000
   79       -5.145094   1.000000
   80       -5.136237   1.000000
   81       -5.135936   1.000000
   82       -5.118871   1.000000
   83       -5.113115   1.000000
   84       -5.111833   1.000000
   85       -5.102176   1.000000
   86       -5.093984   1.000000
   87       -5.090364   1.000000
   88       -5.067511   1.000000
   89       -5.060749   1.000000
   90       -5.047343   1.000000
   91       -5.046477   1.000000
   92       -5.044976   1.000000
   93       -5.041951   1.000000
   94       -5.037017   1.000000
   95       -5.036460   1.000000
   96       -5.035990   1.000000
   97       -5.025570   1.000000
   98       -5.017563   1.000000
   99       -5.015664   1.000000
  100       -5.008665   1.000000
  101       -5.004664   1.000000
  102       -4.994688   1.000000
  103       -4.993570   1.000000
  104       -4.991493   1.000000
  105       -4.990359   1.000000
  106       -4.981216   1.000000
  107       -4.978176   1.000000
  108       -4.976442   1.000000
  109       -4.969344   1.000000
  110       -4.968527   1.000000
  111       -4.966863   1.000000
  112       -4.958802   1.000000
  113       -4.956652   1.000000
  114       -4.947646   0.999999
  115       -4.942261   0.999999
  116       -4.940968   0.999999
  117       -4.934109   0.999999
  118       -4.915658   0.999998
  119       -4.914292   0.999998
  120       -4.906805   0.999998
  121       -4.903838   0.999998
  122       -4.900945   0.999997
  123       -4.898221   0.999997
  124       -4.896138   0.999997
  125       -4.889988   0.999996
  126       -4.887010   0.999996
  127       -4.855176   0.999989
  128       -4.851381   0.999987
  129       -4.840176   0.999982
  130       -4.833892   0.999978
  131       -4.832632   0.999978
  132       -4.827883   0.999974
  133       -4.823892   0.999971
  134       -4.819246   0.999967
  135       -4.818542   0.999966
  136       -4.817339   0.999965
  137       -4.789568   0.999925
  138       -4.785733   0.999916
  139       -4.784599   0.999914
  140       -4.777424   0.999896
  141       -4.764038   0.999853
  142       -4.751345   0.999799
  143       -4.733473   0.999693
  144       -4.727925   0.999651
  145       -4.725402   0.999631
  146       -4.724948   0.999627
  147       -4.724658   0.999625
  148       -4.701675   0.999382
  149       -4.698858   0.999345
  150       -4.690313   0.999221
  151       -4.684808   0.999132
  152       -4.676872   0.998989
  153       -4.670384   0.998860
  154       -4.666018   0.998766
  155       -4.664530   0.998732
  156       -4.661478   0.998662
  157       -4.660608   0.998641
  158       -4.660245   0.998632
  159       -4.657082   0.998555
  160       -4.651426   0.998410
  161       -4.641157   0.998121
  162       -4.639591   0.998074
  163       -4.638921   0.998054
  164       -4.637848   0.998021
  165       -4.634260   0.997910
  166       -4.632839   0.997864
  167       -4.631922   0.997835
  168       -4.624463   0.997587
  169       -4.619032   0.997399
  170       -4.616712   0.997316
  171       -4.607739   0.996989
  172       -4.604411   0.996865
  173       -4.595218   0.996519
  174       -4.585420   0.996155
  175       -4.584232   0.996112
  176       -4.581192   0.996003
  177       -4.580253   0.995970
  178       -4.576387   0.995836
  179       -4.573989   0.995756
  180       -4.561491   0.995387
  181       -4.558928   0.995325
  182       -4.549983   0.995152
  183       -4.542967   0.995078
  184       -4.541914   0.995072
  185       -4.539275   0.995065
  186       -4.539232   0.995065
  187       -4.538517   0.995065
  188       -4.537916   0.995066
  189       -4.535986   0.995071
  190       -4.534732   0.995078
  191       -4.501348   0.996490
  192       -4.496117   0.996985
  193       -4.494046   0.997206
  194       -4.490337   0.997638
  195       -4.489814   0.997703
  196       -4.479623   0.999174
  197       -4.470017   1.000939
  198       -4.467549   1.001456
  199       -4.462207   1.002666
  200       -4.459167   1.003412
  201       -4.454643   1.004598
  202       -4.451342   1.005523
  203       -4.448354   1.006404
  204       -4.444700   1.007535
  205       -4.442416   1.008273
  206       -4.440055   1.009061
  207       -4.436344   1.010349
  208       -4.434767   1.010915
  209       -4.432885   1.011605
  210       -4.426602   1.014014
  211       -4.420575   1.016472
  212       -4.404707   1.023519
  213       -4.399990   1.025736
  214       -4.396683   1.027310
  215       -4.394797   1.028214
  216       -4.389578   1.030725
  217       -4.387395   1.031776
  218       -4.386963   1.031984
  219       -4.386051   1.032422
  220       -4.373287   1.038429
  221       -4.366017   1.041638
  222       -4.360998   1.043703
  223       -4.344718   1.049120
  224       -4.335998   1.050896
  225       -4.330777   1.051470
  226       -4.328383   1.051593
  227       -4.324789   1.051601
  228       -4.324066   1.051576
  229       -4.323297   1.051538
  230       -4.320569   1.051318
  231       -4.318919   1.051117
  232       -4.316602   1.050743
  233       -4.314537   1.050317
  234       -4.312592   1.049834
  235       -4.310165   1.049115
  236       -4.308984   1.048717
  237       -4.307358   1.048117
  238       -4.304036   1.046694
  239       -4.302749   1.046069
  240       -4.296735   1.042588
  241       -4.293662   1.040434
  242       -4.286978   1.034818
  243       -4.280955   1.028602
  244       -4.279328   1.026726
  245       -4.278905   1.026225
  246       -4.276324   1.023037
  247       -4.271174   1.016010
  248       -4.269082   1.012897
  249       -4.268099   1.011380
  250       -4.266222   1.008392
  251       -4.251827   0.981212
  252       -4.245304   0.966336
  253       -4.243855   0.962810
  254       -4.243045   0.960803
  255       -4.237076   0.945235
  256       -4.236568   0.943846
  257       -4.235910   0.942032
  258       -4.234368   0.937716
  259       -4.231398   0.929141
  260       -4.229850   0.924539
  261       -4.224966   0.909409
  262       -4.224129   0.906722
  263       -4.222827   0.902494
  264       -4.221920   0.899506
  265       -4.219856   0.892600
  266       -4.208937   0.853424
  267       -4.207671   0.848602
  268       -4.205272   0.839310
  269       -4.204576   0.836573
  270       -4.201241   0.823249
  271       -4.200736   0.821196
  272       -4.189404   0.773013
  273       -4.180537   0.732649
  274       -4.179853   0.729448
  275       -4.174129   0.702204
  276       -4.168705   0.675703
  277       -4.166350   0.664012
  278       -4.162580   0.645082
  279       -4.155977   0.611373
  280       -4.154636   0.604452
  281       -4.154225   0.602328
  282       -4.140724   0.531652
  283       -4.123989   0.443287
  284       -4.117041   0.406977
  285       -4.114876   0.395759
  286       -4.111916   0.380512
  287       -4.103657   0.338665
  288       -4.096119   0.301551
  289       -4.039375   0.074723
  290       -3.960510  -0.048709
  291       -3.888670  -0.034930
  292       -3.810746  -0.003524
  293       -3.809577  -0.003230
  294       -3.782974   0.001861
  295       -3.484991   0.000086
  296       -3.481370   0.000079
  297       -3.373782   0.000003
  298       -3.050619   0.000000
  299       -3.045043   0.000000
  300       -3.020651   0.000000
  301       -3.010590   0.000000
  302       -2.999877   0.000000
  303       -2.995613   0.000000
  304       -2.926127   0.000000
  305       -2.838376   0.000000
  306       -2.593526   0.000000
  307       -2.516883   0.000000
  308       -2.505653   0.000000
  309       -2.246894   0.000000
  310       -2.115243   0.000000
  311       -2.110587   0.000000
  312       -2.105277   0.000000
  313       -1.994029   0.000000
  314       -1.942390   0.000000
  315       -1.929923   0.000000
  316       -1.879101   0.000000
  317       -1.836605   0.000000
  318       -1.756090   0.000000
  319       -1.723637   0.000000
  320       -1.667780   0.000000
  321       -1.624516   0.000000
  322       -1.555729   0.000000
  323       -1.519365   0.000000
  324       -1.458616   0.000000
  325       -1.386503   0.000000
  326       -1.113662   0.000000
  327       -1.076518   0.000000
  328       -0.998322   0.000000
  329       -0.976498   0.000000
  330       -0.972728   0.000000
  331       -0.935177   0.000000
  332       -0.925989   0.000000
  333       -0.914695   0.000000
  334       -0.885842   0.000000
  335       -0.766531   0.000000
  336       -0.641597   0.000000
