<?xml version="1.0" encoding="ISO-8859-1"?>
<modeling>
 <generator>
  <i name="program" type="string">vasp </i>
  <i name="version" type="string">5.4.4.18Apr17-6-g9f103f2a35  </i>
  <i name="subversion" type="string">(build Sep 03 2018 23:53:05) complex            parallel </i>
  <i name="platform" type="string">LinuxIFC </i>
  <i name="date" type="string">2021 12 03 </i>
  <i name="time" type="string">06:50:16 </i>
 </generator>
 <incar>
  <i type="string" name="SYSTEM"> 6_Pd100_top_free_z(O)</i>
  <i type="int" name="ISTART">     0</i>
  <i type="string" name="PREC">normal   			! encut=max(enmax), ngx,y,z</i>
  <i type="string" name="ALGO"> Fast     			! Mix RMM-DIIS and Dav</i>
  <i type="logical" name="ADDGRID"> F  </i>
  <i type="int" name="ISPIN">     1</i>
  <i type="int" name="ICHARG">     2</i>
  <i type="int" name="NELM">   100</i>
  <i type="int" name="NELMIN">     6</i>
  <i type="int" name="IBRION">     2</i>
  <i name="EDIFF">      0.00010000</i>
  <i name="EDIFFG">     -0.05000000</i>
  <i type="int" name="NSW">     0</i>
  <i type="int" name="ISIF">     2</i>
  <i type="int" name="ISYM">     2</i>
  <i name="ENCUT">    400.00000000</i>
  <i type="string" name="LREAL"> Auto     			! Auto or A projection done</i>
  <i type="int" name="ISMEAR">     2</i>
  <i name="SIGMA">      0.20000000</i>
  <i type="logical" name="LWAVE"> F  </i>
  <i type="logical" name="LCHARG"> F  </i>
  <v type="int" name="KPOINT_BSE">    -1     0     0     0</v>
  <i type="int" name="MAXMEM"> 10000</i>
  <i type="int" name="NELM">   100</i>
  <i type="string" name="GGA"> RP         			! Revised PBE</i>
 </incar>
 <structure name="primitive_cell" >
  <crystal>
   <varray name="basis" >
    <v>      30.00000000       0.00000000       0.00000000 </v>
    <v>       0.00000000      30.00000000       0.00000000 </v>
    <v>       0.00000000       0.00000000      30.00000000 </v>
   </varray>
   <i name="volume">  27000.00000000 </i>
   <varray name="rec_basis" >
    <v>       0.03333333       0.00000000       0.00000000 </v>
    <v>       0.00000000       0.03333333       0.00000000 </v>
    <v>       0.00000000       0.00000000       0.03333333 </v>
   </varray>
  </crystal>
  <varray name="positions" >
   <v>       0.44576020       0.32826710       0.41691983 </v>
   <v>      -0.44576020       0.32826710       0.41691983 </v>
   <v>      -0.50000000       0.38250690       0.34021317 </v>
   <v>      -0.50000000       0.27609440      -0.50000000 </v>
   <v>       0.38804720       0.38804720       0.34167483 </v>
   <v>      -0.50000000       0.38416601      -0.50000000 </v>
   <v>       0.44208300       0.44208300       0.41809300 </v>
   <v>       0.38317830       0.38317830      -0.50000000 </v>
   <v>      -0.44208300       0.44208300       0.41809300 </v>
   <v>       0.44576020       0.32826710      -0.41691977 </v>
   <v>       0.32826705       0.44576024       0.41691983 </v>
   <v>      -0.38804720       0.38804720       0.34167483 </v>
   <v>      -0.38317830       0.38317830      -0.50000000 </v>
   <v>      -0.50000000      -0.50000000       0.33478917 </v>
   <v>      -0.50000000      -0.50000000      -0.50000000 </v>
   <v>      -0.44576020       0.32826710      -0.41691977 </v>
   <v>       0.38250685      -0.49999995       0.34021317 </v>
   <v>       0.44208300       0.44208300      -0.41809297 </v>
   <v>       0.38416599      -0.49999998      -0.50000000 </v>
   <v>      -0.44208300       0.44208300      -0.41809297 </v>
   <v>       0.44208298      -0.44208298       0.41809300 </v>
   <v>       0.32826705       0.44576024      -0.41691977 </v>
   <v>      -0.50000000       0.38250690      -0.34021320 </v>
   <v>       0.32826712      -0.44576022       0.41691983 </v>
   <v>      -0.38250685      -0.49999995       0.34021317 </v>
   <v>      -0.32826705       0.44576024       0.41691983 </v>
   <v>       0.27609443       0.49999998      -0.50000000 </v>
   <v>       0.38804720       0.38804720      -0.34167487 </v>
   <v>      -0.38416599      -0.49999998      -0.50000000 </v>
   <v>      -0.44208298      -0.44208298       0.41809300 </v>
   <v>       0.35514397      -0.47465230       0.27698910 </v>
   <v>       0.44208298      -0.44208298      -0.41809297 </v>
   <v>       0.33475487      -0.47108450       0.24559937 </v>
   <v>      -0.38804720       0.38804720      -0.34167487 </v>
   <v>       0.38804722      -0.38804722       0.34167483 </v>
   <v>       0.38250685      -0.49999995      -0.34021320 </v>
   <v>       0.32826712      -0.44576022      -0.41691977 </v>
   <v>      -0.32826705       0.44576024      -0.41691977 </v>
   <v>       0.50000000      -0.38250681       0.34021317 </v>
   <v>      -0.50000000      -0.38416596      -0.50000000 </v>
   <v>      -0.44208298      -0.44208298      -0.41809297 </v>
   <v>      -0.50000000      -0.50000000      -0.33478913 </v>
   <v>       0.38317828      -0.38317828      -0.50000000 </v>
   <v>      -0.32826712      -0.44576022       0.41691983 </v>
   <v>      -0.27609443       0.49999998      -0.50000000 </v>
   <v>      -0.38804722      -0.38804722       0.34167483 </v>
   <v>      -0.38250685      -0.49999995      -0.34021320 </v>
   <v>       0.44576027      -0.32826707       0.41691983 </v>
   <v>      -0.38317828      -0.38317828      -0.50000000 </v>
   <v>      -0.32826712      -0.44576022      -0.41691977 </v>
   <v>      -0.44576027      -0.32826707       0.41691983 </v>
   <v>       0.38804722      -0.38804722      -0.34167487 </v>
   <v>      -0.50000000      -0.38250681      -0.34021320 </v>
   <v>       0.44576027      -0.32826707      -0.41691977 </v>
   <v>      -0.44576027      -0.32826707      -0.41691977 </v>
   <v>      -0.50000000      -0.27609445       0.50000000 </v>
   <v>      -0.38804722      -0.38804722      -0.34167487 </v>
  </varray>
 </structure>
 <varray name="primitive_index" >
  <v type="int" >        1 </v>
  <v type="int" >        3 </v>
  <v type="int" >        5 </v>
  <v type="int" >        7 </v>
  <v type="int" >       15 </v>
  <v type="int" >       29 </v>
  <v type="int" >       28 </v>
  <v type="int" >       34 </v>
  <v type="int" >       21 </v>
  <v type="int" >       19 </v>
  <v type="int" >       22 </v>
  <v type="int" >       11 </v>
  <v type="int" >       36 </v>
  <v type="int" >       38 </v>
  <v type="int" >       52 </v>
  <v type="int" >       24 </v>
  <v type="int" >       32 </v>
  <v type="int" >       44 </v>
  <v type="int" >       48 </v>
  <v type="int" >       42 </v>
  <v type="int" >       43 </v>
  <v type="int" >       40 </v>
  <v type="int" >        6 </v>
  <v type="int" >        4 </v>
  <v type="int" >       30 </v>
  <v type="int" >       26 </v>
  <v type="int" >        8 </v>
  <v type="int" >       16 </v>
  <v type="int" >       49 </v>
  <v type="int" >       47 </v>
  <v type="int" >       56 </v>
  <v type="int" >       53 </v>
  <v type="int" >       57 </v>
  <v type="int" >       12 </v>
  <v type="int" >       13 </v>
  <v type="int" >       33 </v>
  <v type="int" >       25 </v>
  <v type="int" >       45 </v>
  <v type="int" >       50 </v>
  <v type="int" >       55 </v>
  <v type="int" >       54 </v>
  <v type="int" >       39 </v>
  <v type="int" >       37 </v>
  <v type="int" >        2 </v>
  <v type="int" >        9 </v>
  <v type="int" >       17 </v>
  <v type="int" >       31 </v>
  <v type="int" >       27 </v>
  <v type="int" >       35 </v>
  <v type="int" >       20 </v>
  <v type="int" >       23 </v>
  <v type="int" >       14 </v>
  <v type="int" >       51 </v>
  <v type="int" >       46 </v>
  <v type="int" >       41 </v>
  <v type="int" >       10 </v>
  <v type="int" >       18 </v>
 </varray>
 <kpoints>
  <generation param="Monkhorst-Pack">
   <v type="int" name="divisions">       1        1        1 </v>
   <v name="usershift">      0.00000000       0.00000000       0.00000000 </v>
   <v name="genvec1">      1.00000000       0.00000000       0.00000000 </v>
   <v name="genvec2">      0.00000000       1.00000000       0.00000000 </v>
   <v name="genvec3">      0.00000000       0.00000000       1.00000000 </v>
   <v name="shift">      0.00000000       0.00000000       0.00000000 </v>
  </generation>
  <varray name="kpointlist" >
   <v>       0.00000000       0.00000000       0.00000000 </v>
  </varray>
  <varray name="weights" >
   <v>       1.00000000 </v>
  </varray>
 </kpoints>
 <parameters>
  <separator name="general" >
   <i type="string" name="SYSTEM">6_Pd100_top_free_z(O)</i>
   <i type="logical" name="LCOMPAT"> F  </i>
  </separator>
  <separator name="electronic" >
   <i type="string" name="PREC">normal</i>
   <i name="ENMAX">    400.00000000</i>
   <i name="ENAUG">    644.87300000</i>
   <i name="EDIFF">      0.00010000</i>
   <i type="int" name="IALGO">    68</i>
   <i type="int" name="IWAVPR">    10</i>
   <i type="int" name="NBANDS">   336</i>
   <i name="NELECT">    560.00000000</i>
   <i type="int" name="TURBO">     0</i>
   <i type="int" name="IRESTART">     0</i>
   <i type="int" name="NREBOOT">     0</i>
   <i type="int" name="NMIN">     0</i>
   <i name="EREF">      0.00000000</i>
   <separator name="electronic smearing" >
    <i type="int" name="ISMEAR">     2</i>
    <i name="SIGMA">      0.20000000</i>
    <i name="KSPACING">      0.50000000</i>
    <i type="logical" name="KGAMMA"> T  </i>
   </separator>
   <separator name="electronic projectors" >
    <i type="logical" name="LREAL"> T  </i>
    <v name="ROPT">     -0.00050000     -0.00050000     -0.00050000</v>
    <i type="int" name="LMAXPAW">  -100</i>
    <i type="int" name="LMAXMIX">     2</i>
    <i type="logical" name="NLSPLINE"> F  </i>
   </separator>
   <separator name="electronic startup" >
    <i type="int" name="ISTART">     0</i>
    <i type="int" name="ICHARG">     2</i>
    <i type="int" name="INIWAV">     1</i>
   </separator>
   <separator name="electronic spin" >
    <i type="int" name="ISPIN">     1</i>
    <i type="logical" name="LNONCOLLINEAR"> F  </i>
    <v name="MAGMOM">      1.00000000      1.00000000      1.00000000      1.00000000      1.00000000      1.00000000      1.00000000      1.00000000      1.00000000      1.00000000      1.00000000      1.00000000      1.00000000      1.00000000      1.00000000      1.00000000      1.00000000      1.00000000      1.00000000      1.00000000
      1.00000000      1.00000000      1.00000000      1.00000000      1.00000000      1.00000000      1.00000000      1.00000000      1.00000000      1.00000000      1.00000000      1.00000000      1.00000000      1.00000000      1.00000000      1.00000000      1.00000000      1.00000000      1.00000000      1.00000000
      1.00000000      1.00000000      1.00000000      1.00000000      1.00000000      1.00000000      1.00000000      1.00000000      1.00000000      1.00000000      1.00000000      1.00000000      1.00000000      1.00000000      1.00000000      1.00000000      1.00000000</v>
    <i name="NUPDOWN">     -1.00000000</i>
    <i type="logical" name="LSORBIT"> F  </i>
    <v name="SAXIS">      0.00000000      0.00000000      1.00000000</v>
    <i type="logical" name="LSPIRAL"> F  </i>
    <v name="QSPIRAL">      0.00000000      0.00000000      0.00000000</v>
    <i type="logical" name="LZEROZ"> F  </i>
   </separator>
   <separator name="electronic exchange-correlation" >
    <i type="logical" name="LASPH"> F  </i>
    <i type="logical" name="LMETAGGA"> F  </i>
   </separator>
   <separator name="electronic convergence" >
    <i type="int" name="NELM">   100</i>
    <i type="int" name="NELMDL">    -5</i>
    <i type="int" name="NELMIN">     6</i>
    <i name="ENINI">    400.00000000</i>
    <separator name="electronic convergence detail" >
     <i type="logical" name="LDIAG"> T  </i>
     <i type="logical" name="LSUBROT"> F  </i>
     <i name="WEIMIN">      0.00000000</i>
     <i name="EBREAK">      0.00000007</i>
     <i name="DEPER">      0.30000000</i>
     <i type="int" name="NRMM">     4</i>
     <i name="TIME">      0.40000000</i>
    </separator>
   </separator>
   <separator name="electronic mixer" >
    <i name="AMIX">      0.40000000</i>
    <i name="BMIX">      1.00000000</i>
    <i name="AMIN">      0.10000000</i>
    <i name="AMIX_MAG">      1.60000000</i>
    <i name="BMIX_MAG">      1.00000000</i>
    <separator name="electronic mixer details" >
     <i type="int" name="IMIX">     4</i>
     <i type="logical" name="MIXFIRST"> F  </i>
     <i type="int" name="MAXMIX">   -45</i>
     <i name="WC">    100.00000000</i>
     <i type="int" name="INIMIX">     1</i>
     <i type="int" name="MIXPRE">     1</i>
     <i type="int" name="MREMOVE">     5</i>
    </separator>
   </separator>
   <separator name="electronic dipolcorrection" >
    <i type="logical" name="LDIPOL"> F  </i>
    <i type="logical" name="LMONO"> F  </i>
    <i type="int" name="IDIPOL">     0</i>
    <i name="EPSILON">      1.00000000</i>
    <v name="DIPOL">   -100.00000000   -100.00000000   -100.00000000</v>
    <i name="EFIELD">      0.00000000</i>
   </separator>
  </separator>
  <separator name="grids" >
   <i type="int" name="NGX">   150</i>
   <i type="int" name="NGY">   150</i>
   <i type="int" name="NGZ">   150</i>
   <i type="int" name="NGXF">   300</i>
   <i type="int" name="NGYF">   300</i>
   <i type="int" name="NGZF">   300</i>
   <i type="logical" name="ADDGRID"> F  </i>
  </separator>
  <separator name="ionic" >
   <i type="int" name="NSW">     0</i>
   <i type="int" name="IBRION">    -1</i>
   <i type="int" name="MDALGO">     0</i>
   <i type="int" name="ISIF">     2</i>
   <i name="PSTRESS">      0.00000000</i>
   <i name="EDIFFG">     -0.05000000</i>
   <i type="int" name="NFREE">     1</i>
   <i name="POTIM">      0.50000000</i>
   <i name="SMASS">     -3.00000000</i>
   <i name="SCALEE">      1.00000000</i>
  </separator>
  <separator name="ionic md" >
   <i name="TEBEG">      0.00010000</i>
   <i name="TEEND">      0.00010000</i>
   <i type="int" name="NBLOCK">     1</i>
   <i type="int" name="KBLOCK">     1</i>
   <i type="int" name="NPACO">   256</i>
   <i name="APACO">     16.00000000</i>
  </separator>
  <separator name="symmetry" >
   <i type="int" name="ISYM">     2</i>
   <i name="SYMPREC">      0.00001000</i>
  </separator>
  <separator name="dos" >
   <i type="int" name="LORBIT">     0</i>
   <v name="RWIGS">     -1.00000000     -1.00000000     -1.00000000</v>
   <i type="int" name="NEDOS">   301</i>
   <i name="EMIN">     10.00000000</i>
   <i name="EMAX">    -10.00000000</i>
   <i name="EFERMI">      0.00000000</i>
  </separator>
  <separator name="writing" >
   <i type="int" name="NWRITE">     2</i>
   <i type="logical" name="LWAVE"> F  </i>
   <i type="logical" name="LDOWNSAMPLE"> F  </i>
   <i type="logical" name="LCHARG"> F  </i>
   <i type="logical" name="LPARD"> F  </i>
   <i type="logical" name="LVTOT"> F  </i>
   <i type="logical" name="LVHAR"> F  </i>
   <i type="logical" name="LELF"> F  </i>
   <i type="logical" name="LOPTICS"> F  </i>
   <v name="STM">      0.00000000      0.00000000      0.00000000      0.00000000      0.00000000      0.00000000      0.00000000</v>
  </separator>
  <separator name="performance" >
   <i type="int" name="NPAR">     1</i>
   <i type="int" name="NSIM">     4</i>
   <i type="int" name="NBLK">    -1</i>
   <i type="logical" name="LPLANE"> T  </i>
   <i type="logical" name="LSCALAPACK"> T  </i>
   <i type="logical" name="LSCAAWARE"> F  </i>
   <i type="logical" name="LSCALU"> F  </i>
   <i type="logical" name="LASYNC"> F  </i>
   <i type="logical" name="LORBITALREAL"> F  </i>
  </separator>
  <separator name="miscellaneous" >
   <i type="int" name="IDIOT">     3</i>
   <i type="int" name="ISPECIAL">     0</i>
   <i type="logical" name="LMUSIC"> F  </i>
   <v name="POMASS">    106.42000000     12.01100000     16.00000000</v>
   <v name="DARWINR">      0.00000000      0.00000000      0.00000000</v>
   <v name="DARWINV">      1.00000000      1.00000000      1.00000000</v>
   <i type="logical" name="LCORR"> T  </i>
  </separator>
  <i type="logical" name="GGA_COMPAT"> T  </i>
  <i type="logical" name="LBERRY"> F  </i>
  <i type="int" name="ICORELEVEL">     0</i>
  <i type="logical" name="LDAU"> F  </i>
  <i type="int" name="I_CONSTRAINED_M">     0</i>
  <separator name="electronic exchange-correlation" >
   <i type="string" name="GGA">RP</i>
   <i type="int" name="VOSKOWN">     0</i>
   <i type="logical" name="LHFCALC"> F  </i>
   <i type="string" name="PRECFOCK"></i>
   <i type="logical" name="LSYMGRAD"> F  </i>
   <i type="logical" name="LHFONE"> F  </i>
   <i type="logical" name="LRHFCALC"> F  </i>
   <i type="logical" name="LTHOMAS"> F  </i>
   <i type="logical" name="LMODELHF"> F  </i>
   <i name="ENCUT4O">     -1.00000000</i>
   <i type="int" name="EXXOEP">     0</i>
   <i type="int" name="FOURORBIT">     0</i>
   <i name="AEXX">      0.00000000</i>
   <i name="HFALPHA">      0.00000000</i>
   <i name="MCALPHA">      0.00000000</i>
   <i name="ALDAX">      1.00000000</i>
   <i name="AGGAX">      1.00000000</i>
   <i name="ALDAC">      1.00000000</i>
   <i name="AGGAC">      1.00000000</i>
   <i type="int" name="NKREDX">     1</i>
   <i type="int" name="NKREDY">     1</i>
   <i type="int" name="NKREDZ">     1</i>
   <i type="logical" name="SHIFTRED"> F  </i>
   <i type="logical" name="ODDONLY"> F  </i>
   <i type="logical" name="EVENONLY"> F  </i>
   <i type="int" name="LMAXFOCK">     0</i>
   <i type="int" name="NMAXFOCKAE">     0</i>
   <i type="logical" name="LFOCKAEDFT"> F  </i>
   <i name="HFSCREEN">      0.00000000</i>
   <i name="HFSCREENC">      0.00000000</i>
   <i type="int" name="NBANDSGWLOW">     0</i>
  </separator>
  <separator name="vdW DFT" >
   <i type="logical" name="LUSE_VDW"> F  </i>
   <i name="Zab_VDW">     -0.84910000</i>
   <i name="PARAM1">      0.12340000</i>
   <i name="PARAM2">      1.00000000</i>
   <i name="PARAM3">      0.00000000</i>
  </separator>
  <separator name="model GW" >
   <i type="int" name="MODEL_GW">     0</i>
   <i name="MODEL_EPS0">    284.21052632</i>
   <i name="MODEL_ALPHA">      1.00000000</i>
  </separator>
  <separator name="linear response parameters" >
   <i type="logical" name="LEPSILON"> F  </i>
   <i type="logical" name="LRPA"> F  </i>
   <i type="logical" name="LNABLA"> F  </i>
   <i type="logical" name="LVEL"> F  </i>
   <i type="int" name="KINTER">     0</i>
   <i name="CSHIFT">      0.10000000</i>
   <i name="OMEGAMAX">     -1.00000000</i>
   <i name="DEG_THRESHOLD">      0.00200000</i>
   <i name="RTIME">     -0.10000000</i>
   <i name="WPLASMAI">      0.00000000</i>
   <v name="DFIELD">      0.00000000      0.00000000      0.00000000</v>
   <v name="WPLASMA">      0.00000000      0.00000000      0.00000000      0.00000000      0.00000000      0.00000000      0.00000000      0.00000000      0.00000000</v>
  </separator>
  <separator name="orbital magnetization" >
   <i type="logical" name="NUCIND"> F  </i>
   <v name="MAGPOS">      0.00000000      0.00000000      0.00000000</v>
   <i type="logical" name="LNICSALL"> T  </i>
   <i type="logical" name="ORBITALMAG"> F  </i>
   <i type="logical" name="LMAGBLOCH"> F  </i>
   <i type="logical" name="LCHIMAG"> F  </i>
   <i type="logical" name="LGAUGE"> T  </i>
   <i type="int" name="MAGATOM">     0</i>
   <v name="MAGDIPOL">      0.00000000      0.00000000      0.00000000</v>
   <v name="AVECCONST">      0.00000000      0.00000000      0.00000000</v>
  </separator>
  <separator name="response functions" >
   <i type="logical" name="LADDER"> F  </i>
   <i type="logical" name="LRPAFORCE"> F  </i>
   <i type="logical" name="LFXC"> F  </i>
   <i type="logical" name="LHARTREE"> T  </i>
   <i type="int" name="IBSE">     0</i>
   <v type="int" name="KPOINT">    -1     0     0     0</v>
   <i type="logical" name="LTCTE"> F  </i>
   <i type="logical" name="LTETE"> F  </i>
   <i type="logical" name="LTRIPLET"> F  </i>
   <i type="logical" name="LFXCEPS"> F  </i>
   <i type="logical" name="LFXHEG"> F  </i>
   <i type="int" name="NATURALO">     2</i>
   <i type="logical" name="L2ORDER"> F  </i>
   <i type="logical" name="LMP2LT"> F  </i>
   <i type="logical" name="LUSEW"> F  </i>
   <i name="ENCUTGW">     -2.00000000</i>
   <i name="ENCUTGWSOFT">     -2.00000000</i>
   <i name="ENCUTLF">     -1.00000000</i>
   <i type="int" name="LMAXMP2">    -1</i>
   <i name="SCISSOR">      0.00000000</i>
   <i type="int" name="NOMEGA">     0</i>
   <i type="int" name="NOMEGAR">     0</i>
   <i type="int" name="NBANDSGW">    -1</i>
   <i type="int" name="NBANDSO">    -1</i>
   <i type="int" name="NBANDSV">    -1</i>
   <i type="int" name="NELM">   100</i>
   <i type="int" name="NELMHF">     1</i>
   <i type="int" name="DIM">     3</i>
   <i type="int" name="ANTIRES">     0</i>
   <i name="OMEGAMAX">    -30.00000000</i>
   <i name="OMEGAMIN">    -30.00000000</i>
   <i name="OMEGATL">   -200.00000000</i>
   <i type="int" name="OMEGAGRID">   140</i>
   <i name="CSHIFT">     -0.10000000</i>
   <i type="logical" name="SELFENERGY"> F  </i>
   <i type="logical" name="LSPECTRAL"> F  </i>
   <i type="logical" name="LSPECTRALGW"> F  </i>
   <i type="logical" name="LSINGLES"> F  </i>
   <i type="logical" name="LFERMIGW"> F  </i>
   <i type="logical" name="ODDONLYGW"> F  </i>
   <i type="logical" name="EVENONLYGW"> F  </i>
   <i type="int" name="NKREDLFX">     1</i>
   <i type="int" name="NKREDLFY">     1</i>
   <i type="int" name="NKREDLFZ">     1</i>
   <i type="int" name="MAXMEM"> 10000</i>
   <i type="int" name="TELESCOPE">     0</i>
   <i type="int" name="TAUPAR">     1</i>
   <i type="int" name="OMEGAPAR">    -1</i>
   <i name="LAMBDA">      1.00000000</i>
  </separator>
  <separator name="External order field" >
   <i name="OFIELD_KAPPA">      0.00000000</i>
   <v name="OFIELD_K">      0.00000000      0.00000000      0.00000000</v>
   <i name="OFIELD_Q6_NEAR">      0.00000000</i>
   <i name="OFIELD_Q6_FAR">      0.00000000</i>
   <i name="OFIELD_A">      0.00000000</i>
  </separator>
 </parameters>
 <atominfo>
  <atoms>      57 </atoms>
  <types>       3 </types>
  <array name="atoms" >
   <dimension dim="1">ion</dimension>
   <field type="string">element</field>
   <field type="int">atomtype</field>
   <set>
    <rc><c>Pd</c><c>   1</c></rc>
    <rc><c>Pd</c><c>   1</c></rc>
    <rc><c>Pd</c><c>   1</c></rc>
    <rc><c>Pd</c><c>   1</c></rc>
    <rc><c>Pd</c><c>   1</c></rc>
    <rc><c>Pd</c><c>   1</c></rc>
    <rc><c>Pd</c><c>   1</c></rc>
    <rc><c>Pd</c><c>   1</c></rc>
    <rc><c>Pd</c><c>   1</c></rc>
    <rc><c>Pd</c><c>   1</c></rc>
    <rc><c>Pd</c><c>   1</c></rc>
    <rc><c>Pd</c><c>   1</c></rc>
    <rc><c>Pd</c><c>   1</c></rc>
    <rc><c>Pd</c><c>   1</c></rc>
    <rc><c>Pd</c><c>   1</c></rc>
    <rc><c>Pd</c><c>   1</c></rc>
    <rc><c>Pd</c><c>   1</c></rc>
    <rc><c>Pd</c><c>   1</c></rc>
    <rc><c>Pd</c><c>   1</c></rc>
    <rc><c>Pd</c><c>   1</c></rc>
    <rc><c>Pd</c><c>   1</c></rc>
    <rc><c>Pd</c><c>   1</c></rc>
    <rc><c>Pd</c><c>   1</c></rc>
    <rc><c>Pd</c><c>   1</c></rc>
    <rc><c>Pd</c><c>   1</c></rc>
    <rc><c>Pd</c><c>   1</c></rc>
    <rc><c>Pd</c><c>   1</c></rc>
    <rc><c>Pd</c><c>   1</c></rc>
    <rc><c>Pd</c><c>   1</c></rc>
    <rc><c>Pd</c><c>   1</c></rc>
    <rc><c>Pd</c><c>   1</c></rc>
    <rc><c>Pd</c><c>   1</c></rc>
    <rc><c>Pd</c><c>   1</c></rc>
    <rc><c>Pd</c><c>   1</c></rc>
    <rc><c>Pd</c><c>   1</c></rc>
    <rc><c>Pd</c><c>   1</c></rc>
    <rc><c>Pd</c><c>   1</c></rc>
    <rc><c>Pd</c><c>   1</c></rc>
    <rc><c>Pd</c><c>   1</c></rc>
    <rc><c>Pd</c><c>   1</c></rc>
    <rc><c>Pd</c><c>   1</c></rc>
    <rc><c>Pd</c><c>   1</c></rc>
    <rc><c>Pd</c><c>   1</c></rc>
    <rc><c>Pd</c><c>   1</c></rc>
    <rc><c>Pd</c><c>   1</c></rc>
    <rc><c>Pd</c><c>   1</c></rc>
    <rc><c>Pd</c><c>   1</c></rc>
    <rc><c>Pd</c><c>   1</c></rc>
    <rc><c>Pd</c><c>   1</c></rc>
    <rc><c>Pd</c><c>   1</c></rc>
    <rc><c>Pd</c><c>   1</c></rc>
    <rc><c>Pd</c><c>   1</c></rc>
    <rc><c>Pd</c><c>   1</c></rc>
    <rc><c>Pd</c><c>   1</c></rc>
    <rc><c>Pd</c><c>   1</c></rc>
    <rc><c>C </c><c>   2</c></rc>
    <rc><c>O </c><c>   3</c></rc>
   </set>
  </array>
  <array name="atomtypes" >
   <dimension dim="1">type</dimension>
   <field type="int">atomspertype</field>
   <field type="string">element</field>
   <field>mass</field>
   <field>valence</field>
   <field type="string">pseudopotential</field>
   <set>
    <rc><c>  55</c><c>Pd</c><c>    106.42000000</c><c>     10.00000000</c><c>  PAW_PBE Pd 04Jan2005                  </c></rc>
    <rc><c>   1</c><c>C </c><c>     12.01100000</c><c>      4.00000000</c><c>  PAW_PBE C 08Apr2002                   </c></rc>
    <rc><c>   1</c><c>O </c><c>     16.00000000</c><c>      6.00000000</c><c>  PAW_PBE O 08Apr2002                   </c></rc>
   </set>
  </array>
 </atominfo>
 <structure name="initialpos" >
  <crystal>
   <varray name="basis" >
    <v>      30.00000000       0.00000000       0.00000000 </v>
    <v>       0.00000000      30.00000000       0.00000000 </v>
    <v>       0.00000000       0.00000000      30.00000000 </v>
   </varray>
   <i name="volume">  27000.00000000 </i>
   <varray name="rec_basis" >
    <v>       0.03333333       0.00000000       0.00000000 </v>
    <v>       0.00000000       0.03333333       0.00000000 </v>
    <v>       0.00000000       0.00000000       0.03333333 </v>
   </varray>
  </crystal>
  <varray name="positions" >
   <v>       0.44576020       0.32826710       0.41691983 </v>
   <v>       0.67173288       0.55423978       0.41691983 </v>
   <v>       0.55423980       0.32826710       0.41691983 </v>
   <v>       0.32826712       0.55423978       0.41691983 </v>
   <v>       0.50000000       0.38250690       0.34021317 </v>
   <v>       0.50000000       0.38250690       0.65978680 </v>
   <v>       0.50000000       0.27609440       0.50000000 </v>
   <v>       0.27609443       0.49999998       0.50000000 </v>
   <v>       0.72390557       0.49999998       0.50000000 </v>
   <v>       0.50000000       0.72390555       0.50000000 </v>
   <v>       0.61195280       0.38804720       0.34167483 </v>
   <v>       0.61195280       0.38804720       0.65832513 </v>
   <v>       0.38804722       0.61195278       0.34167483 </v>
   <v>       0.38804722       0.61195278       0.65832513 </v>
   <v>       0.38804720       0.38804720       0.34167483 </v>
   <v>       0.38804720       0.38804720       0.65832513 </v>
   <v>       0.61195278       0.61195278       0.34167483 </v>
   <v>       0.61195278       0.61195278       0.65832513 </v>
   <v>       0.44576020       0.32826710       0.58308023 </v>
   <v>       0.67173288       0.55423978       0.58308023 </v>
   <v>       0.55791699       0.44208301       0.41809300 </v>
   <v>       0.32826705       0.44576024       0.41691983 </v>
   <v>       0.55423973       0.67173293       0.41691983 </v>
   <v>       0.55423980       0.32826710       0.58308023 </v>
   <v>       0.32826712       0.55423978       0.58308023 </v>
   <v>       0.67173295       0.44576024       0.41691983 </v>
   <v>       0.44576027       0.67173293       0.41691983 </v>
   <v>       0.44208301       0.44208301       0.41809300 </v>
   <v>       0.50000000       0.38416601       0.50000000 </v>
   <v>       0.61749315       0.50000005       0.34021317 </v>
   <v>       0.61749315       0.50000005       0.65978680 </v>
   <v>       0.38250685       0.50000005       0.34021317 </v>
   <v>       0.38250685       0.50000005       0.65978680 </v>
   <v>       0.38317830       0.38317830       0.50000000 </v>
   <v>       0.61682172       0.61682172       0.50000000 </v>
   <v>       0.61682170       0.38317830       0.50000000 </v>
   <v>       0.38317828       0.61682172       0.50000000 </v>
   <v>       0.50000000       0.50000000       0.33478917 </v>
   <v>       0.50000000       0.50000000       0.66521087 </v>
   <v>       0.32826705       0.44576024       0.58308023 </v>
   <v>       0.55423973       0.67173293       0.58308023 </v>
   <v>       0.55791699       0.44208301       0.58190703 </v>
   <v>       0.44208298       0.55791702       0.41809300 </v>
   <v>       0.44208301       0.44208301       0.58190703 </v>
   <v>       0.67173295       0.44576024       0.58308023 </v>
   <v>       0.44576027       0.67173293       0.58308023 </v>
   <v>       0.55791702       0.55791702       0.41809300 </v>
   <v>       0.38416599       0.50000002       0.50000000 </v>
   <v>       0.61583401       0.50000002       0.50000000 </v>
   <v>       0.50000000       0.61749319       0.34021317 </v>
   <v>       0.50000000       0.61749319       0.65978680 </v>
   <v>       0.50000000       0.50000000       0.50000000 </v>
   <v>       0.44208298       0.55791702       0.58190703 </v>
   <v>       0.55791702       0.55791702       0.58190703 </v>
   <v>       0.50000000       0.61583404       0.50000000 </v>
   <v>       0.35514397       0.52534770       0.27698910 </v>
   <v>       0.33475487       0.52891550       0.24559937 </v>
  </varray>
  <varray name="selective"  type="logical" >
   <v type="logical" >  F  F  F </v>
   <v type="logical" >  F  F  F </v>
   <v type="logical" >  F  F  F </v>
   <v type="logical" >  F  F  F </v>
   <v type="logical" >  F  F  F </v>
   <v type="logical" >  F  F  F </v>
   <v type="logical" >  F  F  F </v>
   <v type="logical" >  F  F  F </v>
   <v type="logical" >  F  F  F </v>
   <v type="logical" >  F  F  F </v>
   <v type="logical" >  F  F  F </v>
   <v type="logical" >  F  F  F </v>
   <v type="logical" >  F  F  F </v>
   <v type="logical" >  F  F  F </v>
   <v type="logical" >  F  F  F </v>
   <v type="logical" >  F  F  F </v>
   <v type="logical" >  F  F  F </v>
   <v type="logical" >  F  F  F </v>
   <v type="logical" >  F  F  F </v>
   <v type="logical" >  F  F  F </v>
   <v type="logical" >  F  F  F </v>
   <v type="logical" >  F  F  F </v>
   <v type="logical" >  F  F  F </v>
   <v type="logical" >  F  F  F </v>
   <v type="logical" >  F  F  F </v>
   <v type="logical" >  F  F  F </v>
   <v type="logical" >  F  F  F </v>
   <v type="logical" >  F  F  F </v>
   <v type="logical" >  F  F  F </v>
   <v type="logical" >  F  F  F </v>
   <v type="logical" >  F  F  F </v>
   <v type="logical" >  F  F  F </v>
   <v type="logical" >  F  F  F </v>
   <v type="logical" >  F  F  F </v>
   <v type="logical" >  F  F  F </v>
   <v type="logical" >  F  F  F </v>
   <v type="logical" >  F  F  F </v>
   <v type="logical" >  F  F  F </v>
   <v type="logical" >  F  F  F </v>
   <v type="logical" >  F  F  F </v>
   <v type="logical" >  F  F  F </v>
   <v type="logical" >  F  F  F </v>
   <v type="logical" >  F  F  F </v>
   <v type="logical" >  F  F  F </v>
   <v type="logical" >  F  F  F </v>
   <v type="logical" >  F  F  F </v>
   <v type="logical" >  F  F  F </v>
   <v type="logical" >  F  F  F </v>
   <v type="logical" >  F  F  F </v>
   <v type="logical" >  F  F  F </v>
   <v type="logical" >  F  F  F </v>
   <v type="logical" >  F  F  F </v>
   <v type="logical" >  F  F  F </v>
   <v type="logical" >  F  F  F </v>
   <v type="logical" >  F  F  F </v>
   <v type="logical" >  F  F  F </v>
   <v type="logical" >  F  F  F </v>
  </varray>
  <nose>
   <v>      -3.00000000       0.00000000       0.00010000       0.00010000 </v>
  </nose>
 </structure>
 <calculation>
  <scstep>
   <time name="dav">  362.68  362.74</time>
   <time name="total">  377.30  377.37</time>
   <energy>
    <i name="alphaZ">     75.25431677 </i>
    <i name="ewald"> 137687.00019848 </i>
    <i name="hartreedc">-181051.98974959 </i>
    <i name="XCdc">  -1703.54273797 </i>
    <i name="pawpsdc">  44873.02882129 </i>
    <i name="pawaedc"> -41398.84523641 </i>
    <i name="eentropy">      0.00095006 </i>
    <i name="bandstr">    817.70219247 </i>
    <i name="atom">  45086.50549395 </i>
    <i name="e_fr_energy">   4385.11424905 </i>
    <i name="e_wo_entrp">   4385.11329899 </i>
    <i name="e_0_energy">   4385.11401153 </i>
   </energy>
  </scstep>
  <scstep>
   <time name="dav">  576.20  576.21</time>
   <time name="total">  576.20  576.21</time>
   <energy>
    <i name="e_fr_energy">   2029.15985556 </i>
    <i name="e_wo_entrp">   2029.24167683 </i>
    <i name="e_0_energy">   2029.18031088 </i>
   </energy>
  </scstep>
  <scstep>
   <time name="dav">  494.04  494.05</time>
   <time name="total">  494.04  494.05</time>
   <energy>
    <i name="e_fr_energy">    236.65178510 </i>
    <i name="e_wo_entrp">    236.58669329 </i>
    <i name="e_0_energy">    236.63551215 </i>
   </energy>
  </scstep>
  <scstep>
   <time name="dav">  395.00  395.01</time>
   <time name="total">  395.01  395.01</time>
   <energy>
    <i name="e_fr_energy">   -131.60354501 </i>
    <i name="e_wo_entrp">   -131.56918975 </i>
    <i name="e_0_energy">   -131.59495620 </i>
   </energy>
  </scstep>
  <scstep>
   <time name="dav">  465.98  466.00</time>
   <time name="total">  489.93  489.94</time>
   <energy>
    <i name="e_fr_energy">   -178.91555942 </i>
    <i name="e_wo_entrp">   -179.39644255 </i>
    <i name="e_0_energy">   -179.03578021 </i>
   </energy>
  </scstep>
  <scstep>
   <time name="diag">   62.36   62.37</time>
   <time name="diis">  166.85  166.86</time>
   <time name="orth">   11.89   11.89</time>
   <time name="total">  276.07  276.08</time>
   <energy>
    <i name="e_fr_energy">   -179.97508839 </i>
    <i name="e_wo_entrp">   -179.65408636 </i>
    <i name="e_0_energy">   -179.89483789 </i>
   </energy>
  </scstep>
  <scstep>
   <time name="diag">   61.06   61.07</time>
   <time name="diis">  193.64  193.65</time>
   <time name="orth">   12.06   12.06</time>
   <time name="total">  301.08  301.09</time>
   <energy>
    <i name="e_fr_energy">   -180.00254444 </i>
    <i name="e_wo_entrp">   -179.90368773 </i>
    <i name="e_0_energy">   -179.97783026 </i>
   </energy>
  </scstep>
  <scstep>
   <time name="diag">   61.45   61.45</time>
   <time name="diis">  177.50  177.51</time>
   <time name="orth">   12.00   12.00</time>
   <time name="total">  285.15  285.17</time>
   <energy>
    <i name="e_fr_energy">   -183.71518902 </i>
    <i name="e_wo_entrp">   -183.50967793 </i>
    <i name="e_0_energy">   -183.66381125 </i>
   </energy>
  </scstep>
  <scstep>
   <time name="diag">   61.03   61.04</time>
   <time name="diis">  165.72  165.73</time>
   <time name="orth">   11.71   11.71</time>
   <time name="total">  271.94  271.95</time>
   <energy>
    <i name="e_fr_energy">   -181.57658888 </i>
    <i name="e_wo_entrp">   -181.43379611 </i>
    <i name="e_0_energy">   -181.54089068 </i>
   </energy>
  </scstep>
  <scstep>
   <time name="diag">   59.39   59.39</time>
   <time name="diis">  161.94  161.94</time>
   <time name="orth">   11.70   11.70</time>
   <time name="total">  266.02  266.03</time>
   <energy>
    <i name="e_fr_energy">   -178.51214604 </i>
    <i name="e_wo_entrp">   -178.42921237 </i>
    <i name="e_0_energy">   -178.49141262 </i>
   </energy>
  </scstep>
  <scstep>
   <time name="diag">   59.25   59.25</time>
   <time name="diis">  161.93  161.93</time>
   <time name="orth">   11.70   11.70</time>
   <time name="total">  265.84  265.85</time>
   <energy>
    <i name="e_fr_energy">   -177.78252028 </i>
    <i name="e_wo_entrp">   -177.69506502 </i>
    <i name="e_0_energy">   -177.76065646 </i>
   </energy>
  </scstep>
  <scstep>
   <time name="diag">   59.46   59.46</time>
   <time name="diis">  161.90  161.90</time>
   <time name="orth">   11.74   11.74</time>
   <time name="total">  266.11  266.12</time>
   <energy>
    <i name="e_fr_energy">   -176.51828964 </i>
    <i name="e_wo_entrp">   -176.46134048 </i>
    <i name="e_0_energy">   -176.50405235 </i>
   </energy>
  </scstep>
  <scstep>
   <time name="diag">   59.39   59.39</time>
   <time name="diis">  159.48  159.48</time>
   <time name="orth">   11.74   11.74</time>
   <time name="total">  263.69  263.70</time>
   <energy>
    <i name="e_fr_energy">   -176.90237507 </i>
    <i name="e_wo_entrp">   -176.99440066 </i>
    <i name="e_0_energy">   -176.92538147 </i>
   </energy>
  </scstep>
  <scstep>
   <time name="diag">   59.38   59.38</time>
   <time name="diis">  159.59  159.60</time>
   <time name="orth">   11.74   11.74</time>
   <time name="total">  263.96  263.97</time>
   <energy>
    <i name="e_fr_energy">   -176.49408392 </i>
    <i name="e_wo_entrp">   -176.33465646 </i>
    <i name="e_0_energy">   -176.45422705 </i>
   </energy>
  </scstep>
  <scstep>
   <time name="diag">   59.31   59.31</time>
   <time name="diis">  159.48  159.48</time>
   <time name="orth">   11.70   11.70</time>
   <time name="total">  263.53  263.54</time>
   <energy>
    <i name="e_fr_energy">   -175.75838712 </i>
    <i name="e_wo_entrp">   -175.63266281 </i>
    <i name="e_0_energy">   -175.72695604 </i>
   </energy>
  </scstep>
  <scstep>
   <time name="diag">   59.37   59.37</time>
   <time name="diis">  158.73  158.73</time>
   <time name="orth">   11.70   11.70</time>
   <time name="total">  262.89  262.89</time>
   <energy>
    <i name="e_fr_energy">   -175.90156236 </i>
    <i name="e_wo_entrp">   -175.82200273 </i>
    <i name="e_0_energy">   -175.88167245 </i>
   </energy>
  </scstep>
  <scstep>
   <time name="diag">   59.28   59.28</time>
   <time name="diis">  160.01  160.01</time>
   <time name="orth">   11.72   11.72</time>
   <time name="total">  264.13  264.13</time>
   <energy>
    <i name="e_fr_energy">   -175.84234554 </i>
    <i name="e_wo_entrp">   -175.80271794 </i>
    <i name="e_0_energy">   -175.83243864 </i>
   </energy>
  </scstep>
  <scstep>
   <time name="diag">   59.41   59.41</time>
   <time name="diis">  157.03  157.04</time>
   <time name="orth">   11.68   11.68</time>
   <time name="total">  261.32  261.33</time>
   <energy>
    <i name="e_fr_energy">   -175.50015552 </i>
    <i name="e_wo_entrp">   -175.47169854 </i>
    <i name="e_0_energy">   -175.49304128 </i>
   </energy>
  </scstep>
  <scstep>
   <time name="diag">   59.21   59.21</time>
   <time name="diis">  156.72  156.72</time>
   <time name="orth">   11.68   11.68</time>
   <time name="total">  260.78  260.79</time>
   <energy>
    <i name="e_fr_energy">   -175.27206744 </i>
    <i name="e_wo_entrp">   -175.23622409 </i>
    <i name="e_0_energy">   -175.26310660 </i>
   </energy>
  </scstep>
  <scstep>
   <time name="diag">   59.31   59.31</time>
   <time name="diis">  155.64  155.64</time>
   <time name="orth">   11.69   11.69</time>
   <time name="total">  259.85  259.85</time>
   <energy>
    <i name="e_fr_energy">   -175.07556886 </i>
    <i name="e_wo_entrp">   -175.00326292 </i>
    <i name="e_0_energy">   -175.05749238 </i>
   </energy>
  </scstep>
  <scstep>
   <time name="diag">   59.25   59.25</time>
   <time name="diis">  155.83  155.83</time>
   <time name="orth">   11.69   11.69</time>
   <time name="total">  260.15  260.15</time>
   <energy>
    <i name="e_fr_energy">   -175.06358828 </i>
    <i name="e_wo_entrp">   -175.00897409 </i>
    <i name="e_0_energy">   -175.04993474 </i>
   </energy>
  </scstep>
  <scstep>
   <time name="diag">   59.18   59.18</time>
   <time name="diis">  157.37  157.37</time>
   <time name="orth">   11.72   11.72</time>
   <time name="total">  261.69  261.69</time>
   <energy>
    <i name="e_fr_energy">   -175.03523869 </i>
    <i name="e_wo_entrp">   -174.95690814 </i>
    <i name="e_0_energy">   -175.01565605 </i>
   </energy>
  </scstep>
  <scstep>
   <time name="diag">   59.18   59.18</time>
   <time name="diis">  157.34  157.34</time>
   <time name="orth">   11.73   11.73</time>
   <time name="total">  261.60  261.61</time>
   <energy>
    <i name="e_fr_energy">   -174.81324271 </i>
    <i name="e_wo_entrp">   -174.73408386 </i>
    <i name="e_0_energy">   -174.79345299 </i>
   </energy>
  </scstep>
  <scstep>
   <time name="diag">   59.35   59.36</time>
   <time name="diis">  155.50  155.51</time>
   <time name="orth">   11.72   11.72</time>
   <time name="total">  260.09  260.10</time>
   <energy>
    <i name="e_fr_energy">   -174.76608681 </i>
    <i name="e_wo_entrp">   -174.66613624 </i>
    <i name="e_0_energy">   -174.74109916 </i>
   </energy>
  </scstep>
  <scstep>
   <time name="diag">   59.33   59.33</time>
   <time name="diis">  155.94  155.94</time>
   <time name="orth">   11.73   11.73</time>
   <time name="total">  260.48  260.49</time>
   <energy>
    <i name="e_fr_energy">   -174.73028520 </i>
    <i name="e_wo_entrp">   -174.61816785 </i>
    <i name="e_0_energy">   -174.70225586 </i>
   </energy>
  </scstep>
  <scstep>
   <time name="diag">   59.41   59.41</time>
   <time name="diis">  155.43  155.43</time>
   <time name="orth">   11.71   11.71</time>
   <time name="total">  260.11  260.12</time>
   <energy>
    <i name="e_fr_energy">   -174.67148210 </i>
    <i name="e_wo_entrp">   -174.58048505 </i>
    <i name="e_0_energy">   -174.64873284 </i>
   </energy>
  </scstep>
  <scstep>
   <time name="diag">   59.33   59.33</time>
   <time name="diis">  155.59  155.59</time>
   <time name="orth">   11.72   11.72</time>
   <time name="total">  260.24  260.24</time>
   <energy>
    <i name="e_fr_energy">   -174.65393040 </i>
    <i name="e_wo_entrp">   -174.54932422 </i>
    <i name="e_0_energy">   -174.62777886 </i>
   </energy>
  </scstep>
  <scstep>
   <time name="diag">   59.29   59.29</time>
   <time name="diis">  155.82  155.83</time>
   <time name="orth">   11.73   11.73</time>
   <time name="total">  260.50  260.51</time>
   <energy>
    <i name="e_fr_energy">   -174.65997180 </i>
    <i name="e_wo_entrp">   -174.56417483 </i>
    <i name="e_0_energy">   -174.63602256 </i>
   </energy>
  </scstep>
  <scstep>
   <time name="diag">   59.33   59.33</time>
   <time name="diis">  156.06  156.06</time>
   <time name="orth">   11.72   11.72</time>
   <time name="total">  260.84  260.84</time>
   <energy>
    <i name="e_fr_energy">   -174.63844421 </i>
    <i name="e_wo_entrp">   -174.54197766 </i>
    <i name="e_0_energy">   -174.61432757 </i>
   </energy>
  </scstep>
  <scstep>
   <time name="diag">   59.36   59.36</time>
   <time name="diis">  154.98  154.98</time>
   <time name="orth">   11.72   11.72</time>
   <time name="total">  259.88  259.89</time>
   <energy>
    <i name="e_fr_energy">   -174.63539580 </i>
    <i name="e_wo_entrp">   -174.52682182 </i>
    <i name="e_0_energy">   -174.60825231 </i>
   </energy>
  </scstep>
  <scstep>
   <time name="diag">   59.20   59.20</time>
   <time name="diis">  155.54  155.54</time>
   <time name="orth">   11.76   11.76</time>
   <time name="total">  260.36  260.36</time>
   <energy>
    <i name="e_fr_energy">   -174.63267289 </i>
    <i name="e_wo_entrp">   -174.52428779 </i>
    <i name="e_0_energy">   -174.60557661 </i>
   </energy>
  </scstep>
  <scstep>
   <time name="diag">   59.34   59.35</time>
   <time name="diis">  154.87  154.88</time>
   <time name="orth">   11.73   11.73</time>
   <time name="total">  259.91  259.92</time>
   <energy>
    <i name="e_fr_energy">   -174.62717458 </i>
    <i name="e_wo_entrp">   -174.51647308 </i>
    <i name="e_0_energy">   -174.59949920 </i>
   </energy>
  </scstep>
  <scstep>
   <time name="diag">   59.31   59.31</time>
   <time name="diis">  155.01  155.01</time>
   <time name="orth">   11.72   11.72</time>
   <time name="total">  260.05  260.06</time>
   <energy>
    <i name="e_fr_energy">   -174.62485499 </i>
    <i name="e_wo_entrp">   -174.51555433 </i>
    <i name="e_0_energy">   -174.59752982 </i>
   </energy>
  </scstep>
  <scstep>
   <time name="diag">   59.29   59.29</time>
   <time name="diis">  154.60  154.60</time>
   <time name="orth">   11.69   11.69</time>
   <time name="total">  259.71  259.71</time>
   <energy>
    <i name="e_fr_energy">   -174.62547587 </i>
    <i name="e_wo_entrp">   -174.51969748 </i>
    <i name="e_0_energy">   -174.59903127 </i>
   </energy>
  </scstep>
  <scstep>
   <time name="diag">   59.30   59.30</time>
   <time name="diis">  154.23  154.23</time>
   <time name="orth">   11.68   11.68</time>
   <time name="total">  259.39  259.40</time>
   <energy>
    <i name="e_fr_energy">   -174.62711208 </i>
    <i name="e_wo_entrp">   -174.52245386 </i>
    <i name="e_0_energy">   -174.60094753 </i>
   </energy>
  </scstep>
  <scstep>
   <time name="diag">   59.28   59.28</time>
   <time name="diis">  153.83  153.83</time>
   <time name="orth">   11.68   11.68</time>
   <time name="total">  259.08  259.09</time>
   <energy>
    <i name="e_fr_energy">   -174.62730786 </i>
    <i name="e_wo_entrp">   -174.52009076 </i>
    <i name="e_0_energy">   -174.60050358 </i>
   </energy>
  </scstep>
  <scstep>
   <time name="diag">   59.17   59.17</time>
   <time name="diis">  153.40  153.40</time>
   <time name="orth">   11.69   11.69</time>
   <time name="total">  258.60  258.60</time>
   <energy>
    <i name="e_fr_energy">   -174.62947273 </i>
    <i name="e_wo_entrp">   -174.52191970 </i>
    <i name="e_0_energy">   -174.60258447 </i>
   </energy>
  </scstep>
  <scstep>
   <time name="diag">   59.23   59.23</time>
   <time name="diis">  151.95  151.95</time>
   <time name="orth">   11.69   11.69</time>
   <time name="total">  257.34  257.35</time>
   <energy>
    <i name="e_fr_energy">   -174.63178929 </i>
    <i name="e_wo_entrp">   -174.52268151 </i>
    <i name="e_0_energy">   -174.60451234 </i>
   </energy>
  </scstep>
  <scstep>
   <time name="diag">   59.24   59.24</time>
   <time name="diis">  127.58  127.58</time>
   <time name="orth">   11.72   11.72</time>
   <time name="total">  233.26  233.27</time>
   <energy>
    <i name="e_fr_energy">   -174.63371947 </i>
    <i name="e_wo_entrp">   -174.52439329 </i>
    <i name="e_0_energy">   -174.60638792 </i>
   </energy>
  </scstep>
  <scstep>
   <time name="diag">   59.23   59.23</time>
   <time name="diis">  121.66  121.66</time>
   <time name="orth">   11.72   11.72</time>
   <time name="total">  227.34  227.35</time>
   <energy>
    <i name="e_fr_energy">   -174.63644280 </i>
    <i name="e_wo_entrp">   -174.52879385 </i>
    <i name="e_0_energy">   -174.60953056 </i>
   </energy>
  </scstep>
  <scstep>
   <time name="diag">   59.11   59.11</time>
   <time name="diis">  101.14  101.14</time>
   <time name="orth">   11.74   11.74</time>
   <time name="total">  206.81  206.82</time>
   <energy>
    <i name="e_fr_energy">   -174.63803058 </i>
    <i name="e_wo_entrp">   -174.53011485 </i>
    <i name="e_0_energy">   -174.61105164 </i>
   </energy>
  </scstep>
  <scstep>
   <time name="diag">   59.26   59.26</time>
   <time name="diis">  137.12  137.13</time>
   <time name="orth">   11.70   11.70</time>
   <time name="total">  243.04  243.04</time>
   <energy>
    <i name="e_fr_energy">   -174.64228483 </i>
    <i name="e_wo_entrp">   -174.53554579 </i>
    <i name="e_0_energy">   -174.61560007 </i>
   </energy>
  </scstep>
  <scstep>
   <time name="diag">   59.25   59.25</time>
   <time name="diis">  111.95  111.95</time>
   <time name="orth">   11.72   11.72</time>
   <time name="total">  218.02  218.03</time>
   <energy>
    <i name="e_fr_energy">   -174.64399204 </i>
    <i name="e_wo_entrp">   -174.53690006 </i>
    <i name="e_0_energy">   -174.61721904 </i>
   </energy>
  </scstep>
  <scstep>
   <time name="diag">   59.29   59.29</time>
   <time name="diis">  103.48  103.48</time>
   <time name="orth">   11.72   11.72</time>
   <time name="total">  209.77  209.78</time>
   <energy>
    <i name="e_fr_energy">   -174.64554939 </i>
    <i name="e_wo_entrp">   -174.53692651 </i>
    <i name="e_0_energy">   -174.61839367 </i>
   </energy>
  </scstep>
  <scstep>
   <time name="diag">   61.27   61.27</time>
   <time name="diis">  107.57  107.57</time>
   <time name="orth">   11.89   11.89</time>
   <time name="total">  216.91  216.91</time>
   <energy>
    <i name="e_fr_energy">   -174.64765342 </i>
    <i name="e_wo_entrp">   -174.54017590 </i>
    <i name="e_0_energy">   -174.62078404 </i>
   </energy>
  </scstep>
  <scstep>
   <time name="diag">   60.47   60.47</time>
   <time name="diis">  101.87  101.87</time>
   <time name="orth">   12.02   12.02</time>
   <time name="total">  211.17  211.18</time>
   <energy>
    <i name="e_fr_energy">   -174.64817755 </i>
    <i name="e_wo_entrp">   -174.54068954 </i>
    <i name="e_0_energy">   -174.62130555 </i>
   </energy>
  </scstep>
  <scstep>
   <time name="diag">   59.96   59.97</time>
   <time name="diis">   98.56   98.56</time>
   <time name="orth">   12.00   12.00</time>
   <time name="total">  207.48  207.48</time>
   <energy>
    <i name="e_fr_energy">   -174.64971169 </i>
    <i name="e_wo_entrp">   -174.54236202 </i>
    <i name="e_0_energy">   -174.62287427 </i>
   </energy>
  </scstep>
  <scstep>
   <time name="diag">   60.39   60.39</time>
   <time name="diis">  100.67  100.67</time>
   <time name="orth">   11.85   11.85</time>
   <time name="total">  209.56  209.56</time>
   <energy>
    <i name="e_fr_energy">   -174.65034051 </i>
    <i name="e_wo_entrp">   -174.54310081 </i>
    <i name="e_0_energy">   -174.62353058 </i>
   </energy>
  </scstep>
  <scstep>
   <time name="diag">   60.31   60.31</time>
   <time name="diis">   99.11   99.11</time>
   <time name="orth">   11.78   11.78</time>
   <time name="total">  207.48  207.49</time>
   <energy>
    <i name="e_fr_energy">   -174.65090828 </i>
    <i name="e_wo_entrp">   -174.54360728 </i>
    <i name="e_0_energy">   -174.62408303 </i>
   </energy>
  </scstep>
  <scstep>
   <time name="diag">   59.30   59.30</time>
   <time name="diis">   94.57   94.57</time>
   <time name="orth">   11.98   11.98</time>
   <time name="total">  202.56  202.56</time>
   <energy>
    <i name="e_fr_energy">   -174.65163957 </i>
    <i name="e_wo_entrp">   -174.54423398 </i>
    <i name="e_0_energy">   -174.62478818 </i>
   </energy>
  </scstep>
  <scstep>
   <time name="diag">   60.18   60.18</time>
   <time name="diis">   84.91   84.91</time>
   <time name="orth">   11.77   11.77</time>
   <time name="total">  193.12  193.12</time>
   <energy>
    <i name="e_fr_energy">   -174.65186649 </i>
    <i name="e_wo_entrp">   -174.54441295 </i>
    <i name="e_0_energy">   -174.62500311 </i>
   </energy>
  </scstep>
  <scstep>
   <time name="diag">   59.20   59.20</time>
   <time name="diis">   84.77   84.77</time>
   <time name="orth">   11.81   11.81</time>
   <time name="total">  192.04  192.04</time>
   <energy>
    <i name="e_fr_energy">   -174.65252623 </i>
    <i name="e_wo_entrp">   -174.54503735 </i>
    <i name="e_0_energy">   -174.62565401 </i>
   </energy>
  </scstep>
  <scstep>
   <time name="diag">   59.24   59.24</time>
   <time name="diis">   72.80   72.80</time>
   <time name="orth">   11.93   11.93</time>
   <time name="total">  180.87  180.88</time>
   <energy>
    <i name="e_fr_energy">   -174.65271667 </i>
    <i name="e_wo_entrp">   -174.54532518 </i>
    <i name="e_0_energy">   -174.62586880 </i>
   </energy>
  </scstep>
  <scstep>
   <time name="diag">   60.36   60.36</time>
   <time name="diis">   90.00   90.00</time>
   <time name="orth">   11.82   11.82</time>
   <time name="total">  199.02  199.03</time>
   <energy>
    <i name="e_fr_energy">   -174.65323798 </i>
    <i name="e_wo_entrp">   -174.54585955 </i>
    <i name="e_0_energy">   -174.62639337 </i>
   </energy>
  </scstep>
  <scstep>
   <time name="diag">   59.24   59.24</time>
   <time name="diis">   70.04   70.04</time>
   <time name="orth">   11.85   11.85</time>
   <time name="total">  177.49  177.50</time>
   <energy>
    <i name="e_fr_energy">   -174.65341701 </i>
    <i name="e_wo_entrp">   -174.54597137 </i>
    <i name="e_0_energy">   -174.62655560 </i>
   </energy>
  </scstep>
  <scstep>
   <time name="diag">   59.32   59.32</time>
   <time name="diis">   72.37   72.37</time>
   <time name="orth">   11.86   11.86</time>
   <time name="total">  179.77  179.77</time>
   <energy>
    <i name="e_fr_energy">   -174.65354752 </i>
    <i name="e_wo_entrp">   -174.54616316 </i>
    <i name="e_0_energy">   -174.62670143 </i>
   </energy>
  </scstep>
  <scstep>
   <time name="diag">   59.47   59.47</time>
   <time name="diis">   76.27   76.27</time>
   <time name="orth">   12.02   12.02</time>
   <time name="total">  184.51  184.51</time>
   <energy>
    <i name="e_fr_energy">   -174.65368714 </i>
    <i name="e_wo_entrp">   -174.54623245 </i>
    <i name="e_0_energy">   -174.62682346 </i>
   </energy>
  </scstep>
  <scstep>
   <time name="diag">   60.55   60.55</time>
   <time name="diis">   69.24   69.24</time>
   <time name="orth">   11.88   11.88</time>
   <time name="total">  153.33  153.33</time>
   <energy>
    <i name="alphaZ">     75.25431677 </i>
    <i name="ewald"> 137687.00019848 </i>
    <i name="hartreedc">-182048.90527051 </i>
    <i name="XCdc">  -1692.96101607 </i>
    <i name="pawpsdc">  46087.65367288 </i>
    <i name="pawaedc"> -42557.95018831 </i>
    <i name="eentropy">     -0.10741951 </i>
    <i name="bandstr">  -2811.14354373 </i>
    <i name="atom">  45086.50549395 </i>
    <i name="e_fr_energy">   -174.65375605 </i>
    <i name="e_wo_entrp">   -174.54633654 </i>
    <i name="e_0_energy">   -174.62690117 </i>
   </energy>
  </scstep>
  <structure>
   <crystal>
    <varray name="basis" >
     <v>      30.00000000       0.00000000       0.00000000 </v>
     <v>       0.00000000      30.00000000       0.00000000 </v>
     <v>       0.00000000       0.00000000      30.00000000 </v>
    </varray>
    <i name="volume">  27000.00000000 </i>
    <varray name="rec_basis" >
     <v>       0.03333333       0.00000000       0.00000000 </v>
     <v>       0.00000000       0.03333333       0.00000000 </v>
     <v>       0.00000000       0.00000000       0.03333333 </v>
    </varray>
   </crystal>
   <varray name="positions" >
    <v>       0.44576020       0.32826710       0.41691983 </v>
    <v>       0.67173288       0.55423978       0.41691983 </v>
    <v>       0.55423980       0.32826710       0.41691983 </v>
    <v>       0.32826712       0.55423978       0.41691983 </v>
    <v>       0.50000000       0.38250690       0.34021317 </v>
    <v>       0.50000000       0.38250690       0.65978680 </v>
    <v>       0.50000000       0.27609440       0.50000000 </v>
    <v>       0.27609443       0.49999998       0.50000000 </v>
    <v>       0.72390557       0.49999998       0.50000000 </v>
    <v>       0.50000000       0.72390555       0.50000000 </v>
    <v>       0.61195280       0.38804720       0.34167483 </v>
    <v>       0.61195280       0.38804720       0.65832513 </v>
    <v>       0.38804722       0.61195278       0.34167483 </v>
    <v>       0.38804722       0.61195278       0.65832513 </v>
    <v>       0.38804720       0.38804720       0.34167483 </v>
    <v>       0.38804720       0.38804720       0.65832513 </v>
    <v>       0.61195278       0.61195278       0.34167483 </v>
    <v>       0.61195278       0.61195278       0.65832513 </v>
    <v>       0.44576020       0.32826710       0.58308023 </v>
    <v>       0.67173288       0.55423978       0.58308023 </v>
    <v>       0.55791699       0.44208301       0.41809300 </v>
    <v>       0.32826705       0.44576024       0.41691983 </v>
    <v>       0.55423973       0.67173293       0.41691983 </v>
    <v>       0.55423980       0.32826710       0.58308023 </v>
    <v>       0.32826712       0.55423978       0.58308023 </v>
    <v>       0.67173295       0.44576024       0.41691983 </v>
    <v>       0.44576027       0.67173293       0.41691983 </v>
    <v>       0.44208301       0.44208301       0.41809300 </v>
    <v>       0.50000000       0.38416601       0.50000000 </v>
    <v>       0.61749315       0.50000005       0.34021317 </v>
    <v>       0.61749315       0.50000005       0.65978680 </v>
    <v>       0.38250685       0.50000005       0.34021317 </v>
    <v>       0.38250685       0.50000005       0.65978680 </v>
    <v>       0.38317830       0.38317830       0.50000000 </v>
    <v>       0.61682172       0.61682172       0.50000000 </v>
    <v>       0.61682170       0.38317830       0.50000000 </v>
    <v>       0.38317828       0.61682172       0.50000000 </v>
    <v>       0.50000000       0.50000000       0.33478917 </v>
    <v>       0.50000000       0.50000000       0.66521087 </v>
    <v>       0.32826705       0.44576024       0.58308023 </v>
    <v>       0.55423973       0.67173293       0.58308023 </v>
    <v>       0.55791699       0.44208301       0.58190703 </v>
    <v>       0.44208298       0.55791702       0.41809300 </v>
    <v>       0.44208301       0.44208301       0.58190703 </v>
    <v>       0.67173295       0.44576024       0.58308023 </v>
    <v>       0.44576027       0.67173293       0.58308023 </v>
    <v>       0.55791702       0.55791702       0.41809300 </v>
    <v>       0.38416599       0.50000002       0.50000000 </v>
    <v>       0.61583401       0.50000002       0.50000000 </v>
    <v>       0.50000000       0.61749319       0.34021317 </v>
    <v>       0.50000000       0.61749319       0.65978680 </v>
    <v>       0.50000000       0.50000000       0.50000000 </v>
    <v>       0.44208298       0.55791702       0.58190703 </v>
    <v>       0.55791702       0.55791702       0.58190703 </v>
    <v>       0.50000000       0.61583404       0.50000000 </v>
    <v>       0.35514397       0.52534770       0.27698910 </v>
    <v>       0.33475487       0.52891550       0.24559937 </v>
   </varray>
  </structure>
  <varray name="forces" >
   <v>       0.69703466       1.11120750       0.28526533 </v>
   <v>      -1.10576468      -0.71017509       0.29132249 </v>
   <v>      -0.70485699       1.11051637       0.29021829 </v>
   <v>       1.06473196      -0.68704850       0.38677748 </v>
   <v>       0.00440266       0.40928483       1.28740730 </v>
   <v>      -0.00977335       0.41503465      -1.28357771 </v>
   <v>       0.00395783       1.52045758       0.01134814 </v>
   <v>       1.52380089       0.01811800      -0.01848224 </v>
   <v>      -1.51638067       0.00038243      -0.00606559 </v>
   <v>       0.00323237      -1.51399203       0.01632557 </v>
   <v>      -0.75571071       0.75763052       1.07428338 </v>
   <v>      -0.75296837       0.75446088      -1.07150523 </v>
   <v>       0.72182857      -0.76461155       1.01114112 </v>
   <v>       0.75893609      -0.75464844      -1.07367805 </v>
   <v>       0.76782469       0.74048869       1.09407768 </v>
   <v>       0.75775064       0.75516058      -1.07352003 </v>
   <v>      -0.75662031      -0.75719827       1.07475406 </v>
   <v>      -0.75669983      -0.75413332      -1.07382441 </v>
   <v>       0.70738946       1.10222934      -0.28810307 </v>
   <v>      -1.10637243      -0.70393795      -0.29045256 </v>
   <v>       0.10850465      -0.11367681      -0.15997474 </v>
   <v>       1.12927265       0.67064324       0.34941679 </v>
   <v>      -0.71083290      -1.11124703       0.28200667 </v>
   <v>      -0.70722555       1.10339790      -0.30229371 </v>
   <v>       1.10994462      -0.70279844      -0.29030171 </v>
   <v>      -1.10634692       0.70745742       0.29225542 </v>
   <v>       0.70409592      -1.10209250       0.28419093 </v>
   <v>      -0.16406879      -0.05457668      -0.19698512 </v>
   <v>       0.00967979      -0.25259396       0.02228562 </v>
   <v>      -0.40977449      -0.00052416       1.28872117 </v>
   <v>      -0.41089140       0.00142864      -1.28214666 </v>
   <v>      -0.41300738       0.65536816      -0.70954025 </v>
   <v>       0.41491341      -0.00069252      -1.27978657 </v>
   <v>       0.82158806       0.83998239      -0.01434486 </v>
   <v>      -0.82554295      -0.82849327       0.00322004 </v>
   <v>      -0.82664648       0.82802680      -0.00031608 </v>
   <v>       0.82218275      -0.83523587       0.00083867 </v>
   <v>       0.06362435      -0.00446976       1.18918793 </v>
   <v>      -0.00278363       0.00030178      -1.17928587 </v>
   <v>       1.11223683       0.70280317      -0.28866375 </v>
   <v>      -0.71044487      -1.10557142      -0.29893627 </v>
   <v>       0.11302050      -0.10620104       0.15530834 </v>
   <v>      -0.06518078       0.11405110      -0.09422264 </v>
   <v>      -0.10728651      -0.11438793       0.16140272 </v>
   <v>      -1.10921473       0.70515878      -0.29353708 </v>
   <v>       0.71020089      -1.10731935      -0.29005762 </v>
   <v>       0.11084455       0.11479262      -0.15657779 </v>
   <v>      -0.22228853      -0.00147711      -0.00974464 </v>
   <v>       0.22879454      -0.00371877      -0.00135519 </v>
   <v>       0.02686564      -0.39589804       1.29210610 </v>
   <v>      -0.00446754      -0.41045963      -1.28238473 </v>
   <v>      -0.01541466       0.00326884      -0.01133190 </v>
   <v>      -0.11154680       0.11431664       0.15642660 </v>
   <v>       0.11311086       0.11007838       0.15852541 </v>
   <v>       0.00763169       0.23643316       0.02139701 </v>
   <v>       2.66167056      -1.12384941       4.85669770 </v>
   <v>      -1.89095982       0.41854851      -3.01591189 </v>
  </varray>
  <varray name="stress" >
   <v>      -6.70971038       0.02259294       0.01906580 </v>
   <v>       0.02259296      -6.77916011       0.06591679 </v>
   <v>       0.01906578       0.06591678      -6.78448953 </v>
  </varray>
  <energy>
   <i name="e_fr_energy">   -174.65375605 </i>
   <i name="e_wo_entrp">   -174.62690117 </i>
   <i name="e_0_energy">     -0.10741951 </i>
  </energy>
  <time name="totalsc">15402.4315402.87</time>
  <eigenvalues>
   <array>
    <dimension dim="1">band</dimension>
    <dimension dim="2">kpoint</dimension>
    <dimension dim="3">spin</dimension>
    <field>eigene</field>
    <field>occ</field>
    <set>
     <set comment="spin 1">
      <set comment="kpoint 1">
       <r>  -28.9227    1.0000 </r>
       <r>  -13.5367    1.0000 </r>
       <r>  -11.2777    1.0000 </r>
       <r>  -11.2612    1.0000 </r>
       <r>  -10.0613    1.0000 </r>
       <r>   -6.6429    1.0000 </r>
       <r>   -6.1270    1.0000 </r>
       <r>   -6.1237    1.0000 </r>
       <r>   -6.1192    1.0000 </r>
       <r>   -5.8314    1.0000 </r>
       <r>   -5.8163    1.0000 </r>
       <r>   -5.8116    1.0000 </r>
       <r>   -5.7821    1.0000 </r>
       <r>   -5.7291    1.0000 </r>
       <r>   -5.6993    1.0000 </r>
       <r>   -5.6879    1.0000 </r>
       <r>   -5.6825    1.0000 </r>
       <r>   -5.6724    1.0000 </r>
       <r>   -5.6520    1.0000 </r>
       <r>   -5.6284    1.0000 </r>
       <r>   -5.6191    1.0000 </r>
       <r>   -5.6057    1.0000 </r>
       <r>   -5.5927    1.0000 </r>
       <r>   -5.5911    1.0000 </r>
       <r>   -5.5734    1.0000 </r>
       <r>   -5.5618    1.0000 </r>
       <r>   -5.5449    1.0000 </r>
       <r>   -5.5438    1.0000 </r>
       <r>   -5.5389    1.0000 </r>
       <r>   -5.5202    1.0000 </r>
       <r>   -5.5156    1.0000 </r>
       <r>   -5.5146    1.0000 </r>
       <r>   -5.5119    1.0000 </r>
       <r>   -5.5106    1.0000 </r>
       <r>   -5.5098    1.0000 </r>
       <r>   -5.5037    1.0000 </r>
       <r>   -5.4879    1.0000 </r>
       <r>   -5.4783    1.0000 </r>
       <r>   -5.4708    1.0000 </r>
       <r>   -5.4679    1.0000 </r>
       <r>   -5.4671    1.0000 </r>
       <r>   -5.4660    1.0000 </r>
       <r>   -5.4639    1.0000 </r>
       <r>   -5.4495    1.0000 </r>
       <r>   -5.4442    1.0000 </r>
       <r>   -5.4359    1.0000 </r>
       <r>   -5.4278    1.0000 </r>
       <r>   -5.4255    1.0000 </r>
       <r>   -5.4236    1.0000 </r>
       <r>   -5.4215    1.0000 </r>
       <r>   -5.4182    1.0000 </r>
       <r>   -5.4168    1.0000 </r>
       <r>   -5.4037    1.0000 </r>
       <r>   -5.4022    1.0000 </r>
       <r>   -5.3911    1.0000 </r>
       <r>   -5.3549    1.0000 </r>
       <r>   -5.3511    1.0000 </r>
       <r>   -5.3296    1.0000 </r>
       <r>   -5.3241    1.0000 </r>
       <r>   -5.3226    1.0000 </r>
       <r>   -5.3215    1.0000 </r>
       <r>   -5.3137    1.0000 </r>
       <r>   -5.3107    1.0000 </r>
       <r>   -5.2993    1.0000 </r>
       <r>   -5.2973    1.0000 </r>
       <r>   -5.2966    1.0000 </r>
       <r>   -5.2865    1.0000 </r>
       <r>   -5.2677    1.0000 </r>
       <r>   -5.2299    1.0000 </r>
       <r>   -5.2159    1.0000 </r>
       <r>   -5.2037    1.0000 </r>
       <r>   -5.1997    1.0000 </r>
       <r>   -5.1911    1.0000 </r>
       <r>   -5.1842    1.0000 </r>
       <r>   -5.1772    1.0000 </r>
       <r>   -5.1761    1.0000 </r>
       <r>   -5.1755    1.0000 </r>
       <r>   -5.1619    1.0000 </r>
       <r>   -5.1603    1.0000 </r>
       <r>   -5.1526    1.0000 </r>
       <r>   -5.1387    1.0000 </r>
       <r>   -5.1352    1.0000 </r>
       <r>   -5.1283    1.0000 </r>
       <r>   -5.1215    1.0000 </r>
       <r>   -5.1099    1.0000 </r>
       <r>   -5.1055    1.0000 </r>
       <r>   -5.1004    1.0000 </r>
       <r>   -5.0924    1.0000 </r>
       <r>   -5.0701    1.0000 </r>
       <r>   -5.0553    1.0000 </r>
       <r>   -5.0540    1.0000 </r>
       <r>   -5.0511    1.0000 </r>
       <r>   -5.0507    1.0000 </r>
       <r>   -5.0491    1.0000 </r>
       <r>   -5.0463    1.0000 </r>
       <r>   -5.0380    1.0000 </r>
       <r>   -5.0326    1.0000 </r>
       <r>   -5.0285    1.0000 </r>
       <r>   -5.0251    1.0000 </r>
       <r>   -5.0168    1.0000 </r>
       <r>   -5.0133    1.0000 </r>
       <r>   -5.0111    1.0000 </r>
       <r>   -5.0021    1.0000 </r>
       <r>   -5.0012    1.0000 </r>
       <r>   -4.9960    1.0000 </r>
       <r>   -4.9908    1.0000 </r>
       <r>   -4.9877    1.0000 </r>
       <r>   -4.9832    1.0000 </r>
       <r>   -4.9805    1.0000 </r>
       <r>   -4.9728    1.0000 </r>
       <r>   -4.9698    1.0000 </r>
       <r>   -4.9673    1.0000 </r>
       <r>   -4.9575    1.0000 </r>
       <r>   -4.9550    1.0000 </r>
       <r>   -4.9534    1.0000 </r>
       <r>   -4.9508    1.0000 </r>
       <r>   -4.9432    1.0000 </r>
       <r>   -4.9272    1.0000 </r>
       <r>   -4.9206    1.0000 </r>
       <r>   -4.9163    1.0000 </r>
       <r>   -4.9098    1.0000 </r>
       <r>   -4.9048    1.0000 </r>
       <r>   -4.9020    1.0000 </r>
       <r>   -4.8989    1.0000 </r>
       <r>   -4.8981    1.0000 </r>
       <r>   -4.8965    1.0000 </r>
       <r>   -4.8654    1.0000 </r>
       <r>   -4.8591    1.0000 </r>
       <r>   -4.8442    1.0000 </r>
       <r>   -4.8390    1.0000 </r>
       <r>   -4.8370    1.0000 </r>
       <r>   -4.8366    1.0000 </r>
       <r>   -4.8329    1.0000 </r>
       <r>   -4.8304    1.0000 </r>
       <r>   -4.8264    1.0000 </r>
       <r>   -4.8173    1.0000 </r>
       <r>   -4.7935    0.9999 </r>
       <r>   -4.7905    0.9999 </r>
       <r>   -4.7876    0.9999 </r>
       <r>   -4.7737    0.9998 </r>
       <r>   -4.7700    0.9998 </r>
       <r>   -4.7605    0.9998 </r>
       <r>   -4.7467    0.9997 </r>
       <r>   -4.7361    0.9996 </r>
       <r>   -4.7334    0.9996 </r>
       <r>   -4.7280    0.9996 </r>
       <r>   -4.7215    0.9995 </r>
       <r>   -4.7139    0.9994 </r>
       <r>   -4.7064    0.9993 </r>
       <r>   -4.6969    0.9992 </r>
       <r>   -4.6831    0.9989 </r>
       <r>   -4.6822    0.9989 </r>
       <r>   -4.6790    0.9988 </r>
       <r>   -4.6753    0.9987 </r>
       <r>   -4.6695    0.9986 </r>
       <r>   -4.6680    0.9986 </r>
       <r>   -4.6675    0.9986 </r>
       <r>   -4.6656    0.9985 </r>
       <r>   -4.6610    0.9984 </r>
       <r>   -4.6566    0.9983 </r>
       <r>   -4.6513    0.9981 </r>
       <r>   -4.6447    0.9979 </r>
       <r>   -4.6437    0.9979 </r>
       <r>   -4.6426    0.9978 </r>
       <r>   -4.6413    0.9978 </r>
       <r>   -4.6404    0.9978 </r>
       <r>   -4.6386    0.9977 </r>
       <r>   -4.6323    0.9975 </r>
       <r>   -4.6289    0.9974 </r>
       <r>   -4.6267    0.9973 </r>
       <r>   -4.6040    0.9965 </r>
       <r>   -4.6015    0.9964 </r>
       <r>   -4.5952    0.9961 </r>
       <r>   -4.5941    0.9961 </r>
       <r>   -4.5919    0.9960 </r>
       <r>   -4.5902    0.9959 </r>
       <r>   -4.5882    0.9959 </r>
       <r>   -4.5842    0.9957 </r>
       <r>   -4.5838    0.9957 </r>
       <r>   -4.5732    0.9954 </r>
       <r>   -4.5710    0.9954 </r>
       <r>   -4.5676    0.9953 </r>
       <r>   -4.5587    0.9951 </r>
       <r>   -4.5521    0.9951 </r>
       <r>   -4.5501    0.9951 </r>
       <r>   -4.5500    0.9951 </r>
       <r>   -4.5465    0.9951 </r>
       <r>   -4.5445    0.9951 </r>
       <r>   -4.5437    0.9951 </r>
       <r>   -4.5416    0.9951 </r>
       <r>   -4.5222    0.9958 </r>
       <r>   -4.5065    0.9970 </r>
       <r>   -4.5051    0.9972 </r>
       <r>   -4.5029    0.9974 </r>
       <r>   -4.5006    0.9977 </r>
       <r>   -4.4939    0.9986 </r>
       <r>   -4.4890    0.9994 </r>
       <r>   -4.4825    1.0005 </r>
       <r>   -4.4764    1.0018 </r>
       <r>   -4.4708    1.0031 </r>
       <r>   -4.4698    1.0034 </r>
       <r>   -4.4613    1.0057 </r>
       <r>   -4.4573    1.0069 </r>
       <r>   -4.4542    1.0079 </r>
       <r>   -4.4502    1.0092 </r>
       <r>   -4.4469    1.0103 </r>
       <r>   -4.4427    1.0119 </r>
       <r>   -4.4407    1.0126 </r>
       <r>   -4.4372    1.0140 </r>
       <r>   -4.4353    1.0147 </r>
       <r>   -4.4195    1.0215 </r>
       <r>   -4.4163    1.0230 </r>
       <r>   -4.4124    1.0249 </r>
       <r>   -4.4051    1.0283 </r>
       <r>   -4.4038    1.0290 </r>
       <r>   -4.4026    1.0295 </r>
       <r>   -4.4005    1.0305 </r>
       <r>   -4.3992    1.0312 </r>
       <r>   -4.3969    1.0323 </r>
       <r>   -4.3810    1.0397 </r>
       <r>   -4.3642    1.0464 </r>
       <r>   -4.3619    1.0472 </r>
       <r>   -4.3580    1.0484 </r>
       <r>   -4.3501    1.0503 </r>
       <r>   -4.3403    1.0515 </r>
       <r>   -4.3333    1.0515 </r>
       <r>   -4.3327    1.0515 </r>
       <r>   -4.3323    1.0514 </r>
       <r>   -4.3309    1.0513 </r>
       <r>   -4.3289    1.0510 </r>
       <r>   -4.3285    1.0510 </r>
       <r>   -4.3267    1.0507 </r>
       <r>   -4.3246    1.0502 </r>
       <r>   -4.3215    1.0494 </r>
       <r>   -4.3195    1.0487 </r>
       <r>   -4.3174    1.0479 </r>
       <r>   -4.3169    1.0477 </r>
       <r>   -4.3140    1.0464 </r>
       <r>   -4.3135    1.0462 </r>
       <r>   -4.3126    1.0457 </r>
       <r>   -4.3017    1.0385 </r>
       <r>   -4.2962    1.0336 </r>
       <r>   -4.2891    1.0259 </r>
       <r>   -4.2837    1.0189 </r>
       <r>   -4.2814    1.0156 </r>
       <r>   -4.2794    1.0126 </r>
       <r>   -4.2789    1.0118 </r>
       <r>   -4.2769    1.0086 </r>
       <r>   -4.2745    1.0047 </r>
       <r>   -4.2630    0.9827 </r>
       <r>   -4.2595    0.9748 </r>
       <r>   -4.2573    0.9698 </r>
       <r>   -4.2522    0.9573 </r>
       <r>   -4.2493    0.9499 </r>
       <r>   -4.2485    0.9477 </r>
       <r>   -4.2461    0.9411 </r>
       <r>   -4.2434    0.9333 </r>
       <r>   -4.2431    0.9326 </r>
       <r>   -4.2393    0.9214 </r>
       <r>   -4.2389    0.9200 </r>
       <r>   -4.2375    0.9157 </r>
       <r>   -4.2347    0.9069 </r>
       <r>   -4.2331    0.9016 </r>
       <r>   -4.2327    0.9003 </r>
       <r>   -4.2305    0.8928 </r>
       <r>   -4.2211    0.8597 </r>
       <r>   -4.2199    0.8551 </r>
       <r>   -4.2179    0.8475 </r>
       <r>   -4.2158    0.8391 </r>
       <r>   -4.2140    0.8320 </r>
       <r>   -4.2117    0.8228 </r>
       <r>   -4.2044    0.7927 </r>
       <r>   -4.1933    0.7430 </r>
       <r>   -4.1886    0.7212 </r>
       <r>   -4.1782    0.6705 </r>
       <r>   -4.1772    0.6655 </r>
       <r>   -4.1712    0.6353 </r>
       <r>   -4.1711    0.6346 </r>
       <r>   -4.1689    0.6236 </r>
       <r>   -4.1656    0.6065 </r>
       <r>   -4.1596    0.5753 </r>
       <r>   -4.1524    0.5376 </r>
       <r>   -4.1271    0.4045 </r>
       <r>   -4.1235    0.3857 </r>
       <r>   -4.1226    0.3810 </r>
       <r>   -4.1218    0.3771 </r>
       <r>   -4.1101    0.3182 </r>
       <r>   -4.1082    0.3088 </r>
       <r>   -4.1047    0.2922 </r>
       <r>   -3.9583   -0.0514 </r>
       <r>   -3.8797   -0.0256 </r>
       <r>   -3.8204   -0.0033 </r>
       <r>   -3.8096   -0.0009 </r>
       <r>   -3.7558    0.0048 </r>
       <r>   -3.4936    0.0001 </r>
       <r>   -3.4819    0.0001 </r>
       <r>   -3.4226    0.0000 </r>
       <r>   -3.0573    0.0000 </r>
       <r>   -3.0515    0.0000 </r>
       <r>   -3.0341    0.0000 </r>
       <r>   -3.0253    0.0000 </r>
       <r>   -3.0116    0.0000 </r>
       <r>   -2.9437    0.0000 </r>
       <r>   -2.9285    0.0000 </r>
       <r>   -2.8968    0.0000 </r>
       <r>   -2.5184    0.0000 </r>
       <r>   -2.5145    0.0000 </r>
       <r>   -2.4285    0.0000 </r>
       <r>   -2.3458    0.0000 </r>
       <r>   -2.1266    0.0000 </r>
       <r>   -2.1103    0.0000 </r>
       <r>   -2.0838    0.0000 </r>
       <r>   -2.0385    0.0000 </r>
       <r>   -1.9644    0.0000 </r>
       <r>   -1.9284    0.0000 </r>
       <r>   -1.8635    0.0000 </r>
       <r>   -1.8094    0.0000 </r>
       <r>   -1.7340    0.0000 </r>
       <r>   -1.6978    0.0000 </r>
       <r>   -1.6333    0.0000 </r>
       <r>   -1.6200    0.0000 </r>
       <r>   -1.5484    0.0000 </r>
       <r>   -1.4673    0.0000 </r>
       <r>   -1.4505    0.0000 </r>
       <r>   -1.3266    0.0000 </r>
       <r>   -1.2185    0.0000 </r>
       <r>   -1.1859    0.0000 </r>
       <r>   -1.0973    0.0000 </r>
       <r>   -0.9850    0.0000 </r>
       <r>   -0.9752    0.0000 </r>
       <r>   -0.9428    0.0000 </r>
       <r>   -0.9271    0.0000 </r>
       <r>   -0.9206    0.0000 </r>
       <r>   -0.8671    0.0000 </r>
       <r>   -0.8049    0.0000 </r>
       <r>   -0.5815    0.0000 </r>
      </set>
     </set>
    </set>
   </array>
  </eigenvalues>
  <separator name="orbital magnetization" >
   <v name="MAGDIPOLOUT">      0.00000000      0.00000000      0.00000000</v>
  </separator>
  <dos>
   <i name="efermi">     -4.14526919 </i>
   <total>
    <array>
     <dimension dim="1">gridpoints</dimension>
     <dimension dim="2">spin</dimension>
     <field>energy</field>
     <field>total</field>
     <field>integrated</field>
     <set>
      <set comment="spin 1">
       <r>   -30.9227     0.0000     0.0000 </r>
       <r>   -30.8149     0.0000     0.0000 </r>
       <r>   -30.7071     0.0000     0.0000 </r>
       <r>   -30.5993     0.0000     0.0000 </r>
       <r>   -30.4915     0.0000     0.0000 </r>
       <r>   -30.3837     0.0000     0.0000 </r>
       <r>   -30.2759     0.0000     0.0000 </r>
       <r>   -30.1681     0.0000     0.0000 </r>
       <r>   -30.0602     0.0000     0.0000 </r>
       <r>   -29.9524     0.0000     0.0000 </r>
       <r>   -29.8446     0.0000     0.0000 </r>
       <r>   -29.7368     0.0000     0.0000 </r>
       <r>   -29.6290     0.0003     0.0000 </r>
       <r>   -29.5212     0.0054     0.0006 </r>
       <r>   -29.4134     0.0384     0.0048 </r>
       <r>   -29.3056     0.0400     0.0091 </r>
       <r>   -29.1978    -0.4764    -0.0423 </r>
       <r>   -29.0900    -0.4560    -0.0914 </r>
       <r>   -28.9822     4.6666     0.4116 </r>
       <r>   -28.8744     9.9866     1.4882 </r>
       <r>   -28.7666     5.4560     2.0764 </r>
       <r>   -28.6588    -0.2191     2.0528 </r>
       <r>   -28.5510    -0.5621     1.9922 </r>
       <r>   -28.4432     0.0211     1.9945 </r>
       <r>   -28.3354     0.0441     1.9992 </r>
       <r>   -28.2276     0.0069     2.0000 </r>
       <r>   -28.1198     0.0004     2.0000 </r>
       <r>   -28.0120     0.0000     2.0000 </r>
       <r>   -27.9042     0.0000     2.0000 </r>
       <r>   -27.7964     0.0000     2.0000 </r>
       <r>   -27.6886     0.0000     2.0000 </r>
       <r>   -27.5808     0.0000     2.0000 </r>
       <r>   -27.4730     0.0000     2.0000 </r>
       <r>   -27.3652     0.0000     2.0000 </r>
       <r>   -27.2573     0.0000     2.0000 </r>
       <r>   -27.1495     0.0000     2.0000 </r>
       <r>   -27.0417     0.0000     2.0000 </r>
       <r>   -26.9339     0.0000     2.0000 </r>
       <r>   -26.8261     0.0000     2.0000 </r>
       <r>   -26.7183     0.0000     2.0000 </r>
       <r>   -26.6105     0.0000     2.0000 </r>
       <r>   -26.5027     0.0000     2.0000 </r>
       <r>   -26.3949     0.0000     2.0000 </r>
       <r>   -26.2871     0.0000     2.0000 </r>
       <r>   -26.1793     0.0000     2.0000 </r>
       <r>   -26.0715     0.0000     2.0000 </r>
       <r>   -25.9637     0.0000     2.0000 </r>
       <r>   -25.8559     0.0000     2.0000 </r>
       <r>   -25.7481     0.0000     2.0000 </r>
       <r>   -25.6403     0.0000     2.0000 </r>
       <r>   -25.5325     0.0000     2.0000 </r>
       <r>   -25.4247     0.0000     2.0000 </r>
       <r>   -25.3169     0.0000     2.0000 </r>
       <r>   -25.2091     0.0000     2.0000 </r>
       <r>   -25.1013     0.0000     2.0000 </r>
       <r>   -24.9935     0.0000     2.0000 </r>
       <r>   -24.8857     0.0000     2.0000 </r>
       <r>   -24.7779     0.0000     2.0000 </r>
       <r>   -24.6701     0.0000     2.0000 </r>
       <r>   -24.5623     0.0000     2.0000 </r>
       <r>   -24.4544     0.0000     2.0000 </r>
       <r>   -24.3466     0.0000     2.0000 </r>
       <r>   -24.2388     0.0000     2.0000 </r>
       <r>   -24.1310     0.0000     2.0000 </r>
       <r>   -24.0232     0.0000     2.0000 </r>
       <r>   -23.9154     0.0000     2.0000 </r>
       <r>   -23.8076     0.0000     2.0000 </r>
       <r>   -23.6998     0.0000     2.0000 </r>
       <r>   -23.5920     0.0000     2.0000 </r>
       <r>   -23.4842     0.0000     2.0000 </r>
       <r>   -23.3764     0.0000     2.0000 </r>
       <r>   -23.2686     0.0000     2.0000 </r>
       <r>   -23.1608     0.0000     2.0000 </r>
       <r>   -23.0530     0.0000     2.0000 </r>
       <r>   -22.9452     0.0000     2.0000 </r>
       <r>   -22.8374     0.0000     2.0000 </r>
       <r>   -22.7296     0.0000     2.0000 </r>
       <r>   -22.6218     0.0000     2.0000 </r>
       <r>   -22.5140     0.0000     2.0000 </r>
       <r>   -22.4062     0.0000     2.0000 </r>
       <r>   -22.2984     0.0000     2.0000 </r>
       <r>   -22.1906     0.0000     2.0000 </r>
       <r>   -22.0828     0.0000     2.0000 </r>
       <r>   -21.9750     0.0000     2.0000 </r>
       <r>   -21.8672     0.0000     2.0000 </r>
       <r>   -21.7594     0.0000     2.0000 </r>
       <r>   -21.6516     0.0000     2.0000 </r>
       <r>   -21.5437     0.0000     2.0000 </r>
       <r>   -21.4359     0.0000     2.0000 </r>
       <r>   -21.3281     0.0000     2.0000 </r>
       <r>   -21.2203     0.0000     2.0000 </r>
       <r>   -21.1125     0.0000     2.0000 </r>
       <r>   -21.0047     0.0000     2.0000 </r>
       <r>   -20.8969     0.0000     2.0000 </r>
       <r>   -20.7891     0.0000     2.0000 </r>
       <r>   -20.6813     0.0000     2.0000 </r>
       <r>   -20.5735     0.0000     2.0000 </r>
       <r>   -20.4657     0.0000     2.0000 </r>
       <r>   -20.3579     0.0000     2.0000 </r>
       <r>   -20.2501     0.0000     2.0000 </r>
       <r>   -20.1423     0.0000     2.0000 </r>
       <r>   -20.0345     0.0000     2.0000 </r>
       <r>   -19.9267     0.0000     2.0000 </r>
       <r>   -19.8189     0.0000     2.0000 </r>
       <r>   -19.7111     0.0000     2.0000 </r>
       <r>   -19.6033     0.0000     2.0000 </r>
       <r>   -19.4955     0.0000     2.0000 </r>
       <r>   -19.3877     0.0000     2.0000 </r>
       <r>   -19.2799     0.0000     2.0000 </r>
       <r>   -19.1721     0.0000     2.0000 </r>
       <r>   -19.0643     0.0000     2.0000 </r>
       <r>   -18.9565     0.0000     2.0000 </r>
       <r>   -18.8487     0.0000     2.0000 </r>
       <r>   -18.7408     0.0000     2.0000 </r>
       <r>   -18.6330     0.0000     2.0000 </r>
       <r>   -18.5252     0.0000     2.0000 </r>
       <r>   -18.4174     0.0000     2.0000 </r>
       <r>   -18.3096     0.0000     2.0000 </r>
       <r>   -18.2018     0.0000     2.0000 </r>
       <r>   -18.0940     0.0000     2.0000 </r>
       <r>   -17.9862     0.0000     2.0000 </r>
       <r>   -17.8784     0.0000     2.0000 </r>
       <r>   -17.7706     0.0000     2.0000 </r>
       <r>   -17.6628     0.0000     2.0000 </r>
       <r>   -17.5550     0.0000     2.0000 </r>
       <r>   -17.4472     0.0000     2.0000 </r>
       <r>   -17.3394     0.0000     2.0000 </r>
       <r>   -17.2316     0.0000     2.0000 </r>
       <r>   -17.1238     0.0000     2.0000 </r>
       <r>   -17.0160     0.0000     2.0000 </r>
       <r>   -16.9082     0.0000     2.0000 </r>
       <r>   -16.8004     0.0000     2.0000 </r>
       <r>   -16.6926     0.0000     2.0000 </r>
       <r>   -16.5848     0.0000     2.0000 </r>
       <r>   -16.4770     0.0000     2.0000 </r>
       <r>   -16.3692     0.0000     2.0000 </r>
       <r>   -16.2614     0.0000     2.0000 </r>
       <r>   -16.1536     0.0000     2.0000 </r>
       <r>   -16.0458     0.0000     2.0000 </r>
       <r>   -15.9380     0.0000     2.0000 </r>
       <r>   -15.8301     0.0000     2.0000 </r>
       <r>   -15.7223     0.0000     2.0000 </r>
       <r>   -15.6145     0.0000     2.0000 </r>
       <r>   -15.5067     0.0000     2.0000 </r>
       <r>   -15.3989     0.0000     2.0000 </r>
       <r>   -15.2911     0.0000     2.0000 </r>
       <r>   -15.1833     0.0000     2.0000 </r>
       <r>   -15.0755     0.0000     2.0000 </r>
       <r>   -14.9677     0.0000     2.0000 </r>
       <r>   -14.8599     0.0000     2.0000 </r>
       <r>   -14.7521     0.0000     2.0000 </r>
       <r>   -14.6443     0.0000     2.0000 </r>
       <r>   -14.5365     0.0000     2.0000 </r>
       <r>   -14.4287     0.0000     2.0000 </r>
       <r>   -14.3209     0.0000     2.0000 </r>
       <r>   -14.2131     0.0007     2.0001 </r>
       <r>   -14.1053     0.0103     2.0012 </r>
       <r>   -13.9975     0.0533     2.0069 </r>
       <r>   -13.8897    -0.0269     2.0040 </r>
       <r>   -13.7819    -0.6936     1.9293 </r>
       <r>   -13.6741     0.3349     1.9654 </r>
       <r>   -13.5663     6.7472     2.6927 </r>
       <r>   -13.4585     9.6867     3.7370 </r>
       <r>   -13.3507     3.3920     4.1027 </r>
       <r>   -13.2429    -0.7071     4.0265 </r>
       <r>   -13.1351    -0.3369     3.9901 </r>
       <r>   -13.0272     0.0583     3.9964 </r>
       <r>   -12.9194     0.0295     3.9996 </r>
       <r>   -12.8116     0.0035     4.0000 </r>
       <r>   -12.7038     0.0002     4.0000 </r>
       <r>   -12.5960     0.0000     4.0000 </r>
       <r>   -12.4882     0.0000     4.0000 </r>
       <r>   -12.3804     0.0000     4.0000 </r>
       <r>   -12.2726     0.0000     4.0000 </r>
       <r>   -12.1648     0.0000     4.0000 </r>
       <r>   -12.0570     0.0000     4.0000 </r>
       <r>   -11.9492     0.0014     4.0002 </r>
       <r>   -11.8414     0.0194     4.0023 </r>
       <r>   -11.7336     0.1031     4.0134 </r>
       <r>   -11.6258    -0.0374     4.0093 </r>
       <r>   -11.5180    -1.3369     3.8652 </r>
       <r>   -11.4102     0.4768     3.9166 </r>
       <r>   -11.3024    13.0153     5.3197 </r>
       <r>   -11.1946    19.4684     7.4185 </r>
       <r>   -11.0868     7.2567     8.2008 </r>
       <r>   -10.9790    -1.3166     8.0588 </r>
       <r>   -10.8712    -0.7258     7.9806 </r>
       <r>   -10.7634     0.1098     7.9924 </r>
       <r>   -10.6556     0.0683     7.9998 </r>
       <r>   -10.5478     0.0482     8.0050 </r>
       <r>   -10.4400     0.0340     8.0087 </r>
       <r>   -10.3322    -0.5091     7.9538 </r>
       <r>   -10.2243    -0.3740     7.9135 </r>
       <r>   -10.1165     4.9664     8.4489 </r>
       <r>   -10.0087    10.0028     9.5272 </r>
       <r>    -9.9009     5.1552    10.0829 </r>
       <r>    -9.7931    -0.3174    10.0487 </r>
       <r>    -9.6853    -0.5297     9.9916 </r>
       <r>    -9.5775     0.0291     9.9948 </r>
       <r>    -9.4697     0.0419     9.9993 </r>
       <r>    -9.3619     0.0063    10.0000 </r>
       <r>    -9.2541     0.0004    10.0000 </r>
       <r>    -9.1463     0.0000    10.0000 </r>
       <r>    -9.0385     0.0000    10.0000 </r>
       <r>    -8.9307     0.0000    10.0000 </r>
       <r>    -8.8229     0.0000    10.0000 </r>
       <r>    -8.7151     0.0000    10.0000 </r>
       <r>    -8.6073     0.0000    10.0000 </r>
       <r>    -8.4995     0.0000    10.0000 </r>
       <r>    -8.3917     0.0000    10.0000 </r>
       <r>    -8.2839     0.0000    10.0000 </r>
       <r>    -8.1761     0.0000    10.0000 </r>
       <r>    -8.0683     0.0000    10.0000 </r>
       <r>    -7.9605     0.0000    10.0000 </r>
       <r>    -7.8527     0.0000    10.0000 </r>
       <r>    -7.7449     0.0000    10.0000 </r>
       <r>    -7.6371     0.0000    10.0000 </r>
       <r>    -7.5293     0.0000    10.0000 </r>
       <r>    -7.4215     0.0000    10.0000 </r>
       <r>    -7.3136     0.0009    10.0001 </r>
       <r>    -7.2058     0.0115    10.0013 </r>
       <r>    -7.0980     0.0558    10.0074 </r>
       <r>    -6.9902    -0.0457    10.0024 </r>
       <r>    -6.8824    -0.7269     9.9241 </r>
       <r>    -6.7746     0.5455     9.9829 </r>
       <r>    -6.6668     7.1665    10.7555 </r>
       <r>    -6.5590     9.7152    11.8028 </r>
       <r>    -6.4512     2.6528    12.0888 </r>
       <r>    -6.3434    -3.0728    11.7575 </r>
       <r>    -6.2356     4.2747    12.2184 </r>
       <r>    -6.1278    24.6809    14.8790 </r>
       <r>    -6.0200    23.3785    17.3993 </r>
       <r>    -5.9122     9.3680    18.4092 </r>
       <r>    -5.8044    31.0989    21.7618 </r>
       <r>    -5.6966    78.1592    30.1877 </r>
       <r>    -5.5888   159.4197    47.3737 </r>
       <r>    -5.4810   270.1060    76.4922 </r>
       <r>    -5.3732   294.2701   108.2156 </r>
       <r>    -5.2654   226.2032   132.6012 </r>
       <r>    -5.1576   218.1814   156.1220 </r>
       <r>    -5.0498   306.9561   189.2130 </r>
       <r>    -4.9420   365.1997   228.5829 </r>
       <r>    -4.8342   314.0248   262.4360 </r>
       <r>    -4.7264   297.5928   294.5176 </r>
       <r>    -4.6186   390.3801   336.6021 </r>
       <r>    -4.5107   431.2210   383.0893 </r>
       <r>    -4.4029   430.9041   429.5424 </r>
       <r>    -4.2951   523.9062   486.0215 </r>
       <r>    -4.1873   534.4929   543.6418 </r>
       <r>    -4.0795   294.0909   575.3460 </r>
       <r>    -3.9717    54.4819   581.2193 </r>
       <r>    -3.8639    10.2717   582.3266 </r>
       <r>    -3.7561    32.5861   585.8395 </r>
       <r>    -3.6483    18.6459   587.8496 </r>
       <r>    -3.5405    12.1520   589.1597 </r>
       <r>    -3.4327    26.5881   592.0260 </r>
       <r>    -3.3249    17.2493   593.8855 </r>
       <r>    -3.2171    -2.3792   593.6290 </r>
       <r>    -3.1093    15.0994   595.2568 </r>
       <r>    -3.0015    58.5687   601.5707 </r>
       <r>    -2.8937    60.6673   608.1109 </r>
       <r>    -2.7859    20.3940   610.3094 </r>
       <r>    -2.6781    -3.3023   609.9534 </r>
       <r>    -2.5703     7.5810   610.7707 </r>
       <r>    -2.4625    27.8096   613.7687 </r>
       <r>    -2.3547    26.1388   616.5865 </r>
       <r>    -2.2469    11.7330   617.8514 </r>
       <r>    -2.1391    20.2487   620.0343 </r>
       <r>    -2.0313    41.0941   624.4644 </r>
       <r>    -1.9235    41.5013   628.9384 </r>
       <r>    -1.8157    34.2769   632.6336 </r>
       <r>    -1.7079    36.2782   636.5445 </r>
       <r>    -1.6000    40.8551   640.9488 </r>
       <r>    -1.4922    37.1147   644.9499 </r>
       <r>    -1.3844    27.2416   647.8867 </r>
       <r>    -1.2766    21.4319   650.1971 </r>
       <r>    -1.1688    22.8307   652.6583 </r>
       <r>    -1.0610    28.8431   655.7677 </r>
       <r>    -0.9532    50.0402   661.1623 </r>
       <r>    -0.8454    55.9929   667.1985 </r>
       <r>    -0.7376    26.1552   670.0181 </r>
       <r>    -0.6298     6.6821   670.7385 </r>
       <r>    -0.5220     7.7825   671.5775 </r>
       <r>    -0.4142     4.4946   672.0620 </r>
       <r>    -0.3064    -0.2466   672.0354 </r>
       <r>    -0.1986    -0.4189   671.9903 </r>
       <r>    -0.0908     0.0460   671.9952 </r>
       <r>     0.0170     0.0387   671.9994 </r>
       <r>     0.1248     0.0054   672.0000 </r>
       <r>     0.2326     0.0003   672.0000 </r>
       <r>     0.3404     0.0000   672.0000 </r>
       <r>     0.4482     0.0000   672.0000 </r>
       <r>     0.5560     0.0000   672.0000 </r>
       <r>     0.6638     0.0000   672.0000 </r>
       <r>     0.7716     0.0000   672.0000 </r>
       <r>     0.8794     0.0000   672.0000 </r>
       <r>     0.9872     0.0000   672.0000 </r>
       <r>     1.0950     0.0000   672.0000 </r>
       <r>     1.2029     0.0000   672.0000 </r>
       <r>     1.3107     0.0000   672.0000 </r>
       <r>     1.4185     0.0000   672.0000 </r>
      </set>
     </set>
    </array>
   </total>
  </dos>
 </calculation>
 <structure name="finalpos" >
  <crystal>
   <varray name="basis" >
    <v>      30.00000000       0.00000000       0.00000000 </v>
    <v>       0.00000000      30.00000000       0.00000000 </v>
    <v>       0.00000000       0.00000000      30.00000000 </v>
   </varray>
   <i name="volume">  27000.00000000 </i>
   <varray name="rec_basis" >
    <v>       0.03333333       0.00000000       0.00000000 </v>
    <v>       0.00000000       0.03333333       0.00000000 </v>
    <v>       0.00000000       0.00000000       0.03333333 </v>
   </varray>
  </crystal>
  <varray name="positions" >
   <v>       0.44576020       0.32826710       0.41691983 </v>
   <v>       0.67173288       0.55423978       0.41691983 </v>
   <v>       0.55423980       0.32826710       0.41691983 </v>
   <v>       0.32826712       0.55423978       0.41691983 </v>
   <v>       0.50000000       0.38250690       0.34021317 </v>
   <v>       0.50000000       0.38250690       0.65978680 </v>
   <v>       0.50000000       0.27609440       0.50000000 </v>
   <v>       0.27609443       0.49999998       0.50000000 </v>
   <v>       0.72390557       0.49999998       0.50000000 </v>
   <v>       0.50000000       0.72390555       0.50000000 </v>
   <v>       0.61195280       0.38804720       0.34167483 </v>
   <v>       0.61195280       0.38804720       0.65832513 </v>
   <v>       0.38804722       0.61195278       0.34167483 </v>
   <v>       0.38804722       0.61195278       0.65832513 </v>
   <v>       0.38804720       0.38804720       0.34167483 </v>
   <v>       0.38804720       0.38804720       0.65832513 </v>
   <v>       0.61195278       0.61195278       0.34167483 </v>
   <v>       0.61195278       0.61195278       0.65832513 </v>
   <v>       0.44576020       0.32826710       0.58308023 </v>
   <v>       0.67173288       0.55423978       0.58308023 </v>
   <v>       0.55791699       0.44208301       0.41809300 </v>
   <v>       0.32826705       0.44576024       0.41691983 </v>
   <v>       0.55423973       0.67173293       0.41691983 </v>
   <v>       0.55423980       0.32826710       0.58308023 </v>
   <v>       0.32826712       0.55423978       0.58308023 </v>
   <v>       0.67173295       0.44576024       0.41691983 </v>
   <v>       0.44576027       0.67173293       0.41691983 </v>
   <v>       0.44208301       0.44208301       0.41809300 </v>
   <v>       0.50000000       0.38416601       0.50000000 </v>
   <v>       0.61749315       0.50000005       0.34021317 </v>
   <v>       0.61749315       0.50000005       0.65978680 </v>
   <v>       0.38250685       0.50000005       0.34021317 </v>
   <v>       0.38250685       0.50000005       0.65978680 </v>
   <v>       0.38317830       0.38317830       0.50000000 </v>
   <v>       0.61682172       0.61682172       0.50000000 </v>
   <v>       0.61682170       0.38317830       0.50000000 </v>
   <v>       0.38317828       0.61682172       0.50000000 </v>
   <v>       0.50000000       0.50000000       0.33478917 </v>
   <v>       0.50000000       0.50000000       0.66521087 </v>
   <v>       0.32826705       0.44576024       0.58308023 </v>
   <v>       0.55423973       0.67173293       0.58308023 </v>
   <v>       0.55791699       0.44208301       0.58190703 </v>
   <v>       0.44208298       0.55791702       0.41809300 </v>
   <v>       0.44208301       0.44208301       0.58190703 </v>
   <v>       0.67173295       0.44576024       0.58308023 </v>
   <v>       0.44576027       0.67173293       0.58308023 </v>
   <v>       0.55791702       0.55791702       0.41809300 </v>
   <v>       0.38416599       0.50000002       0.50000000 </v>
   <v>       0.61583401       0.50000002       0.50000000 </v>
   <v>       0.50000000       0.61749319       0.34021317 </v>
   <v>       0.50000000       0.61749319       0.65978680 </v>
   <v>       0.50000000       0.50000000       0.50000000 </v>
   <v>       0.44208298       0.55791702       0.58190703 </v>
   <v>       0.55791702       0.55791702       0.58190703 </v>
   <v>       0.50000000       0.61583404       0.50000000 </v>
   <v>       0.35514397       0.52534770       0.27698910 </v>
   <v>       0.33475487       0.52891550       0.24559937 </v>
  </varray>
  <varray name="selective"  type="logical" >
   <v type="logical" >  F  F  F </v>
   <v type="logical" >  F  F  F </v>
   <v type="logical" >  F  F  F </v>
   <v type="logical" >  F  F  F </v>
   <v type="logical" >  F  F  F </v>
   <v type="logical" >  F  F  F </v>
   <v type="logical" >  F  F  F </v>
   <v type="logical" >  F  F  F </v>
   <v type="logical" >  F  F  F </v>
   <v type="logical" >  F  F  F </v>
   <v type="logical" >  F  F  F </v>
   <v type="logical" >  F  F  F </v>
   <v type="logical" >  F  F  F </v>
   <v type="logical" >  F  F  F </v>
   <v type="logical" >  F  F  F </v>
   <v type="logical" >  F  F  F </v>
   <v type="logical" >  F  F  F </v>
   <v type="logical" >  F  F  F </v>
   <v type="logical" >  F  F  F </v>
   <v type="logical" >  F  F  F </v>
   <v type="logical" >  F  F  F </v>
   <v type="logical" >  F  F  F </v>
   <v type="logical" >  F  F  F </v>
   <v type="logical" >  F  F  F </v>
   <v type="logical" >  F  F  F </v>
   <v type="logical" >  F  F  F </v>
   <v type="logical" >  F  F  F </v>
   <v type="logical" >  F  F  F </v>
   <v type="logical" >  F  F  F </v>
   <v type="logical" >  F  F  F </v>
   <v type="logical" >  F  F  F </v>
   <v type="logical" >  F  F  F </v>
   <v type="logical" >  F  F  F </v>
   <v type="logical" >  F  F  F </v>
   <v type="logical" >  F  F  F </v>
   <v type="logical" >  F  F  F </v>
   <v type="logical" >  F  F  F </v>
   <v type="logical" >  F  F  F </v>
   <v type="logical" >  F  F  F </v>
   <v type="logical" >  F  F  F </v>
   <v type="logical" >  F  F  F </v>
   <v type="logical" >  F  F  F </v>
   <v type="logical" >  F  F  F </v>
   <v type="logical" >  F  F  F </v>
   <v type="logical" >  F  F  F </v>
   <v type="logical" >  F  F  F </v>
   <v type="logical" >  F  F  F </v>
   <v type="logical" >  F  F  F </v>
   <v type="logical" >  F  F  F </v>
   <v type="logical" >  F  F  F </v>
   <v type="logical" >  F  F  F </v>
   <v type="logical" >  F  F  F </v>
   <v type="logical" >  F  F  F </v>
   <v type="logical" >  F  F  F </v>
   <v type="logical" >  F  F  F </v>
   <v type="logical" >  F  F  F </v>
   <v type="logical" >  F  F  F </v>
  </varray>
  <nose>
   <v>      -3.00000000       0.00000000       0.00010000       0.00010000 </v>
  </nose>
 </structure>
</modeling>
