 vasp.5.4.4.18Apr17-6-g9f103f2a35 (build Sep 03 2018 23:53:05) complex          
  
 executed on             LinuxIFC date 2021.12.01  19:44:46
 running on    1 total cores
 distrk:  each k-point on    1 cores,    1 groups
 distr:  one band on NCORES_PER_BAND=   1 cores,    1 groups


--------------------------------------------------------------------------------------------------------


 INCAR:
 POTCAR:    PAW_PBE Pd 04Jan2005                  
 POTCAR:    PAW_PBE C 08Apr2002                   
 POTCAR:    PAW_PBE O 08Apr2002                   
 POTCAR:    PAW_PBE Pd 04Jan2005                  
   VRHFIN =Pd : s1 d9                                                           
   LEXCH  = PE                                                                  
   EATOM  =   809.7530 eV,   59.5152 Ry                                         
                                                                                
   TITEL  = PAW_PBE Pd 04Jan2005                                                
   LULTRA =        F    use ultrasoft PP ?                                      
   IUNSCR =        1    unscreen: 0-lin 1-nonlin 2-no                           
   RPACOR =    2.000    partial core radius                                     
   POMASS =  106.420; ZVAL   =   10.000    mass and valenz                      
   RCORE  =    2.600    outmost cutoff radius                                   
   RWIGS  =    2.710; RWIGS  =    1.434    wigner-seitz radius (au A)           
   ENMAX  =  250.925; ENMIN  =  188.194 eV                                      
   ICORE  =        3    local potential                                         
   LCOR   =        T    correct aug charges                                     
   LPAW   =        T    paw PP                                                  
   EAUG   =  416.230                                                            
   DEXC   =    0.000                                                            
   RMAX   =    2.653    core radius for proj-oper                               
   RAUG   =    1.300    factor for augmentation sphere                          
   RDEP   =    2.734    radius for radial grids                                 
   RDEPT  =    2.103    core radius for aug-charge                              
                                                                                
   Atomic configuration                                                         
   12 entries                                                                   
     n  l   j            E        occ.                                          
     1  0  0.50    -24164.6631   2.0000                                         
     2  0  0.50     -3530.9218   2.0000                                         
     2  1  1.50     -3165.6822   6.0000                                         
     3  0  0.50      -639.4577   2.0000                                         
     3  1  1.50      -519.4532   6.0000                                         
     3  2  2.50      -328.9757  10.0000                                         
     4  0  0.50       -88.7014   2.0000                                         
     4  1  1.50       -54.4540   6.0000                                         
     4  2  2.50        -6.6878   9.0000                                         
     5  0  0.50        -4.3543   1.0000                                         
     5  1  0.50        -1.3606   0.0000                                         
     4  3  2.50        -1.3606   0.0000                                         
   Description                                                                  
     l       E           TYP  RCUT    TYP  RCUT                                 
     2     -6.6878251     23  2.400                                             
     2     -8.0484077     23  2.400                                             
     0     -4.3542939     23  2.400                                             
     0      4.3406793     23  2.400                                             
     1     -4.0817478     23  2.600                                             
     1     15.8380318     23  2.600                                             
     3     -4.0817478     23  2.400                                             
  local pseudopotential read in
  partial core-charges read in
  partial kinetic energy density read in
  atomic valenz-charges read in
  non local Contribution for L=           2  read in
    real space projection operators read in
  non local Contribution for L=           2  read in
    real space projection operators read in
  non local Contribution for L=           0  read in
    real space projection operators read in
  non local Contribution for L=           0  read in
    real space projection operators read in
  non local Contribution for L=           1  read in
    real space projection operators read in
  non local Contribution for L=           1  read in
    real space projection operators read in
    PAW grid and wavefunctions read in
 
   number of l-projection  operators is LMAX  =           6
   number of lm-projection operators is LMMAX =          18
 
 POTCAR:    PAW_PBE C 08Apr2002                   
   VRHFIN =C: s2p2                                                              
   LEXCH  = PE                                                                  
   EATOM  =   147.1560 eV,   10.8157 Ry                                         
                                                                                
   TITEL  = PAW_PBE C 08Apr2002                                                 
   LULTRA =        F    use ultrasoft PP ?                                      
   IUNSCR =        1    unscreen: 0-lin 1-nonlin 2-no                           
   RPACOR =    1.200    partial core radius                                     
   POMASS =   12.011; ZVAL   =    4.000    mass and valenz                      
   RCORE  =    1.500    outmost cutoff radius                                   
   RWIGS  =    1.630; RWIGS  =    0.863    wigner-seitz radius (au A)           
   ENMAX  =  400.000; ENMIN  =  300.000 eV                                      
   ICORE  =        2    local potential                                         
   LCOR   =        T    correct aug charges                                     
   LPAW   =        T    paw PP                                                  
   EAUG   =  644.873                                                            
   DEXC   =    0.000                                                            
   RMAX   =    1.529    core radius for proj-oper                               
   RAUG   =    1.300    factor for augmentation sphere                          
   RDEP   =    1.501    radius for radial grids                                 
   RDEPT  =    1.300    core radius for aug-charge                              
                                                                                
   Atomic configuration                                                         
    4 entries                                                                   
     n  l   j            E        occ.                                          
     1  0  0.50      -273.3789   2.0000                                         
     2  0  0.50       -13.7508   2.0000                                         
     2  1  0.50        -5.2854   2.0000                                         
     3  2  1.50        -5.4423   0.0000                                         
   Description                                                                  
     l       E           TYP  RCUT    TYP  RCUT                                 
     0    -13.7508458     23  1.200                                             
     0     -8.2022199     23  1.200                                             
     1     -5.2854383     23  1.500                                             
     1     34.0145650     23  1.500                                             
     2     -5.4423304      7  1.500                                             
  local pseudopotential read in
  partial core-charges read in
  partial kinetic energy density read in
  atomic valenz-charges read in
  non local Contribution for L=           0  read in
    real space projection operators read in
  non local Contribution for L=           0  read in
    real space projection operators read in
  non local Contribution for L=           1  read in
    real space projection operators read in
  non local Contribution for L=           1  read in
    real space projection operators read in
    PAW grid and wavefunctions read in
 
   number of l-projection  operators is LMAX  =           4
   number of lm-projection operators is LMMAX =           8
 
 POTCAR:    PAW_PBE O 08Apr2002                   
   VRHFIN =O: s2p4                                                              
   LEXCH  = PE                                                                  
   EATOM  =   432.3788 eV,   31.7789 Ry                                         
                                                                                
   TITEL  = PAW_PBE O 08Apr2002                                                 
   LULTRA =        F    use ultrasoft PP ?                                      
   IUNSCR =        1    unscreen: 0-lin 1-nonlin 2-no                           
   RPACOR =    1.200    partial core radius                                     
   POMASS =   16.000; ZVAL   =    6.000    mass and valenz                      
   RCORE  =    1.520    outmost cutoff radius                                   
   RWIGS  =    1.550; RWIGS  =    0.820    wigner-seitz radius (au A)           
   ENMAX  =  400.000; ENMIN  =  300.000 eV                                      
   ICORE  =        2    local potential                                         
   LCOR   =        T    correct aug charges                                     
   LPAW   =        T    paw PP                                                  
   EAUG   =  605.392                                                            
   DEXC   =    0.000                                                            
   RMAX   =    1.553    core radius for proj-oper                               
   RAUG   =    1.300    factor for augmentation sphere                          
   RDEP   =    1.550    radius for radial grids                                 
   RDEPT  =    1.329    core radius for aug-charge                              
                                                                                
   Atomic configuration                                                         
    4 entries                                                                   
     n  l   j            E        occ.                                          
     1  0  0.50      -514.6923   2.0000                                         
     2  0  0.50       -23.9615   2.0000                                         
     2  1  0.50        -9.0305   4.0000                                         
     3  2  1.50        -9.5241   0.0000                                         
   Description                                                                  
     l       E           TYP  RCUT    TYP  RCUT                                 
     0    -23.9615318     23  1.200                                             
     0     -9.5240782     23  1.200                                             
     1     -9.0304911     23  1.520                                             
     1      8.1634956     23  1.520                                             
     2     -9.5240782      7  1.500                                             
  local pseudopotential read in
  partial core-charges read in
  partial kinetic energy density read in
  kinetic energy density of atom read in
  atomic valenz-charges read in
  non local Contribution for L=           0  read in
    real space projection operators read in
  non local Contribution for L=           0  read in
    real space projection operators read in
  non local Contribution for L=           1  read in
    real space projection operators read in
  non local Contribution for L=           1  read in
    real space projection operators read in
    PAW grid and wavefunctions read in
 
   number of l-projection  operators is LMAX  =           4
   number of lm-projection operators is LMMAX =           8
 
 Optimization of the real space projectors (new method)

 maximal supplied QI-value         = 14.36
 optimisation between [QCUT,QGAM] = [ 10.20, 20.39] = [ 29.12,116.47] Ry 
 Optimized for a Real-space Cutoff    1.51 Angstroem

   l    n(q)    QCUT    max X(q) W(low)/X(q) W(high)/X(q)  e(spline) 
   2      8    10.197    59.108    0.26E-03    0.14E-03    0.96E-07
   2      8    10.197    58.101    0.27E-03    0.14E-03    0.98E-07
   0      9    10.197   102.235    0.54E-04    0.60E-05    0.72E-07
   0      9    10.197    58.388    0.52E-04    0.60E-05    0.68E-07
   1      9    10.197    22.191    0.18E-03    0.25E-03    0.79E-07
   1      9    10.197    15.590    0.15E-03    0.21E-03    0.69E-07
 Optimization of the real space projectors (new method)

 maximal supplied QI-value         = 25.13
 optimisation between [QCUT,QGAM] = [ 10.05, 20.36] = [ 28.30,116.06] Ry 
 Optimized for a Real-space Cutoff    1.30 Angstroem

   l    n(q)    QCUT    max X(q) W(low)/X(q) W(high)/X(q)  e(spline) 
   0      8    10.053   115.676    0.49E-03    0.72E-03    0.18E-06
   0      8    10.053    87.132    0.49E-03    0.71E-03    0.18E-06
   1      7    10.053     4.429    0.32E-03    0.31E-03    0.18E-06
   1      7    10.053     2.733    0.23E-03    0.19E-03    0.20E-06
 Optimization of the real space projectors (new method)

 maximal supplied QI-value         = 24.76
 optimisation between [QCUT,QGAM] = [ 10.15, 20.30] = [ 28.85,115.39] Ry 
 Optimized for a Real-space Cutoff    1.38 Angstroem

   l    n(q)    QCUT    max X(q) W(low)/X(q) W(high)/X(q)  e(spline) 
   0      8    10.150    20.381    0.22E-03    0.32E-03    0.29E-06
   0      8    10.150    15.268    0.23E-03    0.35E-03    0.30E-06
   1      8    10.150     5.964    0.46E-03    0.53E-03    0.21E-06
   1      8    10.150     5.382    0.38E-03    0.45E-03    0.19E-06

 ----------------------------------------------------------------------------- 
|                                                                             |
|  ADVICE TO THIS USER RUNNING 'VASP/VAMP'   (HEAR YOUR MASTER'S VOICE ...):  |
|                                                                             |
|      You enforced a specific xc-type in the INCAR file,                     |
|      a different type was found on the POTCAR file                          |
|          I HOPE YOU KNOW, WHAT YOU ARE  DOING                               |
|                                                                             |
 ----------------------------------------------------------------------------- 

  PAW_PBE Pd 04Jan2005                  :
 energy of atom  1       EATOM= -809.7530
 kinetic energy error for atom=    0.0091 (will be added to EATOM!!)
  PAW_PBE C 08Apr2002                   :
 energy of atom  2       EATOM= -147.1560
 kinetic energy error for atom=    0.0288 (will be added to EATOM!!)
  PAW_PBE O 08Apr2002                   :
 energy of atom  3       EATOM= -432.3788
 kinetic energy error for atom=    0.1156 (will be added to EATOM!!)
 
 
 POSCAR: Pd55PES                                 
  positions in cartesian coordinates
  No initial velocities read in
 exchange correlation table for  LEXCH =        9
   RHO(1)=    0.500       N(1)  =     2000
   RHO(2)=  100.500       N(2)  =     4000
 


--------------------------------------------------------------------------------------------------------


 ion  position               nearest neighbor table
   1  0.446  0.328  0.417-   3 3.25   5 3.25   7 3.36  15 3.36  29 3.42  28 3.42
   2  0.672  0.554  0.417-  26 3.25  30 3.25  17 3.36   9 3.36  47 3.42  49 3.42
   3  0.554  0.328  0.417-   1 3.25   5 3.25   7 3.36  11 3.36  29 3.42  21 3.42
   4  0.328  0.554  0.417-  32 3.25  22 3.25  13 3.36   8 3.36  43 3.42  48 3.42
   5  0.500  0.383  0.340-   1 3.25   3 3.25  11 3.36  15 3.36  21 3.42  28 3.42
   6  0.500  0.383  0.660-  24 3.25  19 3.25  16 3.36  12 3.36  42 3.42  44 3.42
   7  0.500  0.276  0.500-  29 3.24   3 3.36   1 3.36  19 3.36  24 3.36
   8  0.276  0.500  0.500-  48 3.24  22 3.36  40 3.36   4 3.36  25 3.36
   9  0.724  0.500  0.500-  49 3.24  26 3.36  45 3.36   2 3.36  20 3.36
  10  0.500  0.724  0.500-  55 3.24  27 3.36  23 3.36  46 3.36  41 3.36
  11  0.612  0.388  0.342-  21 3.24   5 3.36   3 3.36  30 3.36  26 3.36
  12  0.612  0.388  0.658-  42 3.24  24 3.36  45 3.36   6 3.36  31 3.36
  13  0.388  0.612  0.342-  43 3.24  32 3.36  50 3.36   4 3.36  27 3.36
  14  0.388  0.612  0.658-  53 3.24  25 3.36  33 3.36  51 3.36  46 3.36
  15  0.388  0.388  0.342-  28 3.24   5 3.36   1 3.36  32 3.36  22 3.36
  16  0.388  0.388  0.658-  44 3.24  19 3.36  40 3.36   6 3.36  33 3.36
  17  0.612  0.612  0.342-  47 3.24  30 3.36  50 3.36   2 3.36  23 3.36
  18  0.612  0.612  0.658-  54 3.24  31 3.36  20 3.36  51 3.36  41 3.36
  19  0.446  0.328  0.583-   6 3.25  24 3.25  16 3.36   7 3.36  44 3.42  29 3.42
  20  0.672  0.554  0.583-  31 3.25  45 3.25  18 3.36   9 3.36  54 3.42  49 3.42
  21  0.558  0.442  0.418-  11 3.24   5 3.42   3 3.42  30 3.42  26 3.42
  22  0.328  0.446  0.417-   4 3.25  32 3.25   8 3.36  15 3.36  48 3.42  28 3.42
  23  0.554  0.672  0.417-  27 3.25  50 3.25  10 3.36  17 3.36  55 3.42  47 3.42
  24  0.554  0.328  0.583-   6 3.25  19 3.25  12 3.36   7 3.36  42 3.42  29 3.42
  25  0.328  0.554  0.583-  33 3.25  40 3.25  14 3.36   8 3.36  53 3.42  48 3.42
  26  0.672  0.446  0.417-   2 3.25  30 3.25   9 3.36  11 3.36  49 3.42  21 3.42
  27  0.446  0.672  0.417-  56 2.63  23 3.25  50 3.25  10 3.36  13 3.36  55 3.42  43 3.42
  28  0.442  0.442  0.418-  15 3.24   5 3.42   1 3.42  32 3.42  22 3.42
  29  0.500  0.384  0.500-   7 3.24   3 3.42   1 3.42  24 3.42  19 3.42
  30  0.617  0.500  0.340-   2 3.25  26 3.25  17 3.36  11 3.36  47 3.42  21 3.42
  31  0.617  0.500  0.660-  20 3.25  45 3.25  18 3.36  12 3.36  54 3.42  42 3.42
  32  0.383  0.500  0.340-   4 3.25  22 3.25  13 3.36  15 3.36  43 3.42  28 3.42
  33  0.383  0.500  0.660-  25 3.25  40 3.25  14 3.36  16 3.36  53 3.42  44 3.42
  34  0.383  0.383  0.500-
  35  0.617  0.617  0.500-
  36  0.617  0.383  0.500-
  37  0.383  0.617  0.500-  56 2.12
  38  0.500  0.500  0.335-
  39  0.500  0.500  0.665-
  40  0.328  0.446  0.583-  33 3.25  25 3.25  16 3.36   8 3.36  44 3.42  48 3.42
  41  0.554  0.672  0.583-  46 3.25  51 3.25  10 3.36  18 3.36  54 3.42  55 3.42
  42  0.558  0.442  0.582-  12 3.24   6 3.42  24 3.42  31 3.42  45 3.42
  43  0.442  0.558  0.418-  13 3.24   4 3.42  32 3.42  27 3.42  50 3.42
  44  0.442  0.442  0.582-  16 3.24   6 3.42  19 3.42  33 3.42  40 3.42
  45  0.672  0.446  0.583-  20 3.25  31 3.25   9 3.36  12 3.36  49 3.42  42 3.42
  46  0.446  0.672  0.583-  41 3.25  51 3.25  10 3.36  14 3.36  53 3.42  55 3.42
  47  0.558  0.558  0.418-  17 3.24   2 3.42  30 3.42  23 3.42  50 3.42
  48  0.384  0.500  0.500-   8 3.24   4 3.42  22 3.42  25 3.42  40 3.42
  49  0.616  0.500  0.500-   9 3.24   2 3.42  26 3.42  20 3.42  45 3.42
  50  0.500  0.617  0.340-  27 3.25  23 3.25  13 3.36  17 3.36  43 3.42  47 3.42
  51  0.500  0.617  0.660-  41 3.25  46 3.25  14 3.36  18 3.36  53 3.42  54 3.42
  52  0.500  0.500  0.500-
  53  0.442  0.558  0.582-  14 3.24  25 3.42  33 3.42  51 3.42  46 3.42
  54  0.558  0.558  0.582-  18 3.24  31 3.42  20 3.42  51 3.42  41 3.42
  55  0.500  0.616  0.500-  10 3.24  23 3.42  27 3.42  41 3.42  46 3.42
  56  0.383  0.684  0.477-  57 1.13  37 2.12  27 2.63
  57  0.363  0.715  0.473-  56 1.13
 
  LATTYP: Found a simple cubic cell.
 ALAT       =    30.0000000000
  
  Lattice vectors:
  
 A1 = (  30.0000000000,   0.0000000000,   0.0000000000)
 A2 = (   0.0000000000,  30.0000000000,   0.0000000000)
 A3 = (   0.0000000000,   0.0000000000,  30.0000000000)


Analysis of symmetry for initial positions (statically):
=====================================================================
 Subroutine PRICEL returns:
 Original cell was already a primitive cell.
 

 Routine SETGRP: Setting up the symmetry group for a 
 simple cubic supercell.


 Subroutine GETGRP returns: Found  1 space group operations
 (whereof  1 operations were pure point group operations)
 out of a pool of 48 trial point group operations.


The static configuration has the point symmetry C_1 .


Analysis of symmetry for dynamics (positions and initial velocities):
=====================================================================
 Subroutine PRICEL returns:
 Original cell was already a primitive cell.
 

 Routine SETGRP: Setting up the symmetry group for a 
 simple cubic supercell.


 Subroutine GETGRP returns: Found  1 space group operations
 (whereof  1 operations were pure point group operations)
 out of a pool of 48 trial point group operations.


The dynamic configuration has the point symmetry C_1 .


Analysis of constrained symmetry for selective dynamics:
=====================================================================
 Subroutine PRICEL returns:
 Original cell was already a primitive cell.
 

 Routine SETGRP: Setting up the symmetry group for a 
 simple cubic supercell.


 Subroutine GETGRP returns: Found  1 space group operations
 (whereof  1 operations were pure point group operations)
 out of a pool of 48 trial point group operations.


The constrained configuration has the point symmetry C_1 .


 Subroutine INISYM returns: Found  1 space group operations
 (whereof  1 operations are pure point group operations),
 and found     1 'primitive' translations

 
 
 KPOINTS: K-points                                

Automatic generation of k-mesh.
Space group operators:
 irot       det(A)        alpha          n_x          n_y          n_z        tau_x        tau_y        tau_z
    1     1.000000     0.000000     1.000000     0.000000     0.000000     0.000000     0.000000     0.000000
 
 Subroutine IBZKPT returns following result:
 ===========================================
 
 Found      1 irreducible k-points:
 
 Following reciprocal coordinates:
            Coordinates               Weight
  0.000000  0.000000  0.000000      1.000000
 
 Following cartesian coordinates:
            Coordinates               Weight
  0.000000  0.000000  0.000000      1.000000
 


--------------------------------------------------------------------------------------------------------




 Dimension of arrays:
   k-points           NKPTS =      1   k-points in BZ     NKDIM =      1   number of bands    NBANDS=    336
   number of dos      NEDOS =    301   number of ions     NIONS =     57
   non local maximal  LDIM  =      6   non local SUM 2l+1 LMDIM =     18
   total plane-waves  NPLWV = ******
   max r-space proj   IRMAX =   1847   max aug-charges    IRDMAX=   6262
   dimension x,y,z NGX =   150 NGY =  150 NGZ =  150
   dimension x,y,z NGXF=   300 NGYF=  300 NGZF=  300
   support grid    NGXF=   300 NGYF=  300 NGZF=  300
   ions per type =              55   1   1
   NGX,Y,Z   is equivalent  to a cutoff of   8.31,  8.31,  8.31 a.u.
   NGXF,Y,Z  is equivalent  to a cutoff of  16.62, 16.62, 16.62 a.u.

 SYSTEM =  6_Pd100_top_free_z(O)                   
 POSCAR =  Pd55PES                                 

 Startparameter for this run:
   NWRITE =      2    write-flag & timer
   PREC   = normal    normal or accurate (medium, high low for compatibility)
   ISTART =      0    job   : 0-new  1-cont  2-samecut
   ICHARG =      2    charge: 1-file 2-atom 10-const
   ISPIN  =      1    spin polarized calculation?
   LNONCOLLINEAR =      F non collinear calculations
   LSORBIT =      F    spin-orbit coupling
   INIWAV =      1    electr: 0-lowe 1-rand  2-diag
   LASPH  =      F    aspherical Exc in radial PAW
   METAGGA=      F    non-selfconsistent MetaGGA calc.

 Electronic Relaxation 1
   ENCUT  =  400.0 eV  29.40 Ry    5.42 a.u.  48.92 48.92 48.92*2*pi/ulx,y,z
   ENINI  =  400.0     initial cutoff
   ENAUG  =  644.9 eV  augmentation charge cutoff
   NELM   =    100;   NELMIN=  6; NELMDL= -5     # of ELM steps 
   EDIFF  = 0.1E-03   stopping-criterion for ELM
   LREAL  =      T    real-space projection
   NLSPLINE    = F    spline interpolate recip. space projectors
   LCOMPAT=      F    compatible to vasp.4.4
   GGA_COMPAT  = T    GGA compatible to vasp.4.4-vasp.4.6
   LMAXPAW     = -100 max onsite density
   LMAXMIX     =    2 max onsite mixed and CHGCAR
   VOSKOWN=      0    Vosko Wilk Nusair interpolation
   ROPT   =   -0.00050  -0.00050  -0.00050
 Ionic relaxation
   EDIFFG = -.5E-01   stopping-criterion for IOM
   NSW    =      0    number of steps for IOM
   NBLOCK =      1;   KBLOCK =      1    inner block; outer block 
   IBRION =     -1    ionic relax: 0-MD 1-quasi-New 2-CG
   NFREE  =      1    steps in history (QN), initial steepest desc. (CG)
   ISIF   =      2    stress and relaxation
   IWAVPR =     10    prediction:  0-non 1-charg 2-wave 3-comb
   ISYM   =      2    0-nonsym 1-usesym 2-fastsym
   LCORR  =      T    Harris-Foulkes like correction to forces

   POTIM  = 0.5000    time-step for ionic-motion
   TEIN   =    0.0    initial temperature
   TEBEG  =    0.0;   TEEND  =   0.0 temperature during run
   SMASS  =  -3.00    Nose mass-parameter (am)
   estimated Nose-frequenzy (Omega)   =  0.10E-29 period in steps =****** mass=  -0.206E-25a.u.
   SCALEE = 1.0000    scale energy and forces
   NPACO  =    256;   APACO  = 16.0  distance and # of slots for P.C.
   PSTRESS=    0.0 pullay stress

  Mass of Ions in am
   POMASS = 106.42 12.01 16.00
  Ionic Valenz
   ZVAL   =  10.00  4.00  6.00
  Atomic Wigner-Seitz radii
   RWIGS  =  -1.00 -1.00 -1.00
  virtual crystal weights 
   VCA    =   1.00  1.00  1.00
   NELECT =     560.0000    total number of electrons
   NUPDOWN=      -1.0000    fix difference up-down

 DOS related values:
   EMIN   =  10.00;   EMAX   =-10.00  energy-range for DOS
   EFERMI =   0.00
   ISMEAR =     2;   SIGMA  =   0.20  broadening in eV -4-tet -1-fermi 0-gaus

 Electronic relaxation 2 (details)
   IALGO  =     68    algorithm
   LDIAG  =      T    sub-space diagonalisation (order eigenvalues)
   LSUBROT=      F    optimize rotation matrix (better conditioning)
   TURBO    =      0    0=normal 1=particle mesh
   IRESTART =      0    0=no restart 2=restart with 2 vectors
   NREBOOT  =      0    no. of reboots
   NMIN     =      0    reboot dimension
   EREF     =   0.00    reference energy to select bands
   IMIX   =      4    mixing-type and parameters
     AMIX     =   0.40;   BMIX     =  1.00
     AMIX_MAG =   1.60;   BMIX_MAG =  1.00
     AMIN     =   0.10
     WC   =   100.;   INIMIX=   1;  MIXPRE=   1;  MAXMIX= -45

 Intra band minimization:
   WEIMIN = 0.0000     energy-eigenvalue tresh-hold
   EBREAK =  0.74E-07  absolut break condition
   DEPER  =   0.30     relativ break condition  

   TIME   =   0.40     timestep for ELM

  volume/ion in A,a.u.               =     473.68      3196.58
  Fermi-wavevector in a.u.,A,eV,Ry     =   0.449797  0.849992  2.752691  0.202317
  Thomas-Fermi vector in A             =   1.430086
 
 Write flags
   LWAVE        =      F    write WAVECAR
   LDOWNSAMPLE  =      F    k-point downsampling of WAVECAR
   LCHARG       =      F    write CHGCAR
   LVTOT        =      F    write LOCPOT, total local potential
   LVHAR        =      F    write LOCPOT, Hartree potential only
   LELF         =      F    write electronic localiz. function (ELF)
   LORBIT       =      0    0 simple, 1 ext, 2 COOP (PROOUT), +10 PAW based schemes


 Dipole corrections
   LMONO  =      F    monopole corrections only (constant potential shift)
   LDIPOL =      F    correct potential (dipole corrections)
   IDIPOL =      0    1-x, 2-y, 3-z, 4-all directions 
   EPSILON=  1.0000000 bulk dielectric constant

 Exchange correlation treatment:
   GGA     =    RP    GGA type
   LEXCH   =     9    internal setting for exchange type
   VOSKOWN=      0    Vosko Wilk Nusair interpolation
   LHFCALC =     F    Hartree Fock is set to
   LHFONE  =     F    Hartree Fock one center treatment
   AEXX    =    0.0000 exact exchange contribution

 Linear response parameters
   LEPSILON=     F    determine dielectric tensor
   LRPA    =     F    only Hartree local field effects (RPA)
   LNABLA  =     F    use nabla operator in PAW spheres
   LVEL    =     F    velocity operator in full k-point grid
   LINTERFAST=   F  fast interpolation
   KINTER  =     0    interpolate to denser k-point grid
   CSHIFT  =0.1000    complex shift for real part using Kramers Kronig
   OMEGAMAX=  -1.0    maximum frequency
   DEG_THRESHOLD= 0.2000000E-02 threshold for treating states as degnerate
   RTIME   =   -0.100 relaxation time in fs
  (WPLASMAI=    0.000 imaginary part of plasma frequency in eV, 0.658/RTIME)
   DFIELD  = 0.0000000 0.0000000 0.0000000 field for delta impulse in time
 
 Orbital magnetization related:
   ORBITALMAG=     F  switch on orbital magnetization
   LCHIMAG   =     F  perturbation theory with respect to B field
   DQ        =  0.001000  dq finite difference perturbation B field
   LLRAUG    =     F  two centre corrections for induced B field



--------------------------------------------------------------------------------------------------------


 Static calculation
 charge density and potential will be updated during run
 non-spin polarized calculation
 RMM-DIIS sequential band-by-band and
  variant of blocked Davidson during initial phase
 perform sub-space diagonalisation
    before iterative eigenvector-optimisation
 modified Broyden-mixing scheme, WC =      100.0
 initial mixing is a Kerker type mixing with AMIX =  0.4000 and BMIX =      1.0000
 Hartree-type preconditioning will be used
 using additional bands           56
 real space projection scheme for non local part
 use partial core corrections
 calculate Harris-corrections to forces 
   (improved forces if not selfconsistent)
 use gradient corrections 
 use of overlap-Matrix (Vanderbilt PP)
 Methfessel and Paxton  Order N= 2 SIGMA  =   0.20


--------------------------------------------------------------------------------------------------------


  energy-cutoff  :      400.00
  volume of cell :    27000.00
      direct lattice vectors                 reciprocal lattice vectors
    30.000000000  0.000000000  0.000000000     0.033333333  0.000000000  0.000000000
     0.000000000 30.000000000  0.000000000     0.000000000  0.033333333  0.000000000
     0.000000000  0.000000000 30.000000000     0.000000000  0.000000000  0.033333333

  length of vectors
    30.000000000 30.000000000 30.000000000     0.033333333  0.033333333  0.033333333


 
 k-points in units of 2pi/SCALE and weight: K-points                                
   0.00000000  0.00000000  0.00000000       1.000
 
 k-points in reciprocal lattice and weights: K-points                                
   0.00000000  0.00000000  0.00000000       1.000
 
 position of ions in fractional coordinates (direct lattice) 
   0.44576020  0.32826710  0.41691983
   0.67173288  0.55423978  0.41691983
   0.55423980  0.32826710  0.41691983
   0.32826712  0.55423978  0.41691983
   0.50000000  0.38250690  0.34021317
   0.50000000  0.38250690  0.65978680
   0.50000000  0.27609440  0.50000000
   0.27609443  0.49999998  0.50000000
   0.72390557  0.49999998  0.50000000
   0.50000000  0.72390555  0.50000000
   0.61195280  0.38804720  0.34167483
   0.61195280  0.38804720  0.65832513
   0.38804722  0.61195278  0.34167483
   0.38804722  0.61195278  0.65832513
   0.38804720  0.38804720  0.34167483
   0.38804720  0.38804720  0.65832513
   0.61195278  0.61195278  0.34167483
   0.61195278  0.61195278  0.65832513
   0.44576020  0.32826710  0.58308023
   0.67173288  0.55423978  0.58308023
   0.55791699  0.44208301  0.41809300
   0.32826705  0.44576024  0.41691983
   0.55423973  0.67173293  0.41691983
   0.55423980  0.32826710  0.58308023
   0.32826712  0.55423978  0.58308023
   0.67173295  0.44576024  0.41691983
   0.44576027  0.67173293  0.41691983
   0.44208301  0.44208301  0.41809300
   0.50000000  0.38416601  0.50000000
   0.61749315  0.50000005  0.34021317
   0.61749315  0.50000005  0.65978680
   0.38250685  0.50000005  0.34021317
   0.38250685  0.50000005  0.65978680
   0.38317830  0.38317830  0.50000000
   0.61682172  0.61682172  0.50000000
   0.61682170  0.38317830  0.50000000
   0.38317828  0.61682172  0.50000000
   0.50000000  0.50000000  0.33478917
   0.50000000  0.50000000  0.66521087
   0.32826705  0.44576024  0.58308023
   0.55423973  0.67173293  0.58308023
   0.55791699  0.44208301  0.58190703
   0.44208298  0.55791702  0.41809300
   0.44208301  0.44208301  0.58190703
   0.67173295  0.44576024  0.58308023
   0.44576027  0.67173293  0.58308023
   0.55791702  0.55791702  0.41809300
   0.38416599  0.50000002  0.50000000
   0.61583401  0.50000002  0.50000000
   0.50000000  0.61749319  0.34021317
   0.50000000  0.61749319  0.65978680
   0.50000000  0.50000000  0.50000000
   0.44208298  0.55791702  0.58190703
   0.55791702  0.55791702  0.58190703
   0.50000000  0.61583404  0.50000000
   0.38317000  0.68373880  0.47719013
   0.36310490  0.71529520  0.47327260
 
 position of ions in cartesian coordinates  (Angst):
  13.37280588  9.84801292 12.50759500
  20.15198637 16.62719342 12.50759500
  16.62719412  9.84801292 12.50759500
   9.84801363 16.62719342 12.50759500
  15.00000000 11.47520705 10.20639500
  15.00000000 11.47520705 19.79360400
  15.00000000  8.28283206 15.00000000
   8.28283277 14.99999929 15.00000000
  21.71716723 14.99999929 15.00000000
  15.00000000 21.71716652 14.99999999
  18.35858397 11.64141603 10.25024500
  18.35858397 11.64141603 19.74975399
  11.64141674 18.35858326 10.25024500
  11.64141674 18.35858326 19.74975400
  11.64141603 11.64141603 10.25024500
  11.64141603 11.64141603 19.74975400
  18.35858326 18.35858326 10.25024500
  18.35858326 18.35858326 19.74975400
  13.37280588  9.84801291 17.49240700
  20.15198638 16.62719341 17.49240700
  16.73750985 13.26249015 12.54279000
   9.84801151 13.37280729 12.50759500
  16.62719200 20.15198779 12.50759500
  16.62719412  9.84801292 17.49240700
   9.84801363 16.62719342 17.49240700
  20.15198849 13.37280729 12.50759500
  13.37280800 20.15198779 12.50759500
  13.26249015 13.26249015 12.54279000
  15.00000000 11.52498029 15.00000000
  18.52479437 15.00000140 10.20639500
  18.52479437 15.00000141 19.79360400
  11.47520562 15.00000141 10.20639501
  11.47520563 15.00000141 19.79360400
  11.49534898 11.49534898 15.00000000
  18.50465172 18.50465172 15.00000000
  18.50465102 11.49534898 15.00000000
  11.49534828 18.50465172 15.00000000
  15.00000000 15.00000000 10.04367500
  15.00000000 15.00000000 19.95632599
   9.84801151 13.37280729 17.49240700
  16.62719200 20.15198779 17.49240700
  16.73750985 13.26249015 17.45721100
  13.26248944 16.73751056 12.54279001
  13.26249015 13.26249015 17.45721100
  20.15198849 13.37280729 17.49240699
  13.37280800 20.15198779 17.49240700
  16.73751056 16.73751056 12.54279000
  11.52497959 15.00000071 15.00000000
  18.47502041 15.00000071 15.00000000
  14.99999999 18.52479579 10.20639500
  15.00000000 18.52479578 19.79360400
  15.00000000 15.00000000 15.00000000
  13.26248944 16.73751057 17.45721101
  16.73751056 16.73751057 17.45721100
  15.00000000 18.47502112 15.00000000
  11.49510000 20.51216400 14.31570400
  10.89314700 21.45885600 14.19817800
 


--------------------------------------------------------------------------------------------------------


 k-point  1 :   0.0000 0.0000 0.0000  plane waves:  490521

 maximum and minimum number of plane-waves per node :    490521   490521

 maximum number of plane-waves:    490521
 maximum index in each direction: 
   IXMAX=   48   IYMAX=   48   IZMAX=   48
   IXMIN=  -48   IYMIN=  -48   IZMIN=  -48


 serial   3D FFT for wavefunctions
 parallel 3D FFT for charge:
    minimum data exchange during FFTs selected (reduces bandwidth)


 total amount of memory used by VASP MPI-rank0  5486939. kBytes
=======================================================================

   base      :      30000. kBytes
   nonlr-proj:      17124. kBytes
   fftplans  :     924480. kBytes
   grid      :    1872000. kBytes
   one-center:        886. kBytes
   wavefun   :    2642449. kBytes
 
     INWAV:  cpu time    0.0001: real time    0.0003
 Broyden mixing: mesh for mixing (old mesh)
   NGX = 97   NGY = 97   NGZ = 97
  (NGX  =300   NGY  =300   NGZ  =300)
  gives a total of 912673 points

 initial charge density was supplied:
 charge density of overlapping atoms calculated
 number of electron     560.0000000 magnetization 
 keeping initial charge density in first step


--------------------------------------------------------------------------------------------------------


 Maximum index for non-local projection operator         1763
 Maximum index for augmentation-charges         5898 (set IRDMAX)


--------------------------------------------------------------------------------------------------------


 First call to EWALD:  gamma=   0.059
 Maximum number of real-space cells 3x 3x 3
 Maximum number of reciprocal cells 3x 3x 3

    FEWALD:  cpu time    0.0149: real time    0.0149


--------------------------------------- Iteration      1(   1)  ---------------------------------------


    POTLOK:  cpu time   14.0197: real time   14.0228
    SETDIJ:  cpu time    0.1216: real time    0.1216
     EDDAV:  cpu time  361.6711: real time  361.7645
       DOS:  cpu time    0.0013: real time    0.0013
    --------------------------------------------
      LOOP:  cpu time  375.8138: real time  375.9102

 eigenvalue-minimisations  :   688
 total energy-change (2. order) : 0.4387870E+04  (-0.1005133E+05)
 number of electron     560.0000000 magnetization 
 augmentation part      560.0000000 magnetization 

 Free energy of the ion-electron system (eV)
  ---------------------------------------------------
  alpha Z        PSCENC =        75.25431677
  Ewald energy   TEWEN  =    138949.68446434
  -Hartree energ DENC   =   -182312.19988575
  -exchange      EXHF   =         0.00000000
  -V(xc)+E(xc)   XCENC  =     -1703.09170234
  PAW double counting   =     44873.02882129   -41398.84523641
  entropy T*S    EENTRO =        -0.01077412
  eigenvalues    EBANDS =       817.54456569
  atomic energy  EATOM  =     45086.50549395
  Solvation  Ediel_sol  =         0.00000000
  ---------------------------------------------------
  free energy    TOTEN  =      4387.87006342 eV

  energy without entropy =     4387.88083754  energy(sigma->0) =     4387.87275695


--------------------------------------------------------------------------------------------------------




--------------------------------------- Iteration      1(   2)  ---------------------------------------


     EDDAV:  cpu time  572.2162: real time  572.2656
       DOS:  cpu time    0.0013: real time    0.0013
    --------------------------------------------
      LOOP:  cpu time  572.2175: real time  572.2668

 eigenvalue-minimisations  :  1208
 total energy-change (2. order) :-0.2359614E+04  (-0.2117726E+04)
 number of electron     560.0000000 magnetization 
 augmentation part      560.0000000 magnetization 

 Free energy of the ion-electron system (eV)
  ---------------------------------------------------
  alpha Z        PSCENC =        75.25431677
  Ewald energy   TEWEN  =    138949.68446434
  -Hartree energ DENC   =   -182312.19988575
  -exchange      EXHF   =         0.00000000
  -V(xc)+E(xc)   XCENC  =     -1703.09170234
  PAW double counting   =     44873.02882129   -41398.84523641
  entropy T*S    EENTRO =        -0.04130129
  eigenvalues    EBANDS =     -1542.03868606
  atomic energy  EATOM  =     45086.50549395
  Solvation  Ediel_sol  =         0.00000000
  ---------------------------------------------------
  free energy    TOTEN  =      2028.25628451 eV

  energy without entropy =     2028.29758580  energy(sigma->0) =     2028.26660983


--------------------------------------------------------------------------------------------------------




--------------------------------------- Iteration      1(   3)  ---------------------------------------


     EDDAV:  cpu time  486.5914: real time  486.6231
       DOS:  cpu time    0.0011: real time    0.0011
    --------------------------------------------
      LOOP:  cpu time  486.5925: real time  486.6242

 eigenvalue-minimisations  :  1016
 total energy-change (2. order) :-0.1788478E+04  (-0.1677930E+04)
 number of electron     560.0000000 magnetization 
 augmentation part      560.0000000 magnetization 

 Free energy of the ion-electron system (eV)
  ---------------------------------------------------
  alpha Z        PSCENC =        75.25431677
  Ewald energy   TEWEN  =    138949.68446434
  -Hartree energ DENC   =   -182312.19988575
  -exchange      EXHF   =         0.00000000
  -V(xc)+E(xc)   XCENC  =     -1703.09170234
  PAW double counting   =     44873.02882129   -41398.84523641
  entropy T*S    EENTRO =         0.01448612
  eigenvalues    EBANDS =     -3330.57209649
  atomic energy  EATOM  =     45086.50549395
  Solvation  Ediel_sol  =         0.00000000
  ---------------------------------------------------
  free energy    TOTEN  =       239.77866149 eV

  energy without entropy =      239.76417536  energy(sigma->0) =      239.77503995


--------------------------------------------------------------------------------------------------------




--------------------------------------- Iteration      1(   4)  ---------------------------------------


     EDDAV:  cpu time  420.5206: real time  420.5292
       DOS:  cpu time    0.0012: real time    0.0011
    --------------------------------------------
      LOOP:  cpu time  420.5217: real time  420.5304

 eigenvalue-minimisations  :   832
 total energy-change (2. order) :-0.3741009E+03  (-0.3186077E+03)
 number of electron     560.0000000 magnetization 
 augmentation part      560.0000000 magnetization 

 Free energy of the ion-electron system (eV)
  ---------------------------------------------------
  alpha Z        PSCENC =        75.25431677
  Ewald energy   TEWEN  =    138949.68446434
  -Hartree energ DENC   =   -182312.19988575
  -exchange      EXHF   =         0.00000000
  -V(xc)+E(xc)   XCENC  =     -1703.09170234
  PAW double counting   =     44873.02882129   -41398.84523641
  entropy T*S    EENTRO =        -0.01453234
  eigenvalues    EBANDS =     -3704.64393900
  atomic energy  EATOM  =     45086.50549395
  Solvation  Ediel_sol  =         0.00000000
  ---------------------------------------------------
  free energy    TOTEN  =      -134.32219949 eV

  energy without entropy =     -134.30766715  energy(sigma->0) =     -134.31856641


--------------------------------------------------------------------------------------------------------




--------------------------------------- Iteration      1(   5)  ---------------------------------------


     EDDAV:  cpu time  506.0802: real time  506.0915
       DOS:  cpu time    0.0014: real time    0.0014
    CHARGE:  cpu time   25.5784: real time   25.5784
    MIXING:  cpu time    0.4406: real time    0.4406
    --------------------------------------------
      LOOP:  cpu time  532.1006: real time  532.1119

 eigenvalue-minimisations  :  1048
 total energy-change (2. order) :-0.4537479E+02  (-0.3754102E+02)
 number of electron     559.9999882 magnetization 
 augmentation part      245.0893777 magnetization 

 Broyden mixing:
  rms(total) = 0.14621E+01    rms(broyden)= 0.14611E+01
  rms(prec ) = 0.15667E+01
  weight for this iteration     100.00

 Free energy of the ion-electron system (eV)
  ---------------------------------------------------
  alpha Z        PSCENC =        75.25431677
  Ewald energy   TEWEN  =    138949.68446434
  -Hartree energ DENC   =   -182312.19988575
  -exchange      EXHF   =         0.00000000
  -V(xc)+E(xc)   XCENC  =     -1703.09170234
  PAW double counting   =     44873.02882129   -41398.84523641
  entropy T*S    EENTRO =         0.49838047
  eigenvalues    EBANDS =     -3750.53164363
  atomic energy  EATOM  =     45086.50549395
  Solvation  Ediel_sol  =         0.00000000
  ---------------------------------------------------
  free energy    TOTEN  =      -179.69699131 eV

  energy without entropy =     -180.19537178  energy(sigma->0) =     -179.82158643


--------------------------------------------------------------------------------------------------------




--------------------------------------- Iteration      1(   6)  ---------------------------------------


    POTLOK:  cpu time   13.4749: real time   13.4758
    SETDIJ:  cpu time    0.1228: real time    0.1228
    EDDIAG:  cpu time   68.1972: real time   68.1995
  RMM-DIIS:  cpu time  186.5382: real time  186.5426
    ORTHCH:  cpu time   13.4237: real time   13.4236
       DOS:  cpu time    0.0014: real time    0.0014
    CHARGE:  cpu time   25.2485: real time   25.2483
    MIXING:  cpu time    0.4537: real time    0.4537
    --------------------------------------------
      LOOP:  cpu time  307.4604: real time  307.4677

 eigenvalue-minimisations  :   726
 total energy-change (2. order) :-0.8891881E+00  (-0.5786385E+01)
 number of electron     559.9999888 magnetization 
 augmentation part      240.4045989 magnetization 

 Broyden mixing:
  rms(total) = 0.24928E+01    rms(broyden)= 0.24925E+01
  rms(prec ) = 0.29128E+01
  weight for this iteration     100.00

 eigenvalues of (default mixing * dielectric matrix)
  average eigenvalue GAMMA=   0.3003
  0.3003

 Free energy of the ion-electron system (eV)
  ---------------------------------------------------
  alpha Z        PSCENC =        75.25431677
  Ewald energy   TEWEN  =    138949.68446434
  -Hartree energ DENC   =   -182707.56945145
  -exchange      EXHF   =         0.00000000
  -V(xc)+E(xc)   XCENC  =     -1696.79138185
  PAW double counting   =     45628.79280361   -42127.93129952
  entropy T*S    EENTRO =        -0.15013040
  eigenvalues    EBANDS =     -3388.38099489
  atomic energy  EATOM  =     45086.50549395
  Solvation  Ediel_sol  =         0.00000000
  ---------------------------------------------------
  free energy    TOTEN  =      -180.58617944 eV

  energy without entropy =     -180.43604904  energy(sigma->0) =     -180.54864684


--------------------------------------------------------------------------------------------------------




--------------------------------------- Iteration      1(   7)  ---------------------------------------


    POTLOK:  cpu time   13.2421: real time   13.2426
    SETDIJ:  cpu time    0.1235: real time    0.1235
    EDDIAG:  cpu time   67.5632: real time   67.5641
  RMM-DIIS:  cpu time  219.5030: real time  219.5080
    ORTHCH:  cpu time   13.5351: real time   13.5350
       DOS:  cpu time    0.0015: real time    0.0015
    CHARGE:  cpu time   25.1997: real time   25.1995
    MIXING:  cpu time    0.4792: real time    0.4792
    --------------------------------------------
      LOOP:  cpu time  339.6474: real time  339.6534

 eigenvalue-minimisations  :   857
 total energy-change (2. order) :-0.1220534E+01  (-0.1972266E+01)
 number of electron     559.9999862 magnetization 
 augmentation part      240.6164406 magnetization 

 Broyden mixing:
  rms(total) = 0.20991E+01    rms(broyden)= 0.20988E+01
  rms(prec ) = 0.25103E+01
  weight for this iteration     100.00

 eigenvalues of (default mixing * dielectric matrix)
  average eigenvalue GAMMA=   0.2969
  0.4385  0.1553

 Free energy of the ion-electron system (eV)
  ---------------------------------------------------
  alpha Z        PSCENC =        75.25431677
  Ewald energy   TEWEN  =    138949.68446434
  -Hartree energ DENC   =   -182786.72268797
  -exchange      EXHF   =         0.00000000
  -V(xc)+E(xc)   XCENC  =     -1697.01849570
  PAW double counting   =     45685.02746270   -42182.04321249
  entropy T*S    EENTRO =        -0.09815176
  eigenvalues    EBANDS =     -3312.39590368
  atomic energy  EATOM  =     45086.50549395
  Solvation  Ediel_sol  =         0.00000000
  ---------------------------------------------------
  free energy    TOTEN  =      -181.80671383 eV

  energy without entropy =     -181.70856207  energy(sigma->0) =     -181.78217589


--------------------------------------------------------------------------------------------------------




--------------------------------------- Iteration      1(   8)  ---------------------------------------


    POTLOK:  cpu time   13.2044: real time   13.2085
    SETDIJ:  cpu time    0.1238: real time    0.1238
    EDDIAG:  cpu time   67.6935: real time   67.6935
  RMM-DIIS:  cpu time  192.2604: real time  192.2609
    ORTHCH:  cpu time   13.3957: real time   13.3956
       DOS:  cpu time    0.0014: real time    0.0014
    CHARGE:  cpu time   25.0894: real time   25.0893
    MIXING:  cpu time    0.5099: real time    0.5099
    --------------------------------------------
      LOOP:  cpu time  312.2785: real time  312.2830

 eigenvalue-minimisations  :   771
 total energy-change (2. order) :-0.2274567E+01  (-0.6984577E+00)
 number of electron     559.9999866 magnetization 
 augmentation part      240.0734471 magnetization 

 Broyden mixing:
  rms(total) = 0.27199E+01    rms(broyden)= 0.27197E+01
  rms(prec ) = 0.32632E+01
  weight for this iteration     100.00

 eigenvalues of (default mixing * dielectric matrix)
  average eigenvalue GAMMA=   0.2842
  0.5828  0.1349  0.1349

 Free energy of the ion-electron system (eV)
  ---------------------------------------------------
  alpha Z        PSCENC =        75.25431677
  Ewald energy   TEWEN  =    138949.68446434
  -Hartree energ DENC   =   -182837.94478603
  -exchange      EXHF   =         0.00000000
  -V(xc)+E(xc)   XCENC  =     -1697.04425130
  PAW double counting   =     45744.93311991   -42239.46099689
  entropy T*S    EENTRO =        -0.20018318
  eigenvalues    EBANDS =     -3265.80845851
  atomic energy  EATOM  =     45086.50549395
  Solvation  Ediel_sol  =         0.00000000
  ---------------------------------------------------
  free energy    TOTEN  =      -184.08128092 eV

  energy without entropy =     -183.88109775  energy(sigma->0) =     -184.03123513


--------------------------------------------------------------------------------------------------------




--------------------------------------- Iteration      1(   9)  ---------------------------------------


    POTLOK:  cpu time   13.1645: real time   13.1655
    SETDIJ:  cpu time    0.1194: real time    0.1194
    EDDIAG:  cpu time   67.6314: real time   67.6316
  RMM-DIIS:  cpu time  193.4589: real time  193.4617
    ORTHCH:  cpu time   13.4723: real time   13.4722
       DOS:  cpu time    0.0014: real time    0.0014
    CHARGE:  cpu time   25.2392: real time   25.2390
    MIXING:  cpu time    0.5390: real time    0.5390
    --------------------------------------------
      LOOP:  cpu time  313.6260: real time  313.6298

 eigenvalue-minimisations  :   751
 total energy-change (2. order) : 0.1572993E+01  (-0.4654130E+00)
 number of electron     559.9999872 magnetization 
 augmentation part      240.6894350 magnetization 

 Broyden mixing:
  rms(total) = 0.26361E+01    rms(broyden)= 0.26358E+01
  rms(prec ) = 0.30953E+01
  weight for this iteration     100.00

 eigenvalues of (default mixing * dielectric matrix)
  average eigenvalue GAMMA=   0.2739
  0.6998  0.1526  0.1526  0.0908

 Free energy of the ion-electron system (eV)
  ---------------------------------------------------
  alpha Z        PSCENC =        75.25431677
  Ewald energy   TEWEN  =    138949.68446434
  -Hartree energ DENC   =   -182858.88911515
  -exchange      EXHF   =         0.00000000
  -V(xc)+E(xc)   XCENC  =     -1697.04899086
  PAW double counting   =     45796.19637694   -42288.66354927
  entropy T*S    EENTRO =        -0.05564558
  eigenvalues    EBANDS =     -3245.49163924
  atomic energy  EATOM  =     45086.50549395
  Solvation  Ediel_sol  =         0.00000000
  ---------------------------------------------------
  free energy    TOTEN  =      -182.50828808 eV

  energy without entropy =     -182.45264250  energy(sigma->0) =     -182.49437669


--------------------------------------------------------------------------------------------------------




--------------------------------------- Iteration      1(  10)  ---------------------------------------


    POTLOK:  cpu time   13.1253: real time   13.1258
    SETDIJ:  cpu time    0.1213: real time    0.1213
    EDDIAG:  cpu time   68.0781: real time   68.0780
  RMM-DIIS:  cpu time  190.9409: real time  190.9475
    ORTHCH:  cpu time   13.6639: real time   13.6644
       DOS:  cpu time    0.0014: real time    0.0014
    CHARGE:  cpu time   25.4382: real time   25.4381
    MIXING:  cpu time    0.5795: real time    0.5795
    --------------------------------------------
      LOOP:  cpu time  311.9487: real time  311.9560

 eigenvalue-minimisations  :   733
 total energy-change (2. order) : 0.1276821E+01  (-0.3197428E+00)
 number of electron     559.9999881 magnetization 
 augmentation part      241.1857068 magnetization 

 Broyden mixing:
  rms(total) = 0.23758E+01    rms(broyden)= 0.23755E+01
  rms(prec ) = 0.28818E+01
  weight for this iteration     100.00

 eigenvalues of (default mixing * dielectric matrix)
  average eigenvalue GAMMA=   0.2631
  0.7821  0.1823  0.1823  0.0843  0.0843

 Free energy of the ion-electron system (eV)
  ---------------------------------------------------
  alpha Z        PSCENC =        75.25431677
  Ewald energy   TEWEN  =    138949.68446434
  -Hartree energ DENC   =   -182874.35998204
  -exchange      EXHF   =         0.00000000
  -V(xc)+E(xc)   XCENC  =     -1696.94136109
  PAW double counting   =     45840.32734945   -42331.05704061
  entropy T*S    EENTRO =        -0.03714538
  eigenvalues    EBANDS =     -3230.60756257
  atomic energy  EATOM  =     45086.50549395
  Solvation  Ediel_sol  =         0.00000000
  ---------------------------------------------------
  free energy    TOTEN  =      -181.23146717 eV

  energy without entropy =     -181.19432179  energy(sigma->0) =     -181.22218082


--------------------------------------------------------------------------------------------------------




--------------------------------------- Iteration      1(  11)  ---------------------------------------


    POTLOK:  cpu time   13.3419: real time   13.3454
    SETDIJ:  cpu time    0.1250: real time    0.1250
    EDDIAG:  cpu time   69.2361: real time   69.2364
  RMM-DIIS:  cpu time  192.9851: real time  192.9888
    ORTHCH:  cpu time   13.6839: real time   13.6837
       DOS:  cpu time    0.0015: real time    0.0015
    CHARGE:  cpu time   25.4168: real time   25.4165
    MIXING:  cpu time    0.6231: real time    0.6230
    --------------------------------------------
      LOOP:  cpu time  315.4134: real time  315.4204

 eigenvalue-minimisations  :   735
 total energy-change (2. order) : 0.1993553E+01  (-0.2011361E+00)
 number of electron     559.9999858 magnetization 
 augmentation part      241.6870912 magnetization 

 Broyden mixing:
  rms(total) = 0.21513E+01    rms(broyden)= 0.21509E+01
  rms(prec ) = 0.25337E+01
  weight for this iteration     100.00

 eigenvalues of (default mixing * dielectric matrix)
  average eigenvalue GAMMA=   0.2629
  0.8867  0.2129  0.2129  0.1007  0.1007  0.0633

 Free energy of the ion-electron system (eV)
  ---------------------------------------------------
  alpha Z        PSCENC =        75.25431677
  Ewald energy   TEWEN  =    138949.68446434
  -Hartree energ DENC   =   -182890.03322415
  -exchange      EXHF   =         0.00000000
  -V(xc)+E(xc)   XCENC  =     -1696.78388706
  PAW double counting   =     45876.84781444   -42366.07159038
  entropy T*S    EENTRO =         0.06692037
  eigenvalues    EBANDS =     -3214.70822293
  atomic energy  EATOM  =     45086.50549395
  Solvation  Ediel_sol  =         0.00000000
  ---------------------------------------------------
  free energy    TOTEN  =      -179.23791464 eV

  energy without entropy =     -179.30483501  energy(sigma->0) =     -179.25464473


--------------------------------------------------------------------------------------------------------




--------------------------------------- Iteration      1(  12)  ---------------------------------------


    POTLOK:  cpu time   13.2382: real time   13.2388
    SETDIJ:  cpu time    0.1210: real time    0.1210
    EDDIAG:  cpu time   68.6746: real time   68.6750
  RMM-DIIS:  cpu time  186.7810: real time  186.7813
    ORTHCH:  cpu time   13.6262: real time   13.6260
       DOS:  cpu time    0.0015: real time    0.0015
    CHARGE:  cpu time   25.5064: real time   25.5061
    MIXING:  cpu time    0.6562: real time    0.6562
    --------------------------------------------
      LOOP:  cpu time  308.6051: real time  308.6059

 eigenvalue-minimisations  :   711
 total energy-change (2. order) : 0.1499515E+01  (-0.2055789E+00)
 number of electron     559.9999869 magnetization 
 augmentation part      241.7720441 magnetization 

 Broyden mixing:
  rms(total) = 0.15565E+01    rms(broyden)= 0.15563E+01
  rms(prec ) = 0.17963E+01
  weight for this iteration     100.00

 eigenvalues of (default mixing * dielectric matrix)
  average eigenvalue GAMMA=   0.2560
  0.9448  0.2319  0.2319  0.1100  0.1100  0.1028  0.0605

 Free energy of the ion-electron system (eV)
  ---------------------------------------------------
  alpha Z        PSCENC =        75.25431677
  Ewald energy   TEWEN  =    138949.68446434
  -Hartree energ DENC   =   -182918.68890838
  -exchange      EXHF   =         0.00000000
  -V(xc)+E(xc)   XCENC  =     -1696.52512418
  PAW double counting   =     45922.85203733   -42410.11799042
  entropy T*S    EENTRO =        -0.03933734
  eigenvalues    EBANDS =     -3186.66335178
  atomic energy  EATOM  =     45086.50549395
  Solvation  Ediel_sol  =         0.00000000
  ---------------------------------------------------
  free energy    TOTEN  =      -177.73839970 eV

  energy without entropy =     -177.69906235  energy(sigma->0) =     -177.72856536


--------------------------------------------------------------------------------------------------------




--------------------------------------- Iteration      1(  13)  ---------------------------------------


    POTLOK:  cpu time   13.3934: real time   13.3940
    SETDIJ:  cpu time    0.1253: real time    0.1253
    EDDIAG:  cpu time   68.3055: real time   68.3054
  RMM-DIIS:  cpu time  187.9201: real time  187.9200
    ORTHCH:  cpu time   13.5066: real time   13.5065
       DOS:  cpu time    0.0015: real time    0.0015
    CHARGE:  cpu time   25.5734: real time   25.5731
    MIXING:  cpu time    0.6634: real time    0.6634
    --------------------------------------------
      LOOP:  cpu time  309.4893: real time  309.4892

 eigenvalue-minimisations  :   718
 total energy-change (2. order) : 0.1038299E+01  (-0.1220378E+00)
 number of electron     559.9999892 magnetization 
 augmentation part      241.7512104 magnetization 

 Broyden mixing:
  rms(total) = 0.11259E+01    rms(broyden)= 0.11256E+01
  rms(prec ) = 0.12817E+01
  weight for this iteration     100.00

 eigenvalues of (default mixing * dielectric matrix)
  average eigenvalue GAMMA=   0.2610
  1.0226  0.2722  0.2722  0.1173  0.1173  0.1241  0.1038  0.0580

 Free energy of the ion-electron system (eV)
  ---------------------------------------------------
  alpha Z        PSCENC =        75.25431677
  Ewald energy   TEWEN  =    138949.68446434
  -Hartree energ DENC   =   -182941.43443566
  -exchange      EXHF   =         0.00000000
  -V(xc)+E(xc)   XCENC  =     -1696.27709263
  PAW double counting   =     45957.07542659   -42442.73331731
  entropy T*S    EENTRO =        -0.02128228
  eigenvalues    EBANDS =     -3164.75367464
  atomic energy  EATOM  =     45086.50549395
  Solvation  Ediel_sol  =         0.00000000
  ---------------------------------------------------
  free energy    TOTEN  =      -176.70010086 eV

  energy without entropy =     -176.67881858  energy(sigma->0) =     -176.69478029


--------------------------------------------------------------------------------------------------------




--------------------------------------- Iteration      1(  14)  ---------------------------------------


    POTLOK:  cpu time   13.2298: real time   13.2305
    SETDIJ:  cpu time    0.1220: real time    0.1220
    EDDIAG:  cpu time   68.2478: real time   68.2487
  RMM-DIIS:  cpu time  188.7695: real time  188.7707
    ORTHCH:  cpu time   13.4536: real time   13.4535
       DOS:  cpu time    0.0014: real time    0.0014
    CHARGE:  cpu time   25.5540: real time   25.5539
    MIXING:  cpu time    0.7350: real time    0.7350
    --------------------------------------------
      LOOP:  cpu time  310.1132: real time  310.1157

 eigenvalue-minimisations  :   720
 total energy-change (2. order) : 0.2137761E+00  (-0.1047404E+00)
 number of electron     559.9999871 magnetization 
 augmentation part      241.6296404 magnetization 

 Broyden mixing:
  rms(total) = 0.11580E+01    rms(broyden)= 0.11577E+01
  rms(prec ) = 0.13511E+01
  weight for this iteration     100.00

 eigenvalues of (default mixing * dielectric matrix)
  average eigenvalue GAMMA=   0.2704
  1.1116  0.4227  0.2422  0.1310  0.1310  0.1236  0.1236  0.0900  0.0575

 Free energy of the ion-electron system (eV)
  ---------------------------------------------------
  alpha Z        PSCENC =        75.25431677
  Ewald energy   TEWEN  =    138949.68446434
  -Hartree energ DENC   =   -182971.62941608
  -exchange      EXHF   =         0.00000000
  -V(xc)+E(xc)   XCENC  =     -1695.88759571
  PAW double counting   =     45999.91605975   -42483.44966313
  entropy T*S    EENTRO =        -0.08514180
  eigenvalues    EBANDS =     -3136.79484291
  atomic energy  EATOM  =     45086.50549395
  Solvation  Ediel_sol  =         0.00000000
  ---------------------------------------------------
  free energy    TOTEN  =      -176.48632481 eV

  energy without entropy =     -176.40118301  energy(sigma->0) =     -176.46503936


--------------------------------------------------------------------------------------------------------




--------------------------------------- Iteration      1(  15)  ---------------------------------------


    POTLOK:  cpu time   13.2116: real time   13.2122
    SETDIJ:  cpu time    0.1247: real time    0.1247
    EDDIAG:  cpu time   68.1457: real time   68.1457
  RMM-DIIS:  cpu time  187.8758: real time  187.8793
    ORTHCH:  cpu time   13.4675: real time   13.4675
       DOS:  cpu time    0.0015: real time    0.0015
    CHARGE:  cpu time   25.6325: real time   25.6324
    MIXING:  cpu time    0.7494: real time    0.7494
    --------------------------------------------
      LOOP:  cpu time  309.2088: real time  309.2127

 eigenvalue-minimisations  :   716
 total energy-change (2. order) : 0.1252258E+00  (-0.9026827E-01)
 number of electron     559.9999871 magnetization 
 augmentation part      241.4376684 magnetization 

 Broyden mixing:
  rms(total) = 0.12642E+01    rms(broyden)= 0.12639E+01
  rms(prec ) = 0.15089E+01
  weight for this iteration     100.00

 eigenvalues of (default mixing * dielectric matrix)
  average eigenvalue GAMMA=   0.2932
  1.2800  0.6194  0.2434  0.1698  0.1698  0.1117  0.1117  0.0845  0.0845  0.0577

 Free energy of the ion-electron system (eV)
  ---------------------------------------------------
  alpha Z        PSCENC =        75.25431677
  Ewald energy   TEWEN  =    138949.68446434
  -Hartree energ DENC   =   -183003.88361185
  -exchange      EXHF   =         0.00000000
  -V(xc)+E(xc)   XCENC  =     -1695.44580763
  PAW double counting   =     46043.77096971   -42525.00741270
  entropy T*S    EENTRO =        -0.04781968
  eigenvalues    EBANDS =     -3107.19169194
  atomic energy  EATOM  =     45086.50549395
  Solvation  Ediel_sol  =         0.00000000
  ---------------------------------------------------
  free energy    TOTEN  =      -176.36109902 eV

  energy without entropy =     -176.31327934  energy(sigma->0) =     -176.34914410


--------------------------------------------------------------------------------------------------------




--------------------------------------- Iteration      1(  16)  ---------------------------------------


    POTLOK:  cpu time   13.3298: real time   13.3324
    SETDIJ:  cpu time    0.1206: real time    0.1206
    EDDIAG:  cpu time   68.4677: real time   68.4688
  RMM-DIIS:  cpu time  188.6991: real time  188.6998
    ORTHCH:  cpu time   13.3022: real time   13.3022
       DOS:  cpu time    0.0016: real time    0.0016
    CHARGE:  cpu time   25.5045: real time   25.5045
    MIXING:  cpu time    0.8503: real time    0.8503
    --------------------------------------------
      LOOP:  cpu time  310.2758: real time  310.2801

 eigenvalue-minimisations  :   722
 total energy-change (2. order) :-0.4100538E+00  (-0.8139961E-01)
 number of electron     559.9999879 magnetization 
 augmentation part      241.2166755 magnetization 

 Broyden mixing:
  rms(total) = 0.17560E+01    rms(broyden)= 0.17558E+01
  rms(prec ) = 0.21577E+01
  weight for this iteration     100.00

 eigenvalues of (default mixing * dielectric matrix)
  average eigenvalue GAMMA=   0.2957
  1.3932  0.7034  0.2372  0.1989  0.1989  0.1160  0.1160  0.0870  0.0870  0.0576
  0.0576

 Free energy of the ion-electron system (eV)
  ---------------------------------------------------
  alpha Z        PSCENC =        75.25431677
  Ewald energy   TEWEN  =    138949.68446434
  -Hartree energ DENC   =   -183043.32239202
  -exchange      EXHF   =         0.00000000
  -V(xc)+E(xc)   XCENC  =     -1694.86108536
  PAW double counting   =     46097.21521368   -42575.57607750
  entropy T*S    EENTRO =         0.11090076
  eigenvalues    EBANDS =     -3071.78198747
  atomic energy  EATOM  =     45086.50549395
  Solvation  Ediel_sol  =         0.00000000
  ---------------------------------------------------
  free energy    TOTEN  =      -176.77115285 eV

  energy without entropy =     -176.88205361  energy(sigma->0) =     -176.79887804


--------------------------------------------------------------------------------------------------------




--------------------------------------- Iteration      1(  17)  ---------------------------------------


    POTLOK:  cpu time   13.3594: real time   13.3600
    SETDIJ:  cpu time    0.1236: real time    0.1236
    EDDIAG:  cpu time   69.4947: real time   69.4950
  RMM-DIIS:  cpu time  191.0955: real time  191.0972
    ORTHCH:  cpu time   13.3300: real time   13.3300
       DOS:  cpu time    0.0015: real time    0.0015
    CHARGE:  cpu time   25.3097: real time   25.3095
    MIXING:  cpu time    0.8762: real time    0.8762
    --------------------------------------------
      LOOP:  cpu time  313.5906: real time  313.5930

 eigenvalue-minimisations  :   716
 total energy-change (2. order) : 0.8970399E+00  (-0.5968309E-01)
 number of electron     559.9999869 magnetization 
 augmentation part      241.1555909 magnetization 

 Broyden mixing:
  rms(total) = 0.97755E+00    rms(broyden)= 0.97718E+00
  rms(prec ) = 0.10999E+01
  weight for this iteration     100.00

 eigenvalues of (default mixing * dielectric matrix)
  average eigenvalue GAMMA=   0.3022
  1.5424  0.7452  0.2666  0.2666  0.1421  0.1421  0.1191  0.1191  0.0860  0.0860
  0.0571  0.0543

 Free energy of the ion-electron system (eV)
  ---------------------------------------------------
  alpha Z        PSCENC =        75.25431677
  Ewald energy   TEWEN  =    138949.68446434
  -Hartree energ DENC   =   -183067.02798182
  -exchange      EXHF   =         0.00000000
  -V(xc)+E(xc)   XCENC  =     -1694.53081770
  PAW double counting   =     46126.29324298   -42603.04217893
  entropy T*S    EENTRO =        -0.02862040
  eigenvalues    EBANDS =     -3048.98203211
  atomic energy  EATOM  =     45086.50549395
  Solvation  Ediel_sol  =         0.00000000
  ---------------------------------------------------
  free energy    TOTEN  =      -175.87411292 eV

  energy without entropy =     -175.84549252  energy(sigma->0) =     -175.86695782


--------------------------------------------------------------------------------------------------------




--------------------------------------- Iteration      1(  18)  ---------------------------------------


    POTLOK:  cpu time   13.2713: real time   13.2725
    SETDIJ:  cpu time    0.1196: real time    0.1196
    EDDIAG:  cpu time   69.7001: real time   69.7002
  RMM-DIIS:  cpu time  189.6486: real time  189.6507
    ORTHCH:  cpu time   13.4755: real time   13.4754
       DOS:  cpu time    0.0015: real time    0.0015
    CHARGE:  cpu time   25.3029: real time   25.3027
    MIXING:  cpu time    0.9429: real time    0.9429
    --------------------------------------------
      LOOP:  cpu time  312.4624: real time  312.4654

 eigenvalue-minimisations  :   700
 total energy-change (2. order) : 0.4230089E+00  (-0.5279482E-01)
 number of electron     559.9999883 magnetization 
 augmentation part      241.1692999 magnetization 

 Broyden mixing:
  rms(total) = 0.69418E+00    rms(broyden)= 0.69390E+00
  rms(prec ) = 0.77894E+00
  weight for this iteration     100.00

 eigenvalues of (default mixing * dielectric matrix)
  average eigenvalue GAMMA=   0.3220
  1.5729  0.9587  0.3540  0.3540  0.1616  0.1616  0.1144  0.1144  0.1091  0.0868
  0.0868  0.0569  0.0552

 Free energy of the ion-electron system (eV)
  ---------------------------------------------------
  alpha Z        PSCENC =        75.25431677
  Ewald energy   TEWEN  =    138949.68446434
  -Hartree energ DENC   =   -183086.81107437
  -exchange      EXHF   =         0.00000000
  -V(xc)+E(xc)   XCENC  =     -1694.25756158
  PAW double counting   =     46150.22400829   -42625.47472201
  entropy T*S    EENTRO =        -0.00159737
  eigenvalues    EBANDS =     -3030.57443210
  atomic energy  EATOM  =     45086.50549395
  Solvation  Ediel_sol  =         0.00000000
  ---------------------------------------------------
  free energy    TOTEN  =      -175.45110406 eV

  energy without entropy =     -175.44950669  energy(sigma->0) =     -175.45070472


--------------------------------------------------------------------------------------------------------




--------------------------------------- Iteration      1(  19)  ---------------------------------------


    POTLOK:  cpu time   13.1684: real time   13.1689
    SETDIJ:  cpu time    0.1220: real time    0.1220
    EDDIAG:  cpu time   68.6565: real time   68.6565
  RMM-DIIS:  cpu time  192.5633: real time  192.5656
    ORTHCH:  cpu time   13.2836: real time   13.2836
       DOS:  cpu time    0.0015: real time    0.0015
    CHARGE:  cpu time   25.5177: real time   25.5176
    MIXING:  cpu time    0.9663: real time    0.9662
    --------------------------------------------
      LOOP:  cpu time  314.2794: real time  314.2818

 eigenvalue-minimisations  :   710
 total energy-change (2. order) :-0.2278200E+00  (-0.3419821E-01)
 number of electron     559.9999890 magnetization 
 augmentation part      241.0883705 magnetization 

 Broyden mixing:
  rms(total) = 0.10906E+01    rms(broyden)= 0.10904E+01
  rms(prec ) = 0.13117E+01
  weight for this iteration     100.00

 eigenvalues of (default mixing * dielectric matrix)
  average eigenvalue GAMMA=   0.3389
  1.6345  1.1787  0.4222  0.4222  0.1834  0.1834  0.1189  0.1189  0.1018  0.1018
  0.0830  0.0830  0.0575  0.0546

 Free energy of the ion-electron system (eV)
  ---------------------------------------------------
  alpha Z        PSCENC =        75.25431677
  Ewald energy   TEWEN  =    138949.68446434
  -Hartree energ DENC   =   -183112.55428461
  -exchange      EXHF   =         0.00000000
  -V(xc)+E(xc)   XCENC  =     -1693.98083391
  PAW double counting   =     46163.54448235   -42637.34074338
  entropy T*S    EENTRO =         0.03402844
  eigenvalues    EBANDS =     -3006.82584804
  atomic energy  EATOM  =     45086.50549395
  Solvation  Ediel_sol  =         0.00000000
  ---------------------------------------------------
  free energy    TOTEN  =      -175.67892409 eV

  energy without entropy =     -175.71295253  energy(sigma->0) =     -175.68743120


--------------------------------------------------------------------------------------------------------




--------------------------------------- Iteration      1(  20)  ---------------------------------------


    POTLOK:  cpu time   13.0616: real time   13.0622
    SETDIJ:  cpu time    0.1219: real time    0.1219
    EDDIAG:  cpu time   68.0653: real time   68.0654
  RMM-DIIS:  cpu time  190.2553: real time  190.2558
    ORTHCH:  cpu time   13.5694: real time   13.5693
       DOS:  cpu time    0.0015: real time    0.0015
    CHARGE:  cpu time   25.4401: real time   25.4400
    MIXING:  cpu time    1.0554: real time    1.0555
    --------------------------------------------
      LOOP:  cpu time  311.5706: real time  311.5717

 eigenvalue-minimisations  :   700
 total energy-change (2. order) : 0.1961311E+00  (-0.3071902E-01)
 number of electron     559.9999878 magnetization 
 augmentation part      241.1048538 magnetization 

 Broyden mixing:
  rms(total) = 0.94629E+00    rms(broyden)= 0.94611E+00
  rms(prec ) = 0.10874E+01
  weight for this iteration     100.00

 eigenvalues of (default mixing * dielectric matrix)
  average eigenvalue GAMMA=   0.3377
  1.5960  1.3974  0.4377  0.4377  0.1916  0.1916  0.1196  0.1196  0.1121  0.1121
  0.0858  0.0858  0.0660  0.0578  0.0547

 Free energy of the ion-electron system (eV)
  ---------------------------------------------------
  alpha Z        PSCENC =        75.25431677
  Ewald energy   TEWEN  =    138949.68446434
  -Hartree energ DENC   =   -183133.43649566
  -exchange      EXHF   =         0.00000000
  -V(xc)+E(xc)   XCENC  =     -1693.75703762
  PAW double counting   =     46168.88409233   -42641.55268819
  entropy T*S    EENTRO =         0.04321737
  eigenvalues    EBANDS =     -2987.10815624
  atomic energy  EATOM  =     45086.50549395
  Solvation  Ediel_sol  =         0.00000000
  ---------------------------------------------------
  free energy    TOTEN  =      -175.48279294 eV

  energy without entropy =     -175.52601031  energy(sigma->0) =     -175.49359728


--------------------------------------------------------------------------------------------------------




--------------------------------------- Iteration      1(  21)  ---------------------------------------


    POTLOK:  cpu time   13.1290: real time   13.1298
    SETDIJ:  cpu time    0.1238: real time    0.1238
    EDDIAG:  cpu time   68.1912: real time   68.1949
  RMM-DIIS:  cpu time  187.5664: real time  187.5702
    ORTHCH:  cpu time   13.8606: real time   13.8606
       DOS:  cpu time    0.0015: real time    0.0015
    CHARGE:  cpu time   25.3929: real time   25.3927
    MIXING:  cpu time    1.1175: real time    1.1175
    --------------------------------------------
      LOOP:  cpu time  309.3828: real time  309.3909

 eigenvalue-minimisations  :   696
 total energy-change (2. order) : 0.2476725E+00  (-0.2251822E-01)
 number of electron     559.9999880 magnetization 
 augmentation part      241.1424528 magnetization 

 Broyden mixing:
  rms(total) = 0.47882E+00    rms(broyden)= 0.47865E+00
  rms(prec ) = 0.54802E+00
  weight for this iteration     100.00

 eigenvalues of (default mixing * dielectric matrix)
  average eigenvalue GAMMA=   0.3472
  1.8205  1.3201  0.6064  0.3236  0.3236  0.1802  0.1802  0.1199  0.1199  0.1082
  0.1082  0.0820  0.0820  0.0682  0.0579  0.0544

 Free energy of the ion-electron system (eV)
  ---------------------------------------------------
  alpha Z        PSCENC =        75.25431677
  Ewald energy   TEWEN  =    138949.68446434
  -Hartree energ DENC   =   -183146.60667566
  -exchange      EXHF   =         0.00000000
  -V(xc)+E(xc)   XCENC  =     -1693.63450785
  PAW double counting   =     46169.42842034   -42641.49914622
  entropy T*S    EENTRO =        -0.01898134
  eigenvalues    EBANDS =     -2974.34850483
  atomic energy  EATOM  =     45086.50549395
  Solvation  Ediel_sol  =         0.00000000
  ---------------------------------------------------
  free energy    TOTEN  =      -175.23512049 eV

  energy without entropy =     -175.21613915  energy(sigma->0) =     -175.23037515


--------------------------------------------------------------------------------------------------------




--------------------------------------- Iteration      1(  22)  ---------------------------------------


    POTLOK:  cpu time   13.3820: real time   13.3826
    SETDIJ:  cpu time    0.1219: real time    0.1220
    EDDIAG:  cpu time   67.7882: real time   67.7883
  RMM-DIIS:  cpu time  188.4122: real time  188.4134
    ORTHCH:  cpu time   13.7035: real time   13.7033
       DOS:  cpu time    0.0015: real time    0.0015
    CHARGE:  cpu time   25.4696: real time   25.4693
    MIXING:  cpu time    1.1326: real time    1.1326
    --------------------------------------------
      LOOP:  cpu time  310.0115: real time  310.0130

 eigenvalue-minimisations  :   696
 total energy-change (2. order) : 0.9680471E-02  (-0.2023113E-01)
 number of electron     559.9999875 magnetization 
 augmentation part      241.2093708 magnetization 

 Broyden mixing:
  rms(total) = 0.57537E+00    rms(broyden)= 0.57524E+00
  rms(prec ) = 0.66104E+00
  weight for this iteration     100.00

 eigenvalues of (default mixing * dielectric matrix)
  average eigenvalue GAMMA=   0.3623
  1.9054  1.4669  0.7645  0.3715  0.3715  0.1774  0.1774  0.1196  0.1196  0.1250
  0.1080  0.1080  0.0834  0.0834  0.0544  0.0580  0.0647

 Free energy of the ion-electron system (eV)
  ---------------------------------------------------
  alpha Z        PSCENC =        75.25431677
  Ewald energy   TEWEN  =    138949.68446434
  -Hartree energ DENC   =   -183160.48797321
  -exchange      EXHF   =         0.00000000
  -V(xc)+E(xc)   XCENC  =     -1693.46270792
  PAW double counting   =     46170.54194952   -42641.89227834
  entropy T*S    EENTRO =        -0.04463752
  eigenvalues    EBANDS =     -2961.32406762
  atomic energy  EATOM  =     45086.50549395
  Solvation  Ediel_sol  =         0.00000000
  ---------------------------------------------------
  free energy    TOTEN  =      -175.22544002 eV

  energy without entropy =     -175.18080250  energy(sigma->0) =     -175.21428064


--------------------------------------------------------------------------------------------------------




--------------------------------------- Iteration      1(  23)  ---------------------------------------


    POTLOK:  cpu time   13.3099: real time   13.3105
    SETDIJ:  cpu time    0.1247: real time    0.1247
    EDDIAG:  cpu time   67.8310: real time   67.8309
  RMM-DIIS:  cpu time  189.2364: real time  189.2406
    ORTHCH:  cpu time   13.6696: real time   13.6697
       DOS:  cpu time    0.0015: real time    0.0015
    CHARGE:  cpu time   25.5379: real time   25.5378
    MIXING:  cpu time    1.2722: real time    1.2722
    --------------------------------------------
      LOOP:  cpu time  310.9833: real time  310.9878

 eigenvalue-minimisations  :   699
 total energy-change (2. order) : 0.1407902E-01  (-0.1679426E-01)
 number of electron     559.9999872 magnetization 
 augmentation part      241.0979803 magnetization 

 Broyden mixing:
  rms(total) = 0.58005E+00    rms(broyden)= 0.57992E+00
  rms(prec ) = 0.65792E+00
  weight for this iteration     100.00

 eigenvalues of (default mixing * dielectric matrix)
  average eigenvalue GAMMA=   0.3715
[...]
 -0.007  -0.012   0.004   0.004   0.006  -0.006  -0.011   0.003
 -0.011  -0.020   0.006   0.008   0.010  -0.011  -0.019   0.006
 -0.015  -0.005   0.012   0.000   0.022  -0.014  -0.005   0.012
  0.000  -0.022  -0.006  -0.015  -0.000   0.000  -0.022  -0.006
 -0.022   0.000   0.009  -0.005  -0.016  -0.021   0.000   0.008
 -0.017  -0.006   0.015   0.000   0.027  -0.017  -0.006   0.015
  0.000  -0.027  -0.007  -0.018  -0.000   0.000  -0.026  -0.007
 -0.027   0.000   0.010  -0.006  -0.019  -0.026   0.000   0.010
 total augmentation occupancy for first ion, spin component:           1
  1.535  -0.029   0.005   0.015   0.023   0.076  -0.008  -0.002   0.036  -0.009   0.093  -0.032   0.011   0.002   0.003  -0.019
 -0.029   1.399   0.028   0.072   0.001  -0.007   0.072   0.011  -0.015  -0.008   0.215  -0.064   0.020   0.001   0.002  -0.007
  0.005   0.028   1.541   0.002   0.001  -0.002   0.013   0.075  -0.012   0.018  -0.053   0.017  -0.003  -0.006  -0.005   0.016
  0.015   0.072   0.002   1.335   0.041   0.034  -0.014  -0.012   0.092  -0.022  -0.085   0.023  -0.002  -0.008  -0.003   0.001
  0.023   0.001   0.001   0.041   1.434  -0.010  -0.009   0.016  -0.021   0.070  -0.101   0.033  -0.004  -0.009  -0.008   0.026
  0.076  -0.007  -0.002   0.034  -0.010   0.218   0.019  -0.002  -0.046   0.003  -0.048   0.002   0.017  -0.010   0.034  -0.004
 -0.008   0.072   0.013  -0.014  -0.009   0.019   0.263  -0.023  -0.003   0.006  -0.109   0.008  -0.001   0.052  -0.009  -0.001
 -0.002   0.011   0.075  -0.012   0.016  -0.002  -0.023   0.216   0.014  -0.020   0.028  -0.001  -0.012   0.009  -0.018   0.003
  0.036  -0.015  -0.012   0.092  -0.021  -0.046  -0.003   0.014   0.261   0.007   0.043  -0.004  -0.009   0.036   0.004   0.000
 -0.009  -0.008   0.018  -0.022   0.070   0.003   0.006  -0.020   0.007   0.258   0.047  -0.002  -0.038   0.002   0.049   0.007
  0.093   0.215  -0.053  -0.085  -0.101  -0.048  -0.109   0.028   0.043   0.047   0.951  -0.141   0.084   0.014   0.064  -0.013
 -0.032  -0.064   0.017   0.023   0.033   0.002   0.008  -0.001  -0.004  -0.002  -0.141   0.023  -0.014  -0.003  -0.010   0.003
  0.011   0.020  -0.003  -0.002  -0.004   0.017  -0.001  -0.012  -0.009  -0.038   0.084  -0.014   0.029  -0.008  -0.004  -0.003
  0.002   0.001  -0.006  -0.008  -0.009  -0.010   0.052   0.009   0.036   0.002   0.014  -0.003  -0.008   0.036   0.004   0.000
  0.003   0.002  -0.005  -0.003  -0.008   0.034  -0.009  -0.018   0.004   0.049   0.064  -0.010  -0.004   0.004   0.034  -0.000
 -0.019  -0.007   0.016   0.001   0.026  -0.004  -0.001   0.003   0.000   0.007  -0.013   0.003  -0.003   0.000  -0.000   0.001
  0.001  -0.028  -0.007  -0.018   0.001   0.001  -0.008  -0.002  -0.006  -0.000  -0.003   0.001   0.000  -0.003  -0.000   0.000
 -0.028   0.001   0.012  -0.005  -0.020  -0.006   0.001   0.003  -0.001  -0.007  -0.008   0.001  -0.000  -0.000  -0.003   0.000


------------------------ aborting loop because EDIFF is reached ----------------------------------------


    CHARGE:  cpu time   24.9120: real time   24.9145
    FORLOC:  cpu time    6.7627: real time    6.7638
    FORNL :  cpu time   64.4521: real time   64.4596
    STRESS:  cpu time  195.3991: real time  195.4226
    FORCOR:  cpu time   21.4671: real time   21.4695
    FORHAR:  cpu time    9.2693: real time    9.2705
    MIXING:  cpu time    3.6643: real time    3.6653
    OFIELD:  cpu time    0.0000: real time    0.0000

  FORCE on cell =-STRESS in cart. coord.  units (eV):
  Direction    XX          YY          ZZ          XY          YZ          ZX
  --------------------------------------------------------------------------------------
  Alpha Z    75.25432    75.25432    75.25432
  Ewald   46056.07068 48313.73749 44579.77047 -1721.76757  -348.95645   171.35551
  Hartree 60877.63757 62951.01676 59485.99841 -1574.90280  -299.73423   175.57191
  E(xc)   -2905.24480 -2903.58331 -2905.60430    -0.82228    -0.53848    -0.29693
  Local  ************************************  3280.27840   641.42039  -346.81756
  n-local  -885.66394  -888.26337  -883.05278     3.10747     0.95256    -0.55337
  augment  4105.47279  4100.33169  4105.28555     1.25421     1.63089     1.02974
  Kinetic  7811.06171  7790.37338  7815.31405    10.73073     5.89363     1.07354
  Fock        0.00000     0.00000     0.00000     0.00000     0.00000     0.00000
  -------------------------------------------------------------------------------------
  Total    -112.52407  -112.96514  -114.36930    -2.12186     0.66831     1.36285
  in kB      -6.67717    -6.70334    -6.78666    -0.12591     0.03966     0.08087
  external pressure =       -6.72 kB  Pullay stress =        0.00 kB


 VOLUME and BASIS-vectors are now :
 -----------------------------------------------------------------------------
  energy-cutoff  :      400.00
  volume of cell :    27000.00
      direct lattice vectors                 reciprocal lattice vectors
    30.000000000  0.000000000  0.000000000     0.033333333  0.000000000  0.000000000
     0.000000000 30.000000000  0.000000000     0.000000000  0.033333333  0.000000000
     0.000000000  0.000000000 30.000000000     0.000000000  0.000000000  0.033333333

  length of vectors
    30.000000000 30.000000000 30.000000000     0.033333333  0.033333333  0.033333333


 FORCES acting on ions
    electron-ion (+dipol)            ewald-force                    non-local-force                 convergence-correction
 -----------------------------------------------------------------------------------------------
   0.392E+03 0.977E+03 0.417E+03   -.389E+03 -.974E+03 -.417E+03   -.151E+01 -.182E+01 -.243E+00   0.235E-02 -.310E-02 -.289E-02
   -.980E+03 -.388E+03 0.418E+03   0.977E+03 0.386E+03 -.417E+03   0.179E+01 0.152E+01 -.234E+00   -.250E-02 0.932E-03 0.477E-03
   -.397E+03 0.975E+03 0.417E+03   0.395E+03 -.972E+03 -.416E+03   0.152E+01 -.183E+01 -.210E+00   0.483E-02 0.463E-03 -.182E-02
   0.986E+03 -.342E+03 0.436E+03   -.983E+03 0.340E+03 -.436E+03   -.182E+01 0.158E+01 -.198E+00   0.176E-02 0.474E-02 -.165E-02
   -.359E+01 0.593E+03 0.967E+03   0.361E+01 -.592E+03 -.964E+03   -.197E-01 -.303E+00 -.236E+01   0.431E-02 -.102E-02 -.208E-02
   -.300E+01 0.592E+03 -.968E+03   0.302E+01 -.591E+03 0.964E+03   -.127E-01 -.310E+00 0.236E+01   0.167E-02 0.262E-02 0.124E-02
   -.228E+01 0.114E+04 -.464E+00   0.226E+01 -.113E+04 0.455E+00   0.891E-02 -.312E+01 0.487E-02   0.234E-02 -.125E-02 0.241E-02
   0.114E+04 0.267E+02 -.337E+01   -.114E+04 -.267E+02 0.337E+01   -.313E+01 -.289E-02 -.151E-02   -.231E-02 0.230E-02 0.196E-03
   -.114E+04 0.407E+01 -.547E+00   0.113E+04 -.407E+01 0.540E+00   0.311E+01 -.398E-02 0.442E-02   -.222E-02 0.231E-03 0.970E-03
   -.849E+02 -.115E+04 -.166E+02   0.850E+02 0.114E+04 0.166E+02   -.752E-01 0.305E+01 -.168E-01   0.538E-03 -.370E-02 -.275E-02
   -.582E+03 0.582E+03 0.814E+03   0.579E+03 -.580E+03 -.811E+03   0.156E+01 -.157E+01 -.220E+01   0.240E-02 0.318E-03 0.943E-03
   -.581E+03 0.582E+03 -.814E+03   0.579E+03 -.579E+03 0.811E+03   0.156E+01 -.157E+01 0.220E+01   -.433E-02 0.298E-02 0.478E-03
   0.572E+03 -.545E+03 0.861E+03   -.569E+03 0.542E+03 -.857E+03   -.158E+01 0.159E+01 -.217E+01   0.203E-02 0.399E-02 0.503E-04
   0.575E+03 -.562E+03 -.844E+03   -.572E+03 0.559E+03 0.841E+03   -.157E+01 0.158E+01 0.221E+01   0.619E-02 0.120E-02 -.927E-03
   0.577E+03 0.587E+03 0.816E+03   -.575E+03 -.585E+03 -.813E+03   -.155E+01 -.157E+01 -.219E+01   -.103E-02 -.733E-03 -.394E-02
   0.577E+03 0.585E+03 -.817E+03   -.575E+03 -.583E+03 0.814E+03   -.156E+01 -.156E+01 0.220E+01   0.584E-02 -.145E-02 0.299E-02
   -.592E+03 -.572E+03 0.820E+03   0.589E+03 0.570E+03 -.816E+03   0.160E+01 0.150E+01 -.220E+01   -.225E-02 0.337E-02 0.170E-02
   -.588E+03 -.573E+03 -.820E+03   0.586E+03 0.571E+03 0.817E+03   0.157E+01 0.153E+01 0.220E+01   -.373E-02 -.382E-02 -.168E-02
   0.392E+03 0.976E+03 -.418E+03   -.390E+03 -.973E+03 0.418E+03   -.151E+01 -.183E+01 0.234E+00   0.358E-02 0.704E-03 0.822E-02
   -.979E+03 -.389E+03 -.419E+03   0.976E+03 0.387E+03 0.419E+03   0.180E+01 0.152E+01 0.231E+00   -.546E-02 0.174E-02 0.275E-02
   -.328E+03 0.331E+03 0.455E+03   0.329E+03 -.331E+03 -.456E+03   -.377E+00 0.378E+00 0.507E+00   0.479E-02 0.167E-02 0.124E-02
   0.974E+03 0.413E+03 0.420E+03   -.971E+03 -.411E+03 -.420E+03   -.182E+01 -.154E+01 -.211E+00   -.293E-02 0.168E-02 -.279E-02
   -.432E+03 -.964E+03 0.428E+03   0.430E+03 0.961E+03 -.428E+03   0.149E+01 0.190E+01 -.167E+00   -.243E-02 0.764E-03 0.309E-02
   -.397E+03 0.975E+03 -.418E+03   0.395E+03 -.972E+03 0.417E+03   0.153E+01 -.183E+01 0.204E+00   -.945E-04 0.334E-02 0.565E-02
   0.981E+03 -.360E+03 -.441E+03   -.978E+03 0.357E+03 0.440E+03   -.193E+01 0.153E+01 0.289E+00   0.406E-02 0.471E-02 0.148E-02
   -.976E+03 0.399E+03 0.417E+03   0.973E+03 -.396E+03 -.416E+03   0.182E+01 -.150E+01 -.226E+00   -.630E-03 -.192E-02 -.120E-02
   0.273E+03 -.926E+03 0.515E+03   -.271E+03 0.924E+03 -.514E+03   -.974E+00 0.134E+01 -.385E+00   0.428E-02 0.548E-03 0.183E-02
   0.315E+03 0.338E+03 0.457E+03   -.316E+03 -.339E+03 -.457E+03   0.373E+00 0.339E+00 0.513E+00   0.387E-02 0.447E-02 -.327E-03
   -.462E+01 0.648E+03 -.915E+00   0.458E+01 -.648E+03 0.910E+00   0.183E-01 0.722E+00 -.240E-03   0.606E-02 0.335E-02 0.499E-02
   -.594E+03 0.670E+01 0.968E+03   0.593E+03 -.675E+01 -.964E+03   0.295E+00 0.368E-01 -.234E+01   0.128E-02 -.700E-03 0.485E-03
   -.592E+03 0.544E+01 -.968E+03   0.591E+03 -.548E+01 0.965E+03   0.311E+00 0.278E-01 0.235E+01   -.458E-02 0.246E-02 -.115E-02
   0.584E+03 0.210E+02 0.978E+03   -.584E+03 -.210E+02 -.974E+03   -.322E+00 0.148E-01 -.236E+01   -.334E-03 0.459E-02 -.286E-02
   0.585E+03 0.143E+02 -.977E+03   -.584E+03 -.143E+02 0.973E+03   -.311E+00 -.216E-02 0.236E+01   0.677E-02 0.282E-02 0.103E-02
   0.759E+03 0.772E+03 -.114E+01   -.757E+03 -.770E+03 0.114E+01   -.115E+01 -.111E+01 -.243E-02   0.584E-03 -.913E-03 0.328E-02
   -.780E+03 -.752E+03 -.213E+01   0.778E+03 0.750E+03 0.214E+01   0.120E+01 0.112E+01 -.960E-02   -.468E-02 0.116E-02 0.178E-02
   -.764E+03 0.765E+03 -.570E+00   0.762E+03 -.763E+03 0.549E+00   0.114E+01 -.117E+01 0.141E-01   0.118E-02 0.146E-02 0.571E-03
   0.742E+03 -.549E+03 -.656E+02   -.740E+03 0.553E+03 0.640E+02   -.424E+00 -.314E+01 0.115E+01   0.641E-02 0.358E-02 0.132E-02
   -.898E+01 0.138E+02 0.108E+04   0.894E+01 -.138E+02 -.107E+04   0.356E-01 -.199E-01 -.163E+01   0.216E-02 0.345E-02 -.497E-03
   -.655E+01 0.101E+02 -.108E+04   0.655E+01 -.101E+02 0.107E+04   -.170E-02 0.658E-02 0.160E+01   0.407E-02 0.230E-02 -.258E-02
   0.973E+03 0.410E+03 -.423E+03   -.970E+03 -.408E+03 0.422E+03   -.182E+01 -.152E+01 0.224E+00   0.372E-03 0.779E-03 0.388E-02
   -.422E+03 -.966E+03 -.433E+03   0.420E+03 0.963E+03 0.432E+03   0.148E+01 0.186E+01 0.204E+00   -.275E-02 -.519E-02 -.145E-02
   -.327E+03 0.330E+03 -.456E+03   0.328E+03 -.330E+03 0.457E+03   -.363E+00 0.366E+00 -.523E+00   -.157E-02 0.523E-02 0.535E-02
   0.298E+03 -.274E+03 0.471E+03   -.298E+03 0.274E+03 -.472E+03   0.301E+00 -.196E+00 0.583E+00   0.368E-02 0.784E-02 0.256E-02
   0.316E+03 0.336E+03 -.459E+03   -.317E+03 -.336E+03 0.460E+03   0.363E+00 0.357E+00 -.511E+00   0.886E-02 0.438E-02 0.676E-02
   -.975E+03 0.398E+03 -.418E+03   0.972E+03 -.396E+03 0.417E+03   0.182E+01 -.151E+01 0.219E+00   -.374E-02 0.229E-02 0.293E-02
   0.346E+03 -.952E+03 -.486E+03   -.344E+03 0.949E+03 0.485E+03   -.156E+01 0.175E+01 0.485E-01   0.309E-02 -.392E-02 -.673E-03
   -.340E+03 -.305E+03 0.459E+03   0.341E+03 0.306E+03 -.459E+03   -.308E+00 -.424E+00 0.514E+00   -.135E-02 0.541E-02 0.449E-02
   0.636E+03 0.372E+02 -.459E+01   -.637E+03 -.370E+02 0.464E+01   0.735E+00 -.225E+00 -.374E-01   0.566E-02 0.740E-02 0.340E-02
   -.648E+03 0.889E+01 -.115E+01   0.649E+03 -.892E+01 0.115E+01   -.732E+00 0.303E-01 0.125E-02   -.429E-02 0.280E-02 0.388E-02
   -.230E+02 -.570E+03 0.988E+03   0.231E+02 0.570E+03 -.984E+03   -.335E-01 0.281E+00 -.244E+01   -.723E-04 0.472E-02 0.356E-02
   -.140E+02 -.576E+03 -.984E+03   0.140E+02 0.576E+03 0.980E+03   0.265E-03 0.275E+00 0.238E+01   0.521E-03 -.399E-02 -.209E-02
   -.142E+02 0.220E+02 -.279E+01   0.142E+02 -.220E+02 0.278E+01   0.169E-01 -.179E-01 -.881E-04   0.406E-02 0.801E-02 0.693E-02
   0.305E+03 -.289E+03 -.476E+03   -.306E+03 0.289E+03 0.477E+03   0.432E+00 -.352E+00 -.460E+00   0.897E-02 0.359E-02 0.146E-02
   -.337E+03 -.308E+03 -.462E+03   0.337E+03 0.308E+03 0.462E+03   -.328E+00 -.397E+00 -.499E+00   -.349E-02 -.800E-04 0.193E-02
   -.539E+02 -.602E+03 -.105E+02   0.543E+02 0.603E+03 0.106E+02   -.289E+00 -.578E+00 -.596E-01   0.153E-02 0.858E-03 0.178E-02
   0.160E+03 -.230E+03 0.144E+02   -.148E+03 0.209E+03 -.121E+02   -.927E+01 0.146E+02 -.208E+01   0.185E-02 0.290E-03 -.260E-03
   0.482E+03 -.687E+03 0.694E+02   -.517E+03 0.742E+03 -.763E+02   0.324E+02 -.506E+02 0.655E+01   0.201E-02 -.372E-03 -.152E-03
 -----------------------------------------------------------------------------------------------
   -.240E+02 0.407E+02 -.547E+01   0.455E-12 0.159E-11 0.000E+00   0.239E+02 -.408E+02 0.540E+01   0.672E-01 0.894E-01 0.643E-01
 
 
 POSITION                                       TOTAL-FORCE (eV/Angst)
 -----------------------------------------------------------------------------------
     13.37281      9.84801     12.50759         0.702621      1.103718      0.298570
     20.15199     16.62719     12.50759        -1.106788     -0.706914      0.300189
     16.62719      9.84801     12.50759        -0.705757      1.105259      0.284265
      9.84801     16.62719     12.50759         1.093366     -0.764149      0.277439
     15.00000     11.47521     10.20639         0.004283      0.414768      1.278365
     15.00000     11.47521     19.79360         0.004655      0.413647     -1.276460
     15.00000      8.28283     15.00000        -0.007680      1.513370     -0.002297
      8.28283     15.00000     15.00000         1.512751     -0.000306     -0.001173
     21.71717     15.00000     15.00000        -1.514515      0.001824     -0.001512
     15.00000     21.71717     15.00000         0.031924     -1.473357      0.008324
     18.35858     11.64142     10.25025        -0.754901      0.759034      1.067993
     18.35858     11.64142     19.74975        -0.755691      0.760152     -1.065959
     11.64142     18.35858     10.25025         0.751700     -0.755992      1.036104
     11.64142     18.35858     19.74975         0.756563     -0.755905     -1.064377
     11.64142     11.64142     10.25025         0.750864      0.761038      1.061731
     11.64142     11.64142     19.74975         0.752326      0.757198     -1.066481
     18.35858     18.35858     10.25025        -0.768065     -0.726711      1.072309
     18.35858     18.35858     19.74975        -0.756257     -0.738225     -1.070305
     13.37281      9.84801     17.49241         0.701256      1.103804     -0.295976
     20.15199     16.62719     17.49241        -1.106913     -0.704196     -0.297788
     16.73751     13.26249     12.54279         0.108857     -0.112486     -0.159281
      9.84801     13.37281     12.50759         1.104003      0.710844      0.293967
     16.62719     20.15199     12.50759        -0.645238     -1.117890      0.267559
     16.62719      9.84801     17.49241        -0.709457      1.103193     -0.281004
      9.84801     16.62719     17.49241         1.117309     -0.728756     -0.292980
     20.15199     13.37281     12.50759        -1.105686      0.703542      0.291325
     13.37281     20.15199     12.50759         0.163870     -1.049350      0.854778
     13.26249     13.26249     12.54279        -0.106812     -0.112157     -0.146878
     15.00000     11.52498     15.00000        -0.009365     -0.225869     -0.000799
     18.52479     15.00000     10.20639        -0.415032     -0.012767      1.282412
     18.52479     15.00000     19.79360        -0.414259     -0.010786     -1.278278
     11.47521     15.00000     10.20640         0.418553     -0.007847      1.275748
     11.47521     15.00000     19.79360         0.417785      0.005350     -1.276166
     11.49535     11.49535     15.00000         0.831462      0.801603      0.003735
     18.50465     18.50465     15.00000        -0.840509     -0.828114      0.002431
     18.50465     11.49535     15.00000        -0.823929      0.841921     -0.006602
     11.49535     18.50465     15.00000         0.761557      0.969787     -0.513536
     15.00000     15.00000     10.04368        -0.006509     -0.000582      1.179962
     15.00000     15.00000     19.95633         0.005371     -0.011742     -1.168649
      9.84801     13.37281     17.49241         1.104192      0.703372     -0.300556
     16.62719     20.15199     17.49241        -0.682526     -1.115224     -0.281804
     16.73751     13.26249     17.45721         0.106745     -0.106863      0.160592
     13.26249     16.73751     12.54279        -0.091052      0.054331     -0.222449
     13.26249     13.26249     17.45721        -0.106081     -0.105676      0.145072
     20.15199     13.37281     17.49241        -1.103791      0.705779     -0.290089
     13.37281     20.15199     17.49241         0.727507     -1.127163     -0.243298
     16.73751     16.73751     12.54279         0.109431      0.110116     -0.151695
     11.52498     15.00000     15.00000        -0.232391      0.021547      0.013356
     18.47502     15.00000     15.00000         0.229371      0.003793      0.002032
     15.00000     18.52480     10.20639         0.025277     -0.417696      1.257384
     15.00000     18.52480     19.79360        -0.004173     -0.406700     -1.284547
     15.00000     15.00000     15.00000         0.001919      0.002628      0.000278
     13.26249     16.73751     17.45721        -0.108408      0.078606      0.195813
     16.73751     16.73751     17.45721         0.108989      0.106863      0.150929
     15.00000     18.47502     15.00000         0.103931      0.212046      0.020403
     11.49510     20.51216     14.31570         2.802761     -5.713712      0.282665
     10.89315     21.45886     14.19818        -2.429413      4.008005     -0.324791
 -----------------------------------------------------------------------------------
    total drift:                                0.008813      0.003545     -0.006903


--------------------------------------------------------------------------------------------------------



  FREE ENERGIE OF THE ION-ELECTRON SYSTEM (eV)
  ---------------------------------------------------
  free  energy   TOTEN  =      -174.99782094 eV

  energy  without entropy=     -174.95662776  energy(sigma->0) =     -174.98752264
 


--------------------------------------------------------------------------------------------------------


    POTLOK:  cpu time   13.3134: real time   13.3147


--------------------------------------------------------------------------------------------------------


     LOOP+:  cpu time17898.0150: real time17898.6738
    4ORBIT:  cpu time    0.0000: real time    0.0000

 total amount of memory used by VASP MPI-rank0  5486939. kBytes
=======================================================================

   base      :      30000. kBytes
   nonlr-proj:      17124. kBytes
   fftplans  :     924480. kBytes
   grid      :    1872000. kBytes
   one-center:        886. kBytes
   wavefun   :    2642449. kBytes
 
  
  
 General timing and accounting informations for this job:
 ========================================================
  
                  Total CPU time used (sec):    17972.236
                            User time (sec):    16978.430
                          System time (sec):      993.806
                         Elapsed time (sec):    17972.942
  
                   Maximum memory used (kb):     7178892.
                   Average memory used (kb):           0.
  
                          Minor page faults:    799778649
                          Major page faults:            0
                 Voluntary context switches:          455
