<?xml version="1.0" encoding="ISO-8859-1"?>
<modeling>
 <generator>
  <i name="program" type="string">vasp </i>
  <i name="version" type="string">5.4.4.18Apr17-6-g9f103f2a35  </i>
  <i name="subversion" type="string">(build Sep 03 2018 23:53:05) complex            parallel </i>
  <i name="platform" type="string">LinuxIFC </i>
  <i name="date" type="string">2021 11 28 </i>
  <i name="time" type="string">00:56:51 </i>
 </generator>
 <incar>
  <i type="string" name="SYSTEM"> 6_Pd100_top_free_z(O)</i>
  <i type="int" name="ISTART">     0</i>
  <i type="string" name="PREC">normal   			! encut=max(enmax), ngx,y,z</i>
  <i type="string" name="ALGO"> Fast     			! Mix RMM-DIIS and Dav</i>
  <i type="logical" name="ADDGRID"> F  </i>
  <i type="int" name="ISPIN">     1</i>
  <i type="int" name="ICHARG">     2</i>
  <i type="int" name="NELM">   100</i>
  <i type="int" name="NELMIN">     6</i>
  <i type="int" name="IBRION">     2</i>
  <i name="EDIFF">      0.00010000</i>
  <i name="EDIFFG">     -0.05000000</i>
  <i type="int" name="NSW">     0</i>
  <i type="int" name="ISIF">     2</i>
  <i type="int" name="ISYM">     2</i>
  <i name="ENCUT">    400.00000000</i>
  <i type="string" name="LREAL"> Auto     			! Auto or A projection done</i>
  <i type="int" name="ISMEAR">     2</i>
  <i name="SIGMA">      0.20000000</i>
  <i type="logical" name="LWAVE"> F  </i>
  <i type="logical" name="LCHARG"> F  </i>
  <v type="int" name="KPOINT_BSE">    -1     0     0     0</v>
  <i type="int" name="MAXMEM"> 10000</i>
  <i type="int" name="NELM">   100</i>
  <i type="string" name="GGA"> RP         			! Revised PBE</i>
 </incar>
 <structure name="primitive_cell" >
  <crystal>
   <varray name="basis" >
    <v>      30.00000000       0.00000000       0.00000000 </v>
    <v>       0.00000000      30.00000000       0.00000000 </v>
    <v>       0.00000000       0.00000000      30.00000000 </v>
   </varray>
   <i name="volume">  27000.00000000 </i>
   <varray name="rec_basis" >
    <v>       0.03333333       0.00000000       0.00000000 </v>
    <v>       0.00000000       0.03333333       0.00000000 </v>
    <v>       0.00000000       0.00000000       0.03333333 </v>
   </varray>
  </crystal>
  <varray name="positions" >
   <v>       0.44576020       0.32826710       0.41691983 </v>
   <v>      -0.44576020       0.32826710       0.41691983 </v>
   <v>      -0.50000000       0.38250690       0.34021317 </v>
   <v>      -0.50000000       0.27609440      -0.50000000 </v>
   <v>       0.38804720       0.38804720       0.34167483 </v>
   <v>      -0.50000000       0.38416601      -0.50000000 </v>
   <v>       0.44208300       0.44208300       0.41809300 </v>
   <v>       0.38317830       0.38317830      -0.50000000 </v>
   <v>      -0.44208300       0.44208300       0.41809300 </v>
   <v>       0.44576020       0.32826710      -0.41691977 </v>
   <v>       0.32826705       0.44576024       0.41691983 </v>
   <v>      -0.38804720       0.38804720       0.34167483 </v>
   <v>      -0.38317830       0.38317830      -0.50000000 </v>
   <v>      -0.50000000      -0.50000000       0.33478917 </v>
   <v>      -0.50000000      -0.50000000      -0.50000000 </v>
   <v>      -0.44576020       0.32826710      -0.41691977 </v>
   <v>       0.38250685      -0.49999995       0.34021317 </v>
   <v>       0.44208300       0.44208300      -0.41809297 </v>
   <v>       0.38416599      -0.49999998      -0.50000000 </v>
   <v>      -0.44208300       0.44208300      -0.41809297 </v>
   <v>       0.44208298      -0.44208298       0.41809300 </v>
   <v>       0.32826705       0.44576024      -0.41691977 </v>
   <v>      -0.50000000       0.38250690      -0.34021320 </v>
   <v>       0.32826712      -0.44576022       0.41691983 </v>
   <v>      -0.38250685      -0.49999995       0.34021317 </v>
   <v>      -0.32826705       0.44576024       0.41691983 </v>
   <v>       0.27609443       0.49999998      -0.50000000 </v>
   <v>       0.38804720       0.38804720      -0.34167487 </v>
   <v>      -0.38416599      -0.49999998      -0.50000000 </v>
   <v>      -0.44208298      -0.44208298       0.41809300 </v>
   <v>       0.48840843      -0.47455327       0.24124783 </v>
   <v>       0.44208298      -0.44208298      -0.41809297 </v>
   <v>       0.48673380      -0.47087693       0.20386550 </v>
   <v>      -0.38804720       0.38804720      -0.34167487 </v>
   <v>       0.38804722      -0.38804722       0.34167483 </v>
   <v>       0.38250685      -0.49999995      -0.34021320 </v>
   <v>       0.32826712      -0.44576022      -0.41691977 </v>
   <v>      -0.32826705       0.44576024      -0.41691977 </v>
   <v>       0.50000000      -0.38250681       0.34021317 </v>
   <v>      -0.50000000      -0.38416596      -0.50000000 </v>
   <v>      -0.44208298      -0.44208298      -0.41809297 </v>
   <v>      -0.50000000      -0.50000000      -0.33478913 </v>
   <v>       0.38317828      -0.38317828      -0.50000000 </v>
   <v>      -0.32826712      -0.44576022       0.41691983 </v>
   <v>      -0.27609443       0.49999998      -0.50000000 </v>
   <v>      -0.38804722      -0.38804722       0.34167483 </v>
   <v>      -0.38250685      -0.49999995      -0.34021320 </v>
   <v>       0.44576027      -0.32826707       0.41691983 </v>
   <v>      -0.38317828      -0.38317828      -0.50000000 </v>
   <v>      -0.32826712      -0.44576022      -0.41691977 </v>
   <v>      -0.44576027      -0.32826707       0.41691983 </v>
   <v>       0.38804722      -0.38804722      -0.34167487 </v>
   <v>      -0.50000000      -0.38250681      -0.34021320 </v>
   <v>       0.44576027      -0.32826707      -0.41691977 </v>
   <v>      -0.44576027      -0.32826707      -0.41691977 </v>
   <v>      -0.50000000      -0.27609445       0.50000000 </v>
   <v>      -0.38804722      -0.38804722      -0.34167487 </v>
  </varray>
 </structure>
 <varray name="primitive_index" >
  <v type="int" >        1 </v>
  <v type="int" >        3 </v>
  <v type="int" >        5 </v>
  <v type="int" >        7 </v>
  <v type="int" >       15 </v>
  <v type="int" >       29 </v>
  <v type="int" >       28 </v>
  <v type="int" >       34 </v>
  <v type="int" >       21 </v>
  <v type="int" >       19 </v>
  <v type="int" >       22 </v>
  <v type="int" >       11 </v>
  <v type="int" >       36 </v>
  <v type="int" >       38 </v>
  <v type="int" >       52 </v>
  <v type="int" >       24 </v>
  <v type="int" >       32 </v>
  <v type="int" >       44 </v>
  <v type="int" >       48 </v>
  <v type="int" >       42 </v>
  <v type="int" >       43 </v>
  <v type="int" >       40 </v>
  <v type="int" >        6 </v>
  <v type="int" >        4 </v>
  <v type="int" >       30 </v>
  <v type="int" >       26 </v>
  <v type="int" >        8 </v>
  <v type="int" >       16 </v>
  <v type="int" >       49 </v>
  <v type="int" >       47 </v>
  <v type="int" >       56 </v>
  <v type="int" >       53 </v>
  <v type="int" >       57 </v>
  <v type="int" >       12 </v>
  <v type="int" >       13 </v>
  <v type="int" >       33 </v>
  <v type="int" >       25 </v>
  <v type="int" >       45 </v>
  <v type="int" >       50 </v>
  <v type="int" >       55 </v>
  <v type="int" >       54 </v>
  <v type="int" >       39 </v>
  <v type="int" >       37 </v>
  <v type="int" >        2 </v>
  <v type="int" >        9 </v>
  <v type="int" >       17 </v>
  <v type="int" >       31 </v>
  <v type="int" >       27 </v>
  <v type="int" >       35 </v>
  <v type="int" >       20 </v>
  <v type="int" >       23 </v>
  <v type="int" >       14 </v>
  <v type="int" >       51 </v>
  <v type="int" >       46 </v>
  <v type="int" >       41 </v>
  <v type="int" >       10 </v>
  <v type="int" >       18 </v>
 </varray>
 <kpoints>
  <generation param="Monkhorst-Pack">
   <v type="int" name="divisions">       1        1        1 </v>
   <v name="usershift">      0.00000000       0.00000000       0.00000000 </v>
   <v name="genvec1">      1.00000000       0.00000000       0.00000000 </v>
   <v name="genvec2">      0.00000000       1.00000000       0.00000000 </v>
   <v name="genvec3">      0.00000000       0.00000000       1.00000000 </v>
   <v name="shift">      0.00000000       0.00000000       0.00000000 </v>
  </generation>
  <varray name="kpointlist" >
   <v>       0.00000000       0.00000000       0.00000000 </v>
  </varray>
  <varray name="weights" >
   <v>       1.00000000 </v>
  </varray>
 </kpoints>
 <parameters>
  <separator name="general" >
   <i type="string" name="SYSTEM">6_Pd100_top_free_z(O)</i>
   <i type="logical" name="LCOMPAT"> F  </i>
  </separator>
  <separator name="electronic" >
   <i type="string" name="PREC">normal</i>
   <i name="ENMAX">    400.00000000</i>
   <i name="ENAUG">    644.87300000</i>
   <i name="EDIFF">      0.00010000</i>
   <i type="int" name="IALGO">    68</i>
   <i type="int" name="IWAVPR">    10</i>
   <i type="int" name="NBANDS">   336</i>
   <i name="NELECT">    560.00000000</i>
   <i type="int" name="TURBO">     0</i>
   <i type="int" name="IRESTART">     0</i>
   <i type="int" name="NREBOOT">     0</i>
   <i type="int" name="NMIN">     0</i>
   <i name="EREF">      0.00000000</i>
   <separator name="electronic smearing" >
    <i type="int" name="ISMEAR">     2</i>
    <i name="SIGMA">      0.20000000</i>
    <i name="KSPACING">      0.50000000</i>
    <i type="logical" name="KGAMMA"> T  </i>
   </separator>
   <separator name="electronic projectors" >
    <i type="logical" name="LREAL"> T  </i>
    <v name="ROPT">     -0.00050000     -0.00050000     -0.00050000</v>
    <i type="int" name="LMAXPAW">  -100</i>
    <i type="int" name="LMAXMIX">     2</i>
    <i type="logical" name="NLSPLINE"> F  </i>
   </separator>
   <separator name="electronic startup" >
    <i type="int" name="ISTART">     0</i>
    <i type="int" name="ICHARG">     2</i>
    <i type="int" name="INIWAV">     1</i>
   </separator>
   <separator name="electronic spin" >
    <i type="int" name="ISPIN">     1</i>
    <i type="logical" name="LNONCOLLINEAR"> F  </i>
    <v name="MAGMOM">      1.00000000      1.00000000      1.00000000      1.00000000      1.00000000      1.00000000      1.00000000      1.00000000      1.00000000      1.00000000      1.00000000      1.00000000      1.00000000      1.00000000      1.00000000      1.00000000      1.00000000      1.00000000      1.00000000      1.00000000
      1.00000000      1.00000000      1.00000000      1.00000000      1.00000000      1.00000000      1.00000000      1.00000000      1.00000000      1.00000000      1.00000000      1.00000000      1.00000000      1.00000000      1.00000000      1.00000000      1.00000000      1.00000000      1.00000000      1.00000000
      1.00000000      1.00000000      1.00000000      1.00000000      1.00000000      1.00000000      1.00000000      1.00000000      1.00000000      1.00000000      1.00000000      1.00000000      1.00000000      1.00000000      1.00000000      1.00000000      1.00000000</v>
    <i name="NUPDOWN">     -1.00000000</i>
    <i type="logical" name="LSORBIT"> F  </i>
    <v name="SAXIS">      0.00000000      0.00000000      1.00000000</v>
    <i type="logical" name="LSPIRAL"> F  </i>
    <v name="QSPIRAL">      0.00000000      0.00000000      0.00000000</v>
    <i type="logical" name="LZEROZ"> F  </i>
   </separator>
   <separator name="electronic exchange-correlation" >
    <i type="logical" name="LASPH"> F  </i>
    <i type="logical" name="LMETAGGA"> F  </i>
   </separator>
   <separator name="electronic convergence" >
    <i type="int" name="NELM">   100</i>
    <i type="int" name="NELMDL">    -5</i>
    <i type="int" name="NELMIN">     6</i>
    <i name="ENINI">    400.00000000</i>
    <separator name="electronic convergence detail" >
     <i type="logical" name="LDIAG"> T  </i>
     <i type="logical" name="LSUBROT"> F  </i>
     <i name="WEIMIN">      0.00000000</i>
     <i name="EBREAK">      0.00000007</i>
     <i name="DEPER">      0.30000000</i>
     <i type="int" name="NRMM">     4</i>
     <i name="TIME">      0.40000000</i>
    </separator>
   </separator>
   <separator name="electronic mixer" >
    <i name="AMIX">      0.40000000</i>
    <i name="BMIX">      1.00000000</i>
    <i name="AMIN">      0.10000000</i>
    <i name="AMIX_MAG">      1.60000000</i>
    <i name="BMIX_MAG">      1.00000000</i>
    <separator name="electronic mixer details" >
     <i type="int" name="IMIX">     4</i>
     <i type="logical" name="MIXFIRST"> F  </i>
     <i type="int" name="MAXMIX">   -45</i>
     <i name="WC">    100.00000000</i>
     <i type="int" name="INIMIX">     1</i>
     <i type="int" name="MIXPRE">     1</i>
     <i type="int" name="MREMOVE">     5</i>
    </separator>
   </separator>
   <separator name="electronic dipolcorrection" >
    <i type="logical" name="LDIPOL"> F  </i>
    <i type="logical" name="LMONO"> F  </i>
    <i type="int" name="IDIPOL">     0</i>
    <i name="EPSILON">      1.00000000</i>
    <v name="DIPOL">   -100.00000000   -100.00000000   -100.00000000</v>
    <i name="EFIELD">      0.00000000</i>
   </separator>
  </separator>
  <separator name="grids" >
   <i type="int" name="NGX">   150</i>
   <i type="int" name="NGY">   150</i>
   <i type="int" name="NGZ">   150</i>
   <i type="int" name="NGXF">   300</i>
   <i type="int" name="NGYF">   300</i>
   <i type="int" name="NGZF">   300</i>
   <i type="logical" name="ADDGRID"> F  </i>
  </separator>
  <separator name="ionic" >
   <i type="int" name="NSW">     0</i>
   <i type="int" name="IBRION">    -1</i>
   <i type="int" name="MDALGO">     0</i>
   <i type="int" name="ISIF">     2</i>
   <i name="PSTRESS">      0.00000000</i>
   <i name="EDIFFG">     -0.05000000</i>
   <i type="int" name="NFREE">     1</i>
   <i name="POTIM">      0.50000000</i>
   <i name="SMASS">     -3.00000000</i>
   <i name="SCALEE">      1.00000000</i>
  </separator>
  <separator name="ionic md" >
   <i name="TEBEG">      0.00010000</i>
   <i name="TEEND">      0.00010000</i>
   <i type="int" name="NBLOCK">     1</i>
   <i type="int" name="KBLOCK">     1</i>
   <i type="int" name="NPACO">   256</i>
   <i name="APACO">     16.00000000</i>
  </separator>
  <separator name="symmetry" >
   <i type="int" name="ISYM">     2</i>
   <i name="SYMPREC">      0.00001000</i>
  </separator>
  <separator name="dos" >
   <i type="int" name="LORBIT">     0</i>
   <v name="RWIGS">     -1.00000000     -1.00000000     -1.00000000</v>
   <i type="int" name="NEDOS">   301</i>
   <i name="EMIN">     10.00000000</i>
   <i name="EMAX">    -10.00000000</i>
   <i name="EFERMI">      0.00000000</i>
  </separator>
  <separator name="writing" >
   <i type="int" name="NWRITE">     2</i>
   <i type="logical" name="LWAVE"> F  </i>
   <i type="logical" name="LDOWNSAMPLE"> F  </i>
   <i type="logical" name="LCHARG"> F  </i>
   <i type="logical" name="LPARD"> F  </i>
   <i type="logical" name="LVTOT"> F  </i>
   <i type="logical" name="LVHAR"> F  </i>
   <i type="logical" name="LELF"> F  </i>
   <i type="logical" name="LOPTICS"> F  </i>
   <v name="STM">      0.00000000      0.00000000      0.00000000      0.00000000      0.00000000      0.00000000      0.00000000</v>
  </separator>
  <separator name="performance" >
   <i type="int" name="NPAR">     1</i>
   <i type="int" name="NSIM">     4</i>
   <i type="int" name="NBLK">    -1</i>
   <i type="logical" name="LPLANE"> T  </i>
   <i type="logical" name="LSCALAPACK"> T  </i>
   <i type="logical" name="LSCAAWARE"> F  </i>
   <i type="logical" name="LSCALU"> F  </i>
   <i type="logical" name="LASYNC"> F  </i>
   <i type="logical" name="LORBITALREAL"> F  </i>
  </separator>
  <separator name="miscellaneous" >
   <i type="int" name="IDIOT">     3</i>
   <i type="int" name="ISPECIAL">     0</i>
   <i type="logical" name="LMUSIC"> F  </i>
   <v name="POMASS">    106.42000000     12.01100000     16.00000000</v>
   <v name="DARWINR">      0.00000000      0.00000000      0.00000000</v>
   <v name="DARWINV">      1.00000000      1.00000000      1.00000000</v>
   <i type="logical" name="LCORR"> T  </i>
  </separator>
  <i type="logical" name="GGA_COMPAT"> T  </i>
  <i type="logical" name="LBERRY"> F  </i>
  <i type="int" name="ICORELEVEL">     0</i>
  <i type="logical" name="LDAU"> F  </i>
  <i type="int" name="I_CONSTRAINED_M">     0</i>
  <separator name="electronic exchange-correlation" >
   <i type="string" name="GGA">RP</i>
   <i type="int" name="VOSKOWN">     0</i>
   <i type="logical" name="LHFCALC"> F  </i>
   <i type="string" name="PRECFOCK"></i>
   <i type="logical" name="LSYMGRAD"> F  </i>
   <i type="logical" name="LHFONE"> F  </i>
   <i type="logical" name="LRHFCALC"> F  </i>
   <i type="logical" name="LTHOMAS"> F  </i>
   <i type="logical" name="LMODELHF"> F  </i>
   <i name="ENCUT4O">     -1.00000000</i>
   <i type="int" name="EXXOEP">     0</i>
   <i type="int" name="FOURORBIT">     0</i>
   <i name="AEXX">      0.00000000</i>
   <i name="HFALPHA">      0.00000000</i>
   <i name="MCALPHA">      0.00000000</i>
   <i name="ALDAX">      1.00000000</i>
   <i name="AGGAX">      1.00000000</i>
   <i name="ALDAC">      1.00000000</i>
   <i name="AGGAC">      1.00000000</i>
   <i type="int" name="NKREDX">     1</i>
   <i type="int" name="NKREDY">     1</i>
   <i type="int" name="NKREDZ">     1</i>
   <i type="logical" name="SHIFTRED"> F  </i>
   <i type="logical" name="ODDONLY"> F  </i>
   <i type="logical" name="EVENONLY"> F  </i>
   <i type="int" name="LMAXFOCK">     0</i>
   <i type="int" name="NMAXFOCKAE">     0</i>
   <i type="logical" name="LFOCKAEDFT"> F  </i>
   <i name="HFSCREEN">      0.00000000</i>
   <i name="HFSCREENC">      0.00000000</i>
   <i type="int" name="NBANDSGWLOW">     0</i>
  </separator>
  <separator name="vdW DFT" >
   <i type="logical" name="LUSE_VDW"> F  </i>
   <i name="Zab_VDW">     -0.84910000</i>
   <i name="PARAM1">      0.12340000</i>
   <i name="PARAM2">      1.00000000</i>
   <i name="PARAM3">      0.00000000</i>
  </separator>
  <separator name="model GW" >
   <i type="int" name="MODEL_GW">     0</i>
   <i name="MODEL_EPS0">    284.21052632</i>
   <i name="MODEL_ALPHA">      1.00000000</i>
  </separator>
  <separator name="linear response parameters" >
   <i type="logical" name="LEPSILON"> F  </i>
   <i type="logical" name="LRPA"> F  </i>
   <i type="logical" name="LNABLA"> F  </i>
   <i type="logical" name="LVEL"> F  </i>
   <i type="int" name="KINTER">     0</i>
   <i name="CSHIFT">      0.10000000</i>
   <i name="OMEGAMAX">     -1.00000000</i>
   <i name="DEG_THRESHOLD">      0.00200000</i>
   <i name="RTIME">     -0.10000000</i>
   <i name="WPLASMAI">      0.00000000</i>
   <v name="DFIELD">      0.00000000      0.00000000      0.00000000</v>
   <v name="WPLASMA">      0.00000000      0.00000000      0.00000000      0.00000000      0.00000000      0.00000000      0.00000000      0.00000000      0.00000000</v>
  </separator>
  <separator name="orbital magnetization" >
   <i type="logical" name="NUCIND"> F  </i>
   <v name="MAGPOS">      0.00000000      0.00000000      0.00000000</v>
   <i type="logical" name="LNICSALL"> T  </i>
   <i type="logical" name="ORBITALMAG"> F  </i>
   <i type="logical" name="LMAGBLOCH"> F  </i>
   <i type="logical" name="LCHIMAG"> F  </i>
   <i type="logical" name="LGAUGE"> T  </i>
   <i type="int" name="MAGATOM">     0</i>
   <v name="MAGDIPOL">      0.00000000      0.00000000      0.00000000</v>
   <v name="AVECCONST">      0.00000000      0.00000000      0.00000000</v>
  </separator>
  <separator name="response functions" >
   <i type="logical" name="LADDER"> F  </i>
   <i type="logical" name="LRPAFORCE"> F  </i>
   <i type="logical" name="LFXC"> F  </i>
   <i type="logical" name="LHARTREE"> T  </i>
   <i type="int" name="IBSE">     0</i>
   <v type="int" name="KPOINT">    -1     0     0     0</v>
   <i type="logical" name="LTCTE"> F  </i>
   <i type="logical" name="LTETE"> F  </i>
   <i type="logical" name="LTRIPLET"> F  </i>
   <i type="logical" name="LFXCEPS"> F  </i>
   <i type="logical" name="LFXHEG"> F  </i>
   <i type="int" name="NATURALO">     2</i>
   <i type="logical" name="L2ORDER"> F  </i>
   <i type="logical" name="LMP2LT"> F  </i>
   <i type="logical" name="LUSEW"> F  </i>
   <i name="ENCUTGW">     -2.00000000</i>
   <i name="ENCUTGWSOFT">     -2.00000000</i>
   <i name="ENCUTLF">     -1.00000000</i>
   <i type="int" name="LMAXMP2">    -1</i>
   <i name="SCISSOR">      0.00000000</i>
   <i type="int" name="NOMEGA">     0</i>
   <i type="int" name="NOMEGAR">     0</i>
   <i type="int" name="NBANDSGW">    -1</i>
   <i type="int" name="NBANDSO">    -1</i>
   <i type="int" name="NBANDSV">    -1</i>
   <i type="int" name="NELM">   100</i>
   <i type="int" name="NELMHF">     1</i>
   <i type="int" name="DIM">     3</i>
   <i type="int" name="ANTIRES">     0</i>
   <i name="OMEGAMAX">    -30.00000000</i>
   <i name="OMEGAMIN">    -30.00000000</i>
   <i name="OMEGATL">   -200.00000000</i>
   <i type="int" name="OMEGAGRID">   140</i>
   <i name="CSHIFT">     -0.10000000</i>
   <i type="logical" name="SELFENERGY"> F  </i>
   <i type="logical" name="LSPECTRAL"> F  </i>
   <i type="logical" name="LSPECTRALGW"> F  </i>
   <i type="logical" name="LSINGLES"> F  </i>
   <i type="logical" name="LFERMIGW"> F  </i>
   <i type="logical" name="ODDONLYGW"> F  </i>
   <i type="logical" name="EVENONLYGW"> F  </i>
   <i type="int" name="NKREDLFX">     1</i>
   <i type="int" name="NKREDLFY">     1</i>
   <i type="int" name="NKREDLFZ">     1</i>
   <i type="int" name="MAXMEM"> 10000</i>
   <i type="int" name="TELESCOPE">     0</i>
   <i type="int" name="TAUPAR">     1</i>
   <i type="int" name="OMEGAPAR">    -1</i>
   <i name="LAMBDA">      1.00000000</i>
  </separator>
  <separator name="External order field" >
   <i name="OFIELD_KAPPA">      0.00000000</i>
   <v name="OFIELD_K">      0.00000000      0.00000000      0.00000000</v>
   <i name="OFIELD_Q6_NEAR">      0.00000000</i>
   <i name="OFIELD_Q6_FAR">      0.00000000</i>
   <i name="OFIELD_A">      0.00000000</i>
  </separator>
 </parameters>
 <atominfo>
  <atoms>      57 </atoms>
  <types>       3 </types>
  <array name="atoms" >
   <dimension dim="1">ion</dimension>
   <field type="string">element</field>
   <field type="int">atomtype</field>
   <set>
    <rc><c>Pd</c><c>   1</c></rc>
    <rc><c>Pd</c><c>   1</c></rc>
    <rc><c>Pd</c><c>   1</c></rc>
    <rc><c>Pd</c><c>   1</c></rc>
    <rc><c>Pd</c><c>   1</c></rc>
    <rc><c>Pd</c><c>   1</c></rc>
    <rc><c>Pd</c><c>   1</c></rc>
    <rc><c>Pd</c><c>   1</c></rc>
    <rc><c>Pd</c><c>   1</c></rc>
    <rc><c>Pd</c><c>   1</c></rc>
    <rc><c>Pd</c><c>   1</c></rc>
    <rc><c>Pd</c><c>   1</c></rc>
    <rc><c>Pd</c><c>   1</c></rc>
    <rc><c>Pd</c><c>   1</c></rc>
    <rc><c>Pd</c><c>   1</c></rc>
    <rc><c>Pd</c><c>   1</c></rc>
    <rc><c>Pd</c><c>   1</c></rc>
    <rc><c>Pd</c><c>   1</c></rc>
    <rc><c>Pd</c><c>   1</c></rc>
    <rc><c>Pd</c><c>   1</c></rc>
    <rc><c>Pd</c><c>   1</c></rc>
    <rc><c>Pd</c><c>   1</c></rc>
    <rc><c>Pd</c><c>   1</c></rc>
    <rc><c>Pd</c><c>   1</c></rc>
    <rc><c>Pd</c><c>   1</c></rc>
    <rc><c>Pd</c><c>   1</c></rc>
    <rc><c>Pd</c><c>   1</c></rc>
    <rc><c>Pd</c><c>   1</c></rc>
    <rc><c>Pd</c><c>   1</c></rc>
    <rc><c>Pd</c><c>   1</c></rc>
    <rc><c>Pd</c><c>   1</c></rc>
    <rc><c>Pd</c><c>   1</c></rc>
    <rc><c>Pd</c><c>   1</c></rc>
    <rc><c>Pd</c><c>   1</c></rc>
    <rc><c>Pd</c><c>   1</c></rc>
    <rc><c>Pd</c><c>   1</c></rc>
    <rc><c>Pd</c><c>   1</c></rc>
    <rc><c>Pd</c><c>   1</c></rc>
    <rc><c>Pd</c><c>   1</c></rc>
    <rc><c>Pd</c><c>   1</c></rc>
    <rc><c>Pd</c><c>   1</c></rc>
    <rc><c>Pd</c><c>   1</c></rc>
    <rc><c>Pd</c><c>   1</c></rc>
    <rc><c>Pd</c><c>   1</c></rc>
    <rc><c>Pd</c><c>   1</c></rc>
    <rc><c>Pd</c><c>   1</c></rc>
    <rc><c>Pd</c><c>   1</c></rc>
    <rc><c>Pd</c><c>   1</c></rc>
    <rc><c>Pd</c><c>   1</c></rc>
    <rc><c>Pd</c><c>   1</c></rc>
    <rc><c>Pd</c><c>   1</c></rc>
    <rc><c>Pd</c><c>   1</c></rc>
    <rc><c>Pd</c><c>   1</c></rc>
    <rc><c>Pd</c><c>   1</c></rc>
    <rc><c>Pd</c><c>   1</c></rc>
    <rc><c>C </c><c>   2</c></rc>
    <rc><c>O </c><c>   3</c></rc>
   </set>
  </array>
  <array name="atomtypes" >
   <dimension dim="1">type</dimension>
   <field type="int">atomspertype</field>
   <field type="string">element</field>
   <field>mass</field>
   <field>valence</field>
   <field type="string">pseudopotential</field>
   <set>
    <rc><c>  55</c><c>Pd</c><c>    106.42000000</c><c>     10.00000000</c><c>  PAW_PBE Pd 04Jan2005                  </c></rc>
    <rc><c>   1</c><c>C </c><c>     12.01100000</c><c>      4.00000000</c><c>  PAW_PBE C 08Apr2002                   </c></rc>
    <rc><c>   1</c><c>O </c><c>     16.00000000</c><c>      6.00000000</c><c>  PAW_PBE O 08Apr2002                   </c></rc>
   </set>
  </array>
 </atominfo>
 <structure name="initialpos" >
  <crystal>
   <varray name="basis" >
    <v>      30.00000000       0.00000000       0.00000000 </v>
    <v>       0.00000000      30.00000000       0.00000000 </v>
    <v>       0.00000000       0.00000000      30.00000000 </v>
   </varray>
   <i name="volume">  27000.00000000 </i>
   <varray name="rec_basis" >
    <v>       0.03333333       0.00000000       0.00000000 </v>
    <v>       0.00000000       0.03333333       0.00000000 </v>
    <v>       0.00000000       0.00000000       0.03333333 </v>
   </varray>
  </crystal>
  <varray name="positions" >
   <v>       0.44576020       0.32826710       0.41691983 </v>
   <v>       0.67173288       0.55423978       0.41691983 </v>
   <v>       0.55423980       0.32826710       0.41691983 </v>
   <v>       0.32826712       0.55423978       0.41691983 </v>
   <v>       0.50000000       0.38250690       0.34021317 </v>
   <v>       0.50000000       0.38250690       0.65978680 </v>
   <v>       0.50000000       0.27609440       0.50000000 </v>
   <v>       0.27609443       0.49999998       0.50000000 </v>
   <v>       0.72390557       0.49999998       0.50000000 </v>
   <v>       0.50000000       0.72390555       0.50000000 </v>
   <v>       0.61195280       0.38804720       0.34167483 </v>
   <v>       0.61195280       0.38804720       0.65832513 </v>
   <v>       0.38804722       0.61195278       0.34167483 </v>
   <v>       0.38804722       0.61195278       0.65832513 </v>
   <v>       0.38804720       0.38804720       0.34167483 </v>
   <v>       0.38804720       0.38804720       0.65832513 </v>
   <v>       0.61195278       0.61195278       0.34167483 </v>
   <v>       0.61195278       0.61195278       0.65832513 </v>
   <v>       0.44576020       0.32826710       0.58308023 </v>
   <v>       0.67173288       0.55423978       0.58308023 </v>
   <v>       0.55791699       0.44208301       0.41809300 </v>
   <v>       0.32826705       0.44576024       0.41691983 </v>
   <v>       0.55423973       0.67173293       0.41691983 </v>
   <v>       0.55423980       0.32826710       0.58308023 </v>
   <v>       0.32826712       0.55423978       0.58308023 </v>
   <v>       0.67173295       0.44576024       0.41691983 </v>
   <v>       0.44576027       0.67173293       0.41691983 </v>
   <v>       0.44208301       0.44208301       0.41809300 </v>
   <v>       0.50000000       0.38416601       0.50000000 </v>
   <v>       0.61749315       0.50000005       0.34021317 </v>
   <v>       0.61749315       0.50000005       0.65978680 </v>
   <v>       0.38250685       0.50000005       0.34021317 </v>
   <v>       0.38250685       0.50000005       0.65978680 </v>
   <v>       0.38317830       0.38317830       0.50000000 </v>
   <v>       0.61682172       0.61682172       0.50000000 </v>
   <v>       0.61682170       0.38317830       0.50000000 </v>
   <v>       0.38317828       0.61682172       0.50000000 </v>
   <v>       0.50000000       0.50000000       0.33478917 </v>
   <v>       0.50000000       0.50000000       0.66521087 </v>
   <v>       0.32826705       0.44576024       0.58308023 </v>
   <v>       0.55423973       0.67173293       0.58308023 </v>
   <v>       0.55791699       0.44208301       0.58190703 </v>
   <v>       0.44208298       0.55791702       0.41809300 </v>
   <v>       0.44208301       0.44208301       0.58190703 </v>
   <v>       0.67173295       0.44576024       0.58308023 </v>
   <v>       0.44576027       0.67173293       0.58308023 </v>
   <v>       0.55791702       0.55791702       0.41809300 </v>
   <v>       0.38416599       0.50000002       0.50000000 </v>
   <v>       0.61583401       0.50000002       0.50000000 </v>
   <v>       0.50000000       0.61749319       0.34021317 </v>
   <v>       0.50000000       0.61749319       0.65978680 </v>
   <v>       0.50000000       0.50000000       0.50000000 </v>
   <v>       0.44208298       0.55791702       0.58190703 </v>
   <v>       0.55791702       0.55791702       0.58190703 </v>
   <v>       0.50000000       0.61583404       0.50000000 </v>
   <v>       0.48840843       0.52544673       0.24124783 </v>
   <v>       0.48673380       0.52912307       0.20386550 </v>
  </varray>
  <varray name="selective"  type="logical" >
   <v type="logical" >  F  F  F </v>
   <v type="logical" >  F  F  F </v>
   <v type="logical" >  F  F  F </v>
   <v type="logical" >  F  F  F </v>
   <v type="logical" >  F  F  F </v>
   <v type="logical" >  F  F  F </v>
   <v type="logical" >  F  F  F </v>
   <v type="logical" >  F  F  F </v>
   <v type="logical" >  F  F  F </v>
   <v type="logical" >  F  F  F </v>
   <v type="logical" >  F  F  F </v>
   <v type="logical" >  F  F  F </v>
   <v type="logical" >  F  F  F </v>
   <v type="logical" >  F  F  F </v>
   <v type="logical" >  F  F  F </v>
   <v type="logical" >  F  F  F </v>
   <v type="logical" >  F  F  F </v>
   <v type="logical" >  F  F  F </v>
   <v type="logical" >  F  F  F </v>
   <v type="logical" >  F  F  F </v>
   <v type="logical" >  F  F  F </v>
   <v type="logical" >  F  F  F </v>
   <v type="logical" >  F  F  F </v>
   <v type="logical" >  F  F  F </v>
   <v type="logical" >  F  F  F </v>
   <v type="logical" >  F  F  F </v>
   <v type="logical" >  F  F  F </v>
   <v type="logical" >  F  F  F </v>
   <v type="logical" >  F  F  F </v>
   <v type="logical" >  F  F  F </v>
   <v type="logical" >  F  F  F </v>
   <v type="logical" >  F  F  F </v>
   <v type="logical" >  F  F  F </v>
   <v type="logical" >  F  F  F </v>
   <v type="logical" >  F  F  F </v>
   <v type="logical" >  F  F  F </v>
   <v type="logical" >  F  F  F </v>
   <v type="logical" >  F  F  F </v>
   <v type="logical" >  F  F  F </v>
   <v type="logical" >  F  F  F </v>
   <v type="logical" >  F  F  F </v>
   <v type="logical" >  F  F  F </v>
   <v type="logical" >  F  F  F </v>
   <v type="logical" >  F  F  F </v>
   <v type="logical" >  F  F  F </v>
   <v type="logical" >  F  F  F </v>
   <v type="logical" >  F  F  F </v>
   <v type="logical" >  F  F  F </v>
   <v type="logical" >  F  F  F </v>
   <v type="logical" >  F  F  F </v>
   <v type="logical" >  F  F  F </v>
   <v type="logical" >  F  F  F </v>
   <v type="logical" >  F  F  F </v>
   <v type="logical" >  F  F  F </v>
   <v type="logical" >  F  F  F </v>
   <v type="logical" >  F  F  F </v>
   <v type="logical" >  F  F  F </v>
  </varray>
  <nose>
   <v>      -3.00000000       0.00000000       0.00010000       0.00010000 </v>
  </nose>
 </structure>
 <calculation>
  <scstep>
   <time name="dav">  340.64  340.69</time>
   <time name="total">  354.18  354.23</time>
   <energy>
    <i name="alphaZ">     75.25431677 </i>
    <i name="ewald"> 137696.58792923 </i>
    <i name="hartreedc">-181065.16815876 </i>
    <i name="XCdc">  -1704.13496779 </i>
    <i name="pawpsdc">  44873.02882129 </i>
    <i name="pawaedc"> -41398.84523641 </i>
    <i name="eentropy">      0.03427062 </i>
    <i name="bandstr">    818.65033350 </i>
    <i name="atom">  45086.50549395 </i>
    <i name="e_fr_energy">   4381.91280240 </i>
    <i name="e_wo_entrp">   4381.87853179 </i>
    <i name="e_0_energy">   4381.90423475 </i>
   </energy>
  </scstep>
  <scstep>
   <time name="dav">  545.85  545.86</time>
   <time name="total">  545.85  545.86</time>
   <energy>
    <i name="e_fr_energy">   2013.39205532 </i>
    <i name="e_wo_entrp">   2013.43094420 </i>
    <i name="e_0_energy">   2013.40177754 </i>
   </energy>
  </scstep>
  <scstep>
   <time name="dav">  458.63  458.66</time>
   <time name="total">  458.63  458.67</time>
   <energy>
    <i name="e_fr_energy">    234.04502470 </i>
    <i name="e_wo_entrp">    234.05394598 </i>
    <i name="e_0_energy">    234.04725502 </i>
   </energy>
  </scstep>
  <scstep>
   <time name="dav">  399.67  399.69</time>
   <time name="total">  399.67  399.69</time>
   <energy>
    <i name="e_fr_energy">   -132.95218022 </i>
    <i name="e_wo_entrp">   -132.91280198 </i>
    <i name="e_0_energy">   -132.94233566 </i>
   </energy>
  </scstep>
  <scstep>
   <time name="dav">  489.86  489.86</time>
   <time name="total">  515.01  515.01</time>
   <energy>
    <i name="e_fr_energy">   -178.45922162 </i>
    <i name="e_wo_entrp">   -178.98394580 </i>
    <i name="e_0_energy">   -178.59040266 </i>
   </energy>
  </scstep>
  <scstep>
   <time name="diag">   66.18   66.18</time>
   <time name="diis">  178.91  178.91</time>
   <time name="orth">   13.12   13.12</time>
   <time name="total">  296.21  296.21</time>
   <energy>
    <i name="e_fr_energy">   -178.57406905 </i>
    <i name="e_wo_entrp">   -178.53793870 </i>
    <i name="e_0_energy">   -178.56503646 </i>
   </energy>
  </scstep>
  <scstep>
   <time name="diag">   66.05   66.05</time>
   <time name="diis">  215.70  215.70</time>
   <time name="orth">   13.07   13.07</time>
   <time name="total">  332.65  332.65</time>
   <energy>
    <i name="e_fr_energy">   -180.64383994 </i>
    <i name="e_wo_entrp">   -180.59723495 </i>
    <i name="e_0_energy">   -180.63218869 </i>
   </energy>
  </scstep>
  <scstep>
   <time name="diag">   66.00   66.00</time>
   <time name="diis">  190.85  190.85</time>
   <time name="orth">   13.24   13.24</time>
   <time name="total">  308.42  308.42</time>
   <energy>
    <i name="e_fr_energy">   -182.36054932 </i>
    <i name="e_wo_entrp">   -182.24312472 </i>
    <i name="e_0_energy">   -182.33119317 </i>
   </energy>
  </scstep>
  <scstep>
   <time name="diag">   66.26   66.26</time>
   <time name="diis">  183.35  183.35</time>
   <time name="orth">   13.14   13.14</time>
   <time name="total">  301.37  301.38</time>
   <energy>
    <i name="e_fr_energy">   -181.63011111 </i>
    <i name="e_wo_entrp">   -181.54382011 </i>
    <i name="e_0_energy">   -181.60853836 </i>
   </energy>
  </scstep>
  <scstep>
   <time name="diag">   66.82   66.83</time>
   <time name="diis">  181.99  181.99</time>
   <time name="orth">   12.90   12.90</time>
   <time name="total">  300.45  300.46</time>
   <energy>
    <i name="e_fr_energy">   -180.22242178 </i>
    <i name="e_wo_entrp">   -180.15195549 </i>
    <i name="e_0_energy">   -180.20480521 </i>
   </energy>
  </scstep>
  <scstep>
   <time name="diag">   66.97   66.97</time>
   <time name="diis">  185.37  185.37</time>
   <time name="orth">   13.17   13.17</time>
   <time name="total">  303.55  303.57</time>
   <energy>
    <i name="e_fr_energy">   -177.94687563 </i>
    <i name="e_wo_entrp">   -177.93174891 </i>
    <i name="e_0_energy">   -177.94309395 </i>
   </energy>
  </scstep>
  <scstep>
   <time name="diag">   67.36   67.37</time>
   <time name="diis">  184.01  184.01</time>
   <time name="orth">   12.93   12.93</time>
   <time name="total">  302.68  302.69</time>
   <energy>
    <i name="e_fr_energy">   -176.62881417 </i>
    <i name="e_wo_entrp">   -176.50089309 </i>
    <i name="e_0_energy">   -176.59683390 </i>
   </energy>
  </scstep>
  <scstep>
   <time name="diag">   66.63   66.63</time>
   <time name="diis">  183.27  183.27</time>
   <time name="orth">   13.39   13.39</time>
   <time name="total">  301.42  301.44</time>
   <energy>
    <i name="e_fr_energy">   -175.78674876 </i>
    <i name="e_wo_entrp">   -175.69900424 </i>
    <i name="e_0_energy">   -175.76481263 </i>
   </energy>
  </scstep>
  <scstep>
   <time name="diag">   66.64   66.64</time>
   <time name="diis">  183.54  183.54</time>
   <time name="orth">   13.41   13.41</time>
   <time name="total">  301.78  301.78</time>
   <energy>
    <i name="e_fr_energy">   -175.58943597 </i>
    <i name="e_wo_entrp">   -175.52991606 </i>
    <i name="e_0_energy">   -175.57455599 </i>
   </energy>
  </scstep>
  <scstep>
   <time name="diag">   66.71   66.72</time>
   <time name="diis">  190.65  190.65</time>
   <time name="orth">   13.57   13.57</time>
   <time name="total">  309.78  309.79</time>
   <energy>
    <i name="e_fr_energy">   -176.14712514 </i>
    <i name="e_wo_entrp">   -176.23055875 </i>
    <i name="e_0_energy">   -176.16798354 </i>
   </energy>
  </scstep>
  <scstep>
   <time name="diag">   68.79   68.79</time>
   <time name="diis">  187.39  187.41</time>
   <time name="orth">   13.56   13.56</time>
   <time name="total">  309.33  309.35</time>
   <energy>
    <i name="e_fr_energy">   -175.76849357 </i>
    <i name="e_wo_entrp">   -175.74021290 </i>
    <i name="e_0_energy">   -175.76142340 </i>
   </energy>
  </scstep>
  <scstep>
   <time name="diag">   68.77   68.78</time>
   <time name="diis">  186.70  186.70</time>
   <time name="orth">   13.70   13.70</time>
   <time name="total">  309.03  309.06</time>
   <energy>
    <i name="e_fr_energy">   -175.24225749 </i>
    <i name="e_wo_entrp">   -175.24704212 </i>
    <i name="e_0_energy">   -175.24345364 </i>
   </energy>
  </scstep>
  <scstep>
   <time name="diag">   68.18   68.19</time>
   <time name="diis">  187.89  187.92</time>
   <time name="orth">   13.73   13.74</time>
   <time name="total">  309.81  309.85</time>
   <energy>
    <i name="e_fr_energy">   -174.80219730 </i>
    <i name="e_wo_entrp">   -174.80076236 </i>
    <i name="e_0_energy">   -174.80183856 </i>
   </energy>
  </scstep>
  <scstep>
   <time name="diag">   68.10   68.10</time>
   <time name="diis">  191.01  191.03</time>
   <time name="orth">   13.47   13.47</time>
   <time name="total">  311.98  312.01</time>
   <energy>
    <i name="e_fr_energy">   -174.67006224 </i>
    <i name="e_wo_entrp">   -174.61964424 </i>
    <i name="e_0_energy">   -174.65745774 </i>
   </energy>
  </scstep>
  <scstep>
   <time name="diag">   68.69   68.69</time>
   <time name="diis">  188.42  188.42</time>
   <time name="orth">   13.72   13.72</time>
   <time name="total">  310.73  310.74</time>
   <energy>
    <i name="e_fr_energy">   -174.55791224 </i>
    <i name="e_wo_entrp">   -174.52978503 </i>
    <i name="e_0_energy">   -174.55088044 </i>
   </energy>
  </scstep>
  <scstep>
   <time name="diag">   68.26   68.26</time>
   <time name="diis">  189.41  189.41</time>
   <time name="orth">   13.68   13.68</time>
   <time name="total">  310.83  310.84</time>
   <energy>
    <i name="e_fr_energy">   -174.40577133 </i>
    <i name="e_wo_entrp">   -174.40983544 </i>
    <i name="e_0_energy">   -174.40678736 </i>
   </energy>
  </scstep>
  <scstep>
   <time name="diag">   67.76   67.76</time>
   <time name="diis">  188.99  188.99</time>
   <time name="orth">   13.66   13.66</time>
   <time name="total">  310.07  310.08</time>
   <energy>
    <i name="e_fr_energy">   -174.31053511 </i>
    <i name="e_wo_entrp">   -174.30665580 </i>
    <i name="e_0_energy">   -174.30956528 </i>
   </energy>
  </scstep>
  <scstep>
   <time name="diag">   68.33   68.33</time>
   <time name="diis">  188.23  188.23</time>
   <time name="orth">   13.93   13.93</time>
   <time name="total">  310.37  310.38</time>
   <energy>
    <i name="e_fr_energy">   -174.08732980 </i>
    <i name="e_wo_entrp">   -174.00360270 </i>
    <i name="e_0_energy">   -174.06639802 </i>
   </energy>
  </scstep>
  <scstep>
   <time name="diag">   68.67   68.67</time>
   <time name="diis">  188.52  188.53</time>
   <time name="orth">   13.75   13.75</time>
   <time name="total">  311.39  311.40</time>
   <energy>
    <i name="e_fr_energy">   -173.95736326 </i>
    <i name="e_wo_entrp">   -173.85693381 </i>
    <i name="e_0_energy">   -173.93225590 </i>
   </energy>
  </scstep>
  <scstep>
   <time name="diag">   69.59   69.59</time>
   <time name="diis">  188.42  188.42</time>
   <time name="orth">   13.62   13.62</time>
   <time name="total">  312.01  312.01</time>
   <energy>
    <i name="e_fr_energy">   -173.94607358 </i>
    <i name="e_wo_entrp">   -173.85542266 </i>
    <i name="e_0_energy">   -173.92341085 </i>
   </energy>
  </scstep>
  <scstep>
   <time name="diag">   68.83   68.83</time>
   <time name="diis">  182.84  182.84</time>
   <time name="orth">   13.12   13.12</time>
   <time name="total">  304.29  304.30</time>
   <energy>
    <i name="e_fr_energy">   -173.84381015 </i>
    <i name="e_wo_entrp">   -173.75308568 </i>
    <i name="e_0_energy">   -173.82112904 </i>
   </energy>
  </scstep>
  <scstep>
   <time name="diag">   67.16   67.16</time>
   <time name="diis">  181.73  181.74</time>
   <time name="orth">   13.07   13.07</time>
   <time name="total">  301.21  301.22</time>
   <energy>
    <i name="e_fr_energy">   -173.78746041 </i>
    <i name="e_wo_entrp">   -173.70732174 </i>
    <i name="e_0_energy">   -173.76742574 </i>
   </energy>
  </scstep>
  <scstep>
   <time name="diag">   67.20   67.20</time>
   <time name="diis">  181.71  181.72</time>
   <time name="orth">   13.12   13.12</time>
   <time name="total">  301.28  301.29</time>
   <energy>
    <i name="e_fr_energy">   -173.78196633 </i>
    <i name="e_wo_entrp">   -173.69965166 </i>
    <i name="e_0_energy">   -173.76138766 </i>
   </energy>
  </scstep>
  <scstep>
   <time name="diag">   67.03   67.04</time>
   <time name="diis">  181.06  181.06</time>
   <time name="orth">   13.21   13.21</time>
   <time name="total">  300.81  300.82</time>
   <energy>
    <i name="e_fr_energy">   -173.74188299 </i>
    <i name="e_wo_entrp">   -173.64787823 </i>
    <i name="e_0_energy">   -173.71838180 </i>
   </energy>
  </scstep>
  <scstep>
   <time name="diag">   67.71   67.72</time>
   <time name="diis">  180.42  180.43</time>
   <time name="orth">   13.27   13.27</time>
   <time name="total">  301.26  301.28</time>
   <energy>
    <i name="e_fr_energy">   -173.71823103 </i>
    <i name="e_wo_entrp">   -173.63183622 </i>
    <i name="e_0_energy">   -173.69663233 </i>
   </energy>
  </scstep>
  <scstep>
   <time name="diag">   67.11   67.11</time>
   <time name="diis">  180.36  180.37</time>
   <time name="orth">   13.17   13.17</time>
   <time name="total">  300.40  300.41</time>
   <energy>
    <i name="e_fr_energy">   -173.70677798 </i>
    <i name="e_wo_entrp">   -173.61905575 </i>
    <i name="e_0_energy">   -173.68484743 </i>
   </energy>
  </scstep>
  <scstep>
   <time name="diag">   67.16   67.16</time>
   <time name="diis">  180.36  180.36</time>
   <time name="orth">   13.18   13.18</time>
   <time name="total">  300.66  300.66</time>
   <energy>
    <i name="e_fr_energy">   -173.69061550 </i>
    <i name="e_wo_entrp">   -173.59411652 </i>
    <i name="e_0_energy">   -173.66649075 </i>
   </energy>
  </scstep>
  <scstep>
   <time name="diag">   67.07   67.07</time>
   <time name="diis">  180.01  180.02</time>
   <time name="orth">   13.24   13.24</time>
   <time name="total">  300.42  300.43</time>
   <energy>
    <i name="e_fr_energy">   -173.68868720 </i>
    <i name="e_wo_entrp">   -173.59231773 </i>
    <i name="e_0_energy">   -173.66459483 </i>
   </energy>
  </scstep>
  <scstep>
   <time name="diag">   67.20   67.20</time>
   <time name="diis">  179.42  179.42</time>
   <time name="orth">   13.24   13.24</time>
   <time name="total">  300.07  300.08</time>
   <energy>
    <i name="e_fr_energy">   -173.68557527 </i>
    <i name="e_wo_entrp">   -173.59196584 </i>
    <i name="e_0_energy">   -173.66217291 </i>
   </energy>
  </scstep>
  <scstep>
   <time name="diag">   67.27   67.27</time>
   <time name="diis">  179.33  179.33</time>
   <time name="orth">   13.17   13.17</time>
   <time name="total">  300.10  300.10</time>
   <energy>
    <i name="e_fr_energy">   -173.68486391 </i>
    <i name="e_wo_entrp">   -173.59342465 </i>
    <i name="e_0_energy">   -173.66200409 </i>
   </energy>
  </scstep>
  <scstep>
   <time name="diag">   67.33   67.33</time>
   <time name="diis">  177.64  177.64</time>
   <time name="orth">   13.25   13.25</time>
   <time name="total">  298.84  298.85</time>
   <energy>
    <i name="e_fr_energy">   -173.68561414 </i>
    <i name="e_wo_entrp">   -173.59056838 </i>
    <i name="e_0_energy">   -173.66185270 </i>
   </energy>
  </scstep>
  <scstep>
   <time name="diag">   67.58   67.59</time>
   <time name="diis">  177.68  177.68</time>
   <time name="orth">   13.28   13.28</time>
   <time name="total">  299.03  299.04</time>
   <energy>
    <i name="e_fr_energy">   -173.68527016 </i>
    <i name="e_wo_entrp">   -173.58894953 </i>
    <i name="e_0_energy">   -173.66119000 </i>
   </energy>
  </scstep>
  <scstep>
   <time name="diag">   67.34   67.34</time>
   <time name="diis">  176.98  176.98</time>
   <time name="orth">   13.31   13.31</time>
   <time name="total">  298.33  298.33</time>
   <energy>
    <i name="e_fr_energy">   -173.68622076 </i>
    <i name="e_wo_entrp">   -173.59246363 </i>
    <i name="e_0_energy">   -173.66278148 </i>
   </energy>
  </scstep>
  <scstep>
   <time name="diag">   67.34   67.34</time>
   <time name="diis">  177.20  177.21</time>
   <time name="orth">   13.34   13.34</time>
   <time name="total">  298.63  298.63</time>
   <energy>
    <i name="e_fr_energy">   -173.68704478 </i>
    <i name="e_wo_entrp">   -173.59580012 </i>
    <i name="e_0_energy">   -173.66423362 </i>
   </energy>
  </scstep>
  <scstep>
   <time name="diag">   67.71   67.71</time>
   <time name="diis">  167.61  167.61</time>
   <time name="orth">   13.33   13.33</time>
   <time name="total">  289.71  289.71</time>
   <energy>
    <i name="e_fr_energy">   -173.68850143 </i>
    <i name="e_wo_entrp">   -173.59709867 </i>
    <i name="e_0_energy">   -173.66565074 </i>
   </energy>
  </scstep>
  <scstep>
   <time name="diag">   67.78   67.79</time>
   <time name="diis">  175.36  175.37</time>
   <time name="orth">   13.32   13.32</time>
   <time name="total">  297.86  297.87</time>
   <energy>
    <i name="e_fr_energy">   -173.69286709 </i>
    <i name="e_wo_entrp">   -173.60437023 </i>
    <i name="e_0_energy">   -173.67074288 </i>
   </energy>
  </scstep>
  <scstep>
   <time name="diag">   67.54   67.54</time>
   <time name="diis">  136.10  136.11</time>
   <time name="orth">   13.06   13.06</time>
   <time name="total">  257.29  257.30</time>
   <energy>
    <i name="e_fr_energy">   -173.69421330 </i>
    <i name="e_wo_entrp">   -173.60574223 </i>
    <i name="e_0_energy">   -173.67209553 </i>
   </energy>
  </scstep>
  <scstep>
   <time name="diag">   67.55   67.55</time>
   <time name="diis">  152.92  152.93</time>
   <time name="orth">   12.82   12.82</time>
   <time name="total">  274.00  274.00</time>
   <energy>
    <i name="e_fr_energy">   -173.69741096 </i>
    <i name="e_wo_entrp">   -173.60878854 </i>
    <i name="e_0_energy">   -173.67525536 </i>
   </energy>
  </scstep>
  <scstep>
   <time name="diag">   67.58   67.59</time>
   <time name="diis">  148.87  148.87</time>
   <time name="orth">   12.96   12.96</time>
   <time name="total">  270.00  270.01</time>
   <energy>
    <i name="e_fr_energy">   -173.70024966 </i>
    <i name="e_wo_entrp">   -173.60973094 </i>
    <i name="e_0_energy">   -173.67761998 </i>
   </energy>
  </scstep>
  <scstep>
   <time name="diag">   67.08   67.08</time>
   <time name="diis">  119.01  119.01</time>
   <time name="orth">   13.11   13.11</time>
   <time name="total">  239.83  239.84</time>
   <energy>
    <i name="e_fr_energy">   -173.70110268 </i>
    <i name="e_wo_entrp">   -173.61118644 </i>
    <i name="e_0_energy">   -173.67862362 </i>
   </energy>
  </scstep>
  <scstep>
   <time name="diag">   66.04   66.04</time>
   <time name="diis">  114.56  114.56</time>
   <time name="orth">   13.12   13.12</time>
   <time name="total">  234.82  234.82</time>
   <energy>
    <i name="e_fr_energy">   -173.70260760 </i>
    <i name="e_wo_entrp">   -173.61318919 </i>
    <i name="e_0_energy">   -173.68025299 </i>
   </energy>
  </scstep>
  <scstep>
   <time name="diag">   66.18   66.18</time>
   <time name="diis">  114.40  114.41</time>
   <time name="orth">   13.17   13.17</time>
   <time name="total">  235.34  235.35</time>
   <energy>
    <i name="e_fr_energy">   -173.70333321 </i>
    <i name="e_wo_entrp">   -173.61350683 </i>
    <i name="e_0_energy">   -173.68087662 </i>
   </energy>
  </scstep>
  <scstep>
   <time name="diag">   66.79   66.79</time>
   <time name="diis">  112.52  112.52</time>
   <time name="orth">   12.94   12.94</time>
   <time name="total">  233.99  234.00</time>
   <energy>
    <i name="e_fr_energy">   -173.70526383 </i>
    <i name="e_wo_entrp">   -173.61537159 </i>
    <i name="e_0_energy">   -173.68279077 </i>
   </energy>
  </scstep>
  <scstep>
   <time name="diag">   66.53   66.53</time>
   <time name="diis">  113.61  113.61</time>
   <time name="orth">   13.08   13.08</time>
   <time name="total">  234.85  234.85</time>
   <energy>
    <i name="e_fr_energy">   -173.70637947 </i>
    <i name="e_wo_entrp">   -173.61678321 </i>
    <i name="e_0_energy">   -173.68398040 </i>
   </energy>
  </scstep>
  <scstep>
   <time name="diag">   66.70   66.70</time>
   <time name="diis">  113.98  113.98</time>
   <time name="orth">   13.22   13.22</time>
   <time name="total">  235.18  235.19</time>
   <energy>
    <i name="e_fr_energy">   -173.70720737 </i>
    <i name="e_wo_entrp">   -173.61778777 </i>
    <i name="e_0_energy">   -173.68485247 </i>
   </energy>
  </scstep>
  <scstep>
   <time name="diag">   65.90   65.90</time>
   <time name="diis">  112.10  112.10</time>
   <time name="orth">   13.23   13.23</time>
   <time name="total">  232.78  232.79</time>
   <energy>
    <i name="e_fr_energy">   -173.70851397 </i>
    <i name="e_wo_entrp">   -173.61850248 </i>
    <i name="e_0_energy">   -173.68601110 </i>
   </energy>
  </scstep>
  <scstep>
   <time name="diag">   66.40   66.40</time>
   <time name="diis">  111.09  111.09</time>
   <time name="orth">   13.24   13.24</time>
   <time name="total">  232.44  232.44</time>
   <energy>
    <i name="e_fr_energy">   -173.70894864 </i>
    <i name="e_wo_entrp">   -173.61900016 </i>
    <i name="e_0_energy">   -173.68646152 </i>
   </energy>
  </scstep>
  <scstep>
   <time name="diag">   66.86   66.86</time>
   <time name="diis">  111.77  111.77</time>
   <time name="orth">   12.98   12.98</time>
   <time name="total">  233.56  233.56</time>
   <energy>
    <i name="e_fr_energy">   -173.70985172 </i>
    <i name="e_wo_entrp">   -173.61993197 </i>
    <i name="e_0_energy">   -173.68737178 </i>
   </energy>
  </scstep>
  <scstep>
   <time name="diag">   66.76   66.76</time>
   <time name="diis">  111.24  111.24</time>
   <time name="orth">   13.00   13.00</time>
   <time name="total">  232.82  232.82</time>
   <energy>
    <i name="e_fr_energy">   -173.71037403 </i>
    <i name="e_wo_entrp">   -173.62030603 </i>
    <i name="e_0_energy">   -173.68785703 </i>
   </energy>
  </scstep>
  <scstep>
   <time name="diag">   66.37   66.37</time>
   <time name="diis">   94.16   94.16</time>
   <time name="orth">   13.32   13.32</time>
   <time name="total">  215.71  215.72</time>
   <energy>
    <i name="e_fr_energy">   -173.71062895 </i>
    <i name="e_wo_entrp">   -173.62055310 </i>
    <i name="e_0_energy">   -173.68810999 </i>
   </energy>
  </scstep>
  <scstep>
   <time name="diag">   65.91   65.91</time>
   <time name="diis">   89.45   89.45</time>
   <time name="orth">   13.08   13.08</time>
   <time name="total">  210.35  210.35</time>
   <energy>
    <i name="e_fr_energy">   -173.71091042 </i>
    <i name="e_wo_entrp">   -173.62090082 </i>
    <i name="e_0_energy">   -173.68840802 </i>
   </energy>
  </scstep>
  <scstep>
   <time name="diag">   66.67   66.67</time>
   <time name="diis">   77.25   77.25</time>
   <time name="orth">   12.98   12.98</time>
   <time name="total">  170.57  170.57</time>
   <energy>
    <i name="alphaZ">     75.25431677 </i>
    <i name="ewald"> 137696.58792923 </i>
    <i name="hartreedc">-182073.85483290 </i>
    <i name="XCdc">  -1693.41887866 </i>
    <i name="pawpsdc">  46032.84300469 </i>
    <i name="pawaedc"> -42502.14477293 </i>
    <i name="eentropy">     -0.09001343 </i>
    <i name="bandstr">  -2795.39324511 </i>
    <i name="atom">  45086.50549395 </i>
    <i name="e_fr_energy">   -173.71099838 </i>
    <i name="e_wo_entrp">   -173.62098495 </i>
    <i name="e_0_energy">   -173.68849502 </i>
   </energy>
  </scstep>
  <structure>
   <crystal>
    <varray name="basis" >
     <v>      30.00000000       0.00000000       0.00000000 </v>
     <v>       0.00000000      30.00000000       0.00000000 </v>
     <v>       0.00000000       0.00000000      30.00000000 </v>
    </varray>
    <i name="volume">  27000.00000000 </i>
    <varray name="rec_basis" >
     <v>       0.03333333       0.00000000       0.00000000 </v>
     <v>       0.00000000       0.03333333       0.00000000 </v>
     <v>       0.00000000       0.00000000       0.03333333 </v>
    </varray>
   </crystal>
   <varray name="positions" >
    <v>       0.44576020       0.32826710       0.41691983 </v>
    <v>       0.67173288       0.55423978       0.41691983 </v>
    <v>       0.55423980       0.32826710       0.41691983 </v>
    <v>       0.32826712       0.55423978       0.41691983 </v>
    <v>       0.50000000       0.38250690       0.34021317 </v>
    <v>       0.50000000       0.38250690       0.65978680 </v>
    <v>       0.50000000       0.27609440       0.50000000 </v>
    <v>       0.27609443       0.49999998       0.50000000 </v>
    <v>       0.72390557       0.49999998       0.50000000 </v>
    <v>       0.50000000       0.72390555       0.50000000 </v>
    <v>       0.61195280       0.38804720       0.34167483 </v>
    <v>       0.61195280       0.38804720       0.65832513 </v>
    <v>       0.38804722       0.61195278       0.34167483 </v>
    <v>       0.38804722       0.61195278       0.65832513 </v>
    <v>       0.38804720       0.38804720       0.34167483 </v>
    <v>       0.38804720       0.38804720       0.65832513 </v>
    <v>       0.61195278       0.61195278       0.34167483 </v>
    <v>       0.61195278       0.61195278       0.65832513 </v>
    <v>       0.44576020       0.32826710       0.58308023 </v>
    <v>       0.67173288       0.55423978       0.58308023 </v>
    <v>       0.55791699       0.44208301       0.41809300 </v>
    <v>       0.32826705       0.44576024       0.41691983 </v>
    <v>       0.55423973       0.67173293       0.41691983 </v>
    <v>       0.55423980       0.32826710       0.58308023 </v>
    <v>       0.32826712       0.55423978       0.58308023 </v>
    <v>       0.67173295       0.44576024       0.41691983 </v>
    <v>       0.44576027       0.67173293       0.41691983 </v>
    <v>       0.44208301       0.44208301       0.41809300 </v>
    <v>       0.50000000       0.38416601       0.50000000 </v>
    <v>       0.61749315       0.50000005       0.34021317 </v>
    <v>       0.61749315       0.50000005       0.65978680 </v>
    <v>       0.38250685       0.50000005       0.34021317 </v>
    <v>       0.38250685       0.50000005       0.65978680 </v>
    <v>       0.38317830       0.38317830       0.50000000 </v>
    <v>       0.61682172       0.61682172       0.50000000 </v>
    <v>       0.61682170       0.38317830       0.50000000 </v>
    <v>       0.38317828       0.61682172       0.50000000 </v>
    <v>       0.50000000       0.50000000       0.33478917 </v>
    <v>       0.50000000       0.50000000       0.66521087 </v>
    <v>       0.32826705       0.44576024       0.58308023 </v>
    <v>       0.55423973       0.67173293       0.58308023 </v>
    <v>       0.55791699       0.44208301       0.58190703 </v>
    <v>       0.44208298       0.55791702       0.41809300 </v>
    <v>       0.44208301       0.44208301       0.58190703 </v>
    <v>       0.67173295       0.44576024       0.58308023 </v>
    <v>       0.44576027       0.67173293       0.58308023 </v>
    <v>       0.55791702       0.55791702       0.41809300 </v>
    <v>       0.38416599       0.50000002       0.50000000 </v>
    <v>       0.61583401       0.50000002       0.50000000 </v>
    <v>       0.50000000       0.61749319       0.34021317 </v>
    <v>       0.50000000       0.61749319       0.65978680 </v>
    <v>       0.50000000       0.50000000       0.50000000 </v>
    <v>       0.44208298       0.55791702       0.58190703 </v>
    <v>       0.55791702       0.55791702       0.58190703 </v>
    <v>       0.50000000       0.61583404       0.50000000 </v>
    <v>       0.48840843       0.52544673       0.24124783 </v>
    <v>       0.48673380       0.52912307       0.20386550 </v>
   </varray>
  </structure>
  <varray name="forces" >
   <v>       0.70167960       1.10745256       0.29191514 </v>
   <v>      -1.10749839      -0.70129568       0.29249985 </v>
   <v>      -0.70242697       1.10753783       0.29157510 </v>
   <v>       1.10616191      -0.70104977       0.29237646 </v>
   <v>       0.00000449       0.40395296       1.29687005 </v>
   <v>      -0.00009697       0.41129164      -1.28084282 </v>
   <v>       0.00013839       1.51681281       0.00037785 </v>
   <v>       1.51514072      -0.00002541      -0.00005725 </v>
   <v>      -1.51630764      -0.00000757       0.00018030 </v>
   <v>       0.00007614      -1.51492152      -0.00062808 </v>
   <v>      -0.75697193       0.75713477       1.07186300 </v>
   <v>      -0.75526683       0.75572847      -1.07260045 </v>
   <v>       0.75392888      -0.75510906       1.07542563 </v>
   <v>       0.75585401      -0.75522885      -1.07273779 </v>
   <v>       0.75755930       0.75678286       1.07265026 </v>
   <v>       0.75533485       0.75613506      -1.07294630 </v>
   <v>      -0.75540527      -0.75738368       1.07424767 </v>
   <v>      -0.75589889      -0.75484782      -1.07286375 </v>
   <v>       0.70285243       1.10741436      -0.29281264 </v>
   <v>      -1.10703864      -0.70241221      -0.29222355 </v>
   <v>       0.09379407      -0.09660071      -0.16911120 </v>
   <v>       1.10847890       0.70382754       0.29040808 </v>
   <v>      -0.70422715      -1.10836814       0.29025100 </v>
   <v>      -0.70299981       1.10776372      -0.29367060 </v>
   <v>       1.10753600      -0.70244857      -0.29161544 </v>
   <v>      -1.10779518       0.70348986       0.29116108 </v>
   <v>       0.70301628      -1.10666487       0.29159393 </v>
   <v>      -0.10329453      -0.11110279      -0.15886085 </v>
   <v>       0.00062120      -0.22597840      -0.00036917 </v>
   <v>      -0.39888166      -0.00034246       1.29969732 </v>
   <v>      -0.41132320       0.00036048      -1.28086950 </v>
   <v>       0.38762523      -0.00166435       1.30359308 </v>
   <v>       0.41158437       0.00045736      -1.28127423 </v>
   <v>       0.82534457       0.82412082       0.00708775 </v>
   <v>      -0.82502620      -0.82607425       0.00548447 </v>
   <v>      -0.82497926       0.82465126       0.00695830 </v>
   <v>       0.82638593      -0.82641232       0.00332563 </v>
   <v>      -0.03899546       0.08525919       0.64452349 </v>
   <v>      -0.00056659       0.00151305      -1.18110741 </v>
   <v>       1.10816201       0.70273986      -0.29276306 </v>
   <v>      -0.70244248      -1.10805192      -0.29186909 </v>
   <v>       0.11241752      -0.11212745       0.15678288 </v>
   <v>      -0.12302646       0.12027287      -0.14984078 </v>
   <v>      -0.11246806      -0.11234208       0.15677614 </v>
   <v>      -1.10797646       0.70323075      -0.29380626 </v>
   <v>       0.70260915      -1.10760632      -0.29147161 </v>
   <v>       0.12115138       0.11330634      -0.15256538 </v>
   <v>      -0.22536878      -0.00087482       0.00157905 </v>
   <v>       0.22609952      -0.00105154       0.00046691 </v>
   <v>       0.00086816      -0.38158523       1.30227523 </v>
   <v>      -0.00012522      -0.41118098      -1.28098232 </v>
   <v>      -0.00000692       0.00037836      -0.00536605 </v>
   <v>      -0.11264597       0.11284301       0.15690100 </v>
   <v>       0.11275889       0.11280061       0.15681665 </v>
   <v>       0.00041203       0.22549490       0.00225491 </v>
   <v>       0.18034870      -0.38416487       2.98598771 </v>
   <v>      -0.11888368       0.24417036      -2.54065035 </v>
  </varray>
  <varray name="stress" >
   <v>      -6.74802588       0.00273363      -0.00480770 </v>
   <v>       0.00273364      -6.75137265       0.00854049 </v>
   <v>      -0.00480770       0.00854049      -6.66868926 </v>
  </varray>
  <energy>
   <i name="e_fr_energy">   -173.71099838 </i>
   <i name="e_wo_entrp">   -173.68849502 </i>
   <i name="e_0_energy">     -0.09001343 </i>
  </energy>
  <time name="totalsc">17313.2617313.82</time>
  <eigenvalues>
   <array>
    <dimension dim="1">band</dimension>
    <dimension dim="2">kpoint</dimension>
    <dimension dim="3">spin</dimension>
    <field>eigene</field>
    <field>occ</field>
    <set>
     <set comment="spin 1">
      <set comment="kpoint 1">
       <r>  -29.2347    1.0000 </r>
       <r>  -13.7465    1.0000 </r>
       <r>  -11.5338    1.0000 </r>
       <r>  -11.5334    1.0000 </r>
       <r>   -9.0700    1.0000 </r>
       <r>   -6.6197    1.0000 </r>
       <r>   -6.1016    1.0000 </r>
       <r>   -6.1014    1.0000 </r>
       <r>   -6.0957    1.0000 </r>
       <r>   -5.7871    1.0000 </r>
       <r>   -5.7869    1.0000 </r>
       <r>   -5.7860    1.0000 </r>
       <r>   -5.7195    1.0000 </r>
       <r>   -5.6674    1.0000 </r>
       <r>   -5.6590    1.0000 </r>
       <r>   -5.6589    1.0000 </r>
       <r>   -5.6587    1.0000 </r>
       <r>   -5.5960    1.0000 </r>
       <r>   -5.5950    1.0000 </r>
       <r>   -5.5821    1.0000 </r>
       <r>   -5.5703    1.0000 </r>
       <r>   -5.5703    1.0000 </r>
       <r>   -5.5697    1.0000 </r>
       <r>   -5.5249    1.0000 </r>
       <r>   -5.5230    1.0000 </r>
       <r>   -5.5222    1.0000 </r>
       <r>   -5.5211    1.0000 </r>
       <r>   -5.4947    1.0000 </r>
       <r>   -5.4945    1.0000 </r>
       <r>   -5.4935    1.0000 </r>
       <r>   -5.4879    1.0000 </r>
       <r>   -5.4879    1.0000 </r>
       <r>   -5.4877    1.0000 </r>
       <r>   -5.4866    1.0000 </r>
       <r>   -5.4862    1.0000 </r>
       <r>   -5.4521    1.0000 </r>
       <r>   -5.4521    1.0000 </r>
       <r>   -5.4432    1.0000 </r>
       <r>   -5.4429    1.0000 </r>
       <r>   -5.4419    1.0000 </r>
       <r>   -5.4413    1.0000 </r>
       <r>   -5.4412    1.0000 </r>
       <r>   -5.4410    1.0000 </r>
       <r>   -5.4038    1.0000 </r>
       <r>   -5.4035    1.0000 </r>
       <r>   -5.4032    1.0000 </r>
       <r>   -5.4023    1.0000 </r>
       <r>   -5.4009    1.0000 </r>
       <r>   -5.3963    1.0000 </r>
       <r>   -5.3957    1.0000 </r>
       <r>   -5.3953    1.0000 </r>
       <r>   -5.3811    1.0000 </r>
       <r>   -5.3799    1.0000 </r>
       <r>   -5.3797    1.0000 </r>
       <r>   -5.3646    1.0000 </r>
       <r>   -5.3028    1.0000 </r>
       <r>   -5.3012    1.0000 </r>
       <r>   -5.3008    1.0000 </r>
       <r>   -5.3005    1.0000 </r>
       <r>   -5.2904    1.0000 </r>
       <r>   -5.2902    1.0000 </r>
       <r>   -5.2901    1.0000 </r>
       <r>   -5.2755    1.0000 </r>
       <r>   -5.2750    1.0000 </r>
       <r>   -5.2735    1.0000 </r>
       <r>   -5.2612    1.0000 </r>
       <r>   -5.2604    1.0000 </r>
       <r>   -5.1896    1.0000 </r>
       <r>   -5.1801    1.0000 </r>
       <r>   -5.1790    1.0000 </r>
       <r>   -5.1783    1.0000 </r>
       <r>   -5.1545    1.0000 </r>
       <r>   -5.1541    1.0000 </r>
       <r>   -5.1536    1.0000 </r>
       <r>   -5.1519    1.0000 </r>
       <r>   -5.1491    1.0000 </r>
       <r>   -5.1363    1.0000 </r>
       <r>   -5.1360    1.0000 </r>
       <r>   -5.1355    1.0000 </r>
       <r>   -5.1212    1.0000 </r>
       <r>   -5.0989    1.0000 </r>
       <r>   -5.0978    1.0000 </r>
       <r>   -5.0977    1.0000 </r>
       <r>   -5.0866    1.0000 </r>
       <r>   -5.0770    1.0000 </r>
       <r>   -5.0767    1.0000 </r>
       <r>   -5.0765    1.0000 </r>
       <r>   -5.0337    1.0000 </r>
       <r>   -5.0326    1.0000 </r>
       <r>   -5.0290    1.0000 </r>
       <r>   -5.0287    1.0000 </r>
       <r>   -5.0285    1.0000 </r>
       <r>   -5.0243    1.0000 </r>
       <r>   -5.0223    1.0000 </r>
       <r>   -5.0222    1.0000 </r>
       <r>   -5.0077    1.0000 </r>
       <r>   -5.0063    1.0000 </r>
       <r>   -5.0021    1.0000 </r>
       <r>   -4.9919    1.0000 </r>
       <r>   -4.9914    1.0000 </r>
       <r>   -4.9790    1.0000 </r>
       <r>   -4.9789    1.0000 </r>
       <r>   -4.9787    1.0000 </r>
       <r>   -4.9662    1.0000 </r>
       <r>   -4.9657    1.0000 </r>
       <r>   -4.9649    1.0000 </r>
       <r>   -4.9536    1.0000 </r>
       <r>   -4.9535    1.0000 </r>
       <r>   -4.9534    1.0000 </r>
       <r>   -4.9433    1.0000 </r>
       <r>   -4.9424    1.0000 </r>
       <r>   -4.9336    1.0000 </r>
       <r>   -4.9327    1.0000 </r>
       <r>   -4.9276    1.0000 </r>
       <r>   -4.9264    1.0000 </r>
       <r>   -4.9262    1.0000 </r>
       <r>   -4.9116    1.0000 </r>
       <r>   -4.8916    1.0000 </r>
       <r>   -4.8913    1.0000 </r>
       <r>   -4.8911    1.0000 </r>
       <r>   -4.8783    1.0000 </r>
       <r>   -4.8763    1.0000 </r>
       <r>   -4.8761    1.0000 </r>
       <r>   -4.8754    1.0000 </r>
       <r>   -4.8750    1.0000 </r>
       <r>   -4.8744    1.0000 </r>
       <r>   -4.8206    1.0000 </r>
       <r>   -4.8171    1.0000 </r>
       <r>   -4.8168    1.0000 </r>
       <r>   -4.8156    1.0000 </r>
       <r>   -4.8154    1.0000 </r>
       <r>   -4.8146    1.0000 </r>
       <r>   -4.8044    1.0000 </r>
       <r>   -4.8043    1.0000 </r>
       <r>   -4.8036    1.0000 </r>
       <r>   -4.7682    0.9999 </r>
       <r>   -4.7669    0.9999 </r>
       <r>   -4.7650    0.9999 </r>
       <r>   -4.7649    0.9999 </r>
       <r>   -4.7456    0.9998 </r>
       <r>   -4.7429    0.9998 </r>
       <r>   -4.7360    0.9998 </r>
       <r>   -4.7109    0.9996 </r>
       <r>   -4.7109    0.9996 </r>
       <r>   -4.7108    0.9996 </r>
       <r>   -4.6994    0.9995 </r>
       <r>   -4.6979    0.9995 </r>
       <r>   -4.6802    0.9993 </r>
       <r>   -4.6651    0.9990 </r>
       <r>   -4.6636    0.9990 </r>
       <r>   -4.6618    0.9990 </r>
       <r>   -4.6565    0.9988 </r>
       <r>   -4.6478    0.9987 </r>
       <r>   -4.6471    0.9986 </r>
       <r>   -4.6467    0.9986 </r>
       <r>   -4.6464    0.9986 </r>
       <r>   -4.6460    0.9986 </r>
       <r>   -4.6459    0.9986 </r>
       <r>   -4.6289    0.9982 </r>
       <r>   -4.6247    0.9980 </r>
       <r>   -4.6245    0.9980 </r>
       <r>   -4.6222    0.9979 </r>
       <r>   -4.6207    0.9979 </r>
       <r>   -4.6202    0.9979 </r>
       <r>   -4.6192    0.9979 </r>
       <r>   -4.6191    0.9979 </r>
       <r>   -4.6159    0.9977 </r>
       <r>   -4.6148    0.9977 </r>
       <r>   -4.6035    0.9973 </r>
       <r>   -4.6017    0.9973 </r>
       <r>   -4.5758    0.9963 </r>
       <r>   -4.5728    0.9962 </r>
       <r>   -4.5710    0.9961 </r>
       <r>   -4.5709    0.9961 </r>
       <r>   -4.5684    0.9960 </r>
       <r>   -4.5677    0.9960 </r>
       <r>   -4.5668    0.9960 </r>
       <r>   -4.5627    0.9958 </r>
       <r>   -4.5550    0.9956 </r>
       <r>   -4.5537    0.9955 </r>
       <r>   -4.5471    0.9954 </r>
       <r>   -4.5260    0.9951 </r>
       <r>   -4.5256    0.9951 </r>
       <r>   -4.5255    0.9951 </r>
       <r>   -4.5252    0.9951 </r>
       <r>   -4.5251    0.9951 </r>
       <r>   -4.5248    0.9951 </r>
       <r>   -4.5234    0.9951 </r>
       <r>   -4.5219    0.9951 </r>
       <r>   -4.5218    0.9951 </r>
       <r>   -4.4801    0.9973 </r>
       <r>   -4.4784    0.9975 </r>
       <r>   -4.4778    0.9975 </r>
       <r>   -4.4777    0.9976 </r>
       <r>   -4.4769    0.9977 </r>
       <r>   -4.4646    0.9995 </r>
       <r>   -4.4543    1.0014 </r>
       <r>   -4.4541    1.0015 </r>
       <r>   -4.4523    1.0019 </r>
       <r>   -4.4418    1.0045 </r>
       <r>   -4.4413    1.0046 </r>
       <r>   -4.4316    1.0075 </r>
       <r>   -4.4299    1.0080 </r>
       <r>   -4.4298    1.0080 </r>
       <r>   -4.4210    1.0111 </r>
       <r>   -4.4209    1.0111 </r>
       <r>   -4.4208    1.0112 </r>
       <r>   -4.4168    1.0127 </r>
       <r>   -4.4163    1.0129 </r>
       <r>   -4.4132    1.0141 </r>
       <r>   -4.3970    1.0210 </r>
       <r>   -4.3828    1.0276 </r>
       <r>   -4.3824    1.0278 </r>
       <r>   -4.3821    1.0279 </r>
       <r>   -4.3817    1.0281 </r>
       <r>   -4.3784    1.0297 </r>
       <r>   -4.3746    1.0315 </r>
       <r>   -4.3742    1.0317 </r>
       <r>   -4.3736    1.0320 </r>
       <r>   -4.3426    1.0456 </r>
       <r>   -4.3415    1.0460 </r>
       <r>   -4.3358    1.0479 </r>
       <r>   -4.3123    1.0516 </r>
       <r>   -4.3117    1.0516 </r>
       <r>   -4.3110    1.0516 </r>
       <r>   -4.3108    1.0516 </r>
       <r>   -4.3096    1.0515 </r>
       <r>   -4.3089    1.0515 </r>
       <r>   -4.3082    1.0514 </r>
       <r>   -4.3068    1.0513 </r>
       <r>   -4.3028    1.0506 </r>
       <r>   -4.3008    1.0502 </r>
       <r>   -4.2980    1.0494 </r>
       <r>   -4.2969    1.0491 </r>
       <r>   -4.2946    1.0483 </r>
       <r>   -4.2945    1.0483 </r>
       <r>   -4.2944    1.0482 </r>
       <r>   -4.2911    1.0469 </r>
       <r>   -4.2901    1.0464 </r>
       <r>   -4.2900    1.0463 </r>
       <r>   -4.2750    1.0360 </r>
       <r>   -4.2731    1.0342 </r>
       <r>   -4.2603    1.0194 </r>
       <r>   -4.2597    1.0185 </r>
       <r>   -4.2569    1.0145 </r>
       <r>   -4.2567    1.0143 </r>
       <r>   -4.2564    1.0139 </r>
       <r>   -4.2562    1.0134 </r>
       <r>   -4.2506    1.0045 </r>
       <r>   -4.2395    0.9833 </r>
       <r>   -4.2356    0.9748 </r>
       <r>   -4.2290    0.9588 </r>
       <r>   -4.2273    0.9544 </r>
       <r>   -4.2266    0.9527 </r>
       <r>   -4.2221    0.9406 </r>
       <r>   -4.2213    0.9383 </r>
       <r>   -4.2210    0.9373 </r>
       <r>   -4.2168    0.9252 </r>
       <r>   -4.2161    0.9229 </r>
       <r>   -4.2160    0.9229 </r>
       <r>   -4.2104    0.9053 </r>
       <r>   -4.2095    0.9022 </r>
       <r>   -4.2094    0.9020 </r>
       <r>   -4.2092    0.9013 </r>
       <r>   -4.2060    0.8905 </r>
       <r>   -4.1965    0.8567 </r>
       <r>   -4.1943    0.8480 </r>
       <r>   -4.1905    0.8333 </r>
       <r>   -4.1902    0.8323 </r>
       <r>   -4.1901    0.8317 </r>
       <r>   -4.1877    0.8223 </r>
       <r>   -4.1873    0.8205 </r>
       <r>   -4.1647    0.7203 </r>
       <r>   -4.1638    0.7165 </r>
       <r>   -4.1635    0.7151 </r>
       <r>   -4.1519    0.6580 </r>
       <r>   -4.1517    0.6569 </r>
       <r>   -4.1488    0.6425 </r>
       <r>   -4.1418    0.6069 </r>
       <r>   -4.1416    0.6058 </r>
       <r>   -4.1412    0.6037 </r>
       <r>   -4.1275    0.5318 </r>
       <r>   -4.1006    0.3905 </r>
       <r>   -4.1004    0.3898 </r>
       <r>   -4.0999    0.3868 </r>
       <r>   -4.0974    0.3739 </r>
       <r>   -4.0842    0.3083 </r>
       <r>   -4.0829    0.3016 </r>
       <r>   -4.0816    0.2955 </r>
       <r>   -3.9430   -0.0500 </r>
       <r>   -3.8703   -0.0325 </r>
       <r>   -3.7914   -0.0021 </r>
       <r>   -3.7904   -0.0018 </r>
       <r>   -3.7892   -0.0016 </r>
       <r>   -3.4640    0.0001 </r>
       <r>   -3.4633    0.0001 </r>
       <r>   -3.4291    0.0000 </r>
       <r>   -3.0275    0.0000 </r>
       <r>   -3.0272    0.0000 </r>
       <r>   -3.0027    0.0000 </r>
       <r>   -2.9872    0.0000 </r>
       <r>   -2.9862    0.0000 </r>
       <r>   -2.9853    0.0000 </r>
       <r>   -2.9035    0.0000 </r>
       <r>   -2.8744    0.0000 </r>
       <r>   -2.5232    0.0000 </r>
       <r>   -2.5162    0.0000 </r>
       <r>   -2.4914    0.0000 </r>
       <r>   -2.2837    0.0000 </r>
       <r>   -2.0929    0.0000 </r>
       <r>   -2.0925    0.0000 </r>
       <r>   -2.0910    0.0000 </r>
       <r>   -1.9282    0.0000 </r>
       <r>   -1.9205    0.0000 </r>
       <r>   -1.8939    0.0000 </r>
       <r>   -1.8542    0.0000 </r>
       <r>   -1.8226    0.0000 </r>
       <r>   -1.7600    0.0000 </r>
       <r>   -1.7473    0.0000 </r>
       <r>   -1.7060    0.0000 </r>
       <r>   -1.6174    0.0000 </r>
       <r>   -1.5406    0.0000 </r>
       <r>   -1.5245    0.0000 </r>
       <r>   -1.5169    0.0000 </r>
       <r>   -1.4897    0.0000 </r>
       <r>   -1.1646    0.0000 </r>
       <r>   -1.1503    0.0000 </r>
       <r>   -1.0262    0.0000 </r>
       <r>   -0.9628    0.0000 </r>
       <r>   -0.9611    0.0000 </r>
       <r>   -0.9519    0.0000 </r>
       <r>   -0.9151    0.0000 </r>
       <r>   -0.9056    0.0000 </r>
       <r>   -0.8886    0.0000 </r>
       <r>   -0.7823    0.0000 </r>
       <r>   -0.7270    0.0000 </r>
      </set>
     </set>
    </set>
   </array>
  </eigenvalues>
  <separator name="orbital magnetization" >
   <v name="MAGDIPOLOUT">      0.00000000      0.00000000      0.00000000</v>
  </separator>
  <dos>
   <i name="efermi">     -4.12146498 </i>
   <total>
    <array>
     <dimension dim="1">gridpoints</dimension>
     <dimension dim="2">spin</dimension>
     <field>energy</field>
     <field>total</field>
     <field>integrated</field>
     <set>
      <set comment="spin 1">
       <r>   -31.2347     0.0000     0.0000 </r>
       <r>   -31.1263     0.0000     0.0000 </r>
       <r>   -31.0179     0.0000     0.0000 </r>
       <r>   -30.9096     0.0000     0.0000 </r>
       <r>   -30.8012     0.0000     0.0000 </r>
       <r>   -30.6929     0.0000     0.0000 </r>
       <r>   -30.5845     0.0000     0.0000 </r>
       <r>   -30.4761     0.0000     0.0000 </r>
       <r>   -30.3678     0.0000     0.0000 </r>
       <r>   -30.2594     0.0000     0.0000 </r>
       <r>   -30.1511     0.0000     0.0000 </r>
       <r>   -30.0427     0.0000     0.0000 </r>
       <r>   -29.9343     0.0004     0.0000 </r>
       <r>   -29.8260     0.0063     0.0007 </r>
       <r>   -29.7176     0.0422     0.0053 </r>
       <r>   -29.6093     0.0269     0.0082 </r>
       <r>   -29.5009    -0.5420    -0.0505 </r>
       <r>   -29.3926    -0.2656    -0.0793 </r>
       <r>   -29.2842     5.3476     0.5001 </r>
       <r>   -29.1758     9.9864     1.5823 </r>
       <r>   -29.0675     4.6975     2.0913 </r>
       <r>   -28.9591    -0.4555     2.0419 </r>
       <r>   -28.8508    -0.4713     1.9909 </r>
       <r>   -28.7424     0.0414     1.9953 </r>
       <r>   -28.6340     0.0375     1.9994 </r>
       <r>   -28.5257     0.0051     2.0000 </r>
       <r>   -28.4173     0.0003     2.0000 </r>
       <r>   -28.3090     0.0000     2.0000 </r>
       <r>   -28.2006     0.0000     2.0000 </r>
       <r>   -28.0922     0.0000     2.0000 </r>
       <r>   -27.9839     0.0000     2.0000 </r>
       <r>   -27.8755     0.0000     2.0000 </r>
       <r>   -27.7672     0.0000     2.0000 </r>
       <r>   -27.6588     0.0000     2.0000 </r>
       <r>   -27.5504     0.0000     2.0000 </r>
       <r>   -27.4421     0.0000     2.0000 </r>
       <r>   -27.3337     0.0000     2.0000 </r>
       <r>   -27.2254     0.0000     2.0000 </r>
       <r>   -27.1170     0.0000     2.0000 </r>
       <r>   -27.0087     0.0000     2.0000 </r>
       <r>   -26.9003     0.0000     2.0000 </r>
       <r>   -26.7919     0.0000     2.0000 </r>
       <r>   -26.6836     0.0000     2.0000 </r>
       <r>   -26.5752     0.0000     2.0000 </r>
       <r>   -26.4669     0.0000     2.0000 </r>
       <r>   -26.3585     0.0000     2.0000 </r>
       <r>   -26.2501     0.0000     2.0000 </r>
       <r>   -26.1418     0.0000     2.0000 </r>
       <r>   -26.0334     0.0000     2.0000 </r>
       <r>   -25.9251     0.0000     2.0000 </r>
       <r>   -25.8167     0.0000     2.0000 </r>
       <r>   -25.7083     0.0000     2.0000 </r>
       <r>   -25.6000     0.0000     2.0000 </r>
       <r>   -25.4916     0.0000     2.0000 </r>
       <r>   -25.3833     0.0000     2.0000 </r>
       <r>   -25.2749     0.0000     2.0000 </r>
       <r>   -25.1666     0.0000     2.0000 </r>
       <r>   -25.0582     0.0000     2.0000 </r>
       <r>   -24.9498     0.0000     2.0000 </r>
       <r>   -24.8415     0.0000     2.0000 </r>
       <r>   -24.7331     0.0000     2.0000 </r>
       <r>   -24.6248     0.0000     2.0000 </r>
       <r>   -24.5164     0.0000     2.0000 </r>
       <r>   -24.4080     0.0000     2.0000 </r>
       <r>   -24.2997     0.0000     2.0000 </r>
       <r>   -24.1913     0.0000     2.0000 </r>
       <r>   -24.0830     0.0000     2.0000 </r>
       <r>   -23.9746     0.0000     2.0000 </r>
       <r>   -23.8662     0.0000     2.0000 </r>
       <r>   -23.7579     0.0000     2.0000 </r>
       <r>   -23.6495     0.0000     2.0000 </r>
       <r>   -23.5412     0.0000     2.0000 </r>
       <r>   -23.4328     0.0000     2.0000 </r>
       <r>   -23.3244     0.0000     2.0000 </r>
       <r>   -23.2161     0.0000     2.0000 </r>
       <r>   -23.1077     0.0000     2.0000 </r>
       <r>   -22.9994     0.0000     2.0000 </r>
       <r>   -22.8910     0.0000     2.0000 </r>
       <r>   -22.7827     0.0000     2.0000 </r>
       <r>   -22.6743     0.0000     2.0000 </r>
       <r>   -22.5659     0.0000     2.0000 </r>
       <r>   -22.4576     0.0000     2.0000 </r>
       <r>   -22.3492     0.0000     2.0000 </r>
       <r>   -22.2409     0.0000     2.0000 </r>
       <r>   -22.1325     0.0000     2.0000 </r>
       <r>   -22.0241     0.0000     2.0000 </r>
       <r>   -21.9158     0.0000     2.0000 </r>
       <r>   -21.8074     0.0000     2.0000 </r>
       <r>   -21.6991     0.0000     2.0000 </r>
       <r>   -21.5907     0.0000     2.0000 </r>
       <r>   -21.4823     0.0000     2.0000 </r>
       <r>   -21.3740     0.0000     2.0000 </r>
       <r>   -21.2656     0.0000     2.0000 </r>
       <r>   -21.1573     0.0000     2.0000 </r>
       <r>   -21.0489     0.0000     2.0000 </r>
       <r>   -20.9406     0.0000     2.0000 </r>
       <r>   -20.8322     0.0000     2.0000 </r>
       <r>   -20.7238     0.0000     2.0000 </r>
       <r>   -20.6155     0.0000     2.0000 </r>
       <r>   -20.5071     0.0000     2.0000 </r>
       <r>   -20.3988     0.0000     2.0000 </r>
       <r>   -20.2904     0.0000     2.0000 </r>
       <r>   -20.1820     0.0000     2.0000 </r>
       <r>   -20.0737     0.0000     2.0000 </r>
       <r>   -19.9653     0.0000     2.0000 </r>
       <r>   -19.8570     0.0000     2.0000 </r>
       <r>   -19.7486     0.0000     2.0000 </r>
       <r>   -19.6402     0.0000     2.0000 </r>
       <r>   -19.5319     0.0000     2.0000 </r>
       <r>   -19.4235     0.0000     2.0000 </r>
       <r>   -19.3152     0.0000     2.0000 </r>
       <r>   -19.2068     0.0000     2.0000 </r>
       <r>   -19.0985     0.0000     2.0000 </r>
       <r>   -18.9901     0.0000     2.0000 </r>
       <r>   -18.8817     0.0000     2.0000 </r>
       <r>   -18.7734     0.0000     2.0000 </r>
       <r>   -18.6650     0.0000     2.0000 </r>
       <r>   -18.5567     0.0000     2.0000 </r>
       <r>   -18.4483     0.0000     2.0000 </r>
       <r>   -18.3399     0.0000     2.0000 </r>
       <r>   -18.2316     0.0000     2.0000 </r>
       <r>   -18.1232     0.0000     2.0000 </r>
       <r>   -18.0149     0.0000     2.0000 </r>
       <r>   -17.9065     0.0000     2.0000 </r>
       <r>   -17.7981     0.0000     2.0000 </r>
       <r>   -17.6898     0.0000     2.0000 </r>
       <r>   -17.5814     0.0000     2.0000 </r>
       <r>   -17.4731     0.0000     2.0000 </r>
       <r>   -17.3647     0.0000     2.0000 </r>
       <r>   -17.2563     0.0000     2.0000 </r>
       <r>   -17.1480     0.0000     2.0000 </r>
       <r>   -17.0396     0.0000     2.0000 </r>
       <r>   -16.9313     0.0000     2.0000 </r>
       <r>   -16.8229     0.0000     2.0000 </r>
       <r>   -16.7146     0.0000     2.0000 </r>
       <r>   -16.6062     0.0000     2.0000 </r>
       <r>   -16.4978     0.0000     2.0000 </r>
       <r>   -16.3895     0.0000     2.0000 </r>
       <r>   -16.2811     0.0000     2.0000 </r>
       <r>   -16.1728     0.0000     2.0000 </r>
       <r>   -16.0644     0.0000     2.0000 </r>
       <r>   -15.9560     0.0000     2.0000 </r>
       <r>   -15.8477     0.0000     2.0000 </r>
       <r>   -15.7393     0.0000     2.0000 </r>
       <r>   -15.6310     0.0000     2.0000 </r>
       <r>   -15.5226     0.0000     2.0000 </r>
       <r>   -15.4142     0.0000     2.0000 </r>
       <r>   -15.3059     0.0000     2.0000 </r>
       <r>   -15.1975     0.0000     2.0000 </r>
       <r>   -15.0892     0.0000     2.0000 </r>
       <r>   -14.9808     0.0000     2.0000 </r>
       <r>   -14.8725     0.0000     2.0000 </r>
       <r>   -14.7641     0.0000     2.0000 </r>
       <r>   -14.6557     0.0000     2.0000 </r>
       <r>   -14.5474     0.0000     2.0000 </r>
       <r>   -14.4390     0.0005     2.0001 </r>
       <r>   -14.3307     0.0074     2.0009 </r>
       <r>   -14.2223     0.0458     2.0058 </r>
       <r>   -14.1139     0.0124     2.0072 </r>
       <r>   -14.0056    -0.5957     1.9426 </r>
       <r>   -13.8972    -0.0856     1.9333 </r>
       <r>   -13.7889     5.8509     2.5673 </r>
       <r>   -13.6805     9.9226     3.6425 </r>
       <r>   -13.5721     4.1989     4.0975 </r>
       <r>   -13.4638    -0.5717     4.0356 </r>
       <r>   -13.3554    -0.4168     3.9904 </r>
       <r>   -13.2471     0.0498     3.9958 </r>
       <r>   -13.1387     0.0340     3.9995 </r>
       <r>   -13.0303     0.0043     4.0000 </r>
       <r>   -12.9220     0.0002     4.0000 </r>
       <r>   -12.8136     0.0000     4.0000 </r>
       <r>   -12.7053     0.0000     4.0000 </r>
       <r>   -12.5969     0.0000     4.0000 </r>
       <r>   -12.4886     0.0000     4.0000 </r>
       <r>   -12.3802     0.0000     4.0000 </r>
       <r>   -12.2718     0.0002     4.0000 </r>
       <r>   -12.1635     0.0051     4.0006 </r>
       <r>   -12.0551     0.0488     4.0059 </r>
       <r>   -11.9468     0.1259     4.0195 </r>
       <r>   -11.8384    -0.5215     3.9630 </r>
       <r>   -11.7300    -1.5575     3.7942 </r>
       <r>   -11.6217     5.5041     4.3907 </r>
       <r>   -11.5133    18.7868     6.4264 </r>
       <r>   -11.4050    14.6581     8.0147 </r>
       <r>   -11.2966     1.3082     8.1565 </r>
       <r>   -11.1882    -1.4775     7.9964 </r>
       <r>   -11.0799    -0.1043     7.9851 </r>
       <r>   -10.9715     0.1126     7.9973 </r>
       <r>   -10.8632     0.0234     7.9998 </r>
       <r>   -10.7548     0.0018     8.0000 </r>
       <r>   -10.6465     0.0001     8.0000 </r>
       <r>   -10.5381     0.0000     8.0000 </r>
       <r>   -10.4297     0.0000     8.0000 </r>
       <r>   -10.3214     0.0000     8.0000 </r>
       <r>   -10.2130     0.0000     8.0000 </r>
       <r>   -10.1047     0.0000     8.0000 </r>
       <r>    -9.9963     0.0000     8.0000 </r>
       <r>    -9.8879     0.0000     8.0000 </r>
       <r>    -9.7796     0.0003     8.0000 </r>
       <r>    -9.6712     0.0051     8.0006 </r>
       <r>    -9.5629     0.0372     8.0046 </r>
       <r>    -9.4545     0.0422     8.0092 </r>
       <r>    -9.3461    -0.4670     7.9586 </r>
       <r>    -9.2378    -0.4657     7.9081 </r>
       <r>    -9.1294     4.6576     8.4128 </r>
       <r>    -9.0211     9.9834     9.4946 </r>
       <r>    -8.9127     5.3878    10.0784 </r>
       <r>    -8.8043    -0.2524    10.0511 </r>
       <r>    -8.6960    -0.5463     9.9919 </r>
       <r>    -8.5876     0.0258     9.9947 </r>
       <r>    -8.4793     0.0425     9.9993 </r>
       <r>    -8.3709     0.0064    10.0000 </r>
       <r>    -8.2626     0.0004    10.0000 </r>
       <r>    -8.1542     0.0000    10.0000 </r>
       <r>    -8.0458     0.0000    10.0000 </r>
       <r>    -7.9375     0.0000    10.0000 </r>
       <r>    -7.8291     0.0000    10.0000 </r>
       <r>    -7.7208     0.0000    10.0000 </r>
       <r>    -7.6124     0.0000    10.0000 </r>
       <r>    -7.5040     0.0000    10.0000 </r>
       <r>    -7.3957     0.0000    10.0000 </r>
       <r>    -7.2873     0.0009    10.0001 </r>
       <r>    -7.1790     0.0124    10.0014 </r>
       <r>    -7.0706     0.0575    10.0077 </r>
       <r>    -6.9622    -0.0628    10.0009 </r>
       <r>    -6.8539    -0.7531     9.9193 </r>
       <r>    -6.7455     0.7757    10.0033 </r>
       <r>    -6.6372     7.5631    10.8228 </r>
       <r>    -6.5288     9.4817    11.8503 </r>
       <r>    -6.4205     2.0934    12.0771 </r>
       <r>    -6.3121    -3.1482    11.7360 </r>
       <r>    -6.2037     5.5262    12.3348 </r>
       <r>    -6.0954    26.0326    15.1556 </r>
       <r>    -5.9870    22.4587    17.5893 </r>
       <r>    -5.8787     7.6778    18.4212 </r>
       <r>    -5.7703    26.1316    21.2528 </r>
       <r>    -5.6619    70.2941    28.8698 </r>
       <r>    -5.5536   164.1745    46.6596 </r>
       <r>    -5.4452   286.0894    77.6599 </r>
       <r>    -5.3369   294.6924   109.5925 </r>
       <r>    -5.2285   215.8845   132.9855 </r>
       <r>    -5.1201   222.7461   157.1221 </r>
       <r>    -5.0118   322.5132   192.0692 </r>
       <r>    -4.9034   368.4782   231.9972 </r>
       <r>    -4.7951   309.0265   265.4830 </r>
       <r>    -4.6867   310.0646   299.0812 </r>
       <r>    -4.5784   404.6535   342.9291 </r>
       <r>    -4.4700   426.3207   389.1247 </r>
       <r>    -4.3616   439.1786   436.7137 </r>
       <r>    -4.2533   545.1656   495.7872 </r>
       <r>    -4.1449   513.6364   551.4443 </r>
       <r>    -4.0366   242.8393   577.7581 </r>
       <r>    -3.9282    34.9338   581.5435 </r>
       <r>    -3.8198    18.4715   583.5451 </r>
       <r>    -3.7115    31.3338   586.9404 </r>
       <r>    -3.6031    10.8565   588.1168 </r>
       <r>    -3.4948    15.5027   589.7967 </r>
       <r>    -3.3864    28.7984   592.9172 </r>
       <r>    -3.2780    10.1990   594.0224 </r>
       <r>    -3.1697    -4.4513   593.5400 </r>
       <r>    -3.0613    26.1329   596.3718 </r>
       <r>    -2.9530    67.8595   603.7249 </r>
       <r>    -2.8446    51.5003   609.3055 </r>
       <r>    -2.7362     8.0968   610.1828 </r>
       <r>    -2.6279     0.1807   610.2024 </r>
       <r>    -2.5195    22.2650   612.6150 </r>
       <r>    -2.4112    27.2106   615.5635 </r>
       <r>    -2.3028    11.7808   616.8401 </r>
       <r>    -2.1945    11.5767   618.0945 </r>
       <r>    -2.0861    25.6379   620.8726 </r>
       <r>    -1.9777    35.9125   624.7640 </r>
       <r>    -1.8694    47.6522   629.9276 </r>
       <r>    -1.7610    52.3803   635.6035 </r>
       <r>    -1.6527    42.5671   640.2160 </r>
       <r>    -1.5443    43.7327   644.9548 </r>
       <r>    -1.4359    38.2017   649.0943 </r>
       <r>    -1.3276    10.4478   650.2264 </r>
       <r>    -1.2192     3.1883   650.5719 </r>
       <r>    -1.1109    18.9203   652.6221 </r>
       <r>    -1.0025    43.1327   657.2959 </r>
       <r>    -0.8941    64.2832   664.2616 </r>
       <r>    -0.7858    49.3071   669.6044 </r>
       <r>    -0.6774    19.9138   671.7623 </r>
       <r>    -0.5691     3.5539   672.1474 </r>
       <r>    -0.4607    -1.1767   672.0199 </r>
       <r>    -0.3524    -0.4062   671.9759 </r>
       <r>    -0.2440     0.1492   671.9920 </r>
       <r>    -0.1356     0.0650   671.9991 </r>
       <r>    -0.0273     0.0081   671.9999 </r>
       <r>     0.0811     0.0005   672.0000 </r>
       <r>     0.1894     0.0000   672.0000 </r>
       <r>     0.2978     0.0000   672.0000 </r>
       <r>     0.4062     0.0000   672.0000 </r>
       <r>     0.5145     0.0000   672.0000 </r>
       <r>     0.6229     0.0000   672.0000 </r>
       <r>     0.7312     0.0000   672.0000 </r>
       <r>     0.8396     0.0000   672.0000 </r>
       <r>     0.9480     0.0000   672.0000 </r>
       <r>     1.0563     0.0000   672.0000 </r>
       <r>     1.1647     0.0000   672.0000 </r>
       <r>     1.2730     0.0000   672.0000 </r>
      </set>
     </set>
    </array>
   </total>
  </dos>
 </calculation>
 <structure name="finalpos" >
  <crystal>
   <varray name="basis" >
    <v>      30.00000000       0.00000000       0.00000000 </v>
    <v>       0.00000000      30.00000000       0.00000000 </v>
    <v>       0.00000000       0.00000000      30.00000000 </v>
   </varray>
   <i name="volume">  27000.00000000 </i>
   <varray name="rec_basis" >
    <v>       0.03333333       0.00000000       0.00000000 </v>
    <v>       0.00000000       0.03333333       0.00000000 </v>
    <v>       0.00000000       0.00000000       0.03333333 </v>
   </varray>
  </crystal>
  <varray name="positions" >
   <v>       0.44576020       0.32826710       0.41691983 </v>
   <v>       0.67173288       0.55423978       0.41691983 </v>
   <v>       0.55423980       0.32826710       0.41691983 </v>
   <v>       0.32826712       0.55423978       0.41691983 </v>
   <v>       0.50000000       0.38250690       0.34021317 </v>
   <v>       0.50000000       0.38250690       0.65978680 </v>
   <v>       0.50000000       0.27609440       0.50000000 </v>
   <v>       0.27609443       0.49999998       0.50000000 </v>
   <v>       0.72390557       0.49999998       0.50000000 </v>
   <v>       0.50000000       0.72390555       0.50000000 </v>
   <v>       0.61195280       0.38804720       0.34167483 </v>
   <v>       0.61195280       0.38804720       0.65832513 </v>
   <v>       0.38804722       0.61195278       0.34167483 </v>
   <v>       0.38804722       0.61195278       0.65832513 </v>
   <v>       0.38804720       0.38804720       0.34167483 </v>
   <v>       0.38804720       0.38804720       0.65832513 </v>
   <v>       0.61195278       0.61195278       0.34167483 </v>
   <v>       0.61195278       0.61195278       0.65832513 </v>
   <v>       0.44576020       0.32826710       0.58308023 </v>
   <v>       0.67173288       0.55423978       0.58308023 </v>
   <v>       0.55791699       0.44208301       0.41809300 </v>
   <v>       0.32826705       0.44576024       0.41691983 </v>
   <v>       0.55423973       0.67173293       0.41691983 </v>
   <v>       0.55423980       0.32826710       0.58308023 </v>
   <v>       0.32826712       0.55423978       0.58308023 </v>
   <v>       0.67173295       0.44576024       0.41691983 </v>
   <v>       0.44576027       0.67173293       0.41691983 </v>
   <v>       0.44208301       0.44208301       0.41809300 </v>
   <v>       0.50000000       0.38416601       0.50000000 </v>
   <v>       0.61749315       0.50000005       0.34021317 </v>
   <v>       0.61749315       0.50000005       0.65978680 </v>
   <v>       0.38250685       0.50000005       0.34021317 </v>
   <v>       0.38250685       0.50000005       0.65978680 </v>
   <v>       0.38317830       0.38317830       0.50000000 </v>
   <v>       0.61682172       0.61682172       0.50000000 </v>
   <v>       0.61682170       0.38317830       0.50000000 </v>
   <v>       0.38317828       0.61682172       0.50000000 </v>
   <v>       0.50000000       0.50000000       0.33478917 </v>
   <v>       0.50000000       0.50000000       0.66521087 </v>
   <v>       0.32826705       0.44576024       0.58308023 </v>
   <v>       0.55423973       0.67173293       0.58308023 </v>
   <v>       0.55791699       0.44208301       0.58190703 </v>
   <v>       0.44208298       0.55791702       0.41809300 </v>
   <v>       0.44208301       0.44208301       0.58190703 </v>
   <v>       0.67173295       0.44576024       0.58308023 </v>
   <v>       0.44576027       0.67173293       0.58308023 </v>
   <v>       0.55791702       0.55791702       0.41809300 </v>
   <v>       0.38416599       0.50000002       0.50000000 </v>
   <v>       0.61583401       0.50000002       0.50000000 </v>
   <v>       0.50000000       0.61749319       0.34021317 </v>
   <v>       0.50000000       0.61749319       0.65978680 </v>
   <v>       0.50000000       0.50000000       0.50000000 </v>
   <v>       0.44208298       0.55791702       0.58190703 </v>
   <v>       0.55791702       0.55791702       0.58190703 </v>
   <v>       0.50000000       0.61583404       0.50000000 </v>
   <v>       0.48840843       0.52544673       0.24124783 </v>
   <v>       0.48673380       0.52912307       0.20386550 </v>
  </varray>
  <varray name="selective"  type="logical" >
   <v type="logical" >  F  F  F </v>
   <v type="logical" >  F  F  F </v>
   <v type="logical" >  F  F  F </v>
   <v type="logical" >  F  F  F </v>
   <v type="logical" >  F  F  F </v>
   <v type="logical" >  F  F  F </v>
   <v type="logical" >  F  F  F </v>
   <v type="logical" >  F  F  F </v>
   <v type="logical" >  F  F  F </v>
   <v type="logical" >  F  F  F </v>
   <v type="logical" >  F  F  F </v>
   <v type="logical" >  F  F  F </v>
   <v type="logical" >  F  F  F </v>
   <v type="logical" >  F  F  F </v>
   <v type="logical" >  F  F  F </v>
   <v type="logical" >  F  F  F </v>
   <v type="logical" >  F  F  F </v>
   <v type="logical" >  F  F  F </v>
   <v type="logical" >  F  F  F </v>
   <v type="logical" >  F  F  F </v>
   <v type="logical" >  F  F  F </v>
   <v type="logical" >  F  F  F </v>
   <v type="logical" >  F  F  F </v>
   <v type="logical" >  F  F  F </v>
   <v type="logical" >  F  F  F </v>
   <v type="logical" >  F  F  F </v>
   <v type="logical" >  F  F  F </v>
   <v type="logical" >  F  F  F </v>
   <v type="logical" >  F  F  F </v>
   <v type="logical" >  F  F  F </v>
   <v type="logical" >  F  F  F </v>
   <v type="logical" >  F  F  F </v>
   <v type="logical" >  F  F  F </v>
   <v type="logical" >  F  F  F </v>
   <v type="logical" >  F  F  F </v>
   <v type="logical" >  F  F  F </v>
   <v type="logical" >  F  F  F </v>
   <v type="logical" >  F  F  F </v>
   <v type="logical" >  F  F  F </v>
   <v type="logical" >  F  F  F </v>
   <v type="logical" >  F  F  F </v>
   <v type="logical" >  F  F  F </v>
   <v type="logical" >  F  F  F </v>
   <v type="logical" >  F  F  F </v>
   <v type="logical" >  F  F  F </v>
   <v type="logical" >  F  F  F </v>
   <v type="logical" >  F  F  F </v>
   <v type="logical" >  F  F  F </v>
   <v type="logical" >  F  F  F </v>
   <v type="logical" >  F  F  F </v>
   <v type="logical" >  F  F  F </v>
   <v type="logical" >  F  F  F </v>
   <v type="logical" >  F  F  F </v>
   <v type="logical" >  F  F  F </v>
   <v type="logical" >  F  F  F </v>
   <v type="logical" >  F  F  F </v>
   <v type="logical" >  F  F  F </v>
  </varray>
  <nose>
   <v>      -3.00000000       0.00000000       0.00010000       0.00010000 </v>
  </nose>
 </structure>
</modeling>
