   57   57    1    1
  0.4736842E+03  0.3000000E-08  0.3000000E-08  0.3000000E-08  0.5000000E-15
  1.000000000000000E-004
  CAR 
 6_Pd100_top_free_z(O)                   
    560      1    336
 
  0.0000000E+00  0.0000000E+00  0.0000000E+00  0.1000000E+01
    1      -28.094160   1.000000
    2      -13.633893   1.000000
    3      -11.372063   1.000000
    4      -10.986048   1.000000
    5      -10.648843   1.000000
    6       -6.846683   1.000000
    7       -6.754901   1.000000
    8       -6.638657   1.000000
    9       -6.209393   1.000000
   10       -6.140296   1.000000
   11       -6.132833   1.000000
   12       -5.930552   1.000000
   13       -5.904193   1.000000
   14       -5.871862   1.000000
   15       -5.808806   1.000000
   16       -5.777980   1.000000
   17       -5.768550   1.000000
   18       -5.735346   1.000000
   19       -5.690866   1.000000
   20       -5.685069   1.000000
   21       -5.681981   1.000000
   22       -5.680963   1.000000
   23       -5.609095   1.000000
   24       -5.601771   1.000000
   25       -5.596524   1.000000
   26       -5.595027   1.000000
   27       -5.594251   1.000000
   28       -5.570680   1.000000
   29       -5.545724   1.000000
   30       -5.536391   1.000000
   31       -5.532644   1.000000
   32       -5.527878   1.000000
   33       -5.520883   1.000000
   34       -5.517972   1.000000
   35       -5.515611   1.000000
   36       -5.510549   1.000000
   37       -5.506701   1.000000
   38       -5.500817   1.000000
   39       -5.496816   1.000000
   40       -5.488500   1.000000
   41       -5.477327   1.000000
   42       -5.472432   1.000000
   43       -5.471080   1.000000
   44       -5.467301   1.000000
   45       -5.464253   1.000000
   46       -5.459826   1.000000
   47       -5.452647   1.000000
   48       -5.434590   1.000000
   49       -5.427874   1.000000
   50       -5.423503   1.000000
   51       -5.422737   1.000000
   52       -5.411311   1.000000
   53       -5.403522   1.000000
   54       -5.401057   1.000000
   55       -5.398664   1.000000
   56       -5.393082   1.000000
   57       -5.384669   1.000000
   58       -5.377828   1.000000
   59       -5.366657   1.000000
   60       -5.337078   1.000000
   61       -5.323977   1.000000
   62       -5.319485   1.000000
   63       -5.314427   1.000000
   64       -5.313806   1.000000
   65       -5.310035   1.000000
   66       -5.306795   1.000000
   67       -5.302150   1.000000
   68       -5.301699   1.000000
   69       -5.289326   1.000000
   70       -5.281429   1.000000
   71       -5.258599   1.000000
   72       -5.221021   1.000000
   73       -5.191293   1.000000
   74       -5.185775   1.000000
   75       -5.182438   1.000000
   76       -5.179481   1.000000
   77       -5.177933   1.000000
   78       -5.177559   1.000000
   79       -5.175567   1.000000
   80       -5.168843   1.000000
   81       -5.151714   1.000000
   82       -5.148441   1.000000
   83       -5.145921   1.000000
   84       -5.141279   1.000000
   85       -5.123421   1.000000
   86       -5.120160   1.000000
   87       -5.116455   1.000000
   88       -5.099231   1.000000
   89       -5.097560   1.000000
   90       -5.093716   1.000000
   91       -5.079859   1.000000
   92       -5.059970   1.000000
   93       -5.056503   1.000000
   94       -5.050112   1.000000
   95       -5.048982   1.000000
   96       -5.047478   1.000000
   97       -5.045318   1.000000
   98       -5.033350   1.000000
   99       -5.028231   1.000000
  100       -5.023883   1.000000
  101       -5.022693   1.000000
  102       -5.015400   1.000000
  103       -5.012454   1.000000
  104       -5.006843   1.000000
  105       -5.004591   1.000000
  106       -5.002409   1.000000
  107       -5.002123   1.000000
  108       -4.994225   1.000000
  109       -4.983489   1.000000
  110       -4.981346   1.000000
  111       -4.977487   1.000000
  112       -4.975702   1.000000
  113       -4.969090   1.000000
  114       -4.967605   1.000000
  115       -4.960248   1.000000
  116       -4.955132   0.999999
  117       -4.950918   0.999999
  118       -4.949173   0.999999
  119       -4.929757   0.999999
  120       -4.924662   0.999998
  121       -4.917380   0.999998
  122       -4.915818   0.999998
  123       -4.911233   0.999998
  124       -4.909821   0.999997
  125       -4.900675   0.999997
  126       -4.898744   0.999996
  127       -4.890414   0.999995
  128       -4.875234   0.999992
  129       -4.874362   0.999992
  130       -4.867684   0.999990
  131       -4.843703   0.999979
  132       -4.839950   0.999977
  133       -4.835000   0.999973
  134       -4.830497   0.999969
  135       -4.830191   0.999969
  136       -4.827760   0.999967
  137       -4.820047   0.999959
  138       -4.808069   0.999942
  139       -4.803117   0.999934
  140       -4.794223   0.999916
  141       -4.790593   0.999908
  142       -4.770692   0.999846
  143       -4.755064   0.999774
  144       -4.750023   0.999745
  145       -4.734611   0.999636
  146       -4.733836   0.999629
  147       -4.733469   0.999626
  148       -4.729151   0.999589
  149       -4.720148   0.999499
  150       -4.706277   0.999329
  151       -4.704542   0.999305
  152       -4.702096   0.999270
  153       -4.689942   0.999072
  154       -4.681128   0.998904
  155       -4.678075   0.998841
  156       -4.677144   0.998821
  157       -4.670494   0.998672
  158       -4.669482   0.998648
  159       -4.667262   0.998594
  160       -4.661381   0.998446
  161       -4.659481   0.998395
  162       -4.652496   0.998201
  163       -4.650364   0.998139
  164       -4.648311   0.998078
  165       -4.646669   0.998028
  166       -4.642331   0.997893
  167       -4.640137   0.997823
  168       -4.634606   0.997640
  169       -4.630074   0.997484
  170       -4.629224   0.997455
  171       -4.625176   0.997311
  172       -4.620987   0.997160
  173       -4.609123   0.996719
  174       -4.594177   0.996161
  175       -4.592830   0.996112
  176       -4.591802   0.996075
  177       -4.588530   0.995959
  178       -4.586778   0.995898
  179       -4.584088   0.995806
  180       -4.571947   0.995436
  181       -4.565395   0.995277
  182       -4.561699   0.995203
  183       -4.553281   0.995090
  184       -4.551372   0.995077
  185       -4.549080   0.995067
  186       -4.548427   0.995066
  187       -4.547124   0.995065
  188       -4.546377   0.995066
  189       -4.543968   0.995074
  190       -4.542908   0.995081
  191       -4.513797   0.996180
  192       -4.512938   0.996245
  193       -4.509698   0.996511
  194       -4.502796   0.997188
  195       -4.501065   0.997383
  196       -4.493004   0.998433
  197       -4.487499   0.999292
  198       -4.480341   1.000593
  199       -4.477854   1.001095
  200       -4.471305   1.002546
  201       -4.467153   1.003565
  202       -4.464530   1.004249
  203       -4.463573   1.004507
  204       -4.461486   1.005082
  205       -4.458676   1.005889
  206       -4.454819   1.007055
  207       -4.453957   1.007325
  208       -4.445480   1.010157
  209       -4.440962   1.011796
  210       -4.435688   1.013818
  211       -4.424191   1.018600
  212       -4.417998   1.021358
  213       -4.411365   1.024423
  214       -4.408170   1.025931
  215       -4.405507   1.027199
  216       -4.403910   1.027964
  217       -4.399814   1.029933
  218       -4.397426   1.031083
  219       -4.395244   1.032133
  220       -4.392834   1.033289
  221       -4.391176   1.034082
  222       -4.386453   1.036315
  223       -4.357717   1.047889
  224       -4.349741   1.049960
  225       -4.348202   1.050276
  226       -4.341732   1.051260
  227       -4.334965   1.051625
  228       -4.333030   1.051590
  229       -4.330912   1.051475
  230       -4.330443   1.051439
  231       -4.325743   1.050841
  232       -4.324541   1.050618
  233       -4.323224   1.050339
  234       -4.321967   1.050039
  235       -4.319915   1.049475
  236       -4.315958   1.048120
  237       -4.315671   1.048007
  238       -4.310883   1.045837
  239       -4.310387   1.045580
  240       -4.305703   1.042834
  241       -4.299951   1.038646
  242       -4.296470   1.035651
  243       -4.294916   1.034198
  244       -4.293782   1.033090
  245       -4.288164   1.027013
  246       -4.286618   1.025164
  247       -4.280780   1.017465
  248       -4.280019   1.016377
  249       -4.276759   1.011487
  250       -4.275412   1.009358
  251       -4.263710   0.988104
  252       -4.259340   0.978864
  253       -4.256021   0.971361
  254       -4.250765   0.958616
  255       -4.248343   0.952382
  256       -4.245687   0.945287
  257       -4.245557   0.944931
  258       -4.244560   0.942193
  259       -4.238683   0.925260
  260       -4.238402   0.924419
  261       -4.234620   0.912777
  262       -4.232776   0.906900
  263       -4.231172   0.901684
  264       -4.230195   0.898459
  265       -4.228733   0.893564
  266       -4.217300   0.852556
  267       -4.216223   0.848450
  268       -4.213607   0.838302
  269       -4.212294   0.833121
  270       -4.211178   0.828667
  271       -4.209193   0.820647
  272       -4.194248   0.756217
  273       -4.192812   0.749679
  274       -4.189408   0.733953
  275       -4.185158   0.713901
  276       -4.178950   0.683848
  277       -4.175696   0.667769
  278       -4.164970   0.613438
  279       -4.164765   0.612380
  280       -4.163631   0.606538
  281       -4.162742   0.601940
  282       -4.149430   0.532253
  283       -4.148397   0.526802
  284       -4.127229   0.415280
  285       -4.125597   0.406790
  286       -4.121223   0.384187
  287       -4.114538   0.350150
  288       -4.103784   0.297069
  289       -3.985830  -0.039343
  290       -3.958438  -0.051209
  291       -3.905223  -0.038633
  292       -3.826541  -0.005472
  293       -3.816928  -0.002924
  294       -3.765817   0.004274
  295       -3.497422   0.000096
  296       -3.489994   0.000079
  297       -3.278530   0.000000
  298       -3.065052   0.000000
  299       -3.059656   0.000000
  300       -3.042313   0.000000
  301       -3.025347   0.000000
  302       -3.009392   0.000000
  303       -3.006987   0.000000
  304       -2.936324   0.000000
  305       -2.804081   0.000000
  306       -2.573447   0.000000
  307       -2.514621   0.000000
  308       -2.480218   0.000000
  309       -2.211450   0.000000
  310       -2.142377   0.000000
  311       -2.113332   0.000000
  312       -2.082052   0.000000
  313       -1.970319   0.000000
  314       -1.943322   0.000000
  315       -1.894238   0.000000
  316       -1.846709   0.000000
  317       -1.843993   0.000000
  318       -1.762644   0.000000
  319       -1.712911   0.000000
  320       -1.636221   0.000000
  321       -1.587420   0.000000
  322       -1.555866   0.000000
  323       -1.493866   0.000000
  324       -1.392809   0.000000
  325       -1.297909   0.000000
  326       -1.088639   0.000000
  327       -1.014032   0.000000
  328       -0.998737   0.000000
  329       -0.967147   0.000000
  330       -0.944205   0.000000
  331       -0.931136   0.000000
  332       -0.928237   0.000000
  333       -0.881896   0.000000
  334       -0.850265   0.000000
  335       -0.799885   0.000000
  336       -0.643178   0.000000
