<?xml version="1.0" encoding="ISO-8859-1"?>
<modeling>
 <generator>
  <i name="program" type="string">vasp </i>
  <i name="version" type="string">5.4.4.18Apr17-6-g9f103f2a35  </i>
  <i name="subversion" type="string">(build Sep 03 2018 23:53:05) complex            parallel </i>
  <i name="platform" type="string">LinuxIFC </i>
  <i name="date" type="string">2021 11 27 </i>
  <i name="time" type="string">14:13:22 </i>
 </generator>
 <incar>
  <i type="string" name="SYSTEM"> 6_Pd100_top_free_z(O)</i>
  <i type="int" name="ISTART">     0</i>
  <i type="string" name="PREC">normal   			! encut=max(enmax), ngx,y,z</i>
  <i type="string" name="ALGO"> Fast     			! Mix RMM-DIIS and Dav</i>
  <i type="logical" name="ADDGRID"> F  </i>
  <i type="int" name="ISPIN">     1</i>
  <i type="int" name="ICHARG">     2</i>
  <i type="int" name="NELM">   100</i>
  <i type="int" name="NELMIN">     6</i>
  <i type="int" name="IBRION">     2</i>
  <i name="EDIFF">      0.00010000</i>
  <i name="EDIFFG">     -0.05000000</i>
  <i type="int" name="NSW">     0</i>
  <i type="int" name="ISIF">     2</i>
  <i type="int" name="ISYM">     2</i>
  <i name="ENCUT">    400.00000000</i>
  <i type="string" name="LREAL"> Auto     			! Auto or A projection done</i>
  <i type="int" name="ISMEAR">     2</i>
  <i name="SIGMA">      0.20000000</i>
  <i type="logical" name="LWAVE"> F  </i>
  <i type="logical" name="LCHARG"> F  </i>
  <v type="int" name="KPOINT_BSE">    -1     0     0     0</v>
  <i type="int" name="MAXMEM"> 10000</i>
  <i type="int" name="NELM">   100</i>
  <i type="string" name="GGA"> RP         			! Revised PBE</i>
 </incar>
 <structure name="primitive_cell" >
  <crystal>
   <varray name="basis" >
    <v>      30.00000000       0.00000000       0.00000000 </v>
    <v>       0.00000000      30.00000000       0.00000000 </v>
    <v>       0.00000000       0.00000000      30.00000000 </v>
   </varray>
   <i name="volume">  27000.00000000 </i>
   <varray name="rec_basis" >
    <v>       0.03333333       0.00000000       0.00000000 </v>
    <v>       0.00000000       0.03333333       0.00000000 </v>
    <v>       0.00000000       0.00000000       0.03333333 </v>
   </varray>
  </crystal>
  <varray name="positions" >
   <v>       0.44576020       0.32826710       0.41691983 </v>
   <v>      -0.44576020       0.32826710       0.41691983 </v>
   <v>      -0.50000000       0.38250690       0.34021317 </v>
   <v>      -0.50000000       0.27609440      -0.50000000 </v>
   <v>       0.38804720       0.38804720       0.34167483 </v>
   <v>      -0.50000000       0.38416601      -0.50000000 </v>
   <v>       0.44208300       0.44208300       0.41809300 </v>
   <v>       0.38317830       0.38317830      -0.50000000 </v>
   <v>      -0.44208300       0.44208300       0.41809300 </v>
   <v>       0.44576020       0.32826710      -0.41691977 </v>
   <v>       0.32826705       0.44576024       0.41691983 </v>
   <v>      -0.38804720       0.38804720       0.34167483 </v>
   <v>      -0.38317830       0.38317830      -0.50000000 </v>
   <v>      -0.50000000      -0.50000000       0.33478917 </v>
   <v>      -0.50000000      -0.50000000      -0.50000000 </v>
   <v>      -0.44576020       0.32826710      -0.41691977 </v>
   <v>       0.38250685      -0.49999995       0.34021317 </v>
   <v>       0.44208300       0.44208300      -0.41809297 </v>
   <v>       0.38416599      -0.49999998      -0.50000000 </v>
   <v>      -0.49873693       0.47764943       0.28448083 </v>
   <v>      -0.44208300       0.44208300      -0.41809297 </v>
   <v>       0.44208298      -0.44208298       0.41809300 </v>
   <v>      -0.49851777       0.47377097       0.24708203 </v>
   <v>       0.32826705       0.44576024      -0.41691977 </v>
   <v>      -0.50000000       0.38250690      -0.34021320 </v>
   <v>       0.32826712      -0.44576022       0.41691983 </v>
   <v>      -0.38250685      -0.49999995       0.34021317 </v>
   <v>      -0.32826705       0.44576024       0.41691983 </v>
   <v>       0.27609443       0.49999998      -0.50000000 </v>
   <v>       0.38804720       0.38804720      -0.34167487 </v>
   <v>      -0.38416599      -0.49999998      -0.50000000 </v>
   <v>      -0.44208298      -0.44208298       0.41809300 </v>
   <v>       0.44208298      -0.44208298      -0.41809297 </v>
   <v>      -0.38804720       0.38804720      -0.34167487 </v>
   <v>       0.38804722      -0.38804722       0.34167483 </v>
   <v>       0.38250685      -0.49999995      -0.34021320 </v>
   <v>       0.32826712      -0.44576022      -0.41691977 </v>
   <v>      -0.32826705       0.44576024      -0.41691977 </v>
   <v>       0.50000000      -0.38250681       0.34021317 </v>
   <v>      -0.50000000      -0.38416596      -0.50000000 </v>
   <v>      -0.44208298      -0.44208298      -0.41809297 </v>
   <v>      -0.50000000      -0.50000000      -0.33478913 </v>
   <v>       0.38317828      -0.38317828      -0.50000000 </v>
   <v>      -0.32826712      -0.44576022       0.41691983 </v>
   <v>      -0.27609443       0.49999998      -0.50000000 </v>
   <v>      -0.38804722      -0.38804722       0.34167483 </v>
   <v>      -0.38250685      -0.49999995      -0.34021320 </v>
   <v>       0.44576027      -0.32826707       0.41691983 </v>
   <v>      -0.38317828      -0.38317828      -0.50000000 </v>
   <v>      -0.32826712      -0.44576022      -0.41691977 </v>
   <v>      -0.44576027      -0.32826707       0.41691983 </v>
   <v>       0.38804722      -0.38804722      -0.34167487 </v>
   <v>      -0.50000000      -0.38250681      -0.34021320 </v>
   <v>       0.44576027      -0.32826707      -0.41691977 </v>
   <v>      -0.44576027      -0.32826707      -0.41691977 </v>
   <v>      -0.50000000      -0.27609445       0.50000000 </v>
   <v>      -0.38804722      -0.38804722      -0.34167487 </v>
  </varray>
 </structure>
 <varray name="primitive_index" >
  <v type="int" >        1 </v>
  <v type="int" >        3 </v>
  <v type="int" >        5 </v>
  <v type="int" >        7 </v>
  <v type="int" >       15 </v>
  <v type="int" >       29 </v>
  <v type="int" >       28 </v>
  <v type="int" >       34 </v>
  <v type="int" >       21 </v>
  <v type="int" >       19 </v>
  <v type="int" >       22 </v>
  <v type="int" >       11 </v>
  <v type="int" >       36 </v>
  <v type="int" >       38 </v>
  <v type="int" >       52 </v>
  <v type="int" >       24 </v>
  <v type="int" >       32 </v>
  <v type="int" >       44 </v>
  <v type="int" >       48 </v>
  <v type="int" >       56 </v>
  <v type="int" >       42 </v>
  <v type="int" >       43 </v>
  <v type="int" >       57 </v>
  <v type="int" >       40 </v>
  <v type="int" >        6 </v>
  <v type="int" >        4 </v>
  <v type="int" >       30 </v>
  <v type="int" >       26 </v>
  <v type="int" >        8 </v>
  <v type="int" >       16 </v>
  <v type="int" >       49 </v>
  <v type="int" >       47 </v>
  <v type="int" >       53 </v>
  <v type="int" >       12 </v>
  <v type="int" >       13 </v>
  <v type="int" >       33 </v>
  <v type="int" >       25 </v>
  <v type="int" >       45 </v>
  <v type="int" >       50 </v>
  <v type="int" >       55 </v>
  <v type="int" >       54 </v>
  <v type="int" >       39 </v>
  <v type="int" >       37 </v>
  <v type="int" >        2 </v>
  <v type="int" >        9 </v>
  <v type="int" >       17 </v>
  <v type="int" >       31 </v>
  <v type="int" >       27 </v>
  <v type="int" >       35 </v>
  <v type="int" >       20 </v>
  <v type="int" >       23 </v>
  <v type="int" >       14 </v>
  <v type="int" >       51 </v>
  <v type="int" >       46 </v>
  <v type="int" >       41 </v>
  <v type="int" >       10 </v>
  <v type="int" >       18 </v>
 </varray>
 <kpoints>
  <generation param="Monkhorst-Pack">
   <v type="int" name="divisions">       1        1        1 </v>
   <v name="usershift">      0.00000000       0.00000000       0.00000000 </v>
   <v name="genvec1">      1.00000000       0.00000000       0.00000000 </v>
   <v name="genvec2">      0.00000000       1.00000000       0.00000000 </v>
   <v name="genvec3">      0.00000000       0.00000000       1.00000000 </v>
   <v name="shift">      0.00000000       0.00000000       0.00000000 </v>
  </generation>
  <varray name="kpointlist" >
   <v>       0.00000000       0.00000000       0.00000000 </v>
  </varray>
  <varray name="weights" >
   <v>       1.00000000 </v>
  </varray>
 </kpoints>
 <parameters>
  <separator name="general" >
   <i type="string" name="SYSTEM">6_Pd100_top_free_z(O)</i>
   <i type="logical" name="LCOMPAT"> F  </i>
  </separator>
  <separator name="electronic" >
   <i type="string" name="PREC">normal</i>
   <i name="ENMAX">    400.00000000</i>
   <i name="ENAUG">    644.87300000</i>
   <i name="EDIFF">      0.00010000</i>
   <i type="int" name="IALGO">    68</i>
   <i type="int" name="IWAVPR">    10</i>
   <i type="int" name="NBANDS">   336</i>
   <i name="NELECT">    560.00000000</i>
   <i type="int" name="TURBO">     0</i>
   <i type="int" name="IRESTART">     0</i>
   <i type="int" name="NREBOOT">     0</i>
   <i type="int" name="NMIN">     0</i>
   <i name="EREF">      0.00000000</i>
   <separator name="electronic smearing" >
    <i type="int" name="ISMEAR">     2</i>
    <i name="SIGMA">      0.20000000</i>
    <i name="KSPACING">      0.50000000</i>
    <i type="logical" name="KGAMMA"> T  </i>
   </separator>
   <separator name="electronic projectors" >
    <i type="logical" name="LREAL"> T  </i>
    <v name="ROPT">     -0.00050000     -0.00050000     -0.00050000</v>
    <i type="int" name="LMAXPAW">  -100</i>
    <i type="int" name="LMAXMIX">     2</i>
    <i type="logical" name="NLSPLINE"> F  </i>
   </separator>
   <separator name="electronic startup" >
    <i type="int" name="ISTART">     0</i>
    <i type="int" name="ICHARG">     2</i>
    <i type="int" name="INIWAV">     1</i>
   </separator>
   <separator name="electronic spin" >
    <i type="int" name="ISPIN">     1</i>
    <i type="logical" name="LNONCOLLINEAR"> F  </i>
    <v name="MAGMOM">      1.00000000      1.00000000      1.00000000      1.00000000      1.00000000      1.00000000      1.00000000      1.00000000      1.00000000      1.00000000      1.00000000      1.00000000      1.00000000      1.00000000      1.00000000      1.00000000      1.00000000      1.00000000      1.00000000      1.00000000
      1.00000000      1.00000000      1.00000000      1.00000000      1.00000000      1.00000000      1.00000000      1.00000000      1.00000000      1.00000000      1.00000000      1.00000000      1.00000000      1.00000000      1.00000000      1.00000000      1.00000000      1.00000000      1.00000000      1.00000000
      1.00000000      1.00000000      1.00000000      1.00000000      1.00000000      1.00000000      1.00000000      1.00000000      1.00000000      1.00000000      1.00000000      1.00000000      1.00000000      1.00000000      1.00000000      1.00000000      1.00000000</v>
    <i name="NUPDOWN">     -1.00000000</i>
    <i type="logical" name="LSORBIT"> F  </i>
    <v name="SAXIS">      0.00000000      0.00000000      1.00000000</v>
    <i type="logical" name="LSPIRAL"> F  </i>
    <v name="QSPIRAL">      0.00000000      0.00000000      0.00000000</v>
    <i type="logical" name="LZEROZ"> F  </i>
   </separator>
   <separator name="electronic exchange-correlation" >
    <i type="logical" name="LASPH"> F  </i>
    <i type="logical" name="LMETAGGA"> F  </i>
   </separator>
   <separator name="electronic convergence" >
    <i type="int" name="NELM">   100</i>
    <i type="int" name="NELMDL">    -5</i>
    <i type="int" name="NELMIN">     6</i>
    <i name="ENINI">    400.00000000</i>
    <separator name="electronic convergence detail" >
     <i type="logical" name="LDIAG"> T  </i>
     <i type="logical" name="LSUBROT"> F  </i>
     <i name="WEIMIN">      0.00000000</i>
     <i name="EBREAK">      0.00000007</i>
     <i name="DEPER">      0.30000000</i>
     <i type="int" name="NRMM">     4</i>
     <i name="TIME">      0.40000000</i>
    </separator>
   </separator>
   <separator name="electronic mixer" >
    <i name="AMIX">      0.40000000</i>
    <i name="BMIX">      1.00000000</i>
    <i name="AMIN">      0.10000000</i>
    <i name="AMIX_MAG">      1.60000000</i>
    <i name="BMIX_MAG">      1.00000000</i>
    <separator name="electronic mixer details" >
     <i type="int" name="IMIX">     4</i>
     <i type="logical" name="MIXFIRST"> F  </i>
     <i type="int" name="MAXMIX">   -45</i>
     <i name="WC">    100.00000000</i>
     <i type="int" name="INIMIX">     1</i>
     <i type="int" name="MIXPRE">     1</i>
     <i type="int" name="MREMOVE">     5</i>
    </separator>
   </separator>
   <separator name="electronic dipolcorrection" >
    <i type="logical" name="LDIPOL"> F  </i>
    <i type="logical" name="LMONO"> F  </i>
    <i type="int" name="IDIPOL">     0</i>
    <i name="EPSILON">      1.00000000</i>
    <v name="DIPOL">   -100.00000000   -100.00000000   -100.00000000</v>
    <i name="EFIELD">      0.00000000</i>
   </separator>
  </separator>
  <separator name="grids" >
   <i type="int" name="NGX">   150</i>
   <i type="int" name="NGY">   150</i>
   <i type="int" name="NGZ">   150</i>
   <i type="int" name="NGXF">   300</i>
   <i type="int" name="NGYF">   300</i>
   <i type="int" name="NGZF">   300</i>
   <i type="logical" name="ADDGRID"> F  </i>
  </separator>
  <separator name="ionic" >
   <i type="int" name="NSW">     0</i>
   <i type="int" name="IBRION">    -1</i>
   <i type="int" name="MDALGO">     0</i>
   <i type="int" name="ISIF">     2</i>
   <i name="PSTRESS">      0.00000000</i>
   <i name="EDIFFG">     -0.05000000</i>
   <i type="int" name="NFREE">     1</i>
   <i name="POTIM">      0.50000000</i>
   <i name="SMASS">     -3.00000000</i>
   <i name="SCALEE">      1.00000000</i>
  </separator>
  <separator name="ionic md" >
   <i name="TEBEG">      0.00010000</i>
   <i name="TEEND">      0.00010000</i>
   <i type="int" name="NBLOCK">     1</i>
   <i type="int" name="KBLOCK">     1</i>
   <i type="int" name="NPACO">   256</i>
   <i name="APACO">     16.00000000</i>
  </separator>
  <separator name="symmetry" >
   <i type="int" name="ISYM">     2</i>
   <i name="SYMPREC">      0.00001000</i>
  </separator>
  <separator name="dos" >
   <i type="int" name="LORBIT">     0</i>
   <v name="RWIGS">     -1.00000000     -1.00000000     -1.00000000</v>
   <i type="int" name="NEDOS">   301</i>
   <i name="EMIN">     10.00000000</i>
   <i name="EMAX">    -10.00000000</i>
   <i name="EFERMI">      0.00000000</i>
  </separator>
  <separator name="writing" >
   <i type="int" name="NWRITE">     2</i>
   <i type="logical" name="LWAVE"> F  </i>
   <i type="logical" name="LDOWNSAMPLE"> F  </i>
   <i type="logical" name="LCHARG"> F  </i>
   <i type="logical" name="LPARD"> F  </i>
   <i type="logical" name="LVTOT"> F  </i>
   <i type="logical" name="LVHAR"> F  </i>
   <i type="logical" name="LELF"> F  </i>
   <i type="logical" name="LOPTICS"> F  </i>
   <v name="STM">      0.00000000      0.00000000      0.00000000      0.00000000      0.00000000      0.00000000      0.00000000</v>
  </separator>
  <separator name="performance" >
   <i type="int" name="NPAR">     1</i>
   <i type="int" name="NSIM">     4</i>
   <i type="int" name="NBLK">    -1</i>
   <i type="logical" name="LPLANE"> T  </i>
   <i type="logical" name="LSCALAPACK"> T  </i>
   <i type="logical" name="LSCAAWARE"> F  </i>
   <i type="logical" name="LSCALU"> F  </i>
   <i type="logical" name="LASYNC"> F  </i>
   <i type="logical" name="LORBITALREAL"> F  </i>
  </separator>
  <separator name="miscellaneous" >
   <i type="int" name="IDIOT">     3</i>
   <i type="int" name="ISPECIAL">     0</i>
   <i type="logical" name="LMUSIC"> F  </i>
   <v name="POMASS">    106.42000000     12.01100000     16.00000000</v>
   <v name="DARWINR">      0.00000000      0.00000000      0.00000000</v>
   <v name="DARWINV">      1.00000000      1.00000000      1.00000000</v>
   <i type="logical" name="LCORR"> T  </i>
  </separator>
  <i type="logical" name="GGA_COMPAT"> T  </i>
  <i type="logical" name="LBERRY"> F  </i>
  <i type="int" name="ICORELEVEL">     0</i>
  <i type="logical" name="LDAU"> F  </i>
  <i type="int" name="I_CONSTRAINED_M">     0</i>
  <separator name="electronic exchange-correlation" >
   <i type="string" name="GGA">RP</i>
   <i type="int" name="VOSKOWN">     0</i>
   <i type="logical" name="LHFCALC"> F  </i>
   <i type="string" name="PRECFOCK"></i>
   <i type="logical" name="LSYMGRAD"> F  </i>
   <i type="logical" name="LHFONE"> F  </i>
   <i type="logical" name="LRHFCALC"> F  </i>
   <i type="logical" name="LTHOMAS"> F  </i>
   <i type="logical" name="LMODELHF"> F  </i>
   <i name="ENCUT4O">     -1.00000000</i>
   <i type="int" name="EXXOEP">     0</i>
   <i type="int" name="FOURORBIT">     0</i>
   <i name="AEXX">      0.00000000</i>
   <i name="HFALPHA">      0.00000000</i>
   <i name="MCALPHA">      0.00000000</i>
   <i name="ALDAX">      1.00000000</i>
   <i name="AGGAX">      1.00000000</i>
   <i name="ALDAC">      1.00000000</i>
   <i name="AGGAC">      1.00000000</i>
   <i type="int" name="NKREDX">     1</i>
   <i type="int" name="NKREDY">     1</i>
   <i type="int" name="NKREDZ">     1</i>
   <i type="logical" name="SHIFTRED"> F  </i>
   <i type="logical" name="ODDONLY"> F  </i>
   <i type="logical" name="EVENONLY"> F  </i>
   <i type="int" name="LMAXFOCK">     0</i>
   <i type="int" name="NMAXFOCKAE">     0</i>
   <i type="logical" name="LFOCKAEDFT"> F  </i>
   <i name="HFSCREEN">      0.00000000</i>
   <i name="HFSCREENC">      0.00000000</i>
   <i type="int" name="NBANDSGWLOW">     0</i>
  </separator>
  <separator name="vdW DFT" >
   <i type="logical" name="LUSE_VDW"> F  </i>
   <i name="Zab_VDW">     -0.84910000</i>
   <i name="PARAM1">      0.12340000</i>
   <i name="PARAM2">      1.00000000</i>
   <i name="PARAM3">      0.00000000</i>
  </separator>
  <separator name="model GW" >
   <i type="int" name="MODEL_GW">     0</i>
   <i name="MODEL_EPS0">    284.21052632</i>
   <i name="MODEL_ALPHA">      1.00000000</i>
  </separator>
  <separator name="linear response parameters" >
   <i type="logical" name="LEPSILON"> F  </i>
   <i type="logical" name="LRPA"> F  </i>
   <i type="logical" name="LNABLA"> F  </i>
   <i type="logical" name="LVEL"> F  </i>
   <i type="int" name="KINTER">     0</i>
   <i name="CSHIFT">      0.10000000</i>
   <i name="OMEGAMAX">     -1.00000000</i>
   <i name="DEG_THRESHOLD">      0.00200000</i>
   <i name="RTIME">     -0.10000000</i>
   <i name="WPLASMAI">      0.00000000</i>
   <v name="DFIELD">      0.00000000      0.00000000      0.00000000</v>
   <v name="WPLASMA">      0.00000000      0.00000000      0.00000000      0.00000000      0.00000000      0.00000000      0.00000000      0.00000000      0.00000000</v>
  </separator>
  <separator name="orbital magnetization" >
   <i type="logical" name="NUCIND"> F  </i>
   <v name="MAGPOS">      0.00000000      0.00000000      0.00000000</v>
   <i type="logical" name="LNICSALL"> T  </i>
   <i type="logical" name="ORBITALMAG"> F  </i>
   <i type="logical" name="LMAGBLOCH"> F  </i>
   <i type="logical" name="LCHIMAG"> F  </i>
   <i type="logical" name="LGAUGE"> T  </i>
   <i type="int" name="MAGATOM">     0</i>
   <v name="MAGDIPOL">      0.00000000      0.00000000      0.00000000</v>
   <v name="AVECCONST">      0.00000000      0.00000000      0.00000000</v>
  </separator>
  <separator name="response functions" >
   <i type="logical" name="LADDER"> F  </i>
   <i type="logical" name="LRPAFORCE"> F  </i>
   <i type="logical" name="LFXC"> F  </i>
   <i type="logical" name="LHARTREE"> T  </i>
   <i type="int" name="IBSE">     0</i>
   <v type="int" name="KPOINT">    -1     0     0     0</v>
   <i type="logical" name="LTCTE"> F  </i>
   <i type="logical" name="LTETE"> F  </i>
   <i type="logical" name="LTRIPLET"> F  </i>
   <i type="logical" name="LFXCEPS"> F  </i>
   <i type="logical" name="LFXHEG"> F  </i>
   <i type="int" name="NATURALO">     2</i>
   <i type="logical" name="L2ORDER"> F  </i>
   <i type="logical" name="LMP2LT"> F  </i>
   <i type="logical" name="LUSEW"> F  </i>
   <i name="ENCUTGW">     -2.00000000</i>
   <i name="ENCUTGWSOFT">     -2.00000000</i>
   <i name="ENCUTLF">     -1.00000000</i>
   <i type="int" name="LMAXMP2">    -1</i>
   <i name="SCISSOR">      0.00000000</i>
   <i type="int" name="NOMEGA">     0</i>
   <i type="int" name="NOMEGAR">     0</i>
   <i type="int" name="NBANDSGW">    -1</i>
   <i type="int" name="NBANDSO">    -1</i>
   <i type="int" name="NBANDSV">    -1</i>
   <i type="int" name="NELM">   100</i>
   <i type="int" name="NELMHF">     1</i>
   <i type="int" name="DIM">     3</i>
   <i type="int" name="ANTIRES">     0</i>
   <i name="OMEGAMAX">    -30.00000000</i>
   <i name="OMEGAMIN">    -30.00000000</i>
   <i name="OMEGATL">   -200.00000000</i>
   <i type="int" name="OMEGAGRID">   140</i>
   <i name="CSHIFT">     -0.10000000</i>
   <i type="logical" name="SELFENERGY"> F  </i>
   <i type="logical" name="LSPECTRAL"> F  </i>
   <i type="logical" name="LSPECTRALGW"> F  </i>
   <i type="logical" name="LSINGLES"> F  </i>
   <i type="logical" name="LFERMIGW"> F  </i>
   <i type="logical" name="ODDONLYGW"> F  </i>
   <i type="logical" name="EVENONLYGW"> F  </i>
   <i type="int" name="NKREDLFX">     1</i>
   <i type="int" name="NKREDLFY">     1</i>
   <i type="int" name="NKREDLFZ">     1</i>
   <i type="int" name="MAXMEM"> 10000</i>
   <i type="int" name="TELESCOPE">     0</i>
   <i type="int" name="TAUPAR">     1</i>
   <i type="int" name="OMEGAPAR">    -1</i>
   <i name="LAMBDA">      1.00000000</i>
  </separator>
  <separator name="External order field" >
   <i name="OFIELD_KAPPA">      0.00000000</i>
   <v name="OFIELD_K">      0.00000000      0.00000000      0.00000000</v>
   <i name="OFIELD_Q6_NEAR">      0.00000000</i>
   <i name="OFIELD_Q6_FAR">      0.00000000</i>
   <i name="OFIELD_A">      0.00000000</i>
  </separator>
 </parameters>
 <atominfo>
  <atoms>      57 </atoms>
  <types>       3 </types>
  <array name="atoms" >
   <dimension dim="1">ion</dimension>
   <field type="string">element</field>
   <field type="int">atomtype</field>
   <set>
    <rc><c>Pd</c><c>   1</c></rc>
    <rc><c>Pd</c><c>   1</c></rc>
    <rc><c>Pd</c><c>   1</c></rc>
    <rc><c>Pd</c><c>   1</c></rc>
    <rc><c>Pd</c><c>   1</c></rc>
    <rc><c>Pd</c><c>   1</c></rc>
    <rc><c>Pd</c><c>   1</c></rc>
    <rc><c>Pd</c><c>   1</c></rc>
    <rc><c>Pd</c><c>   1</c></rc>
    <rc><c>Pd</c><c>   1</c></rc>
    <rc><c>Pd</c><c>   1</c></rc>
    <rc><c>Pd</c><c>   1</c></rc>
    <rc><c>Pd</c><c>   1</c></rc>
    <rc><c>Pd</c><c>   1</c></rc>
    <rc><c>Pd</c><c>   1</c></rc>
    <rc><c>Pd</c><c>   1</c></rc>
    <rc><c>Pd</c><c>   1</c></rc>
    <rc><c>Pd</c><c>   1</c></rc>
    <rc><c>Pd</c><c>   1</c></rc>
    <rc><c>Pd</c><c>   1</c></rc>
    <rc><c>Pd</c><c>   1</c></rc>
    <rc><c>Pd</c><c>   1</c></rc>
    <rc><c>Pd</c><c>   1</c></rc>
    <rc><c>Pd</c><c>   1</c></rc>
    <rc><c>Pd</c><c>   1</c></rc>
    <rc><c>Pd</c><c>   1</c></rc>
    <rc><c>Pd</c><c>   1</c></rc>
    <rc><c>Pd</c><c>   1</c></rc>
    <rc><c>Pd</c><c>   1</c></rc>
    <rc><c>Pd</c><c>   1</c></rc>
    <rc><c>Pd</c><c>   1</c></rc>
    <rc><c>Pd</c><c>   1</c></rc>
    <rc><c>Pd</c><c>   1</c></rc>
    <rc><c>Pd</c><c>   1</c></rc>
    <rc><c>Pd</c><c>   1</c></rc>
    <rc><c>Pd</c><c>   1</c></rc>
    <rc><c>Pd</c><c>   1</c></rc>
    <rc><c>Pd</c><c>   1</c></rc>
    <rc><c>Pd</c><c>   1</c></rc>
    <rc><c>Pd</c><c>   1</c></rc>
    <rc><c>Pd</c><c>   1</c></rc>
    <rc><c>Pd</c><c>   1</c></rc>
    <rc><c>Pd</c><c>   1</c></rc>
    <rc><c>Pd</c><c>   1</c></rc>
    <rc><c>Pd</c><c>   1</c></rc>
    <rc><c>Pd</c><c>   1</c></rc>
    <rc><c>Pd</c><c>   1</c></rc>
    <rc><c>Pd</c><c>   1</c></rc>
    <rc><c>Pd</c><c>   1</c></rc>
    <rc><c>Pd</c><c>   1</c></rc>
    <rc><c>Pd</c><c>   1</c></rc>
    <rc><c>Pd</c><c>   1</c></rc>
    <rc><c>Pd</c><c>   1</c></rc>
    <rc><c>Pd</c><c>   1</c></rc>
    <rc><c>Pd</c><c>   1</c></rc>
    <rc><c>C </c><c>   2</c></rc>
    <rc><c>O </c><c>   3</c></rc>
   </set>
  </array>
  <array name="atomtypes" >
   <dimension dim="1">type</dimension>
   <field type="int">atomspertype</field>
   <field type="string">element</field>
   <field>mass</field>
   <field>valence</field>
   <field type="string">pseudopotential</field>
   <set>
    <rc><c>  55</c><c>Pd</c><c>    106.42000000</c><c>     10.00000000</c><c>  PAW_PBE Pd 04Jan2005                  </c></rc>
    <rc><c>   1</c><c>C </c><c>     12.01100000</c><c>      4.00000000</c><c>  PAW_PBE C 08Apr2002                   </c></rc>
    <rc><c>   1</c><c>O </c><c>     16.00000000</c><c>      6.00000000</c><c>  PAW_PBE O 08Apr2002                   </c></rc>
   </set>
  </array>
 </atominfo>
 <structure name="initialpos" >
  <crystal>
   <varray name="basis" >
    <v>      30.00000000       0.00000000       0.00000000 </v>
    <v>       0.00000000      30.00000000       0.00000000 </v>
    <v>       0.00000000       0.00000000      30.00000000 </v>
   </varray>
   <i name="volume">  27000.00000000 </i>
   <varray name="rec_basis" >
    <v>       0.03333333       0.00000000       0.00000000 </v>
    <v>       0.00000000       0.03333333       0.00000000 </v>
    <v>       0.00000000       0.00000000       0.03333333 </v>
   </varray>
  </crystal>
  <varray name="positions" >
   <v>       0.44576020       0.32826710       0.41691983 </v>
   <v>       0.67173288       0.55423978       0.41691983 </v>
   <v>       0.55423980       0.32826710       0.41691983 </v>
   <v>       0.32826712       0.55423978       0.41691983 </v>
   <v>       0.50000000       0.38250690       0.34021317 </v>
   <v>       0.50000000       0.38250690       0.65978680 </v>
   <v>       0.50000000       0.27609440       0.50000000 </v>
   <v>       0.27609443       0.49999998       0.50000000 </v>
   <v>       0.72390557       0.49999998       0.50000000 </v>
   <v>       0.50000000       0.72390555       0.50000000 </v>
   <v>       0.61195280       0.38804720       0.34167483 </v>
   <v>       0.61195280       0.38804720       0.65832513 </v>
   <v>       0.38804722       0.61195278       0.34167483 </v>
   <v>       0.38804722       0.61195278       0.65832513 </v>
   <v>       0.38804720       0.38804720       0.34167483 </v>
   <v>       0.38804720       0.38804720       0.65832513 </v>
   <v>       0.61195278       0.61195278       0.34167483 </v>
   <v>       0.61195278       0.61195278       0.65832513 </v>
   <v>       0.44576020       0.32826710       0.58308023 </v>
   <v>       0.67173288       0.55423978       0.58308023 </v>
   <v>       0.55791699       0.44208301       0.41809300 </v>
   <v>       0.32826705       0.44576024       0.41691983 </v>
   <v>       0.55423973       0.67173293       0.41691983 </v>
   <v>       0.55423980       0.32826710       0.58308023 </v>
   <v>       0.32826712       0.55423978       0.58308023 </v>
   <v>       0.67173295       0.44576024       0.41691983 </v>
   <v>       0.44576027       0.67173293       0.41691983 </v>
   <v>       0.44208301       0.44208301       0.41809300 </v>
   <v>       0.50000000       0.38416601       0.50000000 </v>
   <v>       0.61749315       0.50000005       0.34021317 </v>
   <v>       0.61749315       0.50000005       0.65978680 </v>
   <v>       0.38250685       0.50000005       0.34021317 </v>
   <v>       0.38250685       0.50000005       0.65978680 </v>
   <v>       0.38317830       0.38317830       0.50000000 </v>
   <v>       0.61682172       0.61682172       0.50000000 </v>
   <v>       0.61682170       0.38317830       0.50000000 </v>
   <v>       0.38317828       0.61682172       0.50000000 </v>
   <v>       0.50000000       0.50000000       0.33478917 </v>
   <v>       0.50000000       0.50000000       0.66521087 </v>
   <v>       0.32826705       0.44576024       0.58308023 </v>
   <v>       0.55423973       0.67173293       0.58308023 </v>
   <v>       0.55791699       0.44208301       0.58190703 </v>
   <v>       0.44208298       0.55791702       0.41809300 </v>
   <v>       0.44208301       0.44208301       0.58190703 </v>
   <v>       0.67173295       0.44576024       0.58308023 </v>
   <v>       0.44576027       0.67173293       0.58308023 </v>
   <v>       0.55791702       0.55791702       0.41809300 </v>
   <v>       0.38416599       0.50000002       0.50000000 </v>
   <v>       0.61583401       0.50000002       0.50000000 </v>
   <v>       0.50000000       0.61749319       0.34021317 </v>
   <v>       0.50000000       0.61749319       0.65978680 </v>
   <v>       0.50000000       0.50000000       0.50000000 </v>
   <v>       0.44208298       0.55791702       0.58190703 </v>
   <v>       0.55791702       0.55791702       0.58190703 </v>
   <v>       0.50000000       0.61583404       0.50000000 </v>
   <v>       0.50126307       0.47764943       0.28448083 </v>
   <v>       0.50148223       0.47377097       0.24708203 </v>
  </varray>
  <varray name="selective"  type="logical" >
   <v type="logical" >  F  F  F </v>
   <v type="logical" >  F  F  F </v>
   <v type="logical" >  F  F  F </v>
   <v type="logical" >  F  F  F </v>
   <v type="logical" >  F  F  F </v>
   <v type="logical" >  F  F  F </v>
   <v type="logical" >  F  F  F </v>
   <v type="logical" >  F  F  F </v>
   <v type="logical" >  F  F  F </v>
   <v type="logical" >  F  F  F </v>
   <v type="logical" >  F  F  F </v>
   <v type="logical" >  F  F  F </v>
   <v type="logical" >  F  F  F </v>
   <v type="logical" >  F  F  F </v>
   <v type="logical" >  F  F  F </v>
   <v type="logical" >  F  F  F </v>
   <v type="logical" >  F  F  F </v>
   <v type="logical" >  F  F  F </v>
   <v type="logical" >  F  F  F </v>
   <v type="logical" >  F  F  F </v>
   <v type="logical" >  F  F  F </v>
   <v type="logical" >  F  F  F </v>
   <v type="logical" >  F  F  F </v>
   <v type="logical" >  F  F  F </v>
   <v type="logical" >  F  F  F </v>
   <v type="logical" >  F  F  F </v>
   <v type="logical" >  F  F  F </v>
   <v type="logical" >  F  F  F </v>
   <v type="logical" >  F  F  F </v>
   <v type="logical" >  F  F  F </v>
   <v type="logical" >  F  F  F </v>
   <v type="logical" >  F  F  F </v>
   <v type="logical" >  F  F  F </v>
   <v type="logical" >  F  F  F </v>
   <v type="logical" >  F  F  F </v>
   <v type="logical" >  F  F  F </v>
   <v type="logical" >  F  F  F </v>
   <v type="logical" >  F  F  F </v>
   <v type="logical" >  F  F  F </v>
   <v type="logical" >  F  F  F </v>
   <v type="logical" >  F  F  F </v>
   <v type="logical" >  F  F  F </v>
   <v type="logical" >  F  F  F </v>
   <v type="logical" >  F  F  F </v>
   <v type="logical" >  F  F  F </v>
   <v type="logical" >  F  F  F </v>
   <v type="logical" >  F  F  F </v>
   <v type="logical" >  F  F  F </v>
   <v type="logical" >  F  F  F </v>
   <v type="logical" >  F  F  F </v>
   <v type="logical" >  F  F  F </v>
   <v type="logical" >  F  F  F </v>
   <v type="logical" >  F  F  F </v>
   <v type="logical" >  F  F  F </v>
   <v type="logical" >  F  F  F </v>
   <v type="logical" >  F  F  F </v>
   <v type="logical" >  F  F  F </v>
  </varray>
  <nose>
   <v>      -3.00000000       0.00000000       0.00010000       0.00010000 </v>
  </nose>
 </structure>
 <calculation>
  <scstep>
   <time name="dav">  359.99  360.06</time>
   <time name="total">  374.16  374.24</time>
   <energy>
    <i name="alphaZ">     75.25431677 </i>
    <i name="ewald"> 139046.34940752 </i>
    <i name="hartreedc">-182396.92827722 </i>
    <i name="XCdc">  -1702.41655606 </i>
    <i name="pawpsdc">  44873.02882129 </i>
    <i name="pawaedc"> -41398.84523641 </i>
    <i name="eentropy">      0.02796309 </i>
    <i name="bandstr">    817.12452510 </i>
    <i name="atom">  45086.50549395 </i>
    <i name="e_fr_energy">   4400.10045803 </i>
    <i name="e_wo_entrp">   4400.07249494 </i>
    <i name="e_0_energy">   4400.09346726 </i>
   </energy>
  </scstep>
  <scstep>
   <time name="dav">  574.55  574.55</time>
   <time name="total">  574.55  574.55</time>
   <energy>
    <i name="e_fr_energy">   2031.72823603 </i>
    <i name="e_wo_entrp">   2031.75766697 </i>
    <i name="e_0_energy">   2031.73559376 </i>
   </energy>
  </scstep>
  <scstep>
   <time name="dav">  484.19  484.19</time>
   <time name="total">  484.19  484.19</time>
   <energy>
    <i name="e_fr_energy">    243.17541605 </i>
    <i name="e_wo_entrp">    243.23471886 </i>
    <i name="e_0_energy">    243.19024176 </i>
   </energy>
  </scstep>
  <scstep>
   <time name="dav">  417.60  417.60</time>
   <time name="total">  417.60  417.60</time>
   <energy>
    <i name="e_fr_energy">   -134.09831573 </i>
    <i name="e_wo_entrp">   -134.14543522 </i>
    <i name="e_0_energy">   -134.11009561 </i>
   </energy>
  </scstep>
  <scstep>
   <time name="dav">  502.83  502.84</time>
   <time name="total">  528.47  528.47</time>
   <energy>
    <i name="e_fr_energy">   -180.40849337 </i>
    <i name="e_wo_entrp">   -180.91158007 </i>
    <i name="e_0_energy">   -180.53426505 </i>
   </energy>
  </scstep>
  <scstep>
   <time name="diag">   64.50   64.51</time>
   <time name="diis">  185.85  185.85</time>
   <time name="orth">   12.29   12.29</time>
   <time name="total">  301.63  301.63</time>
   <energy>
    <i name="e_fr_energy">   -180.32924254 </i>
    <i name="e_wo_entrp">   -180.11607381 </i>
    <i name="e_0_energy">   -180.27595036 </i>
   </energy>
  </scstep>
  <scstep>
   <time name="diag">   65.22   65.22</time>
   <time name="diis">  220.49  220.49</time>
   <time name="orth">   12.40   12.40</time>
   <time name="total">  336.62  336.62</time>
   <energy>
    <i name="e_fr_energy">   -185.15305506 </i>
    <i name="e_wo_entrp">   -185.06931912 </i>
    <i name="e_0_energy">   -185.13212107 </i>
   </energy>
  </scstep>
  <scstep>
   <time name="diag">   67.07   67.07</time>
   <time name="diis">  204.97  204.97</time>
   <time name="orth">   12.87   12.87</time>
   <time name="total">  323.82  323.82</time>
   <energy>
    <i name="e_fr_energy">   -187.97555633 </i>
    <i name="e_wo_entrp">   -187.88802473 </i>
    <i name="e_0_energy">   -187.95367343 </i>
   </energy>
  </scstep>
  <scstep>
   <time name="diag">   65.61   65.61</time>
   <time name="diis">  188.94  188.95</time>
   <time name="orth">   12.60   12.60</time>
   <time name="total">  305.94  305.95</time>
   <energy>
    <i name="e_fr_energy">   -186.23616276 </i>
    <i name="e_wo_entrp">   -186.11138744 </i>
    <i name="e_0_energy">   -186.20496893 </i>
   </energy>
  </scstep>
  <scstep>
   <time name="diag">   66.46   66.47</time>
   <time name="diis">  189.07  189.07</time>
   <time name="orth">   12.65   12.65</time>
   <time name="total">  306.62  306.63</time>
   <energy>
    <i name="e_fr_energy">   -184.07694279 </i>
    <i name="e_wo_entrp">   -184.12155894 </i>
    <i name="e_0_energy">   -184.08809683 </i>
   </energy>
  </scstep>
  <scstep>
   <time name="diag">   66.16   66.16</time>
   <time name="diis">  190.43  190.43</time>
   <time name="orth">   12.89   12.89</time>
   <time name="total">  308.88  308.88</time>
   <energy>
    <i name="e_fr_energy">   -180.91877925 </i>
    <i name="e_wo_entrp">   -180.86195805 </i>
    <i name="e_0_energy">   -180.90457395 </i>
   </energy>
  </scstep>
  <scstep>
   <time name="diag">   65.54   65.55</time>
   <time name="diis">  184.45  184.46</time>
   <time name="orth">   13.11   13.11</time>
   <time name="total">  302.20  302.22</time>
   <energy>
    <i name="e_fr_energy">   -178.68495579 </i>
    <i name="e_wo_entrp">   -178.61673674 </i>
    <i name="e_0_energy">   -178.66790103 </i>
   </energy>
  </scstep>
  <scstep>
   <time name="diag">   65.86   65.86</time>
   <time name="diis">  189.06  189.07</time>
   <time name="orth">   12.84   12.84</time>
   <time name="total">  307.22  307.23</time>
   <energy>
    <i name="e_fr_energy">   -179.00131364 </i>
    <i name="e_wo_entrp">   -178.99489859 </i>
    <i name="e_0_energy">   -178.99970988 </i>
   </energy>
  </scstep>
  <scstep>
   <time name="diag">   66.79   66.79</time>
   <time name="diis">  188.66  188.66</time>
   <time name="orth">   13.01   13.01</time>
   <time name="total">  308.60  308.61</time>
   <energy>
    <i name="e_fr_energy">   -181.00021108 </i>
    <i name="e_wo_entrp">   -181.29068317 </i>
    <i name="e_0_energy">   -181.07282911 </i>
   </energy>
  </scstep>
  <scstep>
   <time name="diag">   66.65   66.65</time>
   <time name="diis">  187.87  187.87</time>
   <time name="orth">   12.94   12.94</time>
   <time name="total">  307.78  307.78</time>
   <energy>
    <i name="e_fr_energy">   -177.91974886 </i>
    <i name="e_wo_entrp">   -177.93318295 </i>
    <i name="e_0_energy">   -177.92310738 </i>
   </energy>
  </scstep>
  <scstep>
   <time name="diag">   68.04   68.04</time>
   <time name="diis">  185.11  185.12</time>
   <time name="orth">   13.05   13.05</time>
   <time name="total">  306.26  306.27</time>
   <energy>
    <i name="e_fr_energy">   -176.86190793 </i>
    <i name="e_wo_entrp">   -176.83693633 </i>
    <i name="e_0_energy">   -176.85566503 </i>
   </energy>
  </scstep>
  <scstep>
   <time name="diag">   67.92   67.92</time>
   <time name="diis">  181.56  181.56</time>
   <time name="orth">   12.90   12.90</time>
   <time name="total">  302.10  302.11</time>
   <energy>
    <i name="e_fr_energy">   -176.19719755 </i>
    <i name="e_wo_entrp">   -176.25911799 </i>
    <i name="e_0_energy">   -176.21267766 </i>
   </energy>
  </scstep>
  <scstep>
   <time name="diag">   67.18   67.18</time>
   <time name="diis">  181.62  181.62</time>
   <time name="orth">   12.92   12.92</time>
   <time name="total">  302.17  302.17</time>
   <energy>
    <i name="e_fr_energy">   -175.68379813 </i>
    <i name="e_wo_entrp">   -175.67665423 </i>
    <i name="e_0_energy">   -175.68201215 </i>
   </energy>
  </scstep>
  <scstep>
   <time name="diag">   67.82   67.82</time>
   <time name="diis">  181.80  181.80</time>
   <time name="orth">   12.87   12.87</time>
   <time name="total">  302.78  302.78</time>
   <energy>
    <i name="e_fr_energy">   -175.57694871 </i>
    <i name="e_wo_entrp">   -175.56319057 </i>
    <i name="e_0_energy">   -175.57350918 </i>
   </energy>
  </scstep>
  <scstep>
   <time name="diag">   68.30   68.30</time>
   <time name="diis">  181.84  181.84</time>
   <time name="orth">   12.91   12.91</time>
   <time name="total">  303.24  303.25</time>
   <energy>
    <i name="e_fr_energy">   -175.62856391 </i>
    <i name="e_wo_entrp">   -175.64363730 </i>
    <i name="e_0_energy">   -175.63233226 </i>
   </energy>
  </scstep>
  <scstep>
   <time name="diag">   69.13   69.13</time>
   <time name="diis">  185.84  185.84</time>
   <time name="orth">   12.92   12.92</time>
   <time name="total">  308.21  308.21</time>
   <energy>
    <i name="e_fr_energy">   -175.41534558 </i>
    <i name="e_wo_entrp">   -175.42924639 </i>
    <i name="e_0_energy">   -175.41882078 </i>
   </energy>
  </scstep>
  <scstep>
   <time name="diag">   68.04   68.04</time>
   <time name="diis">  185.20  185.21</time>
   <time name="orth">   13.02   13.02</time>
   <time name="total">  306.84  306.86</time>
   <energy>
    <i name="e_fr_energy">   -175.13174799 </i>
    <i name="e_wo_entrp">   -175.13533140 </i>
    <i name="e_0_energy">   -175.13264384 </i>
   </energy>
  </scstep>
  <scstep>
   <time name="diag">   67.45   67.45</time>
   <time name="diis">  184.49  184.49</time>
   <time name="orth">   13.21   13.21</time>
   <time name="total">  305.97  305.97</time>
   <energy>
    <i name="e_fr_energy">   -174.93753131 </i>
    <i name="e_wo_entrp">   -174.92628971 </i>
    <i name="e_0_energy">   -174.93472091 </i>
   </energy>
  </scstep>
  <scstep>
   <time name="diag">   67.40   67.40</time>
   <time name="diis">  183.04  183.05</time>
   <time name="orth">   13.22   13.22</time>
   <time name="total">  304.75  304.76</time>
   <energy>
    <i name="e_fr_energy">   -174.84280484 </i>
    <i name="e_wo_entrp">   -174.82192128 </i>
    <i name="e_0_energy">   -174.83758395 </i>
   </energy>
  </scstep>
  <scstep>
   <time name="diag">   67.69   67.69</time>
   <time name="diis">  182.58  182.59</time>
   <time name="orth">   13.35   13.35</time>
   <time name="total">  304.85  304.86</time>
   <energy>
    <i name="e_fr_energy">   -174.84851072 </i>
    <i name="e_wo_entrp">   -174.82646344 </i>
    <i name="e_0_energy">   -174.84299890 </i>
   </energy>
  </scstep>
  <scstep>
   <time name="diag">   67.67   67.67</time>
   <time name="diis">  182.28  182.28</time>
   <time name="orth">   13.47   13.47</time>
   <time name="total">  305.43  305.43</time>
   <energy>
    <i name="e_fr_energy">   -174.79099814 </i>
    <i name="e_wo_entrp">   -174.75308587 </i>
    <i name="e_0_energy">   -174.78152007 </i>
   </energy>
  </scstep>
  <scstep>
   <time name="diag">   69.21   69.21</time>
   <time name="diis">  184.01  184.02</time>
   <time name="orth">   13.41   13.41</time>
   <time name="total">  308.99  309.00</time>
   <energy>
    <i name="e_fr_energy">   -174.78240774 </i>
    <i name="e_wo_entrp">   -174.75714677 </i>
    <i name="e_0_energy">   -174.77609249 </i>
   </energy>
  </scstep>
  <scstep>
   <time name="diag">   69.45   69.45</time>
   <time name="diis">  182.72  182.72</time>
   <time name="orth">   13.40   13.40</time>
   <time name="total">  308.32  308.32</time>
   <energy>
    <i name="e_fr_energy">   -174.75564697 </i>
    <i name="e_wo_entrp">   -174.72887686 </i>
    <i name="e_0_energy">   -174.74895444 </i>
   </energy>
  </scstep>
  <scstep>
   <time name="diag">   68.87   68.87</time>
   <time name="diis">  183.51  183.52</time>
   <time name="orth">   13.28   13.28</time>
   <time name="total">  308.46  308.48</time>
   <energy>
    <i name="e_fr_energy">   -174.70691246 </i>
    <i name="e_wo_entrp">   -174.66841185 </i>
    <i name="e_0_energy">   -174.69728731 </i>
   </energy>
  </scstep>
  <scstep>
   <time name="diag">   68.77   68.78</time>
   <time name="diis">  181.98  181.99</time>
   <time name="orth">   12.98   12.98</time>
   <time name="total">  306.54  306.56</time>
   <energy>
    <i name="e_fr_energy">   -174.64783306 </i>
    <i name="e_wo_entrp">   -174.60811476 </i>
    <i name="e_0_energy">   -174.63790349 </i>
   </energy>
  </scstep>
  <scstep>
   <time name="diag">   69.46   69.46</time>
   <time name="diis">  183.56  183.57</time>
   <time name="orth">   13.14   13.14</time>
   <time name="total">  308.74  308.76</time>
   <energy>
    <i name="e_fr_energy">   -174.64838735 </i>
    <i name="e_wo_entrp">   -174.60430289 </i>
    <i name="e_0_energy">   -174.63736623 </i>
   </energy>
  </scstep>
  <scstep>
   <time name="diag">   69.23   69.23</time>
   <time name="diis">  182.94  182.94</time>
   <time name="orth">   13.18   13.18</time>
   <time name="total">  307.89  307.91</time>
   <energy>
    <i name="e_fr_energy">   -174.62440926 </i>
    <i name="e_wo_entrp">   -174.58358015 </i>
    <i name="e_0_energy">   -174.61420199 </i>
   </energy>
  </scstep>
  <scstep>
   <time name="diag">   69.87   69.88</time>
   <time name="diis">  183.24  183.25</time>
   <time name="orth">   12.99   12.99</time>
   <time name="total">  308.49  308.50</time>
   <energy>
    <i name="e_fr_energy">   -174.62073162 </i>
    <i name="e_wo_entrp">   -174.58097804 </i>
    <i name="e_0_energy">   -174.61079323 </i>
   </energy>
  </scstep>
  <scstep>
   <time name="diag">   69.45   69.45</time>
   <time name="diis">  184.15  184.16</time>
   <time name="orth">   12.93   12.93</time>
   <time name="total">  308.86  308.88</time>
   <energy>
    <i name="e_fr_energy">   -174.61709447 </i>
    <i name="e_wo_entrp">   -174.57808020 </i>
    <i name="e_0_energy">   -174.60734090 </i>
   </energy>
  </scstep>
  <scstep>
   <time name="diag">   69.51   69.51</time>
   <time name="diis">  184.69  184.69</time>
   <time name="orth">   12.85   12.85</time>
   <time name="total">  309.60  309.61</time>
   <energy>
    <i name="e_fr_energy">   -174.61482857 </i>
    <i name="e_wo_entrp">   -174.57740346 </i>
    <i name="e_0_energy">   -174.60547229 </i>
   </energy>
  </scstep>
  <scstep>
   <time name="diag">   69.81   69.81</time>
   <time name="diis">  185.49  185.49</time>
   <time name="orth">   12.82   12.83</time>
   <time name="total">  310.76  310.77</time>
   <energy>
    <i name="e_fr_energy">   -174.61575647 </i>
    <i name="e_wo_entrp">   -174.57356970 </i>
    <i name="e_0_energy">   -174.60520978 </i>
   </energy>
  </scstep>
  <scstep>
   <time name="diag">   69.38   69.38</time>
   <time name="diis">  183.53  183.53</time>
   <time name="orth">   12.82   12.82</time>
   <time name="total">  308.19  308.20</time>
   <energy>
    <i name="e_fr_energy">   -174.61578601 </i>
    <i name="e_wo_entrp">   -174.57249877 </i>
    <i name="e_0_energy">   -174.60496420 </i>
   </energy>
  </scstep>
  <scstep>
   <time name="diag">   69.47   69.47</time>
   <time name="diis">  183.33  183.33</time>
   <time name="orth">   12.85   12.85</time>
   <time name="total">  308.10  308.10</time>
   <energy>
    <i name="e_fr_energy">   -174.61682296 </i>
    <i name="e_wo_entrp">   -174.57635547 </i>
    <i name="e_0_energy">   -174.60670609 </i>
   </energy>
  </scstep>
  <scstep>
   <time name="diag">   69.02   69.02</time>
   <time name="diis">  182.48  182.49</time>
   <time name="orth">   12.88   12.88</time>
   <time name="total">  306.79  306.80</time>
   <energy>
    <i name="e_fr_energy">   -174.61844943 </i>
    <i name="e_wo_entrp">   -174.58093231 </i>
    <i name="e_0_energy">   -174.60907015 </i>
   </energy>
  </scstep>
  <scstep>
   <time name="diag">   68.79   68.79</time>
   <time name="diis">  181.45  181.46</time>
   <time name="orth">   12.88   12.88</time>
   <time name="total">  305.67  305.67</time>
   <energy>
    <i name="e_fr_energy">   -174.62015292 </i>
    <i name="e_wo_entrp">   -174.58127914 </i>
    <i name="e_0_energy">   -174.61043448 </i>
   </energy>
  </scstep>
  <scstep>
   <time name="diag">   68.80   68.80</time>
   <time name="diis">  173.45  173.45</time>
   <time name="orth">   12.68   12.68</time>
   <time name="total">  297.56  297.56</time>
   <energy>
    <i name="e_fr_energy">   -174.62184766 </i>
    <i name="e_wo_entrp">   -174.58239350 </i>
    <i name="e_0_energy">   -174.61198412 </i>
   </energy>
  </scstep>
  <scstep>
   <time name="diag">   68.14   68.14</time>
   <time name="diis">  140.43  140.43</time>
   <time name="orth">   13.05   13.05</time>
   <time name="total">  263.80  263.80</time>
   <energy>
    <i name="e_fr_energy">   -174.62339582 </i>
    <i name="e_wo_entrp">   -174.58385448 </i>
    <i name="e_0_energy">   -174.61351048 </i>
   </energy>
  </scstep>
  <scstep>
   <time name="diag">   67.40   67.40</time>
   <time name="diis">  143.18  143.18</time>
   <time name="orth">   12.88   12.88</time>
   <time name="total">  265.88  265.88</time>
   <energy>
    <i name="e_fr_energy">   -174.62610111 </i>
    <i name="e_wo_entrp">   -174.58640021 </i>
    <i name="e_0_energy">   -174.61617589 </i>
   </energy>
  </scstep>
  <scstep>
   <time name="diag">   65.67   65.67</time>
   <time name="diis">  122.18  122.18</time>
   <time name="orth">   13.27   13.28</time>
   <time name="total">  244.50  244.51</time>
   <energy>
    <i name="e_fr_energy">   -174.62776030 </i>
    <i name="e_wo_entrp">   -174.58781585 </i>
    <i name="e_0_energy">   -174.61777419 </i>
   </energy>
  </scstep>
  <scstep>
   <time name="diag">   66.27   66.27</time>
   <time name="diis">  144.44  144.45</time>
   <time name="orth">   13.13   13.13</time>
   <time name="total">  267.36  267.37</time>
   <energy>
    <i name="e_fr_energy">   -174.63122048 </i>
    <i name="e_wo_entrp">   -174.59166226 </i>
    <i name="e_0_energy">   -174.62133093 </i>
   </energy>
  </scstep>
  <scstep>
   <time name="diag">   66.48   66.48</time>
   <time name="diis">  120.12  120.12</time>
   <time name="orth">   13.10   13.10</time>
   <time name="total">  243.46  243.46</time>
   <energy>
    <i name="e_fr_energy">   -174.63243169 </i>
    <i name="e_wo_entrp">   -174.59306795 </i>
    <i name="e_0_energy">   -174.62259075 </i>
   </energy>
  </scstep>
  <scstep>
   <time name="diag">   67.71   67.71</time>
   <time name="diis">  126.74  126.74</time>
   <time name="orth">   13.04   13.04</time>
   <time name="total">  251.15  251.15</time>
   <energy>
    <i name="e_fr_energy">   -174.63504644 </i>
    <i name="e_wo_entrp">   -174.59604205 </i>
    <i name="e_0_energy">   -174.62529534 </i>
   </energy>
  </scstep>
  <scstep>
   <time name="diag">   67.34   67.34</time>
   <time name="diis">  119.91  119.91</time>
   <time name="orth">   12.82   12.82</time>
   <time name="total">  243.88  243.87</time>
   <energy>
    <i name="e_fr_energy">   -174.63661312 </i>
    <i name="e_wo_entrp">   -174.59768691 </i>
    <i name="e_0_energy">   -174.62688157 </i>
   </energy>
  </scstep>
  <scstep>
   <time name="diag">   66.69   66.69</time>
   <time name="diis">  119.93  119.93</time>
   <time name="orth">   12.74   12.74</time>
   <time name="total">  242.17  242.17</time>
   <energy>
    <i name="e_fr_energy">   -174.63781852 </i>
    <i name="e_wo_entrp">   -174.59915466 </i>
    <i name="e_0_energy">   -174.62815255 </i>
   </energy>
  </scstep>
  <scstep>
   <time name="diag">   67.02   67.03</time>
   <time name="diis">  118.72  118.72</time>
   <time name="orth">   12.69   12.69</time>
   <time name="total">  241.34  241.35</time>
   <energy>
    <i name="e_fr_energy">   -174.63874401 </i>
    <i name="e_wo_entrp">   -174.59950568 </i>
    <i name="e_0_energy">   -174.62893443 </i>
   </energy>
  </scstep>
  <scstep>
   <time name="diag">   65.64   65.64</time>
   <time name="diis">  117.75  117.76</time>
   <time name="orth">   12.72   12.72</time>
   <time name="total">  238.61  238.62</time>
   <energy>
    <i name="e_fr_energy">   -174.63918123 </i>
    <i name="e_wo_entrp">   -174.60015674 </i>
    <i name="e_0_energy">   -174.62942511 </i>
   </energy>
  </scstep>
  <scstep>
   <time name="diag">   66.12   66.12</time>
   <time name="diis">  114.97  114.97</time>
   <time name="orth">   12.69   12.69</time>
   <time name="total">  237.42  237.43</time>
   <energy>
    <i name="e_fr_energy">   -174.64007733 </i>
    <i name="e_wo_entrp">   -174.60093051 </i>
    <i name="e_0_energy">   -174.63029062 </i>
   </energy>
  </scstep>
  <scstep>
   <time name="diag">   66.63   66.64</time>
   <time name="diis">  103.35  103.36</time>
   <time name="orth">   12.53   12.53</time>
   <time name="total">  226.64  226.65</time>
   <energy>
    <i name="e_fr_energy">   -174.64034473 </i>
    <i name="e_wo_entrp">   -174.60150159 </i>
    <i name="e_0_energy">   -174.63063394 </i>
   </energy>
  </scstep>
  <scstep>
   <time name="diag">   67.32   67.33</time>
   <time name="diis">  106.47  106.48</time>
   <time name="orth">   12.71   12.71</time>
   <time name="total">  229.88  229.90</time>
   <energy>
    <i name="e_fr_energy">   -174.64108210 </i>
    <i name="e_wo_entrp">   -174.60205869 </i>
    <i name="e_0_energy">   -174.63132624 </i>
   </energy>
  </scstep>
  <scstep>
   <time name="diag">   66.93   66.93</time>
   <time name="diis">   90.22   90.22</time>
   <time name="orth">   12.91   12.91</time>
   <time name="total">  211.72  211.74</time>
   <energy>
    <i name="e_fr_energy">   -174.64134495 </i>
    <i name="e_wo_entrp">   -174.60235796 </i>
    <i name="e_0_energy">   -174.63159820 </i>
   </energy>
  </scstep>
  <scstep>
   <time name="diag">   65.77   65.78</time>
   <time name="diis">   95.32   95.32</time>
   <time name="orth">   12.83   12.83</time>
   <time name="total">  216.64  216.65</time>
   <energy>
    <i name="e_fr_energy">   -174.64174575 </i>
    <i name="e_wo_entrp">   -174.60278149 </i>
    <i name="e_0_energy">   -174.63200469 </i>
   </energy>
  </scstep>
  <scstep>
   <time name="diag">   65.08   65.08</time>
   <time name="diis">   85.00   85.01</time>
   <time name="orth">   13.20   13.20</time>
   <time name="total">  206.43  206.45</time>
   <energy>
    <i name="e_fr_energy">   -174.64197360 </i>
    <i name="e_wo_entrp">   -174.60303746 </i>
    <i name="e_0_energy">   -174.63223957 </i>
   </energy>
  </scstep>
  <scstep>
   <time name="diag">   65.95   65.95</time>
   <time name="diis">   86.59   86.59</time>
   <time name="orth">   12.26   12.26</time>
   <time name="total">  208.78  208.79</time>
   <energy>
    <i name="e_fr_energy">   -174.64219020 </i>
    <i name="e_wo_entrp">   -174.60315358 </i>
    <i name="e_0_energy">   -174.63243105 </i>
   </energy>
  </scstep>
  <scstep>
   <time name="diag">   66.19   66.20</time>
   <time name="diis">   84.29   84.29</time>
   <time name="orth">   12.73   12.73</time>
   <time name="total">  206.18  206.19</time>
   <energy>
    <i name="e_fr_energy">   -174.64238523 </i>
    <i name="e_wo_entrp">   -174.60338930 </i>
    <i name="e_0_energy">   -174.63263625 </i>
   </energy>
  </scstep>
  <scstep>
   <time name="diag">   64.52   64.52</time>
   <time name="diis">   83.71   83.71</time>
   <time name="orth">   12.84   12.84</time>
   <time name="total">  204.15  204.15</time>
   <energy>
    <i name="e_fr_energy">   -174.64253981 </i>
    <i name="e_wo_entrp">   -174.60358345 </i>
    <i name="e_0_energy">   -174.63280072 </i>
   </energy>
  </scstep>
  <scstep>
   <time name="diag">   65.45   65.45</time>
   <time name="diis">   75.35   75.35</time>
   <time name="orth">   12.83   12.83</time>
   <time name="total">  167.65  167.65</time>
   <energy>
    <i name="alphaZ">     75.25431677 </i>
    <i name="ewald"> 139046.34940752 </i>
    <i name="hartreedc">-183392.83986019 </i>
    <i name="XCdc">  -1691.54302735 </i>
    <i name="pawpsdc">  46393.96757700 </i>
    <i name="pawaedc"> -42866.35888196 </i>
    <i name="eentropy">     -0.03899493 </i>
    <i name="bandstr">  -2825.93867044 </i>
    <i name="atom">  45086.50549395 </i>
    <i name="e_fr_energy">   -174.64263963 </i>
    <i name="e_wo_entrp">   -174.60364471 </i>
    <i name="e_0_energy">   -174.63289090 </i>
   </energy>
  </scstep>
  <structure>
   <crystal>
    <varray name="basis" >
     <v>      30.00000000       0.00000000       0.00000000 </v>
     <v>       0.00000000      30.00000000       0.00000000 </v>
     <v>       0.00000000       0.00000000      30.00000000 </v>
    </varray>
    <i name="volume">  27000.00000000 </i>
    <varray name="rec_basis" >
     <v>       0.03333333       0.00000000       0.00000000 </v>
     <v>       0.00000000       0.03333333       0.00000000 </v>
     <v>       0.00000000       0.00000000       0.03333333 </v>
    </varray>
   </crystal>
   <varray name="positions" >
    <v>       0.44576020       0.32826710       0.41691983 </v>
    <v>       0.67173288       0.55423978       0.41691983 </v>
    <v>       0.55423980       0.32826710       0.41691983 </v>
    <v>       0.32826712       0.55423978       0.41691983 </v>
    <v>       0.50000000       0.38250690       0.34021317 </v>
    <v>       0.50000000       0.38250690       0.65978680 </v>
    <v>       0.50000000       0.27609440       0.50000000 </v>
    <v>       0.27609443       0.49999998       0.50000000 </v>
    <v>       0.72390557       0.49999998       0.50000000 </v>
    <v>       0.50000000       0.72390555       0.50000000 </v>
    <v>       0.61195280       0.38804720       0.34167483 </v>
    <v>       0.61195280       0.38804720       0.65832513 </v>
    <v>       0.38804722       0.61195278       0.34167483 </v>
    <v>       0.38804722       0.61195278       0.65832513 </v>
    <v>       0.38804720       0.38804720       0.34167483 </v>
    <v>       0.38804720       0.38804720       0.65832513 </v>
    <v>       0.61195278       0.61195278       0.34167483 </v>
    <v>       0.61195278       0.61195278       0.65832513 </v>
    <v>       0.44576020       0.32826710       0.58308023 </v>
    <v>       0.67173288       0.55423978       0.58308023 </v>
    <v>       0.55791699       0.44208301       0.41809300 </v>
    <v>       0.32826705       0.44576024       0.41691983 </v>
    <v>       0.55423973       0.67173293       0.41691983 </v>
    <v>       0.55423980       0.32826710       0.58308023 </v>
    <v>       0.32826712       0.55423978       0.58308023 </v>
    <v>       0.67173295       0.44576024       0.41691983 </v>
    <v>       0.44576027       0.67173293       0.41691983 </v>
    <v>       0.44208301       0.44208301       0.41809300 </v>
    <v>       0.50000000       0.38416601       0.50000000 </v>
    <v>       0.61749315       0.50000005       0.34021317 </v>
    <v>       0.61749315       0.50000005       0.65978680 </v>
    <v>       0.38250685       0.50000005       0.34021317 </v>
    <v>       0.38250685       0.50000005       0.65978680 </v>
    <v>       0.38317830       0.38317830       0.50000000 </v>
    <v>       0.61682172       0.61682172       0.50000000 </v>
    <v>       0.61682170       0.38317830       0.50000000 </v>
    <v>       0.38317828       0.61682172       0.50000000 </v>
    <v>       0.50000000       0.50000000       0.33478917 </v>
    <v>       0.50000000       0.50000000       0.66521087 </v>
    <v>       0.32826705       0.44576024       0.58308023 </v>
    <v>       0.55423973       0.67173293       0.58308023 </v>
    <v>       0.55791699       0.44208301       0.58190703 </v>
    <v>       0.44208298       0.55791702       0.41809300 </v>
    <v>       0.44208301       0.44208301       0.58190703 </v>
    <v>       0.67173295       0.44576024       0.58308023 </v>
    <v>       0.44576027       0.67173293       0.58308023 </v>
    <v>       0.55791702       0.55791702       0.41809300 </v>
    <v>       0.38416599       0.50000002       0.50000000 </v>
    <v>       0.61583401       0.50000002       0.50000000 </v>
    <v>       0.50000000       0.61749319       0.34021317 </v>
    <v>       0.50000000       0.61749319       0.65978680 </v>
    <v>       0.50000000       0.50000000       0.50000000 </v>
    <v>       0.44208298       0.55791702       0.58190703 </v>
    <v>       0.55791702       0.55791702       0.58190703 </v>
    <v>       0.50000000       0.61583404       0.50000000 </v>
    <v>       0.50126307       0.47764943       0.28448083 </v>
    <v>       0.50148223       0.47377097       0.24708203 </v>
   </varray>
  </structure>
  <varray name="forces" >
   <v>       0.70328356       1.09214945       0.30400744 </v>
   <v>      -1.10327022      -0.70510659       0.28916225 </v>
   <v>      -0.70307891       1.09162152       0.30475458 </v>
   <v>       1.10409494      -0.70518456       0.28857114 </v>
   <v>       0.00013905       0.48416490       1.28304702 </v>
   <v>       0.00023143       0.40738693      -1.27890264 </v>
   <v>       0.00039683       1.50318840      -0.02186256 </v>
   <v>       1.50617769      -0.00508254      -0.01484102 </v>
   <v>      -1.50536068      -0.00503539      -0.01548744 </v>
   <v>       0.00033416      -1.50828273      -0.00896233 </v>
   <v>      -0.72054714       0.72240728       1.07112535 </v>
   <v>      -0.75393786       0.75156017      -1.07336398 </v>
   <v>       0.74436711      -0.74405164       1.07074264 </v>
   <v>       0.74982335      -0.75267051      -1.07527645 </v>
   <v>       0.72199300       0.72398426       1.07116622 </v>
   <v>       0.75386334       0.75117188      -1.07332049 </v>
   <v>      -0.74332171      -0.74276543       1.07077606 </v>
   <v>      -0.74953351      -0.75276616      -1.07496650 </v>
   <v>       0.69631437       1.11290656      -0.28333438 </v>
   <v>      -1.11133928      -0.69407103      -0.28438631 </v>
   <v>       0.17329875      -0.15160174      -0.09127444 </v>
   <v>       1.09797855       0.70190660       0.30216257 </v>
   <v>      -0.69912036      -1.10518680       0.29073424 </v>
   <v>      -0.69654159       1.11297082      -0.28342001 </v>
   <v>       1.11143818      -0.69431460      -0.28473751 </v>
   <v>      -1.09698675       0.70194333       0.30284376 </v>
   <v>       0.69947030      -1.10546005       0.29009679 </v>
   <v>      -0.17368051      -0.14917284      -0.09306741 </v>
   <v>       0.00012493      -0.21603381      -0.00006014 </v>
   <v>      -0.39693435       0.01956560       1.32857986 </v>
   <v>      -0.40436068      -0.00213755      -1.27992413 </v>
   <v>       0.39497458       0.01946294       1.32977890 </v>
   <v>       0.40391239      -0.00210066      -1.27985338 </v>
   <v>       0.82616146       0.82943134      -0.00005774 </v>
   <v>      -0.81594478      -0.81245041       0.02484435 </v>
   <v>      -0.82672872       0.82963821      -0.00147739 </v>
   <v>       0.81500556      -0.81179869       0.02623475 </v>
   <v>      -0.13298716       2.38499285       6.88413851 </v>
   <v>       0.00059903      -0.00991724      -1.18565343 </v>
   <v>       1.11021693       0.69762387      -0.28600091 </v>
   <v>      -0.69586391      -1.10858514      -0.28649034 </v>
   <v>       0.11446263      -0.11258399       0.15220435 </v>
   <v>      -0.08487524       0.11733781      -0.15572606 </v>
   <v>      -0.11448539      -0.11254510       0.15197181 </v>
   <v>      -1.11008168       0.69741853      -0.28569993 </v>
   <v>       0.69582712      -1.10875828      -0.28651920 </v>
   <v>       0.08992498       0.12519528      -0.14843863 </v>
   <v>      -0.21267944      -0.00042263       0.00008204 </v>
   <v>       0.21301085      -0.00051334       0.00009924 </v>
   <v>      -0.00090753      -0.39372874       1.33175751 </v>
   <v>       0.00012926      -0.39904066      -1.28092491 </v>
   <v>      -0.00007951       0.00171147      -0.01231571 </v>
   <v>      -0.11477127       0.11463346       0.14820987 </v>
   <v>       0.11470722       0.11457825       0.14842940 </v>
   <v>       0.00003881       0.20779014      -0.00058627 </v>
   <v>       0.06580080      -1.39294819      -0.49025526 </v>
   <v>       0.05931701      -1.01242482      -5.52833376 </v>
  </varray>
  <varray name="stress" >
   <v>      -6.70076357      -0.00527718      -0.01483279 </v>
   <v>      -0.00527715      -6.61405710       0.27622116 </v>
   <v>      -0.01483283       0.27622120      -5.83264356 </v>
  </varray>
  <energy>
   <i name="e_fr_energy">   -174.64263963 </i>
   <i name="e_wo_entrp">   -174.63289090 </i>
   <i name="e_0_energy">     -0.03899493 </i>
  </energy>
  <time name="totalsc">18404.1118404.64</time>
  <eigenvalues>
   <array>
    <dimension dim="1">band</dimension>
    <dimension dim="2">kpoint</dimension>
    <dimension dim="3">spin</dimension>
    <field>eigene</field>
    <field>occ</field>
    <set>
     <set comment="spin 1">
      <set comment="kpoint 1">
       <r>  -28.0918    1.0000 </r>
       <r>  -13.7280    1.0000 </r>
       <r>  -11.3823    1.0000 </r>
       <r>  -10.8768    1.0000 </r>
       <r>  -10.8444    1.0000 </r>
       <r>   -7.1037    1.0000 </r>
       <r>   -7.0834    1.0000 </r>
       <r>   -6.6798    1.0000 </r>
       <r>   -6.2243    1.0000 </r>
       <r>   -6.1447    1.0000 </r>
       <r>   -6.1363    1.0000 </r>
       <r>   -6.0711    1.0000 </r>
       <r>   -6.0121    1.0000 </r>
       <r>   -5.8488    1.0000 </r>
       <r>   -5.8150    1.0000 </r>
       <r>   -5.8109    1.0000 </r>
       <r>   -5.7802    1.0000 </r>
       <r>   -5.7295    1.0000 </r>
       <r>   -5.6959    1.0000 </r>
       <r>   -5.6889    1.0000 </r>
       <r>   -5.6887    1.0000 </r>
       <r>   -5.6881    1.0000 </r>
       <r>   -5.6229    1.0000 </r>
       <r>   -5.6048    1.0000 </r>
       <r>   -5.6020    1.0000 </r>
       <r>   -5.5995    1.0000 </r>
       <r>   -5.5991    1.0000 </r>
       <r>   -5.5975    1.0000 </r>
       <r>   -5.5513    1.0000 </r>
       <r>   -5.5405    1.0000 </r>
       <r>   -5.5392    1.0000 </r>
       <r>   -5.5348    1.0000 </r>
       <r>   -5.5247    1.0000 </r>
       <r>   -5.5226    1.0000 </r>
       <r>   -5.5216    1.0000 </r>
       <r>   -5.5159    1.0000 </r>
       <r>   -5.5128    1.0000 </r>
       <r>   -5.5117    1.0000 </r>
       <r>   -5.5087    1.0000 </r>
       <r>   -5.4893    1.0000 </r>
       <r>   -5.4819    1.0000 </r>
       <r>   -5.4788    1.0000 </r>
       <r>   -5.4744    1.0000 </r>
       <r>   -5.4717    1.0000 </r>
       <r>   -5.4710    1.0000 </r>
       <r>   -5.4701    1.0000 </r>
       <r>   -5.4640    1.0000 </r>
       <r>   -5.4559    1.0000 </r>
       <r>   -5.4330    1.0000 </r>
       <r>   -5.4328    1.0000 </r>
       <r>   -5.4302    1.0000 </r>
       <r>   -5.4207    1.0000 </r>
       <r>   -5.4136    1.0000 </r>
       <r>   -5.4133    1.0000 </r>
       <r>   -5.4018    1.0000 </r>
       <r>   -5.4014    1.0000 </r>
       <r>   -5.3983    1.0000 </r>
       <r>   -5.3930    1.0000 </r>
       <r>   -5.3564    1.0000 </r>
       <r>   -5.3360    1.0000 </r>
       <r>   -5.3270    1.0000 </r>
       <r>   -5.3218    1.0000 </r>
       <r>   -5.3203    1.0000 </r>
       <r>   -5.3190    1.0000 </r>
       <r>   -5.3182    1.0000 </r>
       <r>   -5.3157    1.0000 </r>
       <r>   -5.3142    1.0000 </r>
       <r>   -5.3042    1.0000 </r>
       <r>   -5.2950    1.0000 </r>
       <r>   -5.2928    1.0000 </r>
       <r>   -5.2621    1.0000 </r>
       <r>   -5.2026    1.0000 </r>
       <r>   -5.1942    1.0000 </r>
       <r>   -5.1907    1.0000 </r>
       <r>   -5.1853    1.0000 </r>
       <r>   -5.1844    1.0000 </r>
       <r>   -5.1843    1.0000 </r>
       <r>   -5.1815    1.0000 </r>
       <r>   -5.1813    1.0000 </r>
       <r>   -5.1631    1.0000 </r>
       <r>   -5.1568    1.0000 </r>
       <r>   -5.1533    1.0000 </r>
       <r>   -5.1514    1.0000 </r>
       <r>   -5.1463    1.0000 </r>
       <r>   -5.1265    1.0000 </r>
       <r>   -5.1262    1.0000 </r>
       <r>   -5.1178    1.0000 </r>
       <r>   -5.1060    1.0000 </r>
       <r>   -5.1051    1.0000 </r>
       <r>   -5.1037    1.0000 </r>
       <r>   -5.0849    1.0000 </r>
       <r>   -5.0622    1.0000 </r>
       <r>   -5.0607    1.0000 </r>
       <r>   -5.0560    1.0000 </r>
       <r>   -5.0555    1.0000 </r>
       <r>   -5.0513    1.0000 </r>
       <r>   -5.0507    1.0000 </r>
       <r>   -5.0397    1.0000 </r>
       <r>   -5.0319    1.0000 </r>
       <r>   -5.0271    1.0000 </r>
       <r>   -5.0248    1.0000 </r>
       <r>   -5.0198    1.0000 </r>
       <r>   -5.0177    1.0000 </r>
       <r>   -5.0139    1.0000 </r>
       <r>   -5.0095    1.0000 </r>
       <r>   -5.0084    1.0000 </r>
       <r>   -5.0080    1.0000 </r>
       <r>   -4.9932    1.0000 </r>
       <r>   -4.9890    1.0000 </r>
       <r>   -4.9839    1.0000 </r>
       <r>   -4.9834    1.0000 </r>
       <r>   -4.9812    1.0000 </r>
       <r>   -4.9777    1.0000 </r>
       <r>   -4.9700    1.0000 </r>
       <r>   -4.9683    1.0000 </r>
       <r>   -4.9629    1.0000 </r>
       <r>   -4.9527    1.0000 </r>
       <r>   -4.9527    1.0000 </r>
       <r>   -4.9339    1.0000 </r>
       <r>   -4.9295    1.0000 </r>
       <r>   -4.9212    1.0000 </r>
       <r>   -4.9200    1.0000 </r>
       <r>   -4.9175    1.0000 </r>
       <r>   -4.9149    1.0000 </r>
       <r>   -4.9128    1.0000 </r>
       <r>   -4.9045    1.0000 </r>
       <r>   -4.9038    1.0000 </r>
       <r>   -4.8854    1.0000 </r>
       <r>   -4.8841    1.0000 </r>
       <r>   -4.8740    1.0000 </r>
       <r>   -4.8464    1.0000 </r>
       <r>   -4.8405    1.0000 </r>
       <r>   -4.8379    1.0000 </r>
       <r>   -4.8360    1.0000 </r>
       <r>   -4.8334    1.0000 </r>
       <r>   -4.8323    1.0000 </r>
       <r>   -4.8255    1.0000 </r>
       <r>   -4.8045    0.9999 </r>
       <r>   -4.8008    0.9999 </r>
       <r>   -4.7953    0.9999 </r>
       <r>   -4.7921    0.9999 </r>
       <r>   -4.7798    0.9999 </r>
       <r>   -4.7705    0.9998 </r>
       <r>   -4.7562    0.9997 </r>
       <r>   -4.7424    0.9996 </r>
       <r>   -4.7403    0.9996 </r>
       <r>   -4.7380    0.9996 </r>
       <r>   -4.7371    0.9996 </r>
       <r>   -4.7244    0.9995 </r>
       <r>   -4.7133    0.9993 </r>
       <r>   -4.7092    0.9993 </r>
       <r>   -4.7065    0.9992 </r>
       <r>   -4.6856    0.9989 </r>
       <r>   -4.6853    0.9989 </r>
       <r>   -4.6820    0.9988 </r>
       <r>   -4.6807    0.9988 </r>
       <r>   -4.6758    0.9986 </r>
       <r>   -4.6753    0.9986 </r>
       <r>   -4.6690    0.9985 </r>
       <r>   -4.6645    0.9984 </r>
       <r>   -4.6616    0.9983 </r>
       <r>   -4.6568    0.9981 </r>
       <r>   -4.6551    0.9981 </r>
       <r>   -4.6546    0.9981 </r>
       <r>   -4.6515    0.9980 </r>
       <r>   -4.6471    0.9978 </r>
       <r>   -4.6466    0.9978 </r>
       <r>   -4.6377    0.9975 </r>
       <r>   -4.6374    0.9975 </r>
       <r>   -4.6331    0.9974 </r>
       <r>   -4.6326    0.9973 </r>
       <r>   -4.6265    0.9971 </r>
       <r>   -4.6256    0.9971 </r>
       <r>   -4.5992    0.9961 </r>
       <r>   -4.5987    0.9961 </r>
       <r>   -4.5941    0.9959 </r>
       <r>   -4.5937    0.9959 </r>
       <r>   -4.5906    0.9958 </r>
       <r>   -4.5896    0.9958 </r>
       <r>   -4.5843    0.9956 </r>
       <r>   -4.5772    0.9954 </r>
       <r>   -4.5701    0.9952 </r>
       <r>   -4.5570    0.9951 </r>
       <r>   -4.5567    0.9951 </r>
       <r>   -4.5539    0.9951 </r>
       <r>   -4.5537    0.9951 </r>
       <r>   -4.5530    0.9951 </r>
       <r>   -4.5523    0.9951 </r>
       <r>   -4.5492    0.9951 </r>
       <r>   -4.5482    0.9951 </r>
       <r>   -4.5184    0.9963 </r>
       <r>   -4.5164    0.9965 </r>
       <r>   -4.5134    0.9968 </r>
       <r>   -4.5100    0.9971 </r>
       <r>   -4.5048    0.9977 </r>
       <r>   -4.4926    0.9995 </r>
       <r>   -4.4845    1.0010 </r>
       <r>   -4.4839    1.0012 </r>
       <r>   -4.4782    1.0024 </r>
       <r>   -4.4760    1.0030 </r>
       <r>   -4.4694    1.0047 </r>
       <r>   -4.4682    1.0050 </r>
       <r>   -4.4667    1.0054 </r>
       <r>   -4.4621    1.0068 </r>
       <r>   -4.4618    1.0069 </r>
       <r>   -4.4591    1.0077 </r>
       <r>   -4.4544    1.0093 </r>
       <r>   -4.4470    1.0119 </r>
       <r>   -4.4465    1.0121 </r>
       <r>   -4.4414    1.0141 </r>
       <r>   -4.4325    1.0178 </r>
       <r>   -4.4234    1.0218 </r>
       <r>   -4.4119    1.0272 </r>
       <r>   -4.4104    1.0280 </r>
       <r>   -4.4081    1.0290 </r>
       <r>   -4.4062    1.0300 </r>
       <r>   -4.4051    1.0305 </r>
       <r>   -4.4020    1.0320 </r>
       <r>   -4.4004    1.0327 </r>
       <r>   -4.3994    1.0332 </r>
       <r>   -4.3960    1.0349 </r>
       <r>   -4.3953    1.0352 </r>
       <r>   -4.3642    1.0479 </r>
       <r>   -4.3569    1.0498 </r>
       <r>   -4.3540    1.0504 </r>
       <r>   -4.3441    1.0516 </r>
       <r>   -4.3394    1.0516 </r>
       <r>   -4.3386    1.0516 </r>
       <r>   -4.3377    1.0515 </r>
       <r>   -4.3354    1.0513 </r>
       <r>   -4.3310    1.0506 </r>
       <r>   -4.3309    1.0506 </r>
       <r>   -4.3279    1.0499 </r>
       <r>   -4.3264    1.0495 </r>
       <r>   -4.3256    1.0492 </r>
       <r>   -4.3229    1.0483 </r>
       <r>   -4.3222    1.0481 </r>
       <r>   -4.3170    1.0457 </r>
       <r>   -4.3162    1.0452 </r>
       <r>   -4.3132    1.0435 </r>
       <r>   -4.3104    1.0417 </r>
       <r>   -4.3021    1.0349 </r>
       <r>   -4.3012    1.0340 </r>
       <r>   -4.3002    1.0331 </r>
       <r>   -4.2937    1.0259 </r>
       <r>   -4.2910    1.0225 </r>
       <r>   -4.2854    1.0149 </r>
       <r>   -4.2849    1.0140 </r>
       <r>   -4.2838    1.0125 </r>
       <r>   -4.2836    1.0121 </r>
       <r>   -4.2704    0.9887 </r>
       <r>   -4.2611    0.9681 </r>
       <r>   -4.2606    0.9669 </r>
       <r>   -4.2570    0.9581 </r>
       <r>   -4.2527    0.9467 </r>
       <r>   -4.2520    0.9450 </r>
       <r>   -4.2512    0.9426 </r>
       <r>   -4.2509    0.9420 </r>
       <r>   -4.2446    0.9236 </r>
       <r>   -4.2443    0.9229 </r>
       <r>   -4.2390    0.9062 </r>
       <r>   -4.2384    0.9042 </r>
       <r>   -4.2372    0.9002 </r>
       <r>   -4.2364    0.8978 </r>
       <r>   -4.2342    0.8903 </r>
       <r>   -4.2221    0.8462 </r>
       <r>   -4.2209    0.8417 </r>
       <r>   -4.2192    0.8349 </r>
       <r>   -4.2188    0.8332 </r>
       <r>   -4.2159    0.8216 </r>
       <r>   -4.2157    0.8211 </r>
       <r>   -4.2005    0.7552 </r>
       <r>   -4.1970    0.7393 </r>
       <r>   -4.1965    0.7370 </r>
       <r>   -4.1890    0.7013 </r>
       <r>   -4.1851    0.6823 </r>
       <r>   -4.1834    0.6739 </r>
       <r>   -4.1813    0.6635 </r>
       <r>   -4.1701    0.6069 </r>
       <r>   -4.1698    0.6050 </r>
       <r>   -4.1693    0.6027 </r>
       <r>   -4.1559    0.5325 </r>
       <r>   -4.1517    0.5104 </r>
       <r>   -4.1330    0.4119 </r>
       <r>   -4.1329    0.4115 </r>
       <r>   -4.1269    0.3801 </r>
       <r>   -4.1210    0.3504 </r>
       <r>   -4.1110    0.3008 </r>
       <r>   -4.0194   -0.0066 </r>
       <r>   -3.9567   -0.0516 </r>
       <r>   -3.9079   -0.0369 </r>
       <r>   -3.8292   -0.0044 </r>
       <r>   -3.8227   -0.0028 </r>
       <r>   -3.8141   -0.0009 </r>
       <r>   -3.4994    0.0001 </r>
       <r>   -3.4956    0.0001 </r>
       <r>   -3.3568    0.0000 </r>
       <r>   -3.0690    0.0000 </r>
       <r>   -3.0683    0.0000 </r>
       <r>   -3.0300    0.0000 </r>
       <r>   -3.0247    0.0000 </r>
       <r>   -3.0150    0.0000 </r>
       <r>   -3.0145    0.0000 </r>
       <r>   -2.9352    0.0000 </r>
       <r>   -2.7871    0.0000 </r>
       <r>   -2.5578    0.0000 </r>
       <r>   -2.5541    0.0000 </r>
       <r>   -2.5214    0.0000 </r>
       <r>   -2.2112    0.0000 </r>
       <r>   -2.1522    0.0000 </r>
       <r>   -2.1291    0.0000 </r>
       <r>   -2.1196    0.0000 </r>
       <r>   -1.9542    0.0000 </r>
       <r>   -1.9522    0.0000 </r>
       <r>   -1.8701    0.0000 </r>
       <r>   -1.8504    0.0000 </r>
       <r>   -1.8461    0.0000 </r>
       <r>   -1.7342    0.0000 </r>
       <r>   -1.7020    0.0000 </r>
       <r>   -1.6762    0.0000 </r>
       <r>   -1.6402    0.0000 </r>
       <r>   -1.5555    0.0000 </r>
       <r>   -1.5019    0.0000 </r>
       <r>   -1.3246    0.0000 </r>
       <r>   -1.2894    0.0000 </r>
       <r>   -1.0354    0.0000 </r>
       <r>   -1.0231    0.0000 </r>
       <r>   -1.0221    0.0000 </r>
       <r>   -0.9476    0.0000 </r>
       <r>   -0.9444    0.0000 </r>
       <r>   -0.9412    0.0000 </r>
       <r>   -0.9369    0.0000 </r>
       <r>   -0.9118    0.0000 </r>
       <r>   -0.8383    0.0000 </r>
       <r>   -0.8189    0.0000 </r>
       <r>   -0.7487    0.0000 </r>
      </set>
     </set>
    </set>
   </array>
  </eigenvalues>
  <separator name="orbital magnetization" >
   <v name="MAGDIPOLOUT">      0.00000000      0.00000000      0.00000000</v>
  </separator>
  <dos>
   <i name="efermi">     -4.14976668 </i>
   <total>
    <array>
     <dimension dim="1">gridpoints</dimension>
     <dimension dim="2">spin</dimension>
     <field>energy</field>
     <field>total</field>
     <field>integrated</field>
     <set>
      <set comment="spin 1">
       <r>   -30.0918     0.0000     0.0000 </r>
       <r>   -29.9873     0.0000     0.0000 </r>
       <r>   -29.8828     0.0000     0.0000 </r>
       <r>   -29.7784     0.0000     0.0000 </r>
       <r>   -29.6739     0.0000     0.0000 </r>
       <r>   -29.5694     0.0000     0.0000 </r>
       <r>   -29.4649     0.0000     0.0000 </r>
       <r>   -29.3605     0.0000     0.0000 </r>
       <r>   -29.2560     0.0000     0.0000 </r>
       <r>   -29.1515     0.0000     0.0000 </r>
       <r>   -29.0470     0.0000     0.0000 </r>
       <r>   -28.9426     0.0000     0.0000 </r>
       <r>   -28.8381     0.0001     0.0000 </r>
       <r>   -28.7336     0.0019     0.0002 </r>
       <r>   -28.6291     0.0191     0.0022 </r>
       <r>   -28.5246     0.0639     0.0089 </r>
       <r>   -28.4202    -0.1321    -0.0049 </r>
       <r>   -28.3157    -0.8073    -0.0892 </r>
       <r>   -28.2112     1.1200     0.0278 </r>
       <r>   -28.1067     7.7998     0.8427 </r>
       <r>   -28.0023     9.3008     1.8144 </r>
       <r>   -27.8978     2.7640     2.1032 </r>
       <r>   -27.7933    -0.7677     2.0230 </r>
       <r>   -27.6888    -0.3142     1.9901 </r>
       <r>   -27.5844     0.0591     1.9963 </r>
       <r>   -27.4799     0.0311     1.9995 </r>
       <r>   -27.3754     0.0041     2.0000 </r>
       <r>   -27.2709     0.0002     2.0000 </r>
       <r>   -27.1664     0.0000     2.0000 </r>
       <r>   -27.0620     0.0000     2.0000 </r>
       <r>   -26.9575     0.0000     2.0000 </r>
       <r>   -26.8530     0.0000     2.0000 </r>
       <r>   -26.7485     0.0000     2.0000 </r>
       <r>   -26.6441     0.0000     2.0000 </r>
       <r>   -26.5396     0.0000     2.0000 </r>
       <r>   -26.4351     0.0000     2.0000 </r>
       <r>   -26.3306     0.0000     2.0000 </r>
       <r>   -26.2262     0.0000     2.0000 </r>
       <r>   -26.1217     0.0000     2.0000 </r>
       <r>   -26.0172     0.0000     2.0000 </r>
       <r>   -25.9127     0.0000     2.0000 </r>
       <r>   -25.8082     0.0000     2.0000 </r>
       <r>   -25.7038     0.0000     2.0000 </r>
       <r>   -25.5993     0.0000     2.0000 </r>
       <r>   -25.4948     0.0000     2.0000 </r>
       <r>   -25.3903     0.0000     2.0000 </r>
       <r>   -25.2859     0.0000     2.0000 </r>
       <r>   -25.1814     0.0000     2.0000 </r>
       <r>   -25.0769     0.0000     2.0000 </r>
       <r>   -24.9724     0.0000     2.0000 </r>
       <r>   -24.8680     0.0000     2.0000 </r>
       <r>   -24.7635     0.0000     2.0000 </r>
       <r>   -24.6590     0.0000     2.0000 </r>
       <r>   -24.5545     0.0000     2.0000 </r>
       <r>   -24.4500     0.0000     2.0000 </r>
       <r>   -24.3456     0.0000     2.0000 </r>
       <r>   -24.2411     0.0000     2.0000 </r>
       <r>   -24.1366     0.0000     2.0000 </r>
       <r>   -24.0321     0.0000     2.0000 </r>
       <r>   -23.9277     0.0000     2.0000 </r>
       <r>   -23.8232     0.0000     2.0000 </r>
       <r>   -23.7187     0.0000     2.0000 </r>
       <r>   -23.6142     0.0000     2.0000 </r>
       <r>   -23.5097     0.0000     2.0000 </r>
       <r>   -23.4053     0.0000     2.0000 </r>
       <r>   -23.3008     0.0000     2.0000 </r>
       <r>   -23.1963     0.0000     2.0000 </r>
       <r>   -23.0918     0.0000     2.0000 </r>
       <r>   -22.9874     0.0000     2.0000 </r>
       <r>   -22.8829     0.0000     2.0000 </r>
       <r>   -22.7784     0.0000     2.0000 </r>
       <r>   -22.6739     0.0000     2.0000 </r>
       <r>   -22.5695     0.0000     2.0000 </r>
       <r>   -22.4650     0.0000     2.0000 </r>
       <r>   -22.3605     0.0000     2.0000 </r>
       <r>   -22.2560     0.0000     2.0000 </r>
       <r>   -22.1515     0.0000     2.0000 </r>
       <r>   -22.0471     0.0000     2.0000 </r>
       <r>   -21.9426     0.0000     2.0000 </r>
       <r>   -21.8381     0.0000     2.0000 </r>
       <r>   -21.7336     0.0000     2.0000 </r>
       <r>   -21.6292     0.0000     2.0000 </r>
       <r>   -21.5247     0.0000     2.0000 </r>
       <r>   -21.4202     0.0000     2.0000 </r>
       <r>   -21.3157     0.0000     2.0000 </r>
       <r>   -21.2113     0.0000     2.0000 </r>
       <r>   -21.1068     0.0000     2.0000 </r>
       <r>   -21.0023     0.0000     2.0000 </r>
       <r>   -20.8978     0.0000     2.0000 </r>
       <r>   -20.7933     0.0000     2.0000 </r>
       <r>   -20.6889     0.0000     2.0000 </r>
       <r>   -20.5844     0.0000     2.0000 </r>
       <r>   -20.4799     0.0000     2.0000 </r>
       <r>   -20.3754     0.0000     2.0000 </r>
       <r>   -20.2710     0.0000     2.0000 </r>
       <r>   -20.1665     0.0000     2.0000 </r>
       <r>   -20.0620     0.0000     2.0000 </r>
       <r>   -19.9575     0.0000     2.0000 </r>
       <r>   -19.8531     0.0000     2.0000 </r>
       <r>   -19.7486     0.0000     2.0000 </r>
       <r>   -19.6441     0.0000     2.0000 </r>
       <r>   -19.5396     0.0000     2.0000 </r>
       <r>   -19.4351     0.0000     2.0000 </r>
       <r>   -19.3307     0.0000     2.0000 </r>
       <r>   -19.2262     0.0000     2.0000 </r>
       <r>   -19.1217     0.0000     2.0000 </r>
       <r>   -19.0172     0.0000     2.0000 </r>
       <r>   -18.9128     0.0000     2.0000 </r>
       <r>   -18.8083     0.0000     2.0000 </r>
       <r>   -18.7038     0.0000     2.0000 </r>
       <r>   -18.5993     0.0000     2.0000 </r>
       <r>   -18.4949     0.0000     2.0000 </r>
       <r>   -18.3904     0.0000     2.0000 </r>
       <r>   -18.2859     0.0000     2.0000 </r>
       <r>   -18.1814     0.0000     2.0000 </r>
       <r>   -18.0769     0.0000     2.0000 </r>
       <r>   -17.9725     0.0000     2.0000 </r>
       <r>   -17.8680     0.0000     2.0000 </r>
       <r>   -17.7635     0.0000     2.0000 </r>
       <r>   -17.6590     0.0000     2.0000 </r>
       <r>   -17.5546     0.0000     2.0000 </r>
       <r>   -17.4501     0.0000     2.0000 </r>
       <r>   -17.3456     0.0000     2.0000 </r>
       <r>   -17.2411     0.0000     2.0000 </r>
       <r>   -17.1367     0.0000     2.0000 </r>
       <r>   -17.0322     0.0000     2.0000 </r>
       <r>   -16.9277     0.0000     2.0000 </r>
       <r>   -16.8232     0.0000     2.0000 </r>
       <r>   -16.7187     0.0000     2.0000 </r>
       <r>   -16.6143     0.0000     2.0000 </r>
       <r>   -16.5098     0.0000     2.0000 </r>
       <r>   -16.4053     0.0000     2.0000 </r>
       <r>   -16.3008     0.0000     2.0000 </r>
       <r>   -16.1964     0.0000     2.0000 </r>
       <r>   -16.0919     0.0000     2.0000 </r>
       <r>   -15.9874     0.0000     2.0000 </r>
       <r>   -15.8829     0.0000     2.0000 </r>
       <r>   -15.7785     0.0000     2.0000 </r>
       <r>   -15.6740     0.0000     2.0000 </r>
       <r>   -15.5695     0.0000     2.0000 </r>
       <r>   -15.4650     0.0000     2.0000 </r>
       <r>   -15.3605     0.0000     2.0000 </r>
       <r>   -15.2561     0.0000     2.0000 </r>
       <r>   -15.1516     0.0000     2.0000 </r>
       <r>   -15.0471     0.0000     2.0000 </r>
       <r>   -14.9426     0.0000     2.0000 </r>
       <r>   -14.8382     0.0000     2.0000 </r>
       <r>   -14.7337     0.0000     2.0000 </r>
       <r>   -14.6292     0.0000     2.0000 </r>
       <r>   -14.5247     0.0000     2.0000 </r>
       <r>   -14.4203     0.0005     2.0001 </r>
       <r>   -14.3158     0.0070     2.0008 </r>
       <r>   -14.2113     0.0429     2.0053 </r>
       <r>   -14.1068     0.0327     2.0087 </r>
       <r>   -14.0023    -0.4948     1.9570 </r>
       <r>   -13.8979    -0.4873     1.9061 </r>
       <r>   -13.7934     4.3689     2.3625 </r>
       <r>   -13.6889     9.9433     3.4014 </r>
       <r>   -13.5844     6.2176     4.0510 </r>
       <r>   -13.4800     0.1628     4.0680 </r>
       <r>   -13.3755    -0.6883     3.9961 </r>
       <r>   -13.2710    -0.0316     3.9928 </r>
       <r>   -13.1665     0.0559     3.9986 </r>
       <r>   -13.0621     0.0122     3.9999 </r>
       <r>   -12.9576     0.0010     4.0000 </r>
       <r>   -12.8531     0.0000     4.0000 </r>
       <r>   -12.7486     0.0000     4.0000 </r>
       <r>   -12.6441     0.0000     4.0000 </r>
       <r>   -12.5397     0.0000     4.0000 </r>
       <r>   -12.4352     0.0000     4.0000 </r>
       <r>   -12.3307     0.0000     4.0000 </r>
       <r>   -12.2262     0.0000     4.0000 </r>
       <r>   -12.1218     0.0001     4.0000 </r>
       <r>   -12.0173     0.0023     4.0003 </r>
       <r>   -11.9128     0.0215     4.0025 </r>
       <r>   -11.8083     0.0647     4.0093 </r>
       <r>   -11.7039    -0.1683     3.9917 </r>
       <r>   -11.5994    -0.8208     3.9059 </r>
       <r>   -11.4949     1.4588     4.0583 </r>
       <r>   -11.3904     8.2432     4.9196 </r>
       <r>   -11.2859     9.1423     5.8747 </r>
       <r>   -11.1815     1.9858     6.0822 </r>
       <r>   -11.0770    -2.3770     5.8339 </r>
       <r>   -10.9725     2.8530     6.1319 </r>
       <r>   -10.8680    16.3652     7.8417 </r>
       <r>   -10.7636    17.7902     9.7004 </r>
       <r>   -10.6591     4.7456    10.1962 </r>
       <r>   -10.5546    -1.5175    10.0377 </r>
       <r>   -10.4501    -0.5418     9.9811 </r>
       <r>   -10.3457     0.1172     9.9933 </r>
       <r>   -10.2412     0.0565     9.9992 </r>
       <r>   -10.1367     0.0073    10.0000 </r>
       <r>   -10.0322     0.0004    10.0000 </r>
       <r>    -9.9277     0.0000    10.0000 </r>
       <r>    -9.8233     0.0000    10.0000 </r>
       <r>    -9.7188     0.0000    10.0000 </r>
       <r>    -9.6143     0.0000    10.0000 </r>
       <r>    -9.5098     0.0000    10.0000 </r>
       <r>    -9.4054     0.0000    10.0000 </r>
       <r>    -9.3009     0.0000    10.0000 </r>
       <r>    -9.1964     0.0000    10.0000 </r>
       <r>    -9.0919     0.0000    10.0000 </r>
       <r>    -8.9875     0.0000    10.0000 </r>
       <r>    -8.8830     0.0000    10.0000 </r>
       <r>    -8.7785     0.0000    10.0000 </r>
       <r>    -8.6740     0.0000    10.0000 </r>
       <r>    -8.5695     0.0000    10.0000 </r>
       <r>    -8.4651     0.0000    10.0000 </r>
       <r>    -8.3606     0.0000    10.0000 </r>
       <r>    -8.2561     0.0000    10.0000 </r>
       <r>    -8.1516     0.0000    10.0000 </r>
       <r>    -8.0472     0.0000    10.0000 </r>
       <r>    -7.9427     0.0000    10.0000 </r>
       <r>    -7.8382     0.0002    10.0000 </r>
       <r>    -7.7337     0.0042    10.0005 </r>
       <r>    -7.6293     0.0398    10.0046 </r>
       <r>    -7.5248     0.1265    10.0178 </r>
       <r>    -7.4203    -0.2879     9.9877 </r>
       <r>    -7.3158    -1.5972     9.8209 </r>
       <r>    -7.2113     2.4725    10.0792 </r>
       <r>    -7.1069    15.7976    11.7297 </r>
       <r>    -7.0024    18.2226    13.6335 </r>
       <r>    -6.8979     4.5553    14.1095 </r>
       <r>    -6.7934    -0.1013    14.0989 </r>
       <r>    -6.6890     7.6150    14.8945 </r>
       <r>    -6.5845     9.3332    15.8696 </r>
       <r>    -6.4800     1.7931    16.0569 </r>
       <r>    -6.3755    -2.5982    15.7855 </r>
       <r>    -6.2711     5.5467    16.3650 </r>
       <r>    -6.1666    26.6612    19.1504 </r>
       <r>    -6.0621    36.7417    22.9891 </r>
       <r>    -5.9576    24.2142    25.5189 </r>
       <r>    -5.8531    24.2475    28.0522 </r>
       <r>    -5.7487    51.4699    33.4297 </r>
       <r>    -5.6442   103.9811    44.2933 </r>
       <r>    -5.5397   208.8341    66.1116 </r>
       <r>    -5.4352   295.4128    96.9755 </r>
       <r>    -5.3308   262.9211   124.4447 </r>
       <r>    -5.2263   201.8886   145.5374 </r>
       <r>    -5.1218   242.7831   170.9026 </r>
       <r>    -5.0173   340.9924   206.5284 </r>
       <r>    -4.9129   356.9735   243.8240 </r>
       <r>    -4.8084   295.1676   274.6622 </r>
       <r>    -4.7039   312.4711   307.3082 </r>
       <r>    -4.5994   396.3958   348.7224 </r>
       <r>    -4.4949   418.5951   392.4560 </r>
       <r>    -4.3905   445.3751   438.9874 </r>
       <r>    -4.2860   539.5706   495.3601 </r>
       <r>    -4.1815   508.8568   548.5239 </r>
       <r>    -4.0770   259.3100   575.6158 </r>
       <r>    -3.9726    49.9608   580.8356 </r>
       <r>    -3.8681    20.5973   582.9875 </r>
       <r>    -3.7636    34.0367   586.5436 </r>
       <r>    -3.6591    14.5109   588.0596 </r>
       <r>    -3.5547     8.0276   588.8983 </r>
       <r>    -3.4502    21.4714   591.1416 </r>
       <r>    -3.3457    19.1020   593.1373 </r>
       <r>    -3.2412     3.5079   593.5038 </r>
       <r>    -3.1367    12.8526   594.8466 </r>
       <r>    -3.0323    52.7306   600.3557 </r>
       <r>    -2.9278    58.6370   606.4820 </r>
       <r>    -2.8233    24.0349   608.9930 </r>
       <r>    -2.7188     5.4400   609.5614 </r>
       <r>    -2.6144    14.5778   611.0844 </r>
       <r>    -2.5099    28.6283   614.0754 </r>
       <r>    -2.4054    17.0507   615.8568 </r>
       <r>    -2.3009     2.9525   616.1653 </r>
       <r>    -2.1965    19.3816   618.1902 </r>
       <r>    -2.0920    35.8612   621.9369 </r>
       <r>    -1.9875    33.0639   625.3913 </r>
       <r>    -1.8830    38.0461   629.3663 </r>
       <r>    -1.7785    45.5348   634.1236 </r>
       <r>    -1.6741    45.3083   638.8573 </r>
       <r>    -1.5696    38.4272   642.8720 </r>
       <r>    -1.4651    24.0053   645.3800 </r>
       <r>    -1.3606    17.0588   647.1623 </r>
       <r>    -1.2562    15.5017   648.7819 </r>
       <r>    -1.1517     8.3750   649.6569 </r>
       <r>    -1.0472    28.3401   652.6177 </r>
       <r>    -0.9427    70.6166   659.9956 </r>
       <r>    -0.8382    72.6060   667.5812 </r>
       <r>    -0.7338    36.7311   671.4188 </r>
       <r>    -0.6293     7.7928   672.2329 </r>
       <r>    -0.5248    -1.5734   672.0685 </r>
       <r>    -0.4203    -0.9659   671.9676 </r>
       <r>    -0.3159     0.1402   671.9823 </r>
       <r>    -0.2114     0.1398   671.9969 </r>
       <r>    -0.1069     0.0275   671.9997 </r>
       <r>    -0.0024     0.0024   672.0000 </r>
       <r>     0.1020     0.0001   672.0000 </r>
       <r>     0.2065     0.0000   672.0000 </r>
       <r>     0.3110     0.0000   672.0000 </r>
       <r>     0.4155     0.0000   672.0000 </r>
       <r>     0.5200     0.0000   672.0000 </r>
       <r>     0.6244     0.0000   672.0000 </r>
       <r>     0.7289     0.0000   672.0000 </r>
       <r>     0.8334     0.0000   672.0000 </r>
       <r>     0.9379     0.0000   672.0000 </r>
       <r>     1.0423     0.0000   672.0000 </r>
       <r>     1.1468     0.0000   672.0000 </r>
       <r>     1.2513     0.0000   672.0000 </r>
      </set>
     </set>
    </array>
   </total>
  </dos>
 </calculation>
 <structure name="finalpos" >
  <crystal>
   <varray name="basis" >
    <v>      30.00000000       0.00000000       0.00000000 </v>
    <v>       0.00000000      30.00000000       0.00000000 </v>
    <v>       0.00000000       0.00000000      30.00000000 </v>
   </varray>
   <i name="volume">  27000.00000000 </i>
   <varray name="rec_basis" >
    <v>       0.03333333       0.00000000       0.00000000 </v>
    <v>       0.00000000       0.03333333       0.00000000 </v>
    <v>       0.00000000       0.00000000       0.03333333 </v>
   </varray>
  </crystal>
  <varray name="positions" >
   <v>       0.44576020       0.32826710       0.41691983 </v>
   <v>       0.67173288       0.55423978       0.41691983 </v>
   <v>       0.55423980       0.32826710       0.41691983 </v>
   <v>       0.32826712       0.55423978       0.41691983 </v>
   <v>       0.50000000       0.38250690       0.34021317 </v>
   <v>       0.50000000       0.38250690       0.65978680 </v>
   <v>       0.50000000       0.27609440       0.50000000 </v>
   <v>       0.27609443       0.49999998       0.50000000 </v>
   <v>       0.72390557       0.49999998       0.50000000 </v>
   <v>       0.50000000       0.72390555       0.50000000 </v>
   <v>       0.61195280       0.38804720       0.34167483 </v>
   <v>       0.61195280       0.38804720       0.65832513 </v>
   <v>       0.38804722       0.61195278       0.34167483 </v>
   <v>       0.38804722       0.61195278       0.65832513 </v>
   <v>       0.38804720       0.38804720       0.34167483 </v>
   <v>       0.38804720       0.38804720       0.65832513 </v>
   <v>       0.61195278       0.61195278       0.34167483 </v>
   <v>       0.61195278       0.61195278       0.65832513 </v>
   <v>       0.44576020       0.32826710       0.58308023 </v>
   <v>       0.67173288       0.55423978       0.58308023 </v>
   <v>       0.55791699       0.44208301       0.41809300 </v>
   <v>       0.32826705       0.44576024       0.41691983 </v>
   <v>       0.55423973       0.67173293       0.41691983 </v>
   <v>       0.55423980       0.32826710       0.58308023 </v>
   <v>       0.32826712       0.55423978       0.58308023 </v>
   <v>       0.67173295       0.44576024       0.41691983 </v>
   <v>       0.44576027       0.67173293       0.41691983 </v>
   <v>       0.44208301       0.44208301       0.41809300 </v>
   <v>       0.50000000       0.38416601       0.50000000 </v>
   <v>       0.61749315       0.50000005       0.34021317 </v>
   <v>       0.61749315       0.50000005       0.65978680 </v>
   <v>       0.38250685       0.50000005       0.34021317 </v>
   <v>       0.38250685       0.50000005       0.65978680 </v>
   <v>       0.38317830       0.38317830       0.50000000 </v>
   <v>       0.61682172       0.61682172       0.50000000 </v>
   <v>       0.61682170       0.38317830       0.50000000 </v>
   <v>       0.38317828       0.61682172       0.50000000 </v>
   <v>       0.50000000       0.50000000       0.33478917 </v>
   <v>       0.50000000       0.50000000       0.66521087 </v>
   <v>       0.32826705       0.44576024       0.58308023 </v>
   <v>       0.55423973       0.67173293       0.58308023 </v>
   <v>       0.55791699       0.44208301       0.58190703 </v>
   <v>       0.44208298       0.55791702       0.41809300 </v>
   <v>       0.44208301       0.44208301       0.58190703 </v>
   <v>       0.67173295       0.44576024       0.58308023 </v>
   <v>       0.44576027       0.67173293       0.58308023 </v>
   <v>       0.55791702       0.55791702       0.41809300 </v>
   <v>       0.38416599       0.50000002       0.50000000 </v>
   <v>       0.61583401       0.50000002       0.50000000 </v>
   <v>       0.50000000       0.61749319       0.34021317 </v>
   <v>       0.50000000       0.61749319       0.65978680 </v>
   <v>       0.50000000       0.50000000       0.50000000 </v>
   <v>       0.44208298       0.55791702       0.58190703 </v>
   <v>       0.55791702       0.55791702       0.58190703 </v>
   <v>       0.50000000       0.61583404       0.50000000 </v>
   <v>       0.50126307       0.47764943       0.28448083 </v>
   <v>       0.50148223       0.47377097       0.24708203 </v>
  </varray>
  <varray name="selective"  type="logical" >
   <v type="logical" >  F  F  F </v>
   <v type="logical" >  F  F  F </v>
   <v type="logical" >  F  F  F </v>
   <v type="logical" >  F  F  F </v>
   <v type="logical" >  F  F  F </v>
   <v type="logical" >  F  F  F </v>
   <v type="logical" >  F  F  F </v>
   <v type="logical" >  F  F  F </v>
   <v type="logical" >  F  F  F </v>
   <v type="logical" >  F  F  F </v>
   <v type="logical" >  F  F  F </v>
   <v type="logical" >  F  F  F </v>
   <v type="logical" >  F  F  F </v>
   <v type="logical" >  F  F  F </v>
   <v type="logical" >  F  F  F </v>
   <v type="logical" >  F  F  F </v>
   <v type="logical" >  F  F  F </v>
   <v type="logical" >  F  F  F </v>
   <v type="logical" >  F  F  F </v>
   <v type="logical" >  F  F  F </v>
   <v type="logical" >  F  F  F </v>
   <v type="logical" >  F  F  F </v>
   <v type="logical" >  F  F  F </v>
   <v type="logical" >  F  F  F </v>
   <v type="logical" >  F  F  F </v>
   <v type="logical" >  F  F  F </v>
   <v type="logical" >  F  F  F </v>
   <v type="logical" >  F  F  F </v>
   <v type="logical" >  F  F  F </v>
   <v type="logical" >  F  F  F </v>
   <v type="logical" >  F  F  F </v>
   <v type="logical" >  F  F  F </v>
   <v type="logical" >  F  F  F </v>
   <v type="logical" >  F  F  F </v>
   <v type="logical" >  F  F  F </v>
   <v type="logical" >  F  F  F </v>
   <v type="logical" >  F  F  F </v>
   <v type="logical" >  F  F  F </v>
   <v type="logical" >  F  F  F </v>
   <v type="logical" >  F  F  F </v>
   <v type="logical" >  F  F  F </v>
   <v type="logical" >  F  F  F </v>
   <v type="logical" >  F  F  F </v>
   <v type="logical" >  F  F  F </v>
   <v type="logical" >  F  F  F </v>
   <v type="logical" >  F  F  F </v>
   <v type="logical" >  F  F  F </v>
   <v type="logical" >  F  F  F </v>
   <v type="logical" >  F  F  F </v>
   <v type="logical" >  F  F  F </v>
   <v type="logical" >  F  F  F </v>
   <v type="logical" >  F  F  F </v>
   <v type="logical" >  F  F  F </v>
   <v type="logical" >  F  F  F </v>
   <v type="logical" >  F  F  F </v>
   <v type="logical" >  F  F  F </v>
   <v type="logical" >  F  F  F </v>
  </varray>
  <nose>
   <v>      -3.00000000       0.00000000       0.00010000       0.00010000 </v>
  </nose>
 </structure>
</modeling>
