       N       E                     dE             d eps       ncg     rms          rms(c)
DAV:   1     0.438696372637E+04    0.43870E+04   -0.10048E+05   688   0.815E+02
DAV:   2     0.200966880156E+04   -0.23773E+04   -0.21384E+04  1224   0.105E+02
DAV:   3     0.229983802891E+03   -0.17797E+04   -0.16750E+04  1000   0.919E+01
DAV:   4    -0.135757737922E+03   -0.36574E+03   -0.30675E+03   824   0.435E+01
DAV:   5    -0.179711938863E+03   -0.43954E+02   -0.36990E+02  1048   0.145E+01    0.145E+01
RMM:   6    -0.180089988608E+03   -0.37805E+00   -0.55595E+01   723   0.889E+00    0.230E+01
RMM:   7    -0.181651804206E+03   -0.15618E+01   -0.18157E+01   848   0.444E+00    0.211E+01
RMM:   8    -0.183902654573E+03   -0.22509E+01   -0.65918E+00   790   0.341E+00    0.266E+01
RMM:   9    -0.182085733970E+03    0.18169E+01   -0.47815E+00   731   0.305E+00    0.283E+01
RMM:  10    -0.180577101118E+03    0.15086E+01   -0.27398E+00   748   0.232E+00    0.234E+01
RMM:  11    -0.178501653202E+03    0.20754E+01   -0.16620E+00   740   0.189E+00    0.180E+01
RMM:  12    -0.177411282113E+03    0.10904E+01   -0.14820E+00   728   0.181E+00    0.167E+01
RMM:  13    -0.177001869206E+03    0.40941E+00   -0.96828E-01   734   0.146E+00    0.153E+01
RMM:  14    -0.176654576679E+03    0.34729E+00   -0.12444E+00   716   0.165E+00    0.155E+01
RMM:  15    -0.176505004868E+03    0.14957E+00   -0.12550E+00   715   0.168E+00    0.205E+01
RMM:  16    -0.175565347155E+03    0.93966E+00   -0.84803E-01   706   0.133E+00    0.945E+00
RMM:  17    -0.175357720259E+03    0.20763E+00   -0.71882E-01   703   0.125E+00    0.892E+00
RMM:  18    -0.175336429967E+03    0.21290E-01   -0.48719E-01   703   0.105E+00    0.889E+00
RMM:  19    -0.175326367808E+03    0.10062E-01   -0.29932E-01   714   0.848E-01    0.117E+01
RMM:  20    -0.175145176784E+03    0.18119E+00   -0.22109E-01   710   0.736E-01    0.752E+00
RMM:  21    -0.175048122088E+03    0.97055E-01   -0.21965E-01   702   0.728E-01    0.658E+00
RMM:  22    -0.175073588954E+03   -0.25467E-01   -0.23639E-01   703   0.755E-01    0.762E+00
RMM:  23    -0.174897053098E+03    0.17654E+00   -0.17441E-01   702   0.660E-01    0.557E+00
RMM:  24    -0.174830451983E+03    0.66601E-01   -0.10187E-01   702   0.503E-01    0.479E+00
RMM:  25    -0.174750133819E+03    0.80318E-01   -0.71554E-02   701   0.417E-01    0.387E+00
RMM:  26    -0.174707730492E+03    0.42403E-01   -0.43876E-02   699   0.335E-01    0.258E+00
RMM:  27    -0.174694593012E+03    0.13137E-01   -0.32193E-02   702   0.288E-01    0.246E+00
RMM:  28    -0.174678169067E+03    0.16424E-01   -0.16497E-02   699   0.209E-01    0.176E+00
RMM:  29    -0.174666258987E+03    0.11910E-01   -0.11563E-02   699   0.172E-01    0.141E+00
RMM:  30    -0.174660928302E+03    0.53307E-02   -0.80158E-03   703   0.141E-01    0.122E+00
RMM:  31    -0.174659596388E+03    0.13319E-02   -0.87352E-03   697   0.143E-01    0.130E+00
RMM:  32    -0.174654264788E+03    0.53316E-02   -0.68848E-03   698   0.136E-01    0.997E-01
RMM:  33    -0.174652637202E+03    0.16276E-02   -0.44692E-03   699   0.109E-01    0.844E-01
RMM:  34    -0.174653413873E+03   -0.77667E-03   -0.38502E-03   697   0.101E-01    0.863E-01
RMM:  35    -0.174651795416E+03    0.16185E-02   -0.21519E-03   694   0.805E-02    0.526E-01
RMM:  36    -0.174652623731E+03   -0.82831E-03   -0.13498E-03   693   0.610E-02    0.491E-01
RMM:  37    -0.174653609855E+03   -0.98612E-03   -0.10864E-03   693   0.533E-02    0.292E-01
RMM:  38    -0.174654944951E+03   -0.13351E-02   -0.68423E-04   661   0.425E-02    0.266E-01
RMM:  39    -0.174658884267E+03   -0.39393E-02   -0.97643E-04   695   0.455E-02    0.293E-01
RMM:  40    -0.174661046963E+03   -0.21627E-02   -0.62268E-04   605   0.369E-02    0.221E-01
RMM:  41    -0.174663111515E+03   -0.20646E-02   -0.36088E-04   468   0.283E-02    0.212E-01
RMM:  42    -0.174666256803E+03   -0.31453E-02   -0.47698E-04   528   0.308E-02    0.136E-01
RMM:  43    -0.174667666490E+03   -0.14097E-02   -0.21884E-04   431   0.215E-02    0.139E-01
RMM:  44    -0.174670427552E+03   -0.27611E-02   -0.32638E-04   450   0.232E-02    0.140E-01
RMM:  45    -0.174671635052E+03   -0.12075E-02   -0.19363E-04   430   0.184E-02    0.876E-02
RMM:  46    -0.174673353286E+03   -0.17182E-02   -0.23965E-04   438   0.183E-02    0.101E-01
RMM:  47    -0.174674530424E+03   -0.11771E-02   -0.17897E-04   424   0.164E-02    0.773E-02
RMM:  48    -0.174675019276E+03   -0.48885E-03   -0.74612E-05   417   0.106E-02    0.592E-02
RMM:  49    -0.174675786139E+03   -0.76686E-03   -0.54747E-05   414   0.874E-03    0.426E-02
RMM:  50    -0.174676260875E+03   -0.47474E-03   -0.32831E-05   397   0.690E-03    0.443E-02
RMM:  51    -0.174677177103E+03   -0.91623E-03   -0.35732E-05   408   0.682E-03    0.237E-02
RMM:  52    -0.174677421041E+03   -0.24394E-03   -0.12886E-05   248   0.456E-03    0.166E-02
RMM:  53    -0.174677928686E+03   -0.50764E-03   -0.90463E-06   208   0.445E-03    0.172E-02
RMM:  54    -0.174678180669E+03   -0.25198E-03   -0.62370E-06   181   0.423E-03    0.130E-02
RMM:  55    -0.174678755773E+03   -0.57510E-03   -0.27988E-05   362   0.576E-03    0.161E-02
RMM:  56    -0.174678915847E+03   -0.16007E-03   -0.64190E-06   162   0.360E-03    0.862E-03
RMM:  57    -0.174679072838E+03   -0.15699E-03   -0.47472E-06   146   0.368E-03    0.898E-03
RMM:  58    -0.174679196620E+03   -0.12378E-03   -0.82195E-06   171   0.381E-03    0.610E-03
RMM:  59    -0.174679312252E+03   -0.11563E-03   -0.42136E-06   137   0.385E-03    0.598E-03
RMM:  60    -0.174679380385E+03   -0.68132E-04   -0.79959E-06   171   0.394E-03
   1 F= -.17467938E+03 E0= -.17466446E+03  d E =-.596792E-01
