<?xml version="1.0" encoding="ISO-8859-1"?>
<modeling>
 <generator>
  <i name="program" type="string">vasp </i>
  <i name="version" type="string">5.4.4.18Apr17-6-g9f103f2a35  </i>
  <i name="subversion" type="string">(build Sep 03 2018 23:53:05) complex            parallel </i>
  <i name="platform" type="string">LinuxIFC </i>
  <i name="date" type="string">2021 11 26 </i>
  <i name="time" type="string">07:26:18 </i>
 </generator>
 <incar>
  <i type="string" name="SYSTEM"> 6_Pd100_top_free_z(O)</i>
  <i type="int" name="ISTART">     0</i>
  <i type="string" name="PREC">normal   			! encut=max(enmax), ngx,y,z</i>
  <i type="string" name="ALGO"> Fast     			! Mix RMM-DIIS and Dav</i>
  <i type="logical" name="ADDGRID"> F  </i>
  <i type="int" name="ISPIN">     1</i>
  <i type="int" name="ICHARG">     2</i>
  <i type="int" name="NELM">   100</i>
  <i type="int" name="NELMIN">     6</i>
  <i type="int" name="IBRION">     2</i>
  <i name="EDIFF">      0.00010000</i>
  <i name="EDIFFG">     -0.05000000</i>
  <i type="int" name="NSW">     0</i>
  <i type="int" name="ISIF">     2</i>
  <i type="int" name="ISYM">     2</i>
  <i name="ENCUT">    400.00000000</i>
  <i type="string" name="LREAL"> Auto     			! Auto or A projection done</i>
  <i type="int" name="ISMEAR">     2</i>
  <i name="SIGMA">      0.20000000</i>
  <i type="logical" name="LWAVE"> F  </i>
  <i type="logical" name="LCHARG"> F  </i>
  <v type="int" name="KPOINT_BSE">    -1     0     0     0</v>
  <i type="int" name="MAXMEM"> 10000</i>
  <i type="int" name="NELM">   100</i>
  <i type="string" name="GGA"> RP         			! Revised PBE</i>
 </incar>
 <structure name="primitive_cell" >
  <crystal>
   <varray name="basis" >
    <v>      30.00000000       0.00000000       0.00000000 </v>
    <v>       0.00000000      30.00000000       0.00000000 </v>
    <v>       0.00000000       0.00000000      30.00000000 </v>
   </varray>
   <i name="volume">  27000.00000000 </i>
   <varray name="rec_basis" >
    <v>       0.03333333       0.00000000       0.00000000 </v>
    <v>       0.00000000       0.03333333       0.00000000 </v>
    <v>       0.00000000       0.00000000       0.03333333 </v>
   </varray>
  </crystal>
  <varray name="positions" >
   <v>       0.44576020       0.32826710       0.41691983 </v>
   <v>      -0.44576020       0.32826710       0.41691983 </v>
   <v>      -0.50000000       0.38250690       0.34021317 </v>
   <v>      -0.50000000       0.27609440      -0.50000000 </v>
   <v>       0.38804720       0.38804720       0.34167483 </v>
   <v>      -0.50000000       0.38416601      -0.50000000 </v>
   <v>       0.44208300       0.44208300       0.41809300 </v>
   <v>       0.38317830       0.38317830      -0.50000000 </v>
   <v>      -0.44208300       0.44208300       0.41809300 </v>
   <v>       0.44576020       0.32826710      -0.41691977 </v>
   <v>       0.32826705       0.44576024       0.41691983 </v>
   <v>      -0.38804720       0.38804720       0.34167483 </v>
   <v>      -0.38317830       0.38317830      -0.50000000 </v>
   <v>      -0.50000000      -0.50000000       0.33478917 </v>
   <v>      -0.50000000      -0.50000000      -0.50000000 </v>
   <v>      -0.44576020       0.32826710      -0.41691977 </v>
   <v>       0.38250685      -0.49999995       0.34021317 </v>
   <v>       0.44208300       0.44208300      -0.41809297 </v>
   <v>       0.38416599      -0.49999998      -0.50000000 </v>
   <v>      -0.44208300       0.44208300      -0.41809297 </v>
   <v>       0.44208298      -0.44208298       0.41809300 </v>
   <v>       0.32826705       0.44576024      -0.41691977 </v>
   <v>       0.46151643      -0.43351260       0.33361060 </v>
   <v>      -0.50000000       0.38250690      -0.34021320 </v>
   <v>       0.32826712      -0.44576022       0.41691983 </v>
   <v>      -0.38250685      -0.49999995       0.34021317 </v>
   <v>      -0.32826705       0.44576024       0.41691983 </v>
   <v>       0.27609443       0.49999998      -0.50000000 </v>
   <v>       0.38804720       0.38804720      -0.34167487 </v>
   <v>      -0.38416599      -0.49999998      -0.50000000 </v>
   <v>      -0.44208298      -0.44208298       0.41809300 </v>
   <v>       0.45362097      -0.41987173       0.29947340 </v>
   <v>       0.44208298      -0.44208298      -0.41809297 </v>
   <v>      -0.38804720       0.38804720      -0.34167487 </v>
   <v>       0.38804722      -0.38804722       0.34167483 </v>
   <v>       0.38250685      -0.49999995      -0.34021320 </v>
   <v>       0.32826712      -0.44576022      -0.41691977 </v>
   <v>      -0.32826705       0.44576024      -0.41691977 </v>
   <v>       0.50000000      -0.38250681       0.34021317 </v>
   <v>      -0.50000000      -0.38416596      -0.50000000 </v>
   <v>      -0.44208298      -0.44208298      -0.41809297 </v>
   <v>      -0.50000000      -0.50000000      -0.33478913 </v>
   <v>       0.38317828      -0.38317828      -0.50000000 </v>
   <v>      -0.32826712      -0.44576022       0.41691983 </v>
   <v>      -0.27609443       0.49999998      -0.50000000 </v>
   <v>      -0.38804722      -0.38804722       0.34167483 </v>
   <v>      -0.38250685      -0.49999995      -0.34021320 </v>
   <v>       0.44576027      -0.32826707       0.41691983 </v>
   <v>      -0.38317828      -0.38317828      -0.50000000 </v>
   <v>      -0.32826712      -0.44576022      -0.41691977 </v>
   <v>      -0.44576027      -0.32826707       0.41691983 </v>
   <v>       0.38804722      -0.38804722      -0.34167487 </v>
   <v>      -0.50000000      -0.38250681      -0.34021320 </v>
   <v>       0.44576027      -0.32826707      -0.41691977 </v>
   <v>      -0.44576027      -0.32826707      -0.41691977 </v>
   <v>      -0.50000000      -0.27609445       0.50000000 </v>
   <v>      -0.38804722      -0.38804722      -0.34167487 </v>
  </varray>
 </structure>
 <varray name="primitive_index" >
  <v type="int" >        1 </v>
  <v type="int" >        3 </v>
  <v type="int" >        5 </v>
  <v type="int" >        7 </v>
  <v type="int" >       15 </v>
  <v type="int" >       29 </v>
  <v type="int" >       28 </v>
  <v type="int" >       34 </v>
  <v type="int" >       21 </v>
  <v type="int" >       19 </v>
  <v type="int" >       22 </v>
  <v type="int" >       11 </v>
  <v type="int" >       36 </v>
  <v type="int" >       38 </v>
  <v type="int" >       52 </v>
  <v type="int" >       24 </v>
  <v type="int" >       32 </v>
  <v type="int" >       44 </v>
  <v type="int" >       48 </v>
  <v type="int" >       42 </v>
  <v type="int" >       43 </v>
  <v type="int" >       40 </v>
  <v type="int" >       56 </v>
  <v type="int" >        6 </v>
  <v type="int" >        4 </v>
  <v type="int" >       30 </v>
  <v type="int" >       26 </v>
  <v type="int" >        8 </v>
  <v type="int" >       16 </v>
  <v type="int" >       49 </v>
  <v type="int" >       47 </v>
  <v type="int" >       57 </v>
  <v type="int" >       53 </v>
  <v type="int" >       12 </v>
  <v type="int" >       13 </v>
  <v type="int" >       33 </v>
  <v type="int" >       25 </v>
  <v type="int" >       45 </v>
  <v type="int" >       50 </v>
  <v type="int" >       55 </v>
  <v type="int" >       54 </v>
  <v type="int" >       39 </v>
  <v type="int" >       37 </v>
  <v type="int" >        2 </v>
  <v type="int" >        9 </v>
  <v type="int" >       17 </v>
  <v type="int" >       31 </v>
  <v type="int" >       27 </v>
  <v type="int" >       35 </v>
  <v type="int" >       20 </v>
  <v type="int" >       23 </v>
  <v type="int" >       14 </v>
  <v type="int" >       51 </v>
  <v type="int" >       46 </v>
  <v type="int" >       41 </v>
  <v type="int" >       10 </v>
  <v type="int" >       18 </v>
 </varray>
 <kpoints>
  <generation param="Monkhorst-Pack">
   <v type="int" name="divisions">       1        1        1 </v>
   <v name="usershift">      0.00000000       0.00000000       0.00000000 </v>
   <v name="genvec1">      1.00000000       0.00000000       0.00000000 </v>
   <v name="genvec2">      0.00000000       1.00000000       0.00000000 </v>
   <v name="genvec3">      0.00000000       0.00000000       1.00000000 </v>
   <v name="shift">      0.00000000       0.00000000       0.00000000 </v>
  </generation>
  <varray name="kpointlist" >
   <v>       0.00000000       0.00000000       0.00000000 </v>
  </varray>
  <varray name="weights" >
   <v>       1.00000000 </v>
  </varray>
 </kpoints>
 <parameters>
  <separator name="general" >
   <i type="string" name="SYSTEM">6_Pd100_top_free_z(O)</i>
   <i type="logical" name="LCOMPAT"> F  </i>
  </separator>
  <separator name="electronic" >
   <i type="string" name="PREC">normal</i>
   <i name="ENMAX">    400.00000000</i>
   <i name="ENAUG">    644.87300000</i>
   <i name="EDIFF">      0.00010000</i>
   <i type="int" name="IALGO">    68</i>
   <i type="int" name="IWAVPR">    10</i>
   <i type="int" name="NBANDS">   336</i>
   <i name="NELECT">    560.00000000</i>
   <i type="int" name="TURBO">     0</i>
   <i type="int" name="IRESTART">     0</i>
   <i type="int" name="NREBOOT">     0</i>
   <i type="int" name="NMIN">     0</i>
   <i name="EREF">      0.00000000</i>
   <separator name="electronic smearing" >
    <i type="int" name="ISMEAR">     2</i>
    <i name="SIGMA">      0.20000000</i>
    <i name="KSPACING">      0.50000000</i>
    <i type="logical" name="KGAMMA"> T  </i>
   </separator>
   <separator name="electronic projectors" >
    <i type="logical" name="LREAL"> T  </i>
    <v name="ROPT">     -0.00050000     -0.00050000     -0.00050000</v>
    <i type="int" name="LMAXPAW">  -100</i>
    <i type="int" name="LMAXMIX">     2</i>
    <i type="logical" name="NLSPLINE"> F  </i>
   </separator>
   <separator name="electronic startup" >
    <i type="int" name="ISTART">     0</i>
    <i type="int" name="ICHARG">     2</i>
    <i type="int" name="INIWAV">     1</i>
   </separator>
   <separator name="electronic spin" >
    <i type="int" name="ISPIN">     1</i>
    <i type="logical" name="LNONCOLLINEAR"> F  </i>
    <v name="MAGMOM">      1.00000000      1.00000000      1.00000000      1.00000000      1.00000000      1.00000000      1.00000000      1.00000000      1.00000000      1.00000000      1.00000000      1.00000000      1.00000000      1.00000000      1.00000000      1.00000000      1.00000000      1.00000000      1.00000000      1.00000000
      1.00000000      1.00000000      1.00000000      1.00000000      1.00000000      1.00000000      1.00000000      1.00000000      1.00000000      1.00000000      1.00000000      1.00000000      1.00000000      1.00000000      1.00000000      1.00000000      1.00000000      1.00000000      1.00000000      1.00000000
      1.00000000      1.00000000      1.00000000      1.00000000      1.00000000      1.00000000      1.00000000      1.00000000      1.00000000      1.00000000      1.00000000      1.00000000      1.00000000      1.00000000      1.00000000      1.00000000      1.00000000</v>
    <i name="NUPDOWN">     -1.00000000</i>
    <i type="logical" name="LSORBIT"> F  </i>
    <v name="SAXIS">      0.00000000      0.00000000      1.00000000</v>
    <i type="logical" name="LSPIRAL"> F  </i>
    <v name="QSPIRAL">      0.00000000      0.00000000      0.00000000</v>
    <i type="logical" name="LZEROZ"> F  </i>
   </separator>
   <separator name="electronic exchange-correlation" >
    <i type="logical" name="LASPH"> F  </i>
    <i type="logical" name="LMETAGGA"> F  </i>
   </separator>
   <separator name="electronic convergence" >
    <i type="int" name="NELM">   100</i>
    <i type="int" name="NELMDL">    -5</i>
    <i type="int" name="NELMIN">     6</i>
    <i name="ENINI">    400.00000000</i>
    <separator name="electronic convergence detail" >
     <i type="logical" name="LDIAG"> T  </i>
     <i type="logical" name="LSUBROT"> F  </i>
     <i name="WEIMIN">      0.00000000</i>
     <i name="EBREAK">      0.00000007</i>
     <i name="DEPER">      0.30000000</i>
     <i type="int" name="NRMM">     4</i>
     <i name="TIME">      0.40000000</i>
    </separator>
   </separator>
   <separator name="electronic mixer" >
    <i name="AMIX">      0.40000000</i>
    <i name="BMIX">      1.00000000</i>
    <i name="AMIN">      0.10000000</i>
    <i name="AMIX_MAG">      1.60000000</i>
    <i name="BMIX_MAG">      1.00000000</i>
    <separator name="electronic mixer details" >
     <i type="int" name="IMIX">     4</i>
     <i type="logical" name="MIXFIRST"> F  </i>
     <i type="int" name="MAXMIX">   -45</i>
     <i name="WC">    100.00000000</i>
     <i type="int" name="INIMIX">     1</i>
     <i type="int" name="MIXPRE">     1</i>
     <i type="int" name="MREMOVE">     5</i>
    </separator>
   </separator>
   <separator name="electronic dipolcorrection" >
    <i type="logical" name="LDIPOL"> F  </i>
    <i type="logical" name="LMONO"> F  </i>
    <i type="int" name="IDIPOL">     0</i>
    <i name="EPSILON">      1.00000000</i>
    <v name="DIPOL">   -100.00000000   -100.00000000   -100.00000000</v>
    <i name="EFIELD">      0.00000000</i>
   </separator>
  </separator>
  <separator name="grids" >
   <i type="int" name="NGX">   150</i>
   <i type="int" name="NGY">   150</i>
   <i type="int" name="NGZ">   150</i>
   <i type="int" name="NGXF">   300</i>
   <i type="int" name="NGYF">   300</i>
   <i type="int" name="NGZF">   300</i>
   <i type="logical" name="ADDGRID"> F  </i>
  </separator>
  <separator name="ionic" >
   <i type="int" name="NSW">     0</i>
   <i type="int" name="IBRION">    -1</i>
   <i type="int" name="MDALGO">     0</i>
   <i type="int" name="ISIF">     2</i>
   <i name="PSTRESS">      0.00000000</i>
   <i name="EDIFFG">     -0.05000000</i>
   <i type="int" name="NFREE">     1</i>
   <i name="POTIM">      0.50000000</i>
   <i name="SMASS">     -3.00000000</i>
   <i name="SCALEE">      1.00000000</i>
  </separator>
  <separator name="ionic md" >
   <i name="TEBEG">      0.00010000</i>
   <i name="TEEND">      0.00010000</i>
   <i type="int" name="NBLOCK">     1</i>
   <i type="int" name="KBLOCK">     1</i>
   <i type="int" name="NPACO">   256</i>
   <i name="APACO">     16.00000000</i>
  </separator>
  <separator name="symmetry" >
   <i type="int" name="ISYM">     2</i>
   <i name="SYMPREC">      0.00001000</i>
  </separator>
  <separator name="dos" >
   <i type="int" name="LORBIT">     0</i>
   <v name="RWIGS">     -1.00000000     -1.00000000     -1.00000000</v>
   <i type="int" name="NEDOS">   301</i>
   <i name="EMIN">     10.00000000</i>
   <i name="EMAX">    -10.00000000</i>
   <i name="EFERMI">      0.00000000</i>
  </separator>
  <separator name="writing" >
   <i type="int" name="NWRITE">     2</i>
   <i type="logical" name="LWAVE"> F  </i>
   <i type="logical" name="LDOWNSAMPLE"> F  </i>
   <i type="logical" name="LCHARG"> F  </i>
   <i type="logical" name="LPARD"> F  </i>
   <i type="logical" name="LVTOT"> F  </i>
   <i type="logical" name="LVHAR"> F  </i>
   <i type="logical" name="LELF"> F  </i>
   <i type="logical" name="LOPTICS"> F  </i>
   <v name="STM">      0.00000000      0.00000000      0.00000000      0.00000000      0.00000000      0.00000000      0.00000000</v>
  </separator>
  <separator name="performance" >
   <i type="int" name="NPAR">     1</i>
   <i type="int" name="NSIM">     4</i>
   <i type="int" name="NBLK">    -1</i>
   <i type="logical" name="LPLANE"> T  </i>
   <i type="logical" name="LSCALAPACK"> T  </i>
   <i type="logical" name="LSCAAWARE"> F  </i>
   <i type="logical" name="LSCALU"> F  </i>
   <i type="logical" name="LASYNC"> F  </i>
   <i type="logical" name="LORBITALREAL"> F  </i>
  </separator>
  <separator name="miscellaneous" >
   <i type="int" name="IDIOT">     3</i>
   <i type="int" name="ISPECIAL">     0</i>
   <i type="logical" name="LMUSIC"> F  </i>
   <v name="POMASS">    106.42000000     12.01100000     16.00000000</v>
   <v name="DARWINR">      0.00000000      0.00000000      0.00000000</v>
   <v name="DARWINV">      1.00000000      1.00000000      1.00000000</v>
   <i type="logical" name="LCORR"> T  </i>
  </separator>
  <i type="logical" name="GGA_COMPAT"> T  </i>
  <i type="logical" name="LBERRY"> F  </i>
  <i type="int" name="ICORELEVEL">     0</i>
  <i type="logical" name="LDAU"> F  </i>
  <i type="int" name="I_CONSTRAINED_M">     0</i>
  <separator name="electronic exchange-correlation" >
   <i type="string" name="GGA">RP</i>
   <i type="int" name="VOSKOWN">     0</i>
   <i type="logical" name="LHFCALC"> F  </i>
   <i type="string" name="PRECFOCK"></i>
   <i type="logical" name="LSYMGRAD"> F  </i>
   <i type="logical" name="LHFONE"> F  </i>
   <i type="logical" name="LRHFCALC"> F  </i>
   <i type="logical" name="LTHOMAS"> F  </i>
   <i type="logical" name="LMODELHF"> F  </i>
   <i name="ENCUT4O">     -1.00000000</i>
   <i type="int" name="EXXOEP">     0</i>
   <i type="int" name="FOURORBIT">     0</i>
   <i name="AEXX">      0.00000000</i>
   <i name="HFALPHA">      0.00000000</i>
   <i name="MCALPHA">      0.00000000</i>
   <i name="ALDAX">      1.00000000</i>
   <i name="AGGAX">      1.00000000</i>
   <i name="ALDAC">      1.00000000</i>
   <i name="AGGAC">      1.00000000</i>
   <i type="int" name="NKREDX">     1</i>
   <i type="int" name="NKREDY">     1</i>
   <i type="int" name="NKREDZ">     1</i>
   <i type="logical" name="SHIFTRED"> F  </i>
   <i type="logical" name="ODDONLY"> F  </i>
   <i type="logical" name="EVENONLY"> F  </i>
   <i type="int" name="LMAXFOCK">     0</i>
   <i type="int" name="NMAXFOCKAE">     0</i>
   <i type="logical" name="LFOCKAEDFT"> F  </i>
   <i name="HFSCREEN">      0.00000000</i>
   <i name="HFSCREENC">      0.00000000</i>
   <i type="int" name="NBANDSGWLOW">     0</i>
  </separator>
  <separator name="vdW DFT" >
   <i type="logical" name="LUSE_VDW"> F  </i>
   <i name="Zab_VDW">     -0.84910000</i>
   <i name="PARAM1">      0.12340000</i>
   <i name="PARAM2">      1.00000000</i>
   <i name="PARAM3">      0.00000000</i>
  </separator>
  <separator name="model GW" >
   <i type="int" name="MODEL_GW">     0</i>
   <i name="MODEL_EPS0">    284.21052632</i>
   <i name="MODEL_ALPHA">      1.00000000</i>
  </separator>
  <separator name="linear response parameters" >
   <i type="logical" name="LEPSILON"> F  </i>
   <i type="logical" name="LRPA"> F  </i>
   <i type="logical" name="LNABLA"> F  </i>
   <i type="logical" name="LVEL"> F  </i>
   <i type="int" name="KINTER">     0</i>
   <i name="CSHIFT">      0.10000000</i>
   <i name="OMEGAMAX">     -1.00000000</i>
   <i name="DEG_THRESHOLD">      0.00200000</i>
   <i name="RTIME">     -0.10000000</i>
   <i name="WPLASMAI">      0.00000000</i>
   <v name="DFIELD">      0.00000000      0.00000000      0.00000000</v>
   <v name="WPLASMA">      0.00000000      0.00000000      0.00000000      0.00000000      0.00000000      0.00000000      0.00000000      0.00000000      0.00000000</v>
  </separator>
  <separator name="orbital magnetization" >
   <i type="logical" name="NUCIND"> F  </i>
   <v name="MAGPOS">      0.00000000      0.00000000      0.00000000</v>
   <i type="logical" name="LNICSALL"> T  </i>
   <i type="logical" name="ORBITALMAG"> F  </i>
   <i type="logical" name="LMAGBLOCH"> F  </i>
   <i type="logical" name="LCHIMAG"> F  </i>
   <i type="logical" name="LGAUGE"> T  </i>
   <i type="int" name="MAGATOM">     0</i>
   <v name="MAGDIPOL">      0.00000000      0.00000000      0.00000000</v>
   <v name="AVECCONST">      0.00000000      0.00000000      0.00000000</v>
  </separator>
  <separator name="response functions" >
   <i type="logical" name="LADDER"> F  </i>
   <i type="logical" name="LRPAFORCE"> F  </i>
   <i type="logical" name="LFXC"> F  </i>
   <i type="logical" name="LHARTREE"> T  </i>
   <i type="int" name="IBSE">     0</i>
   <v type="int" name="KPOINT">    -1     0     0     0</v>
   <i type="logical" name="LTCTE"> F  </i>
   <i type="logical" name="LTETE"> F  </i>
   <i type="logical" name="LTRIPLET"> F  </i>
   <i type="logical" name="LFXCEPS"> F  </i>
   <i type="logical" name="LFXHEG"> F  </i>
   <i type="int" name="NATURALO">     2</i>
   <i type="logical" name="L2ORDER"> F  </i>
   <i type="logical" name="LMP2LT"> F  </i>
   <i type="logical" name="LUSEW"> F  </i>
   <i name="ENCUTGW">     -2.00000000</i>
   <i name="ENCUTGWSOFT">     -2.00000000</i>
   <i name="ENCUTLF">     -1.00000000</i>
   <i type="int" name="LMAXMP2">    -1</i>
   <i name="SCISSOR">      0.00000000</i>
   <i type="int" name="NOMEGA">     0</i>
   <i type="int" name="NOMEGAR">     0</i>
   <i type="int" name="NBANDSGW">    -1</i>
   <i type="int" name="NBANDSO">    -1</i>
   <i type="int" name="NBANDSV">    -1</i>
   <i type="int" name="NELM">   100</i>
   <i type="int" name="NELMHF">     1</i>
   <i type="int" name="DIM">     3</i>
   <i type="int" name="ANTIRES">     0</i>
   <i name="OMEGAMAX">    -30.00000000</i>
   <i name="OMEGAMIN">    -30.00000000</i>
   <i name="OMEGATL">   -200.00000000</i>
   <i type="int" name="OMEGAGRID">   140</i>
   <i name="CSHIFT">     -0.10000000</i>
   <i type="logical" name="SELFENERGY"> F  </i>
   <i type="logical" name="LSPECTRAL"> F  </i>
   <i type="logical" name="LSPECTRALGW"> F  </i>
   <i type="logical" name="LSINGLES"> F  </i>
   <i type="logical" name="LFERMIGW"> F  </i>
   <i type="logical" name="ODDONLYGW"> F  </i>
   <i type="logical" name="EVENONLYGW"> F  </i>
   <i type="int" name="NKREDLFX">     1</i>
   <i type="int" name="NKREDLFY">     1</i>
   <i type="int" name="NKREDLFZ">     1</i>
   <i type="int" name="MAXMEM"> 10000</i>
   <i type="int" name="TELESCOPE">     0</i>
   <i type="int" name="TAUPAR">     1</i>
   <i type="int" name="OMEGAPAR">    -1</i>
   <i name="LAMBDA">      1.00000000</i>
  </separator>
  <separator name="External order field" >
   <i name="OFIELD_KAPPA">      0.00000000</i>
   <v name="OFIELD_K">      0.00000000      0.00000000      0.00000000</v>
   <i name="OFIELD_Q6_NEAR">      0.00000000</i>
   <i name="OFIELD_Q6_FAR">      0.00000000</i>
   <i name="OFIELD_A">      0.00000000</i>
  </separator>
 </parameters>
 <atominfo>
  <atoms>      57 </atoms>
  <types>       3 </types>
  <array name="atoms" >
   <dimension dim="1">ion</dimension>
   <field type="string">element</field>
   <field type="int">atomtype</field>
   <set>
    <rc><c>Pd</c><c>   1</c></rc>
    <rc><c>Pd</c><c>   1</c></rc>
    <rc><c>Pd</c><c>   1</c></rc>
    <rc><c>Pd</c><c>   1</c></rc>
    <rc><c>Pd</c><c>   1</c></rc>
    <rc><c>Pd</c><c>   1</c></rc>
    <rc><c>Pd</c><c>   1</c></rc>
    <rc><c>Pd</c><c>   1</c></rc>
    <rc><c>Pd</c><c>   1</c></rc>
    <rc><c>Pd</c><c>   1</c></rc>
    <rc><c>Pd</c><c>   1</c></rc>
    <rc><c>Pd</c><c>   1</c></rc>
    <rc><c>Pd</c><c>   1</c></rc>
    <rc><c>Pd</c><c>   1</c></rc>
    <rc><c>Pd</c><c>   1</c></rc>
    <rc><c>Pd</c><c>   1</c></rc>
    <rc><c>Pd</c><c>   1</c></rc>
    <rc><c>Pd</c><c>   1</c></rc>
    <rc><c>Pd</c><c>   1</c></rc>
    <rc><c>Pd</c><c>   1</c></rc>
    <rc><c>Pd</c><c>   1</c></rc>
    <rc><c>Pd</c><c>   1</c></rc>
    <rc><c>Pd</c><c>   1</c></rc>
    <rc><c>Pd</c><c>   1</c></rc>
    <rc><c>Pd</c><c>   1</c></rc>
    <rc><c>Pd</c><c>   1</c></rc>
    <rc><c>Pd</c><c>   1</c></rc>
    <rc><c>Pd</c><c>   1</c></rc>
    <rc><c>Pd</c><c>   1</c></rc>
    <rc><c>Pd</c><c>   1</c></rc>
    <rc><c>Pd</c><c>   1</c></rc>
    <rc><c>Pd</c><c>   1</c></rc>
    <rc><c>Pd</c><c>   1</c></rc>
    <rc><c>Pd</c><c>   1</c></rc>
    <rc><c>Pd</c><c>   1</c></rc>
    <rc><c>Pd</c><c>   1</c></rc>
    <rc><c>Pd</c><c>   1</c></rc>
    <rc><c>Pd</c><c>   1</c></rc>
    <rc><c>Pd</c><c>   1</c></rc>
    <rc><c>Pd</c><c>   1</c></rc>
    <rc><c>Pd</c><c>   1</c></rc>
    <rc><c>Pd</c><c>   1</c></rc>
    <rc><c>Pd</c><c>   1</c></rc>
    <rc><c>Pd</c><c>   1</c></rc>
    <rc><c>Pd</c><c>   1</c></rc>
    <rc><c>Pd</c><c>   1</c></rc>
    <rc><c>Pd</c><c>   1</c></rc>
    <rc><c>Pd</c><c>   1</c></rc>
    <rc><c>Pd</c><c>   1</c></rc>
    <rc><c>Pd</c><c>   1</c></rc>
    <rc><c>Pd</c><c>   1</c></rc>
    <rc><c>Pd</c><c>   1</c></rc>
    <rc><c>Pd</c><c>   1</c></rc>
    <rc><c>Pd</c><c>   1</c></rc>
    <rc><c>Pd</c><c>   1</c></rc>
    <rc><c>C </c><c>   2</c></rc>
    <rc><c>O </c><c>   3</c></rc>
   </set>
  </array>
  <array name="atomtypes" >
   <dimension dim="1">type</dimension>
   <field type="int">atomspertype</field>
   <field type="string">element</field>
   <field>mass</field>
   <field>valence</field>
   <field type="string">pseudopotential</field>
   <set>
    <rc><c>  55</c><c>Pd</c><c>    106.42000000</c><c>     10.00000000</c><c>  PAW_PBE Pd 04Jan2005                  </c></rc>
    <rc><c>   1</c><c>C </c><c>     12.01100000</c><c>      4.00000000</c><c>  PAW_PBE C 08Apr2002                   </c></rc>
    <rc><c>   1</c><c>O </c><c>     16.00000000</c><c>      6.00000000</c><c>  PAW_PBE O 08Apr2002                   </c></rc>
   </set>
  </array>
 </atominfo>
 <structure name="initialpos" >
  <crystal>
   <varray name="basis" >
    <v>      30.00000000       0.00000000       0.00000000 </v>
    <v>       0.00000000      30.00000000       0.00000000 </v>
    <v>       0.00000000       0.00000000      30.00000000 </v>
   </varray>
   <i name="volume">  27000.00000000 </i>
   <varray name="rec_basis" >
    <v>       0.03333333       0.00000000       0.00000000 </v>
    <v>       0.00000000       0.03333333       0.00000000 </v>
    <v>       0.00000000       0.00000000       0.03333333 </v>
   </varray>
  </crystal>
  <varray name="positions" >
   <v>       0.44576020       0.32826710       0.41691983 </v>
   <v>       0.67173288       0.55423978       0.41691983 </v>
   <v>       0.55423980       0.32826710       0.41691983 </v>
   <v>       0.32826712       0.55423978       0.41691983 </v>
   <v>       0.50000000       0.38250690       0.34021317 </v>
   <v>       0.50000000       0.38250690       0.65978680 </v>
   <v>       0.50000000       0.27609440       0.50000000 </v>
   <v>       0.27609443       0.49999998       0.50000000 </v>
   <v>       0.72390557       0.49999998       0.50000000 </v>
   <v>       0.50000000       0.72390555       0.50000000 </v>
   <v>       0.61195280       0.38804720       0.34167483 </v>
   <v>       0.61195280       0.38804720       0.65832513 </v>
   <v>       0.38804722       0.61195278       0.34167483 </v>
   <v>       0.38804722       0.61195278       0.65832513 </v>
   <v>       0.38804720       0.38804720       0.34167483 </v>
   <v>       0.38804720       0.38804720       0.65832513 </v>
   <v>       0.61195278       0.61195278       0.34167483 </v>
   <v>       0.61195278       0.61195278       0.65832513 </v>
   <v>       0.44576020       0.32826710       0.58308023 </v>
   <v>       0.67173288       0.55423978       0.58308023 </v>
   <v>       0.55791699       0.44208301       0.41809300 </v>
   <v>       0.32826705       0.44576024       0.41691983 </v>
   <v>       0.55423973       0.67173293       0.41691983 </v>
   <v>       0.55423980       0.32826710       0.58308023 </v>
   <v>       0.32826712       0.55423978       0.58308023 </v>
   <v>       0.67173295       0.44576024       0.41691983 </v>
   <v>       0.44576027       0.67173293       0.41691983 </v>
   <v>       0.44208301       0.44208301       0.41809300 </v>
   <v>       0.50000000       0.38416601       0.50000000 </v>
   <v>       0.61749315       0.50000005       0.34021317 </v>
   <v>       0.61749315       0.50000005       0.65978680 </v>
   <v>       0.38250685       0.50000005       0.34021317 </v>
   <v>       0.38250685       0.50000005       0.65978680 </v>
   <v>       0.38317830       0.38317830       0.50000000 </v>
   <v>       0.61682172       0.61682172       0.50000000 </v>
   <v>       0.61682170       0.38317830       0.50000000 </v>
   <v>       0.38317828       0.61682172       0.50000000 </v>
   <v>       0.50000000       0.50000000       0.33478917 </v>
   <v>       0.50000000       0.50000000       0.66521087 </v>
   <v>       0.32826705       0.44576024       0.58308023 </v>
   <v>       0.55423973       0.67173293       0.58308023 </v>
   <v>       0.55791699       0.44208301       0.58190703 </v>
   <v>       0.44208298       0.55791702       0.41809300 </v>
   <v>       0.44208301       0.44208301       0.58190703 </v>
   <v>       0.67173295       0.44576024       0.58308023 </v>
   <v>       0.44576027       0.67173293       0.58308023 </v>
   <v>       0.55791702       0.55791702       0.41809300 </v>
   <v>       0.38416599       0.50000002       0.50000000 </v>
   <v>       0.61583401       0.50000002       0.50000000 </v>
   <v>       0.50000000       0.61749319       0.34021317 </v>
   <v>       0.50000000       0.61749319       0.65978680 </v>
   <v>       0.50000000       0.50000000       0.50000000 </v>
   <v>       0.44208298       0.55791702       0.58190703 </v>
   <v>       0.55791702       0.55791702       0.58190703 </v>
   <v>       0.50000000       0.61583404       0.50000000 </v>
   <v>       0.46151643       0.56648740       0.33361060 </v>
   <v>       0.45362097       0.58012827       0.29947340 </v>
  </varray>
  <varray name="selective"  type="logical" >
   <v type="logical" >  F  F  F </v>
   <v type="logical" >  F  F  F </v>
   <v type="logical" >  F  F  F </v>
   <v type="logical" >  F  F  F </v>
   <v type="logical" >  F  F  F </v>
   <v type="logical" >  F  F  F </v>
   <v type="logical" >  F  F  F </v>
   <v type="logical" >  F  F  F </v>
   <v type="logical" >  F  F  F </v>
   <v type="logical" >  F  F  F </v>
   <v type="logical" >  F  F  F </v>
   <v type="logical" >  F  F  F </v>
   <v type="logical" >  F  F  F </v>
   <v type="logical" >  F  F  F </v>
   <v type="logical" >  F  F  F </v>
   <v type="logical" >  F  F  F </v>
   <v type="logical" >  F  F  F </v>
   <v type="logical" >  F  F  F </v>
   <v type="logical" >  F  F  F </v>
   <v type="logical" >  F  F  F </v>
   <v type="logical" >  F  F  F </v>
   <v type="logical" >  F  F  F </v>
   <v type="logical" >  F  F  F </v>
   <v type="logical" >  F  F  F </v>
   <v type="logical" >  F  F  F </v>
   <v type="logical" >  F  F  F </v>
   <v type="logical" >  F  F  F </v>
   <v type="logical" >  F  F  F </v>
   <v type="logical" >  F  F  F </v>
   <v type="logical" >  F  F  F </v>
   <v type="logical" >  F  F  F </v>
   <v type="logical" >  F  F  F </v>
   <v type="logical" >  F  F  F </v>
   <v type="logical" >  F  F  F </v>
   <v type="logical" >  F  F  F </v>
   <v type="logical" >  F  F  F </v>
   <v type="logical" >  F  F  F </v>
   <v type="logical" >  F  F  F </v>
   <v type="logical" >  F  F  F </v>
   <v type="logical" >  F  F  F </v>
   <v type="logical" >  F  F  F </v>
   <v type="logical" >  F  F  F </v>
   <v type="logical" >  F  F  F </v>
   <v type="logical" >  F  F  F </v>
   <v type="logical" >  F  F  F </v>
   <v type="logical" >  F  F  F </v>
   <v type="logical" >  F  F  F </v>
   <v type="logical" >  F  F  F </v>
   <v type="logical" >  F  F  F </v>
   <v type="logical" >  F  F  F </v>
   <v type="logical" >  F  F  F </v>
   <v type="logical" >  F  F  F </v>
   <v type="logical" >  F  F  F </v>
   <v type="logical" >  F  F  F </v>
   <v type="logical" >  F  F  F </v>
   <v type="logical" >  F  F  F </v>
   <v type="logical" >  F  F  F </v>
  </varray>
  <nose>
   <v>      -3.00000000       0.00000000       0.00010000       0.00010000 </v>
  </nose>
 </structure>
 <calculation>
  <scstep>
   <time name="dav">  364.09  364.17</time>
   <time name="total">  378.40  378.48</time>
   <energy>
    <i name="alphaZ">     75.25431677 </i>
    <i name="ewald"> 140387.33212309 </i>
    <i name="hartreedc">-183736.77571748 </i>
    <i name="XCdc">  -1701.34180194 </i>
    <i name="pawpsdc">  44873.02882129 </i>
    <i name="pawaedc"> -41398.84523641 </i>
    <i name="eentropy">     -0.00769416 </i>
    <i name="bandstr">    813.94772214 </i>
    <i name="atom">  45086.50549395 </i>
    <i name="e_fr_energy">   4399.09802724 </i>
    <i name="e_wo_entrp">   4399.10572140 </i>
    <i name="e_0_energy">   4399.09995078 </i>
   </energy>
  </scstep>
  <scstep>
   <time name="dav">  585.99  586.00</time>
   <time name="total">  585.99  586.00</time>
   <energy>
    <i name="e_fr_energy">   2012.63246869 </i>
    <i name="e_wo_entrp">   2012.61736854 </i>
    <i name="e_0_energy">   2012.62869366 </i>
   </energy>
  </scstep>
  <scstep>
   <time name="dav">  491.28  491.30</time>
   <time name="total">  491.28  491.30</time>
   <energy>
    <i name="e_fr_energy">    236.76302872 </i>
    <i name="e_wo_entrp">    236.79484093 </i>
    <i name="e_0_energy">    236.77098177 </i>
   </energy>
  </scstep>
  <scstep>
   <time name="dav">  427.97  427.99</time>
   <time name="total">  427.97  428.00</time>
   <energy>
    <i name="e_fr_energy">   -134.04333899 </i>
    <i name="e_wo_entrp">   -134.05446116 </i>
    <i name="e_0_energy">   -134.04611953 </i>
   </energy>
  </scstep>
  <scstep>
   <time name="dav">  525.87  525.90</time>
   <time name="total">  552.38  552.41</time>
   <energy>
    <i name="e_fr_energy">   -179.48552724 </i>
    <i name="e_wo_entrp">   -180.00728331 </i>
    <i name="e_0_energy">   -179.61596626 </i>
   </energy>
  </scstep>
  <scstep>
   <time name="diag">   69.55   69.56</time>
   <time name="diis">  193.18  193.20</time>
   <time name="orth">   14.10   14.10</time>
   <time name="total">  316.99  317.02</time>
   <energy>
    <i name="e_fr_energy">   -180.20289358 </i>
    <i name="e_wo_entrp">   -179.93627420 </i>
    <i name="e_0_energy">   -180.13623873 </i>
   </energy>
  </scstep>
  <scstep>
   <time name="diag">   69.63   69.64</time>
   <time name="diis">  225.27  225.27</time>
   <time name="orth">   13.63   13.63</time>
   <time name="total">  348.82  348.83</time>
   <energy>
    <i name="e_fr_energy">   -182.68926049 </i>
    <i name="e_wo_entrp">   -182.68464390 </i>
    <i name="e_0_energy">   -182.68810634 </i>
   </energy>
  </scstep>
  <scstep>
   <time name="diag">   68.91   68.91</time>
   <time name="diis">  213.67  213.69</time>
   <time name="orth">   13.65   13.65</time>
   <time name="total">  335.53  335.55</time>
   <energy>
    <i name="e_fr_energy">   -183.52385042 </i>
    <i name="e_wo_entrp">   -183.39367187 </i>
    <i name="e_0_energy">   -183.49130578 </i>
   </energy>
  </scstep>
  <scstep>
   <time name="diag">   69.65   69.65</time>
   <time name="diis">  191.27  191.28</time>
   <time name="orth">   13.71   13.71</time>
   <time name="total">  314.32  314.33</time>
   <energy>
    <i name="e_fr_energy">   -182.14880791 </i>
    <i name="e_wo_entrp">   -182.00431959 </i>
    <i name="e_0_energy">   -182.11268583 </i>
   </energy>
  </scstep>
  <scstep>
   <time name="diag">   69.82   69.83</time>
   <time name="diis">  192.81  192.82</time>
   <time name="orth">   13.65   13.65</time>
   <time name="total">  316.26  316.27</time>
   <energy>
    <i name="e_fr_energy">   -179.38736988 </i>
    <i name="e_wo_entrp">   -179.41288631 </i>
    <i name="e_0_energy">   -179.39374898 </i>
   </energy>
  </scstep>
  <scstep>
   <time name="diag">   69.78   69.78</time>
   <time name="diis">  191.80  191.81</time>
   <time name="orth">   13.79   13.79</time>
   <time name="total">  315.21  315.23</time>
   <energy>
    <i name="e_fr_energy">   -177.47329792 </i>
    <i name="e_wo_entrp">   -177.47012780 </i>
    <i name="e_0_energy">   -177.47250539 </i>
   </energy>
  </scstep>
  <scstep>
   <time name="diag">   68.95   68.95</time>
   <time name="diis">  191.17  191.17</time>
   <time name="orth">   13.55   13.55</time>
   <time name="total">  313.44  313.45</time>
   <energy>
    <i name="e_fr_energy">   -176.89260913 </i>
    <i name="e_wo_entrp">   -176.92539993 </i>
    <i name="e_0_energy">   -176.90080683 </i>
   </energy>
  </scstep>
  <scstep>
   <time name="diag">   69.67   69.67</time>
   <time name="diis">  193.70  193.70</time>
   <time name="orth">   13.69   13.69</time>
   <time name="total">  316.72  316.73</time>
   <energy>
    <i name="e_fr_energy">   -176.60280822 </i>
    <i name="e_wo_entrp">   -176.55910465 </i>
    <i name="e_0_energy">   -176.59188233 </i>
   </energy>
  </scstep>
  <scstep>
   <time name="diag">   70.51   70.51</time>
   <time name="diis">  187.14  187.15</time>
   <time name="orth">   13.71   13.71</time>
   <time name="total">  311.03  311.04</time>
   <energy>
    <i name="e_fr_energy">   -176.59276182 </i>
    <i name="e_wo_entrp">   -176.56560579 </i>
    <i name="e_0_energy">   -176.58597281 </i>
   </energy>
  </scstep>
  <scstep>
   <time name="diag">   69.81   69.81</time>
   <time name="diis">  186.78  186.79</time>
   <time name="orth">   13.64   13.64</time>
   <time name="total">  309.42  309.44</time>
   <energy>
    <i name="e_fr_energy">   -175.94032827 </i>
    <i name="e_wo_entrp">   -175.93539841 </i>
    <i name="e_0_energy">   -175.93909580 </i>
   </energy>
  </scstep>
  <scstep>
   <time name="diag">   69.73   69.74</time>
   <time name="diis">  186.18  186.20</time>
   <time name="orth">   13.64   13.64</time>
   <time name="total">  308.99  309.02</time>
   <energy>
    <i name="e_fr_energy">   -175.59440972 </i>
    <i name="e_wo_entrp">   -175.59612438 </i>
    <i name="e_0_energy">   -175.59483839 </i>
   </energy>
  </scstep>
  <scstep>
   <time name="diag">   69.91   69.92</time>
   <time name="diis">  188.77  188.79</time>
   <time name="orth">   13.58   13.58</time>
   <time name="total">  312.02  312.05</time>
   <energy>
    <i name="e_fr_energy">   -175.56487915 </i>
    <i name="e_wo_entrp">   -175.59581297 </i>
    <i name="e_0_energy">   -175.57261261 </i>
   </energy>
  </scstep>
  <scstep>
   <time name="diag">   69.41   69.41</time>
   <time name="diis">  190.97  190.97</time>
   <time name="orth">   13.59   13.59</time>
   <time name="total">  313.37  313.37</time>
   <energy>
    <i name="e_fr_energy">   -175.32878840 </i>
    <i name="e_wo_entrp">   -175.45220212 </i>
    <i name="e_0_energy">   -175.35964183 </i>
   </energy>
  </scstep>
  <scstep>
   <time name="diag">   69.83   69.83</time>
   <time name="diis">  184.73  184.73</time>
   <time name="orth">   13.39   13.39</time>
   <time name="total">  308.02  308.02</time>
   <energy>
    <i name="e_fr_energy">   -174.94952973 </i>
    <i name="e_wo_entrp">   -175.04350860 </i>
    <i name="e_0_energy">   -174.97302444 </i>
   </energy>
  </scstep>
  <scstep>
   <time name="diag">   69.13   69.13</time>
   <time name="diis">  185.15  185.16</time>
   <time name="orth">   13.68   13.68</time>
   <time name="total">  308.45  308.46</time>
   <energy>
    <i name="e_fr_energy">   -174.89012384 </i>
    <i name="e_wo_entrp">   -174.98789519 </i>
    <i name="e_0_energy">   -174.91456668 </i>
   </energy>
  </scstep>
  <scstep>
   <time name="diag">   69.31   69.31</time>
   <time name="diis">  182.62  182.62</time>
   <time name="orth">   13.82   13.82</time>
   <time name="total">  306.18  306.18</time>
   <energy>
    <i name="e_fr_energy">   -174.73613283 </i>
    <i name="e_wo_entrp">   -174.76856371 </i>
    <i name="e_0_energy">   -174.74424055 </i>
   </energy>
  </scstep>
  <scstep>
   <time name="diag">   68.75   68.75</time>
   <time name="diis">  183.69  183.69</time>
   <time name="orth">   13.50   13.50</time>
   <time name="total">  306.83  306.84</time>
   <energy>
    <i name="e_fr_energy">   -174.64238422 </i>
    <i name="e_wo_entrp">   -174.62395525 </i>
    <i name="e_0_energy">   -174.63777698 </i>
   </energy>
  </scstep>
  <scstep>
   <time name="diag">   69.27   69.28</time>
   <time name="diis">  185.68  185.68</time>
   <time name="orth">   13.54   13.54</time>
   <time name="total">  308.66  308.67</time>
   <energy>
    <i name="e_fr_energy">   -174.56610568 </i>
    <i name="e_wo_entrp">   -174.54719034 </i>
    <i name="e_0_energy">   -174.56137685 </i>
   </energy>
  </scstep>
  <scstep>
   <time name="diag">   68.80   68.80</time>
   <time name="diis">  182.34  182.34</time>
   <time name="orth">   13.39   13.39</time>
   <time name="total">  304.91  304.91</time>
   <energy>
    <i name="e_fr_energy">   -174.34525218 </i>
    <i name="e_wo_entrp">   -174.32418004 </i>
    <i name="e_0_energy">   -174.33998414 </i>
   </energy>
  </scstep>
  <scstep>
   <time name="diag">   69.31   69.32</time>
   <time name="diis">  181.50  181.50</time>
   <time name="orth">   13.52   13.52</time>
   <time name="total">  304.56  304.57</time>
   <energy>
    <i name="e_fr_energy">   -174.31429126 </i>
    <i name="e_wo_entrp">   -174.27125238 </i>
    <i name="e_0_energy">   -174.30353154 </i>
   </energy>
  </scstep>
  <scstep>
   <time name="diag">   69.56   69.56</time>
   <time name="diis">  181.26  181.26</time>
   <time name="orth">   13.77   13.77</time>
   <time name="total">  305.45  305.46</time>
   <energy>
    <i name="e_fr_energy">   -174.26325802 </i>
    <i name="e_wo_entrp">   -174.23053423 </i>
    <i name="e_0_energy">   -174.25507707 </i>
   </energy>
  </scstep>
  <scstep>
   <time name="diag">   69.10   69.10</time>
   <time name="diis">  180.63  180.63</time>
   <time name="orth">   13.72   13.72</time>
   <time name="total">  304.37  304.37</time>
   <energy>
    <i name="e_fr_energy">   -174.22924665 </i>
    <i name="e_wo_entrp">   -174.20698992 </i>
    <i name="e_0_energy">   -174.22368247 </i>
   </energy>
  </scstep>
  <scstep>
   <time name="diag">   68.60   68.60</time>
   <time name="diis">  182.65  182.65</time>
   <time name="orth">   13.47   13.47</time>
   <time name="total">  304.79  304.80</time>
   <energy>
    <i name="e_fr_energy">   -174.21756117 </i>
    <i name="e_wo_entrp">   -174.19881053 </i>
    <i name="e_0_energy">   -174.21287351 </i>
   </energy>
  </scstep>
  <scstep>
   <time name="diag">   68.66   68.66</time>
   <time name="diis">  181.79  181.80</time>
   <time name="orth">   13.50   13.50</time>
   <time name="total">  304.34  304.35</time>
   <energy>
    <i name="e_fr_energy">   -174.20235279 </i>
    <i name="e_wo_entrp">   -174.18753648 </i>
    <i name="e_0_energy">   -174.19864872 </i>
   </energy>
  </scstep>
  <scstep>
   <time name="diag">   70.02   70.02</time>
   <time name="diis">  180.00  180.00</time>
   <time name="orth">   13.60   13.60</time>
   <time name="total">  304.77  304.77</time>
   <energy>
    <i name="e_fr_energy">   -174.19566840 </i>
    <i name="e_wo_entrp">   -174.17868689 </i>
    <i name="e_0_energy">   -174.19142302 </i>
   </energy>
  </scstep>
  <scstep>
   <time name="diag">   70.02   70.02</time>
   <time name="diis">  182.80  182.80</time>
   <time name="orth">   13.55   13.55</time>
   <time name="total">  307.48  307.48</time>
   <energy>
    <i name="e_fr_energy">   -174.19066500 </i>
    <i name="e_wo_entrp">   -174.17199627 </i>
    <i name="e_0_energy">   -174.18599782 </i>
   </energy>
  </scstep>
  <scstep>
   <time name="diag">   69.22   69.22</time>
   <time name="diis">  183.40  183.40</time>
   <time name="orth">   13.28   13.28</time>
   <time name="total">  306.53  306.53</time>
   <energy>
    <i name="e_fr_energy">   -174.18164903 </i>
    <i name="e_wo_entrp">   -174.16043917 </i>
    <i name="e_0_energy">   -174.17634657 </i>
   </energy>
  </scstep>
  <scstep>
   <time name="diag">   70.32   70.32</time>
   <time name="diis">  181.31  181.31</time>
   <time name="orth">   13.87   13.88</time>
   <time name="total">  306.50  306.51</time>
   <energy>
    <i name="e_fr_energy">   -174.17880926 </i>
    <i name="e_wo_entrp">   -174.15797249 </i>
    <i name="e_0_energy">   -174.17360006 </i>
   </energy>
  </scstep>
  <scstep>
   <time name="diag">   68.96   68.96</time>
   <time name="diis">  181.34  181.34</time>
   <time name="orth">   13.70   13.70</time>
   <time name="total">  305.27  305.28</time>
   <energy>
    <i name="e_fr_energy">   -174.17805450 </i>
    <i name="e_wo_entrp">   -174.15651276 </i>
    <i name="e_0_energy">   -174.17266906 </i>
   </energy>
  </scstep>
  <scstep>
   <time name="diag">   68.17   68.17</time>
   <time name="diis">  180.62  180.62</time>
   <time name="orth">   13.62   13.62</time>
   <time name="total">  303.57  303.57</time>
   <energy>
    <i name="e_fr_energy">   -174.17815007 </i>
    <i name="e_wo_entrp">   -174.15857988 </i>
    <i name="e_0_energy">   -174.17325752 </i>
   </energy>
  </scstep>
  <scstep>
   <time name="diag">   69.04   69.04</time>
   <time name="diis">  180.13  180.14</time>
   <time name="orth">   13.77   13.77</time>
   <time name="total">  304.40  304.40</time>
   <energy>
    <i name="e_fr_energy">   -174.17836823 </i>
    <i name="e_wo_entrp">   -174.15787116 </i>
    <i name="e_0_energy">   -174.17324397 </i>
   </energy>
  </scstep>
  <scstep>
   <time name="diag">   68.33   68.33</time>
   <time name="diis">  180.57  180.57</time>
   <time name="orth">   13.52   13.52</time>
   <time name="total">  304.34  304.35</time>
   <energy>
    <i name="e_fr_energy">   -174.17883505 </i>
    <i name="e_wo_entrp">   -174.15743756 </i>
    <i name="e_0_energy">   -174.17348568 </i>
   </energy>
  </scstep>
  <scstep>
   <time name="diag">   68.40   68.40</time>
   <time name="diis">  178.53  178.54</time>
   <time name="orth">   13.25   13.25</time>
   <time name="total">  301.70  301.70</time>
   <energy>
    <i name="e_fr_energy">   -174.18017624 </i>
    <i name="e_wo_entrp">   -174.16077246 </i>
    <i name="e_0_energy">   -174.17532529 </i>
   </energy>
  </scstep>
  <scstep>
   <time name="diag">   67.52   67.52</time>
   <time name="diis">  177.35  177.36</time>
   <time name="orth">   13.67   13.67</time>
   <time name="total">  299.79  299.81</time>
   <energy>
    <i name="e_fr_energy">   -174.18183087 </i>
    <i name="e_wo_entrp">   -174.16317249 </i>
    <i name="e_0_energy">   -174.17716628 </i>
   </energy>
  </scstep>
  <scstep>
   <time name="diag">   67.86   67.86</time>
   <time name="diis">  170.82  170.82</time>
   <time name="orth">   13.70   13.70</time>
   <time name="total">  294.19  294.19</time>
   <energy>
    <i name="e_fr_energy">   -174.18434489 </i>
    <i name="e_wo_entrp">   -174.16531342 </i>
    <i name="e_0_energy">   -174.17958702 </i>
   </energy>
  </scstep>
  <scstep>
   <time name="diag">   68.03   68.04</time>
   <time name="diis">  136.48  136.48</time>
   <time name="orth">   13.77   13.78</time>
   <time name="total">  260.86  260.88</time>
   <energy>
    <i name="e_fr_energy">   -174.18587036 </i>
    <i name="e_wo_entrp">   -174.16677655 </i>
    <i name="e_0_energy">   -174.18109691 </i>
   </energy>
  </scstep>
  <scstep>
   <time name="diag">   68.38   68.38</time>
   <time name="diis">  151.45  151.46</time>
   <time name="orth">   13.75   13.74</time>
   <time name="total">  276.52  276.55</time>
   <energy>
    <i name="e_fr_energy">   -174.18850507 </i>
    <i name="e_wo_entrp">   -174.16922287 </i>
    <i name="e_0_energy">   -174.18368452 </i>
   </energy>
  </scstep>
  <scstep>
   <time name="diag">   68.12   68.12</time>
   <time name="diis">  141.68  141.69</time>
   <time name="orth">   13.72   13.72</time>
   <time name="total">  266.61  266.62</time>
   <energy>
    <i name="e_fr_energy">   -174.19116445 </i>
    <i name="e_wo_entrp">   -174.17267504 </i>
    <i name="e_0_energy">   -174.18654210 </i>
   </energy>
  </scstep>
  <scstep>
   <time name="diag">   68.59   68.60</time>
   <time name="diis">  142.18  142.19</time>
   <time name="orth">   13.85   13.85</time>
   <time name="total">  266.88  266.90</time>
   <energy>
    <i name="e_fr_energy">   -174.19364046 </i>
    <i name="e_wo_entrp">   -174.17488419 </i>
    <i name="e_0_energy">   -174.18895139 </i>
   </energy>
  </scstep>
  <scstep>
   <time name="diag">   67.22   67.23</time>
   <time name="diis">  132.18  132.20</time>
   <time name="orth">   13.26   13.26</time>
   <time name="total">  255.34  255.36</time>
   <energy>
    <i name="e_fr_energy">   -174.19572603 </i>
    <i name="e_wo_entrp">   -174.17544372 </i>
    <i name="e_0_energy">   -174.19065545 </i>
   </energy>
  </scstep>
  <scstep>
   <time name="diag">   68.27   68.28</time>
   <time name="diis">  121.52  121.53</time>
   <time name="orth">   13.44   13.44</time>
   <time name="total">  245.78  245.80</time>
   <energy>
    <i name="e_fr_energy">   -174.19722245 </i>
    <i name="e_wo_entrp">   -174.17785747 </i>
    <i name="e_0_energy">   -174.19238120 </i>
   </energy>
  </scstep>
  <scstep>
   <time name="diag">   68.09   68.09</time>
   <time name="diis">  118.59  118.59</time>
   <time name="orth">   13.31   13.31</time>
   <time name="total">  242.44  242.46</time>
   <energy>
    <i name="e_fr_energy">   -174.19862697 </i>
    <i name="e_wo_entrp">   -174.17915038 </i>
    <i name="e_0_energy">   -174.19375782 </i>
   </energy>
  </scstep>
  <scstep>
   <time name="diag">   67.74   67.74</time>
   <time name="diis">  118.17  118.18</time>
   <time name="orth">   13.37   13.37</time>
   <time name="total">  242.30  242.32</time>
   <energy>
    <i name="e_fr_energy">   -174.19948808 </i>
    <i name="e_wo_entrp">   -174.18059714 </i>
    <i name="e_0_energy">   -174.19476535 </i>
   </energy>
  </scstep>
  <scstep>
   <time name="diag">   67.71   67.72</time>
   <time name="diis">  117.19  117.20</time>
   <time name="orth">   13.82   13.82</time>
   <time name="total">  243.24  243.26</time>
   <energy>
    <i name="e_fr_energy">   -174.20043675 </i>
    <i name="e_wo_entrp">   -174.18156792 </i>
    <i name="e_0_energy">   -174.19571954 </i>
   </energy>
  </scstep>
  <scstep>
   <time name="diag">   68.31   68.31</time>
   <time name="diis">  114.54  114.55</time>
   <time name="orth">   13.67   13.67</time>
   <time name="total">  240.32  240.35</time>
   <energy>
    <i name="e_fr_energy">   -174.20121512 </i>
    <i name="e_wo_entrp">   -174.18221296 </i>
    <i name="e_0_energy">   -174.19646458 </i>
   </energy>
  </scstep>
  <scstep>
   <time name="diag">   69.50   69.51</time>
   <time name="diis">  113.83  113.84</time>
   <time name="orth">   13.21   13.21</time>
   <time name="total">  238.96  238.99</time>
   <energy>
    <i name="e_fr_energy">   -174.20201812 </i>
    <i name="e_wo_entrp">   -174.18281698 </i>
    <i name="e_0_energy">   -174.19721783 </i>
   </energy>
  </scstep>
  <scstep>
   <time name="diag">   68.09   68.09</time>
   <time name="diis">  117.85  117.86</time>
   <time name="orth">   13.71   13.71</time>
   <time name="total">  242.18  242.20</time>
   <energy>
    <i name="e_fr_energy">   -174.20297681 </i>
    <i name="e_wo_entrp">   -174.18401374 </i>
    <i name="e_0_energy">   -174.19823605 </i>
   </energy>
  </scstep>
  <scstep>
   <time name="diag">   66.99   67.00</time>
   <time name="diis">  113.09  113.09</time>
   <time name="orth">   13.72   13.72</time>
   <time name="total">  237.75  237.77</time>
   <energy>
    <i name="e_fr_energy">   -174.20340137 </i>
    <i name="e_wo_entrp">   -174.18446972 </i>
    <i name="e_0_energy">   -174.19866846 </i>
   </energy>
  </scstep>
  <scstep>
   <time name="diag">   68.96   68.96</time>
   <time name="diis">  107.56  107.57</time>
   <time name="orth">   13.52   13.52</time>
   <time name="total">  234.24  234.27</time>
   <energy>
    <i name="e_fr_energy">   -174.20403884 </i>
    <i name="e_wo_entrp">   -174.18501211 </i>
    <i name="e_0_energy">   -174.19928216 </i>
   </energy>
  </scstep>
  <scstep>
   <time name="diag">   69.73   69.73</time>
   <time name="diis">   94.01   94.01</time>
   <time name="orth">   13.43   13.43</time>
   <time name="total">  220.26  220.26</time>
   <energy>
    <i name="e_fr_energy">   -174.20428438 </i>
    <i name="e_wo_entrp">   -174.18528238 </i>
    <i name="e_0_energy">   -174.19953388 </i>
   </energy>
  </scstep>
  <scstep>
   <time name="diag">   68.48   68.49</time>
   <time name="diis">   90.26   90.26</time>
   <time name="orth">   13.55   13.56</time>
   <time name="total">  215.65  215.66</time>
   <energy>
    <i name="e_fr_energy">   -174.20459178 </i>
    <i name="e_wo_entrp">   -174.18548539 </i>
    <i name="e_0_energy">   -174.19981518 </i>
   </energy>
  </scstep>
  <scstep>
   <time name="diag">   67.65   67.65</time>
   <time name="diis">   79.17   79.17</time>
   <time name="orth">   13.77   13.77</time>
   <time name="total">  204.70  204.70</time>
   <energy>
    <i name="e_fr_energy">   -174.20472145 </i>
    <i name="e_wo_entrp">   -174.18564570 </i>
    <i name="e_0_energy">   -174.19995251 </i>
   </energy>
  </scstep>
  <scstep>
   <time name="diag">   69.20   69.20</time>
   <time name="diis">   83.00   83.01</time>
   <time name="orth">   13.22   13.22</time>
   <time name="total">  208.79  208.80</time>
   <energy>
    <i name="e_fr_energy">   -174.20495497 </i>
    <i name="e_wo_entrp">   -174.18592371 </i>
    <i name="e_0_energy">   -174.20019715 </i>
   </energy>
  </scstep>
  <scstep>
   <time name="diag">   68.35   68.36</time>
   <time name="diis">   91.80   91.81</time>
   <time name="orth">   13.77   13.77</time>
   <time name="total">  217.54  217.55</time>
   <energy>
    <i name="e_fr_energy">   -174.20526188 </i>
    <i name="e_wo_entrp">   -174.18620413 </i>
    <i name="e_0_energy">   -174.20049744 </i>
   </energy>
  </scstep>
  <scstep>
   <time name="diag">   67.42   67.42</time>
   <time name="diis">   81.57   81.57</time>
   <time name="orth">   13.83   13.83</time>
   <time name="total">  206.89  206.90</time>
   <energy>
    <i name="e_fr_energy">   -174.20540400 </i>
    <i name="e_wo_entrp">   -174.18633020 </i>
    <i name="e_0_energy">   -174.20063555 </i>
   </energy>
  </scstep>
  <scstep>
   <time name="diag">   69.05   69.06</time>
   <time name="diis">   83.44   83.44</time>
   <time name="orth">   13.50   13.50</time>
   <time name="total">  209.14  209.15</time>
   <energy>
    <i name="e_fr_energy">   -174.20561854 </i>
    <i name="e_wo_entrp">   -174.18648707 </i>
    <i name="e_0_energy">   -174.20083567 </i>
   </energy>
  </scstep>
  <scstep>
   <time name="diag">   69.26   69.26</time>
   <time name="diis">   82.69   82.69</time>
   <time name="orth">   13.60   13.60</time>
   <time name="total">  208.65  208.66</time>
   <energy>
    <i name="e_fr_energy">   -174.20574237 </i>
    <i name="e_wo_entrp">   -174.18664790 </i>
    <i name="e_0_energy">   -174.20096875 </i>
   </energy>
  </scstep>
  <scstep>
   <time name="diag">   67.15   67.16</time>
   <time name="diis">   81.36   81.36</time>
   <time name="orth">   14.06   14.06</time>
   <time name="total">  176.67  176.68</time>
   <energy>
    <i name="alphaZ">     75.25431677 </i>
    <i name="ewald"> 140387.33212309 </i>
    <i name="hartreedc">-184752.29834457 </i>
    <i name="XCdc">  -1690.64217663 </i>
    <i name="pawpsdc">  46262.70217532 </i>
    <i name="pawaedc"> -42732.96887728 </i>
    <i name="eentropy">     -0.01905094 </i>
    <i name="bandstr">  -2810.07149439 </i>
    <i name="atom">  45086.50549395 </i>
    <i name="e_fr_energy">   -174.20583468 </i>
    <i name="e_wo_entrp">   -174.18678374 </i>
    <i name="e_0_energy">   -174.20107195 </i>
   </energy>
  </scstep>
  <structure>
   <crystal>
    <varray name="basis" >
     <v>      30.00000000       0.00000000       0.00000000 </v>
     <v>       0.00000000      30.00000000       0.00000000 </v>
     <v>       0.00000000       0.00000000      30.00000000 </v>
    </varray>
    <i name="volume">  27000.00000000 </i>
    <varray name="rec_basis" >
     <v>       0.03333333       0.00000000       0.00000000 </v>
     <v>       0.00000000       0.03333333       0.00000000 </v>
     <v>       0.00000000       0.00000000       0.03333333 </v>
    </varray>
   </crystal>
   <varray name="positions" >
    <v>       0.44576020       0.32826710       0.41691983 </v>
    <v>       0.67173288       0.55423978       0.41691983 </v>
    <v>       0.55423980       0.32826710       0.41691983 </v>
    <v>       0.32826712       0.55423978       0.41691983 </v>
    <v>       0.50000000       0.38250690       0.34021317 </v>
    <v>       0.50000000       0.38250690       0.65978680 </v>
    <v>       0.50000000       0.27609440       0.50000000 </v>
    <v>       0.27609443       0.49999998       0.50000000 </v>
    <v>       0.72390557       0.49999998       0.50000000 </v>
    <v>       0.50000000       0.72390555       0.50000000 </v>
    <v>       0.61195280       0.38804720       0.34167483 </v>
    <v>       0.61195280       0.38804720       0.65832513 </v>
    <v>       0.38804722       0.61195278       0.34167483 </v>
    <v>       0.38804722       0.61195278       0.65832513 </v>
    <v>       0.38804720       0.38804720       0.34167483 </v>
    <v>       0.38804720       0.38804720       0.65832513 </v>
    <v>       0.61195278       0.61195278       0.34167483 </v>
    <v>       0.61195278       0.61195278       0.65832513 </v>
    <v>       0.44576020       0.32826710       0.58308023 </v>
    <v>       0.67173288       0.55423978       0.58308023 </v>
    <v>       0.55791699       0.44208301       0.41809300 </v>
    <v>       0.32826705       0.44576024       0.41691983 </v>
    <v>       0.55423973       0.67173293       0.41691983 </v>
    <v>       0.55423980       0.32826710       0.58308023 </v>
    <v>       0.32826712       0.55423978       0.58308023 </v>
    <v>       0.67173295       0.44576024       0.41691983 </v>
    <v>       0.44576027       0.67173293       0.41691983 </v>
    <v>       0.44208301       0.44208301       0.41809300 </v>
    <v>       0.50000000       0.38416601       0.50000000 </v>
    <v>       0.61749315       0.50000005       0.34021317 </v>
    <v>       0.61749315       0.50000005       0.65978680 </v>
    <v>       0.38250685       0.50000005       0.34021317 </v>
    <v>       0.38250685       0.50000005       0.65978680 </v>
    <v>       0.38317830       0.38317830       0.50000000 </v>
    <v>       0.61682172       0.61682172       0.50000000 </v>
    <v>       0.61682170       0.38317830       0.50000000 </v>
    <v>       0.38317828       0.61682172       0.50000000 </v>
    <v>       0.50000000       0.50000000       0.33478917 </v>
    <v>       0.50000000       0.50000000       0.66521087 </v>
    <v>       0.32826705       0.44576024       0.58308023 </v>
    <v>       0.55423973       0.67173293       0.58308023 </v>
    <v>       0.55791699       0.44208301       0.58190703 </v>
    <v>       0.44208298       0.55791702       0.41809300 </v>
    <v>       0.44208301       0.44208301       0.58190703 </v>
    <v>       0.67173295       0.44576024       0.58308023 </v>
    <v>       0.44576027       0.67173293       0.58308023 </v>
    <v>       0.55791702       0.55791702       0.41809300 </v>
    <v>       0.38416599       0.50000002       0.50000000 </v>
    <v>       0.61583401       0.50000002       0.50000000 </v>
    <v>       0.50000000       0.61749319       0.34021317 </v>
    <v>       0.50000000       0.61749319       0.65978680 </v>
    <v>       0.50000000       0.50000000       0.50000000 </v>
    <v>       0.44208298       0.55791702       0.58190703 </v>
    <v>       0.55791702       0.55791702       0.58190703 </v>
    <v>       0.50000000       0.61583404       0.50000000 </v>
    <v>       0.46151643       0.56648740       0.33361060 </v>
    <v>       0.45362097       0.58012827       0.29947340 </v>
   </varray>
  </structure>
  <varray name="forces" >
   <v>       0.69636513       1.10847242       0.29404408 </v>
   <v>      -1.11250418      -0.68855895       0.29185671 </v>
   <v>      -0.69890442       1.11918394       0.28606134 </v>
   <v>       1.06015475      -0.73879899       0.34212493 </v>
   <v>       0.00981817       0.35614069       1.28678226 </v>
   <v>      -0.01085021       0.40770185      -1.28010062 </v>
   <v>      -0.00418014       1.51244024      -0.00015360 </v>
   <v>       1.50229813       0.01048287      -0.00991167 </v>
   <v>      -1.51410487       0.00302340      -0.00162034 </v>
   <v>      -0.02551432      -1.51540973      -0.02654950 </v>
   <v>      -0.75857979       0.76150987       1.06876722 </v>
   <v>      -0.74808060       0.75170138      -1.07723923 </v>
   <v>       0.36792326      -0.63773730       1.14070607 </v>
   <v>       0.75595098      -0.75556901      -1.07142075 </v>
   <v>       0.74560256       0.74958440       1.07272266 </v>
   <v>       0.74959479       0.75679013      -1.07133041 </v>
   <v>      -0.66184117      -0.74400201       1.08653943 </v>
   <v>      -0.75509371      -0.75380736      -1.07171111 </v>
   <v>       0.69990666       1.10763119      -0.29037745 </v>
   <v>      -1.10813784      -0.70109142      -0.28867919 </v>
   <v>       0.12667894      -0.13064502      -0.13875185 </v>
   <v>       1.10245463       0.69340603       0.29368708 </v>
   <v>      -0.68084875      -1.10808514       0.29844598 </v>
   <v>      -0.69709562       1.10568675      -0.29424942 </v>
   <v>       1.11535222      -0.70263036      -0.29547050 </v>
   <v>      -1.11454171       0.70066023       0.28486457 </v>
   <v>       0.72605693      -0.98312175       0.43397555 </v>
   <v>      -0.11716525      -0.16213757      -0.12218143 </v>
   <v>       0.00485778      -0.22182163       0.00022080 </v>
   <v>      -0.35958583      -0.01725168       1.29531173 </v>
   <v>      -0.41109926       0.01213103      -1.28009272 </v>
   <v>       0.35540402      -0.11166754       1.30589131 </v>
   <v>       0.41789875      -0.00126833      -1.27658256 </v>
   <v>       0.83214917       0.82924172      -0.00539681 </v>
   <v>      -0.83194255      -0.83465232      -0.01013668 </v>
   <v>      -0.82527953       0.82287637       0.01042381 </v>
   <v>       0.83382406      -0.85021146       0.00550929 </v>
   <v>      -0.61913072       0.80673443       1.25167906 </v>
   <v>      -0.00872603       0.01153771      -1.17884295 </v>
   <v>       1.10781046       0.69298060      -0.27539991 </v>
   <v>      -0.69681213      -1.11121025      -0.28494563 </v>
   <v>       0.11507326      -0.11371381       0.14956015 </v>
   <v>      -0.04323917       0.11019916      -0.65557764 </v>
   <v>      -0.10934077      -0.10827570       0.15443588 </v>
   <v>      -1.10562163       0.69895342      -0.29665809 </v>
   <v>       0.70034713      -1.11203586      -0.29454862 </v>
   <v>       0.22927359       0.10440515      -0.06207948 </v>
   <v>      -0.22880257       0.01062505      -0.01012373 </v>
   <v>       0.22910911      -0.00624881       0.01015260 </v>
   <v>       1.86723439       1.33231529       2.39993881 </v>
   <v>       0.00045031      -0.41976447      -1.27825794 </v>
   <v>      -0.00175351       0.00025763       0.01878209 </v>
   <v>      -0.11066100       0.11175617       0.15483957 </v>
   <v>       0.11234051       0.10586196       0.16149892 </v>
   <v>       0.00381010       0.23431161       0.00232138 </v>
   <v>       2.16983920      -5.03993933       8.96046572 </v>
   <v>      -3.27814171       2.54105312     -10.11321917 </v>
  </varray>
  <varray name="stress" >
   <v>      -6.48792695       0.14445668       0.23742956 </v>
   <v>       0.14445665      -6.55240320      -0.13826260 </v>
   <v>       0.23742959      -0.13826261      -6.15379404 </v>
  </varray>
  <energy>
   <i name="e_fr_energy">   -174.20583468 </i>
   <i name="e_wo_entrp">   -174.20107195 </i>
   <i name="e_0_energy">     -0.01905094 </i>
  </energy>
  <time name="totalsc">18990.9818991.87</time>
  <eigenvalues>
   <array>
    <dimension dim="1">band</dimension>
    <dimension dim="2">kpoint</dimension>
    <dimension dim="3">spin</dimension>
    <field>eigene</field>
    <field>occ</field>
    <set>
     <set comment="spin 1">
      <set comment="kpoint 1">
       <r>  -28.9742    1.0000 </r>
       <r>  -13.6995    1.0000 </r>
       <r>  -12.1168    1.0000 </r>
       <r>  -11.8214    1.0000 </r>
       <r>  -10.2243    1.0000 </r>
       <r>   -6.6392    1.0000 </r>
       <r>   -6.4201    1.0000 </r>
       <r>   -6.1566    1.0000 </r>
       <r>   -6.1077    1.0000 </r>
       <r>   -6.0770    1.0000 </r>
       <r>   -6.0074    1.0000 </r>
       <r>   -5.8300    1.0000 </r>
       <r>   -5.7930    1.0000 </r>
       <r>   -5.7876    1.0000 </r>
       <r>   -5.7563    1.0000 </r>
       <r>   -5.7239    1.0000 </r>
       <r>   -5.6683    1.0000 </r>
       <r>   -5.6638    1.0000 </r>
       <r>   -5.6600    1.0000 </r>
       <r>   -5.6582    1.0000 </r>
       <r>   -5.6337    1.0000 </r>
       <r>   -5.6146    1.0000 </r>
       <r>   -5.6060    1.0000 </r>
       <r>   -5.5874    1.0000 </r>
       <r>   -5.5747    1.0000 </r>
       <r>   -5.5713    1.0000 </r>
       <r>   -5.5684    1.0000 </r>
       <r>   -5.5514    1.0000 </r>
       <r>   -5.5366    1.0000 </r>
       <r>   -5.5278    1.0000 </r>
       <r>   -5.5192    1.0000 </r>
       <r>   -5.5103    1.0000 </r>
       <r>   -5.5026    1.0000 </r>
       <r>   -5.4983    1.0000 </r>
       <r>   -5.4918    1.0000 </r>
       <r>   -5.4887    1.0000 </r>
       <r>   -5.4796    1.0000 </r>
       <r>   -5.4750    1.0000 </r>
       <r>   -5.4728    1.0000 </r>
       <r>   -5.4708    1.0000 </r>
       <r>   -5.4611    1.0000 </r>
       <r>   -5.4493    1.0000 </r>
       <r>   -5.4483    1.0000 </r>
       <r>   -5.4444    1.0000 </r>
       <r>   -5.4423    1.0000 </r>
       <r>   -5.4300    1.0000 </r>
       <r>   -5.4276    1.0000 </r>
       <r>   -5.4201    1.0000 </r>
       <r>   -5.4159    1.0000 </r>
       <r>   -5.4054    1.0000 </r>
       <r>   -5.3996    1.0000 </r>
       <r>   -5.3961    1.0000 </r>
       <r>   -5.3843    1.0000 </r>
       <r>   -5.3795    1.0000 </r>
       <r>   -5.3742    1.0000 </r>
       <r>   -5.3575    1.0000 </r>
       <r>   -5.3536    1.0000 </r>
       <r>   -5.3429    1.0000 </r>
       <r>   -5.3249    1.0000 </r>
       <r>   -5.3091    1.0000 </r>
       <r>   -5.3060    1.0000 </r>
       <r>   -5.2981    1.0000 </r>
       <r>   -5.2937    1.0000 </r>
       <r>   -5.2918    1.0000 </r>
       <r>   -5.2834    1.0000 </r>
       <r>   -5.2781    1.0000 </r>
       <r>   -5.2741    1.0000 </r>
       <r>   -5.2688    1.0000 </r>
       <r>   -5.2293    1.0000 </r>
       <r>   -5.2257    1.0000 </r>
       <r>   -5.2207    1.0000 </r>
       <r>   -5.1909    1.0000 </r>
       <r>   -5.1864    1.0000 </r>
       <r>   -5.1696    1.0000 </r>
       <r>   -5.1678    1.0000 </r>
       <r>   -5.1634    1.0000 </r>
       <r>   -5.1598    1.0000 </r>
       <r>   -5.1539    1.0000 </r>
       <r>   -5.1484    1.0000 </r>
       <r>   -5.1383    1.0000 </r>
       <r>   -5.1335    1.0000 </r>
       <r>   -5.1213    1.0000 </r>
       <r>   -5.1154    1.0000 </r>
       <r>   -5.1034    1.0000 </r>
       <r>   -5.1008    1.0000 </r>
       <r>   -5.0978    1.0000 </r>
       <r>   -5.0864    1.0000 </r>
       <r>   -5.0789    1.0000 </r>
       <r>   -5.0737    1.0000 </r>
       <r>   -5.0552    1.0000 </r>
       <r>   -5.0491    1.0000 </r>
       <r>   -5.0459    1.0000 </r>
       <r>   -5.0389    1.0000 </r>
       <r>   -5.0348    1.0000 </r>
       <r>   -5.0294    1.0000 </r>
       <r>   -5.0272    1.0000 </r>
       <r>   -5.0243    1.0000 </r>
       <r>   -5.0155    1.0000 </r>
       <r>   -5.0090    1.0000 </r>
       <r>   -5.0068    1.0000 </r>
       <r>   -5.0036    1.0000 </r>
       <r>   -4.9967    1.0000 </r>
       <r>   -4.9907    1.0000 </r>
       <r>   -4.9849    1.0000 </r>
       <r>   -4.9817    1.0000 </r>
       <r>   -4.9769    1.0000 </r>
       <r>   -4.9726    1.0000 </r>
       <r>   -4.9723    1.0000 </r>
       <r>   -4.9661    1.0000 </r>
       <r>   -4.9612    1.0000 </r>
       <r>   -4.9603    1.0000 </r>
       <r>   -4.9546    1.0000 </r>
       <r>   -4.9456    1.0000 </r>
       <r>   -4.9345    1.0000 </r>
       <r>   -4.9342    1.0000 </r>
       <r>   -4.9309    1.0000 </r>
       <r>   -4.9211    1.0000 </r>
       <r>   -4.9144    1.0000 </r>
       <r>   -4.9107    1.0000 </r>
       <r>   -4.9015    1.0000 </r>
       <r>   -4.8976    1.0000 </r>
       <r>   -4.8913    1.0000 </r>
       <r>   -4.8892    1.0000 </r>
       <r>   -4.8864    1.0000 </r>
       <r>   -4.8808    1.0000 </r>
       <r>   -4.8782    1.0000 </r>
       <r>   -4.8632    1.0000 </r>
       <r>   -4.8529    1.0000 </r>
       <r>   -4.8416    1.0000 </r>
       <r>   -4.8367    1.0000 </r>
       <r>   -4.8282    1.0000 </r>
       <r>   -4.8224    1.0000 </r>
       <r>   -4.8161    1.0000 </r>
       <r>   -4.8139    1.0000 </r>
       <r>   -4.8062    1.0000 </r>
       <r>   -4.8007    1.0000 </r>
       <r>   -4.7981    1.0000 </r>
       <r>   -4.7843    0.9999 </r>
       <r>   -4.7793    0.9999 </r>
       <r>   -4.7727    0.9999 </r>
       <r>   -4.7583    0.9999 </r>
       <r>   -4.7532    0.9999 </r>
       <r>   -4.7491    0.9998 </r>
       <r>   -4.7378    0.9998 </r>
       <r>   -4.7303    0.9998 </r>
       <r>   -4.7207    0.9997 </r>
       <r>   -4.7166    0.9997 </r>
       <r>   -4.7079    0.9996 </r>
       <r>   -4.7035    0.9995 </r>
       <r>   -4.6948    0.9995 </r>
       <r>   -4.6842    0.9993 </r>
       <r>   -4.6801    0.9993 </r>
       <r>   -4.6751    0.9992 </r>
       <r>   -4.6663    0.9990 </r>
       <r>   -4.6617    0.9989 </r>
       <r>   -4.6581    0.9989 </r>
       <r>   -4.6554    0.9988 </r>
       <r>   -4.6529    0.9988 </r>
       <r>   -4.6469    0.9986 </r>
       <r>   -4.6461    0.9986 </r>
       <r>   -4.6412    0.9985 </r>
       <r>   -4.6366    0.9983 </r>
       <r>   -4.6324    0.9982 </r>
       <r>   -4.6247    0.9980 </r>
       <r>   -4.6239    0.9980 </r>
       <r>   -4.6226    0.9979 </r>
       <r>   -4.6184    0.9978 </r>
       <r>   -4.6177    0.9978 </r>
       <r>   -4.6118    0.9976 </r>
       <r>   -4.6066    0.9974 </r>
       <r>   -4.6044    0.9973 </r>
       <r>   -4.5944    0.9970 </r>
       <r>   -4.5896    0.9968 </r>
       <r>   -4.5860    0.9966 </r>
       <r>   -4.5794    0.9964 </r>
       <r>   -4.5765    0.9963 </r>
       <r>   -4.5724    0.9961 </r>
       <r>   -4.5693    0.9960 </r>
       <r>   -4.5635    0.9958 </r>
       <r>   -4.5587    0.9957 </r>
       <r>   -4.5576    0.9956 </r>
       <r>   -4.5542    0.9955 </r>
       <r>   -4.5431    0.9953 </r>
       <r>   -4.5402    0.9952 </r>
       <r>   -4.5361    0.9951 </r>
       <r>   -4.5298    0.9951 </r>
       <r>   -4.5256    0.9951 </r>
       <r>   -4.5242    0.9951 </r>
       <r>   -4.5208    0.9951 </r>
       <r>   -4.5132    0.9952 </r>
       <r>   -4.5023    0.9956 </r>
       <r>   -4.4965    0.9959 </r>
       <r>   -4.4919    0.9962 </r>
       <r>   -4.4864    0.9967 </r>
       <r>   -4.4830    0.9971 </r>
       <r>   -4.4740    0.9981 </r>
       <r>   -4.4706    0.9986 </r>
       <r>   -4.4610    1.0003 </r>
       <r>   -4.4602    1.0004 </r>
       <r>   -4.4534    1.0018 </r>
       <r>   -4.4497    1.0027 </r>
       <r>   -4.4473    1.0033 </r>
       <r>   -4.4415    1.0048 </r>
       <r>   -4.4343    1.0069 </r>
       <r>   -4.4320    1.0076 </r>
       <r>   -4.4279    1.0090 </r>
       <r>   -4.4254    1.0098 </r>
       <r>   -4.4204    1.0116 </r>
       <r>   -4.4175    1.0127 </r>
       <r>   -4.4150    1.0137 </r>
       <r>   -4.4105    1.0155 </r>
       <r>   -4.4020    1.0191 </r>
       <r>   -4.3965    1.0216 </r>
       <r>   -4.3933    1.0230 </r>
       <r>   -4.3842    1.0273 </r>
       <r>   -4.3812    1.0287 </r>
       <r>   -4.3787    1.0299 </r>
       <r>   -4.3770    1.0307 </r>
       <r>   -4.3734    1.0325 </r>
       <r>   -4.3681    1.0350 </r>
       <r>   -4.3589    1.0393 </r>
       <r>   -4.3460    1.0447 </r>
       <r>   -4.3438    1.0455 </r>
       <r>   -4.3308    1.0495 </r>
       <r>   -4.3278    1.0501 </r>
       <r>   -4.3179    1.0515 </r>
       <r>   -4.3155    1.0516 </r>
       <r>   -4.3122    1.0516 </r>
       <r>   -4.3110    1.0515 </r>
       <r>   -4.3099    1.0515 </r>
       <r>   -4.3088    1.0514 </r>
       <r>   -4.3073    1.0512 </r>
       <r>   -4.3049    1.0509 </r>
       <r>   -4.3015    1.0502 </r>
       <r>   -4.3007    1.0500 </r>
       <r>   -4.2962    1.0486 </r>
       <r>   -4.2950    1.0482 </r>
       <r>   -4.2924    1.0471 </r>
       <r>   -4.2899    1.0459 </r>
       <r>   -4.2876    1.0447 </r>
       <r>   -4.2788    1.0386 </r>
       <r>   -4.2744    1.0347 </r>
       <r>   -4.2704    1.0307 </r>
       <r>   -4.2682    1.0283 </r>
       <r>   -4.2653    1.0249 </r>
       <r>   -4.2635    1.0226 </r>
       <r>   -4.2614    1.0198 </r>
       <r>   -4.2562    1.0123 </r>
       <r>   -4.2555    1.0112 </r>
       <r>   -4.2503    1.0026 </r>
       <r>   -4.2413    0.9854 </r>
       <r>   -4.2393    0.9812 </r>
       <r>   -4.2365    0.9749 </r>
       <r>   -4.2333    0.9675 </r>
       <r>   -4.2289    0.9566 </r>
       <r>   -4.2255    0.9476 </r>
       <r>   -4.2238    0.9431 </r>
       <r>   -4.2211    0.9355 </r>
       <r>   -4.2195    0.9308 </r>
       <r>   -4.2176    0.9251 </r>
       <r>   -4.2142    0.9149 </r>
       <r>   -4.2128    0.9105 </r>
       <r>   -4.2114    0.9061 </r>
       <r>   -4.2107    0.9036 </r>
       <r>   -4.2083    0.8957 </r>
       <r>   -4.1993    0.8639 </r>
       <r>   -4.1980    0.8594 </r>
       <r>   -4.1938    0.8431 </r>
       <r>   -4.1921    0.8367 </r>
       <r>   -4.1898    0.8274 </r>
       <r>   -4.1880    0.8204 </r>
       <r>   -4.1822    0.7961 </r>
       <r>   -4.1740    0.7598 </r>
       <r>   -4.1681    0.7331 </r>
       <r>   -4.1598    0.6934 </r>
       <r>   -4.1583    0.6858 </r>
       <r>   -4.1514    0.6516 </r>
       <r>   -4.1475    0.6321 </r>
       <r>   -4.1460    0.6241 </r>
       <r>   -4.1416    0.6016 </r>
       <r>   -4.1335    0.5593 </r>
       <r>   -4.1303    0.5424 </r>
       <r>   -4.1174    0.4745 </r>
       <r>   -4.1081    0.4253 </r>
       <r>   -4.1016    0.3915 </r>
       <r>   -4.0998    0.3823 </r>
       <r>   -4.0918    0.3420 </r>
       <r>   -4.0835    0.3008 </r>
       <r>   -3.9594   -0.0432 </r>
       <r>   -3.9306   -0.0516 </r>
       <r>   -3.8815   -0.0374 </r>
       <r>   -3.7965   -0.0031 </r>
       <r>   -3.7912   -0.0019 </r>
       <r>   -3.6686    0.0037 </r>
       <r>   -3.4720    0.0001 </r>
       <r>   -3.4554    0.0001 </r>
       <r>   -3.2288    0.0000 </r>
       <r>   -3.0501    0.0000 </r>
       <r>   -3.0323    0.0000 </r>
       <r>   -3.0265    0.0000 </r>
       <r>   -3.0005    0.0000 </r>
       <r>   -2.9909    0.0000 </r>
       <r>   -2.9581    0.0000 </r>
       <r>   -2.9108    0.0000 </r>
       <r>   -2.7680    0.0000 </r>
       <r>   -2.5019    0.0000 </r>
       <r>   -2.4977    0.0000 </r>
       <r>   -2.3743    0.0000 </r>
       <r>   -2.2805    0.0000 </r>
       <r>   -2.1356    0.0000 </r>
       <r>   -2.0944    0.0000 </r>
       <r>   -2.0320    0.0000 </r>
       <r>   -1.9688    0.0000 </r>
       <r>   -1.9245    0.0000 </r>
       <r>   -1.8671    0.0000 </r>
       <r>   -1.8354    0.0000 </r>
       <r>   -1.7928    0.0000 </r>
       <r>   -1.7827    0.0000 </r>
       <r>   -1.6689    0.0000 </r>
       <r>   -1.6003    0.0000 </r>
       <r>   -1.5868    0.0000 </r>
       <r>   -1.5180    0.0000 </r>
       <r>   -1.4435    0.0000 </r>
       <r>   -1.4206    0.0000 </r>
       <r>   -1.2571    0.0000 </r>
       <r>   -1.1809    0.0000 </r>
       <r>   -1.0715    0.0000 </r>
       <r>   -1.0047    0.0000 </r>
       <r>   -0.9548    0.0000 </r>
       <r>   -0.9494    0.0000 </r>
       <r>   -0.9059    0.0000 </r>
       <r>   -0.8978    0.0000 </r>
       <r>   -0.8585    0.0000 </r>
       <r>   -0.7782    0.0000 </r>
       <r>   -0.7446    0.0000 </r>
       <r>   -0.6326    0.0000 </r>
      </set>
     </set>
    </set>
   </array>
  </eigenvalues>
  <separator name="orbital magnetization" >
   <v name="MAGDIPOLOUT">      0.00000000      0.00000000      0.00000000</v>
  </separator>
  <dos>
   <i name="efermi">     -4.12225070 </i>
   <total>
    <array>
     <dimension dim="1">gridpoints</dimension>
     <dimension dim="2">spin</dimension>
     <field>energy</field>
     <field>total</field>
     <field>integrated</field>
     <set>
      <set comment="spin 1">
       <r>   -30.9742     0.0000     0.0000 </r>
       <r>   -30.8664     0.0000     0.0000 </r>
       <r>   -30.7586     0.0000     0.0000 </r>
       <r>   -30.6508     0.0000     0.0000 </r>
       <r>   -30.5430     0.0000     0.0000 </r>
       <r>   -30.4352     0.0000     0.0000 </r>
       <r>   -30.3274     0.0000     0.0000 </r>
       <r>   -30.2196     0.0000     0.0000 </r>
       <r>   -30.1118     0.0000     0.0000 </r>
       <r>   -30.0040     0.0000     0.0000 </r>
       <r>   -29.8962     0.0000     0.0000 </r>
       <r>   -29.7883     0.0000     0.0000 </r>
       <r>   -29.6805     0.0003     0.0000 </r>
       <r>   -29.5727     0.0054     0.0006 </r>
       <r>   -29.4649     0.0384     0.0048 </r>
       <r>   -29.3571     0.0400     0.0091 </r>
       <r>   -29.2493    -0.4766    -0.0423 </r>
       <r>   -29.1415    -0.4555    -0.0914 </r>
       <r>   -29.0337     4.6684     0.4119 </r>
       <r>   -28.9259     9.9868     1.4885 </r>
       <r>   -28.8181     5.4539     2.0764 </r>
       <r>   -28.7103    -0.2198     2.0527 </r>
       <r>   -28.6025    -0.5618     1.9922 </r>
       <r>   -28.4947     0.0211     1.9945 </r>
       <r>   -28.3869     0.0440     1.9992 </r>
       <r>   -28.2791     0.0069     2.0000 </r>
       <r>   -28.1713     0.0004     2.0000 </r>
       <r>   -28.0635     0.0000     2.0000 </r>
       <r>   -27.9557     0.0000     2.0000 </r>
       <r>   -27.8479     0.0000     2.0000 </r>
       <r>   -27.7400     0.0000     2.0000 </r>
       <r>   -27.6322     0.0000     2.0000 </r>
       <r>   -27.5244     0.0000     2.0000 </r>
       <r>   -27.4166     0.0000     2.0000 </r>
       <r>   -27.3088     0.0000     2.0000 </r>
       <r>   -27.2010     0.0000     2.0000 </r>
       <r>   -27.0932     0.0000     2.0000 </r>
       <r>   -26.9854     0.0000     2.0000 </r>
       <r>   -26.8776     0.0000     2.0000 </r>
       <r>   -26.7698     0.0000     2.0000 </r>
       <r>   -26.6620     0.0000     2.0000 </r>
       <r>   -26.5542     0.0000     2.0000 </r>
       <r>   -26.4464     0.0000     2.0000 </r>
       <r>   -26.3386     0.0000     2.0000 </r>
       <r>   -26.2308     0.0000     2.0000 </r>
       <r>   -26.1230     0.0000     2.0000 </r>
       <r>   -26.0152     0.0000     2.0000 </r>
       <r>   -25.9074     0.0000     2.0000 </r>
       <r>   -25.7996     0.0000     2.0000 </r>
       <r>   -25.6917     0.0000     2.0000 </r>
       <r>   -25.5839     0.0000     2.0000 </r>
       <r>   -25.4761     0.0000     2.0000 </r>
       <r>   -25.3683     0.0000     2.0000 </r>
       <r>   -25.2605     0.0000     2.0000 </r>
       <r>   -25.1527     0.0000     2.0000 </r>
       <r>   -25.0449     0.0000     2.0000 </r>
       <r>   -24.9371     0.0000     2.0000 </r>
       <r>   -24.8293     0.0000     2.0000 </r>
       <r>   -24.7215     0.0000     2.0000 </r>
       <r>   -24.6137     0.0000     2.0000 </r>
       <r>   -24.5059     0.0000     2.0000 </r>
       <r>   -24.3981     0.0000     2.0000 </r>
       <r>   -24.2903     0.0000     2.0000 </r>
       <r>   -24.1825     0.0000     2.0000 </r>
       <r>   -24.0747     0.0000     2.0000 </r>
       <r>   -23.9669     0.0000     2.0000 </r>
       <r>   -23.8591     0.0000     2.0000 </r>
       <r>   -23.7513     0.0000     2.0000 </r>
       <r>   -23.6434     0.0000     2.0000 </r>
       <r>   -23.5356     0.0000     2.0000 </r>
       <r>   -23.4278     0.0000     2.0000 </r>
       <r>   -23.3200     0.0000     2.0000 </r>
       <r>   -23.2122     0.0000     2.0000 </r>
       <r>   -23.1044     0.0000     2.0000 </r>
       <r>   -22.9966     0.0000     2.0000 </r>
       <r>   -22.8888     0.0000     2.0000 </r>
       <r>   -22.7810     0.0000     2.0000 </r>
       <r>   -22.6732     0.0000     2.0000 </r>
       <r>   -22.5654     0.0000     2.0000 </r>
       <r>   -22.4576     0.0000     2.0000 </r>
       <r>   -22.3498     0.0000     2.0000 </r>
       <r>   -22.2420     0.0000     2.0000 </r>
       <r>   -22.1342     0.0000     2.0000 </r>
       <r>   -22.0264     0.0000     2.0000 </r>
       <r>   -21.9186     0.0000     2.0000 </r>
       <r>   -21.8108     0.0000     2.0000 </r>
       <r>   -21.7030     0.0000     2.0000 </r>
       <r>   -21.5951     0.0000     2.0000 </r>
       <r>   -21.4873     0.0000     2.0000 </r>
       <r>   -21.3795     0.0000     2.0000 </r>
       <r>   -21.2717     0.0000     2.0000 </r>
       <r>   -21.1639     0.0000     2.0000 </r>
       <r>   -21.0561     0.0000     2.0000 </r>
       <r>   -20.9483     0.0000     2.0000 </r>
       <r>   -20.8405     0.0000     2.0000 </r>
       <r>   -20.7327     0.0000     2.0000 </r>
       <r>   -20.6249     0.0000     2.0000 </r>
       <r>   -20.5171     0.0000     2.0000 </r>
       <r>   -20.4093     0.0000     2.0000 </r>
       <r>   -20.3015     0.0000     2.0000 </r>
       <r>   -20.1937     0.0000     2.0000 </r>
       <r>   -20.0859     0.0000     2.0000 </r>
       <r>   -19.9781     0.0000     2.0000 </r>
       <r>   -19.8703     0.0000     2.0000 </r>
       <r>   -19.7625     0.0000     2.0000 </r>
       <r>   -19.6547     0.0000     2.0000 </r>
       <r>   -19.5468     0.0000     2.0000 </r>
       <r>   -19.4390     0.0000     2.0000 </r>
       <r>   -19.3312     0.0000     2.0000 </r>
       <r>   -19.2234     0.0000     2.0000 </r>
       <r>   -19.1156     0.0000     2.0000 </r>
       <r>   -19.0078     0.0000     2.0000 </r>
       <r>   -18.9000     0.0000     2.0000 </r>
       <r>   -18.7922     0.0000     2.0000 </r>
       <r>   -18.6844     0.0000     2.0000 </r>
       <r>   -18.5766     0.0000     2.0000 </r>
       <r>   -18.4688     0.0000     2.0000 </r>
       <r>   -18.3610     0.0000     2.0000 </r>
       <r>   -18.2532     0.0000     2.0000 </r>
       <r>   -18.1454     0.0000     2.0000 </r>
       <r>   -18.0376     0.0000     2.0000 </r>
       <r>   -17.9298     0.0000     2.0000 </r>
       <r>   -17.8220     0.0000     2.0000 </r>
       <r>   -17.7142     0.0000     2.0000 </r>
       <r>   -17.6063     0.0000     2.0000 </r>
       <r>   -17.4985     0.0000     2.0000 </r>
       <r>   -17.3907     0.0000     2.0000 </r>
       <r>   -17.2829     0.0000     2.0000 </r>
       <r>   -17.1751     0.0000     2.0000 </r>
       <r>   -17.0673     0.0000     2.0000 </r>
       <r>   -16.9595     0.0000     2.0000 </r>
       <r>   -16.8517     0.0000     2.0000 </r>
       <r>   -16.7439     0.0000     2.0000 </r>
       <r>   -16.6361     0.0000     2.0000 </r>
       <r>   -16.5283     0.0000     2.0000 </r>
       <r>   -16.4205     0.0000     2.0000 </r>
       <r>   -16.3127     0.0000     2.0000 </r>
       <r>   -16.2049     0.0000     2.0000 </r>
       <r>   -16.0971     0.0000     2.0000 </r>
       <r>   -15.9893     0.0000     2.0000 </r>
       <r>   -15.8815     0.0000     2.0000 </r>
       <r>   -15.7737     0.0000     2.0000 </r>
       <r>   -15.6659     0.0000     2.0000 </r>
       <r>   -15.5580     0.0000     2.0000 </r>
       <r>   -15.4502     0.0000     2.0000 </r>
       <r>   -15.3424     0.0000     2.0000 </r>
       <r>   -15.2346     0.0000     2.0000 </r>
       <r>   -15.1268     0.0000     2.0000 </r>
       <r>   -15.0190     0.0000     2.0000 </r>
       <r>   -14.9112     0.0000     2.0000 </r>
       <r>   -14.8034     0.0000     2.0000 </r>
       <r>   -14.6956     0.0000     2.0000 </r>
       <r>   -14.5878     0.0000     2.0000 </r>
       <r>   -14.4800     0.0000     2.0000 </r>
       <r>   -14.3722     0.0008     2.0001 </r>
       <r>   -14.2644     0.0111     2.0013 </r>
       <r>   -14.1566     0.0550     2.0072 </r>
       <r>   -14.0488    -0.0391     2.0030 </r>
       <r>   -13.9410    -0.7162     1.9258 </r>
       <r>   -13.8332     0.4691     1.9764 </r>
       <r>   -13.7254     6.9926     2.7302 </r>
       <r>   -13.6176     9.5847     3.7635 </r>
       <r>   -13.5097     3.1510     4.1032 </r>
       <r>   -13.4019    -0.7379     4.0236 </r>
       <r>   -13.2941    -0.3107     3.9901 </r>
       <r>   -13.1863     0.0603     3.9966 </r>
       <r>   -13.0785     0.0279     3.9996 </r>
       <r>   -12.9707     0.0032     4.0000 </r>
       <r>   -12.8629     0.0002     4.0000 </r>
       <r>   -12.7551     0.0021     4.0002 </r>
       <r>   -12.6473     0.0211     4.0025 </r>
       <r>   -12.5395     0.0644     4.0094 </r>
       <r>   -12.4317    -0.1949     3.9884 </r>
       <r>   -12.3239    -0.7797     3.9044 </r>
       <r>   -12.2161     2.1506     4.1362 </r>
       <r>   -12.1083     8.5487     5.0578 </r>
       <r>   -12.0005     7.4298     5.8588 </r>
       <r>   -11.8927     5.0672     6.4051 </r>
       <r>   -11.7849     9.0468     7.3804 </r>
       <r>   -11.6771     6.1606     8.0445 </r>
       <r>   -11.5693     0.1640     8.0622 </r>
       <r>   -11.4614    -0.6314     7.9941 </r>
       <r>   -11.3536    -0.0049     7.9936 </r>
       <r>   -11.2458     0.0500     7.9990 </r>
       <r>   -11.1380     0.0089     7.9999 </r>
       <r>   -11.0302     0.0006     8.0000 </r>
       <r>   -10.9224     0.0004     8.0000 </r>
       <r>   -10.8146     0.0065     8.0007 </r>
       <r>   -10.7068     0.0425     8.0053 </r>
       <r>   -10.5990     0.0268     8.0082 </r>
       <r>   -10.4912    -0.5391     7.9501 </r>
       <r>   -10.3834    -0.2900     7.9188 </r>
       <r>   -10.2756     5.2424     8.4840 </r>
       <r>   -10.1678    10.0001     9.5621 </r>
       <r>   -10.0600     4.8791    10.0881 </r>
       <r>    -9.9522    -0.3988    10.0451 </r>
       <r>    -9.8444    -0.4996     9.9912 </r>
       <r>    -9.7366     0.0355     9.9950 </r>
       <r>    -9.6288     0.0399     9.9993 </r>
       <r>    -9.5210     0.0058    10.0000 </r>
       <r>    -9.4131     0.0003    10.0000 </r>
       <r>    -9.3053     0.0000    10.0000 </r>
       <r>    -9.1975     0.0000    10.0000 </r>
       <r>    -9.0897     0.0000    10.0000 </r>
       <r>    -8.9819     0.0000    10.0000 </r>
       <r>    -8.8741     0.0000    10.0000 </r>
       <r>    -8.7663     0.0000    10.0000 </r>
       <r>    -8.6585     0.0000    10.0000 </r>
       <r>    -8.5507     0.0000    10.0000 </r>
       <r>    -8.4429     0.0000    10.0000 </r>
       <r>    -8.3351     0.0000    10.0000 </r>
       <r>    -8.2273     0.0000    10.0000 </r>
       <r>    -8.1195     0.0000    10.0000 </r>
       <r>    -8.0117     0.0000    10.0000 </r>
       <r>    -7.9039     0.0000    10.0000 </r>
       <r>    -7.7961     0.0000    10.0000 </r>
       <r>    -7.6883     0.0000    10.0000 </r>
       <r>    -7.5805     0.0000    10.0000 </r>
       <r>    -7.4727     0.0000    10.0000 </r>
       <r>    -7.3648     0.0002    10.0000 </r>
       <r>    -7.2570     0.0034    10.0004 </r>
       <r>    -7.1492     0.0295    10.0036 </r>
       <r>    -7.0414     0.0617    10.0102 </r>
       <r>    -6.9336    -0.3055     9.9773 </r>
       <r>    -6.8258    -0.6500     9.9072 </r>
       <r>    -6.7180     3.0687    10.2380 </r>
       <r>    -6.6102     9.0477    11.2134 </r>
       <r>    -6.5024    10.0152    12.2931 </r>
       <r>    -6.3946     8.6912    13.2301 </r>
       <r>    -6.2868     5.2013    13.7908 </r>
       <r>    -6.1790    13.2931    15.2239 </r>
       <r>    -6.0712    30.7416    18.5380 </r>
       <r>    -5.9634    24.9840    21.2314 </r>
       <r>    -5.8556    18.2019    23.1936 </r>
       <r>    -5.7478    45.5367    28.1027 </r>
       <r>    -5.6400   103.3255    39.2418 </r>
       <r>    -5.5322   200.2653    60.8314 </r>
       <r>    -5.4244   283.6954    91.4153 </r>
       <r>    -5.3165   264.6401   119.9449 </r>
       <r>    -5.2087   210.8320   142.6737 </r>
       <r>    -5.1009   244.3026   169.0108 </r>
       <r>    -4.9931   335.8292   205.2150 </r>
       <r>    -4.8853   355.2606   243.5139 </r>
       <r>    -4.7775   304.1189   276.2996 </r>
       <r>    -4.6697   328.0179   311.6616 </r>
       <r>    -4.5619   402.9850   355.1055 </r>
       <r>    -4.4541   412.4519   399.5700 </r>
       <r>    -4.3463   449.4857   448.0270 </r>
       <r>    -4.2385   547.1663   507.0144 </r>
       <r>    -4.1307   466.1391   557.2667 </r>
       <r>    -4.0229   191.5344   577.9151 </r>
       <r>    -3.9151    27.2584   580.8537 </r>
       <r>    -3.8073    22.0747   583.2334 </r>
       <r>    -3.6995    27.7598   586.2261 </r>
       <r>    -3.5917    15.6599   587.9143 </r>
       <r>    -3.4839    16.1849   589.6591 </r>
       <r>    -3.3761    17.7594   591.5737 </r>
       <r>    -3.2682     8.0535   592.4419 </r>
       <r>    -3.1604     8.9024   593.4016 </r>
       <r>    -3.0526    38.1300   597.5122 </r>
       <r>    -2.9448    62.2714   604.2254 </r>
       <r>    -2.8370    39.4130   608.4744 </r>
       <r>    -2.7292    10.2356   609.5778 </r>
       <r>    -2.6214     4.1230   610.0223 </r>
       <r>    -2.5136    14.9923   611.6385 </r>
       <r>    -2.4058    24.8079   614.3130 </r>
       <r>    -2.2980    20.5061   616.5236 </r>
       <r>    -2.1902    16.9553   618.3515 </r>
       <r>    -2.0824    24.9551   621.0418 </r>
       <r>    -1.9746    35.9066   624.9127 </r>
       <r>    -1.8668    44.3592   629.6949 </r>
       <r>    -1.7590    43.5307   634.3877 </r>
       <r>    -1.6512    34.8894   638.1490 </r>
       <r>    -1.5434    35.8558   642.0144 </r>
       <r>    -1.4356    34.8108   645.7672 </r>
       <r>    -1.3278    22.6975   648.2141 </r>
       <r>    -1.2199    15.7735   649.9146 </r>
       <r>    -1.1121    19.0644   651.9698 </r>
       <r>    -1.0043    35.2691   655.7720 </r>
       <r>    -0.8965    55.7333   661.7804 </r>
       <r>    -0.7887    50.3733   667.2109 </r>
       <r>    -0.6809    29.2414   670.3633 </r>
       <r>    -0.5731    13.2877   671.7958 </r>
       <r>    -0.4653     2.8548   672.1035 </r>
       <r>    -0.3575    -0.8314   672.0139 </r>
       <r>    -0.2497    -0.2869   671.9830 </r>
       <r>    -0.1419     0.1061   671.9944 </r>
       <r>    -0.0341     0.0459   671.9993 </r>
       <r>     0.0737     0.0058   672.0000 </r>
       <r>     0.1815     0.0003   672.0000 </r>
       <r>     0.2893     0.0000   672.0000 </r>
       <r>     0.3971     0.0000   672.0000 </r>
       <r>     0.5049     0.0000   672.0000 </r>
       <r>     0.6127     0.0000   672.0000 </r>
       <r>     0.7205     0.0000   672.0000 </r>
       <r>     0.8284     0.0000   672.0000 </r>
       <r>     0.9362     0.0000   672.0000 </r>
       <r>     1.0440     0.0000   672.0000 </r>
       <r>     1.1518     0.0000   672.0000 </r>
       <r>     1.2596     0.0000   672.0000 </r>
       <r>     1.3674     0.0000   672.0000 </r>
      </set>
     </set>
    </array>
   </total>
  </dos>
 </calculation>
 <structure name="finalpos" >
  <crystal>
   <varray name="basis" >
    <v>      30.00000000       0.00000000       0.00000000 </v>
    <v>       0.00000000      30.00000000       0.00000000 </v>
    <v>       0.00000000       0.00000000      30.00000000 </v>
   </varray>
   <i name="volume">  27000.00000000 </i>
   <varray name="rec_basis" >
    <v>       0.03333333       0.00000000       0.00000000 </v>
    <v>       0.00000000       0.03333333       0.00000000 </v>
    <v>       0.00000000       0.00000000       0.03333333 </v>
   </varray>
  </crystal>
  <varray name="positions" >
   <v>       0.44576020       0.32826710       0.41691983 </v>
   <v>       0.67173288       0.55423978       0.41691983 </v>
   <v>       0.55423980       0.32826710       0.41691983 </v>
   <v>       0.32826712       0.55423978       0.41691983 </v>
   <v>       0.50000000       0.38250690       0.34021317 </v>
   <v>       0.50000000       0.38250690       0.65978680 </v>
   <v>       0.50000000       0.27609440       0.50000000 </v>
   <v>       0.27609443       0.49999998       0.50000000 </v>
   <v>       0.72390557       0.49999998       0.50000000 </v>
   <v>       0.50000000       0.72390555       0.50000000 </v>
   <v>       0.61195280       0.38804720       0.34167483 </v>
   <v>       0.61195280       0.38804720       0.65832513 </v>
   <v>       0.38804722       0.61195278       0.34167483 </v>
   <v>       0.38804722       0.61195278       0.65832513 </v>
   <v>       0.38804720       0.38804720       0.34167483 </v>
   <v>       0.38804720       0.38804720       0.65832513 </v>
   <v>       0.61195278       0.61195278       0.34167483 </v>
   <v>       0.61195278       0.61195278       0.65832513 </v>
   <v>       0.44576020       0.32826710       0.58308023 </v>
   <v>       0.67173288       0.55423978       0.58308023 </v>
   <v>       0.55791699       0.44208301       0.41809300 </v>
   <v>       0.32826705       0.44576024       0.41691983 </v>
   <v>       0.55423973       0.67173293       0.41691983 </v>
   <v>       0.55423980       0.32826710       0.58308023 </v>
   <v>       0.32826712       0.55423978       0.58308023 </v>
   <v>       0.67173295       0.44576024       0.41691983 </v>
   <v>       0.44576027       0.67173293       0.41691983 </v>
   <v>       0.44208301       0.44208301       0.41809300 </v>
   <v>       0.50000000       0.38416601       0.50000000 </v>
   <v>       0.61749315       0.50000005       0.34021317 </v>
   <v>       0.61749315       0.50000005       0.65978680 </v>
   <v>       0.38250685       0.50000005       0.34021317 </v>
   <v>       0.38250685       0.50000005       0.65978680 </v>
   <v>       0.38317830       0.38317830       0.50000000 </v>
   <v>       0.61682172       0.61682172       0.50000000 </v>
   <v>       0.61682170       0.38317830       0.50000000 </v>
   <v>       0.38317828       0.61682172       0.50000000 </v>
   <v>       0.50000000       0.50000000       0.33478917 </v>
   <v>       0.50000000       0.50000000       0.66521087 </v>
   <v>       0.32826705       0.44576024       0.58308023 </v>
   <v>       0.55423973       0.67173293       0.58308023 </v>
   <v>       0.55791699       0.44208301       0.58190703 </v>
   <v>       0.44208298       0.55791702       0.41809300 </v>
   <v>       0.44208301       0.44208301       0.58190703 </v>
   <v>       0.67173295       0.44576024       0.58308023 </v>
   <v>       0.44576027       0.67173293       0.58308023 </v>
   <v>       0.55791702       0.55791702       0.41809300 </v>
   <v>       0.38416599       0.50000002       0.50000000 </v>
   <v>       0.61583401       0.50000002       0.50000000 </v>
   <v>       0.50000000       0.61749319       0.34021317 </v>
   <v>       0.50000000       0.61749319       0.65978680 </v>
   <v>       0.50000000       0.50000000       0.50000000 </v>
   <v>       0.44208298       0.55791702       0.58190703 </v>
   <v>       0.55791702       0.55791702       0.58190703 </v>
   <v>       0.50000000       0.61583404       0.50000000 </v>
   <v>       0.46151643       0.56648740       0.33361060 </v>
   <v>       0.45362097       0.58012827       0.29947340 </v>
  </varray>
  <varray name="selective"  type="logical" >
   <v type="logical" >  F  F  F </v>
   <v type="logical" >  F  F  F </v>
   <v type="logical" >  F  F  F </v>
   <v type="logical" >  F  F  F </v>
   <v type="logical" >  F  F  F </v>
   <v type="logical" >  F  F  F </v>
   <v type="logical" >  F  F  F </v>
   <v type="logical" >  F  F  F </v>
   <v type="logical" >  F  F  F </v>
   <v type="logical" >  F  F  F </v>
   <v type="logical" >  F  F  F </v>
   <v type="logical" >  F  F  F </v>
   <v type="logical" >  F  F  F </v>
   <v type="logical" >  F  F  F </v>
   <v type="logical" >  F  F  F </v>
   <v type="logical" >  F  F  F </v>
   <v type="logical" >  F  F  F </v>
   <v type="logical" >  F  F  F </v>
   <v type="logical" >  F  F  F </v>
   <v type="logical" >  F  F  F </v>
   <v type="logical" >  F  F  F </v>
   <v type="logical" >  F  F  F </v>
   <v type="logical" >  F  F  F </v>
   <v type="logical" >  F  F  F </v>
   <v type="logical" >  F  F  F </v>
   <v type="logical" >  F  F  F </v>
   <v type="logical" >  F  F  F </v>
   <v type="logical" >  F  F  F </v>
   <v type="logical" >  F  F  F </v>
   <v type="logical" >  F  F  F </v>
   <v type="logical" >  F  F  F </v>
   <v type="logical" >  F  F  F </v>
   <v type="logical" >  F  F  F </v>
   <v type="logical" >  F  F  F </v>
   <v type="logical" >  F  F  F </v>
   <v type="logical" >  F  F  F </v>
   <v type="logical" >  F  F  F </v>
   <v type="logical" >  F  F  F </v>
   <v type="logical" >  F  F  F </v>
   <v type="logical" >  F  F  F </v>
   <v type="logical" >  F  F  F </v>
   <v type="logical" >  F  F  F </v>
   <v type="logical" >  F  F  F </v>
   <v type="logical" >  F  F  F </v>
   <v type="logical" >  F  F  F </v>
   <v type="logical" >  F  F  F </v>
   <v type="logical" >  F  F  F </v>
   <v type="logical" >  F  F  F </v>
   <v type="logical" >  F  F  F </v>
   <v type="logical" >  F  F  F </v>
   <v type="logical" >  F  F  F </v>
   <v type="logical" >  F  F  F </v>
   <v type="logical" >  F  F  F </v>
   <v type="logical" >  F  F  F </v>
   <v type="logical" >  F  F  F </v>
   <v type="logical" >  F  F  F </v>
   <v type="logical" >  F  F  F </v>
  </varray>
  <nose>
   <v>      -3.00000000       0.00000000       0.00010000       0.00010000 </v>
  </nose>
 </structure>
</modeling>
