<?xml version="1.0" encoding="ISO-8859-1"?>
<modeling>
 <generator>
  <i name="program" type="string">vasp </i>
  <i name="version" type="string">5.4.4.18Apr17-6-g9f103f2a35  </i>
  <i name="subversion" type="string">(build Sep 03 2018 23:53:05) complex            parallel </i>
  <i name="platform" type="string">LinuxIFC </i>
  <i name="date" type="string">2021 12 02 </i>
  <i name="time" type="string">20:11:37 </i>
 </generator>
 <incar>
  <i type="string" name="SYSTEM"> 6_Pd100_top_free_z(O)</i>
  <i type="int" name="ISTART">     0</i>
  <i type="string" name="PREC">normal   			! encut=max(enmax), ngx,y,z</i>
  <i type="string" name="ALGO"> Fast     			! Mix RMM-DIIS and Dav</i>
  <i type="logical" name="ADDGRID"> F  </i>
  <i type="int" name="ISPIN">     1</i>
  <i type="int" name="ICHARG">     2</i>
  <i type="int" name="NELM">   100</i>
  <i type="int" name="NELMIN">     6</i>
  <i type="int" name="IBRION">     2</i>
  <i name="EDIFF">      0.00010000</i>
  <i name="EDIFFG">     -0.05000000</i>
  <i type="int" name="NSW">     0</i>
  <i type="int" name="ISIF">     2</i>
  <i type="int" name="ISYM">     2</i>
  <i name="ENCUT">    400.00000000</i>
  <i type="string" name="LREAL"> Auto     			! Auto or A projection done</i>
  <i type="int" name="ISMEAR">     2</i>
  <i name="SIGMA">      0.20000000</i>
  <i type="logical" name="LWAVE"> F  </i>
  <i type="logical" name="LCHARG"> F  </i>
  <v type="int" name="KPOINT_BSE">    -1     0     0     0</v>
  <i type="int" name="MAXMEM"> 10000</i>
  <i type="int" name="NELM">   100</i>
  <i type="string" name="GGA"> RP         			! Revised PBE</i>
 </incar>
 <structure name="primitive_cell" >
  <crystal>
   <varray name="basis" >
    <v>      30.00000000       0.00000000       0.00000000 </v>
    <v>       0.00000000      30.00000000       0.00000000 </v>
    <v>       0.00000000       0.00000000      30.00000000 </v>
   </varray>
   <i name="volume">  27000.00000000 </i>
   <varray name="rec_basis" >
    <v>       0.03333333       0.00000000       0.00000000 </v>
    <v>       0.00000000       0.03333333       0.00000000 </v>
    <v>       0.00000000       0.00000000       0.03333333 </v>
   </varray>
  </crystal>
  <varray name="positions" >
   <v>       0.44576020       0.32826710       0.41691983 </v>
   <v>      -0.44576020       0.32826710       0.41691983 </v>
   <v>      -0.50000000       0.38250690       0.34021317 </v>
   <v>      -0.50000000       0.27609440      -0.50000000 </v>
   <v>       0.38804720       0.38804720       0.34167483 </v>
   <v>      -0.50000000       0.38416601      -0.50000000 </v>
   <v>       0.44208300       0.44208300       0.41809300 </v>
   <v>       0.38317830       0.38317830      -0.50000000 </v>
   <v>      -0.44208300       0.44208300       0.41809300 </v>
   <v>       0.44576020       0.32826710      -0.41691977 </v>
   <v>       0.32826705       0.44576024       0.41691983 </v>
   <v>      -0.38804720       0.38804720       0.34167483 </v>
   <v>      -0.38317830       0.38317830      -0.50000000 </v>
   <v>      -0.50000000      -0.50000000       0.33478917 </v>
   <v>      -0.50000000      -0.50000000      -0.50000000 </v>
   <v>      -0.44576020       0.32826710      -0.41691977 </v>
   <v>       0.38250685      -0.49999995       0.34021317 </v>
   <v>       0.44208300       0.44208300      -0.41809297 </v>
   <v>       0.38416599      -0.49999998      -0.50000000 </v>
   <v>      -0.44208300       0.44208300      -0.41809297 </v>
   <v>       0.44208298      -0.44208298       0.41809300 </v>
   <v>       0.32826705       0.44576024      -0.41691977 </v>
   <v>      -0.50000000       0.38250690      -0.34021320 </v>
   <v>       0.32826712      -0.44576022       0.41691983 </v>
   <v>      -0.38250685      -0.49999995       0.34021317 </v>
   <v>      -0.32826705       0.44576024       0.41691983 </v>
   <v>       0.27609443       0.49999998      -0.50000000 </v>
   <v>       0.38804720       0.38804720      -0.34167487 </v>
   <v>      -0.38416599      -0.49999998      -0.50000000 </v>
   <v>      -0.44208298      -0.44208298       0.41809300 </v>
   <v>       0.44208298      -0.44208298      -0.41809297 </v>
   <v>      -0.38804720       0.38804720      -0.34167487 </v>
   <v>       0.38804722      -0.38804722       0.34167483 </v>
   <v>       0.38250685      -0.49999995      -0.34021320 </v>
   <v>       0.32826712      -0.44576022      -0.41691977 </v>
   <v>      -0.32826705       0.44576024      -0.41691977 </v>
   <v>       0.50000000      -0.38250681       0.34021317 </v>
   <v>      -0.50000000      -0.38416596      -0.50000000 </v>
   <v>      -0.44208298      -0.44208298      -0.41809297 </v>
   <v>      -0.50000000      -0.50000000      -0.33478913 </v>
   <v>       0.38317828      -0.38317828      -0.50000000 </v>
   <v>      -0.32826712      -0.44576022       0.41691983 </v>
   <v>      -0.27609443       0.49999998      -0.50000000 </v>
   <v>      -0.38804722      -0.38804722       0.34167483 </v>
   <v>      -0.38250685      -0.49999995      -0.34021320 </v>
   <v>       0.44576027      -0.32826707       0.41691983 </v>
   <v>      -0.38317828      -0.38317828      -0.50000000 </v>
   <v>      -0.32826712      -0.44576022      -0.41691977 </v>
   <v>      -0.44576027      -0.32826707       0.41691983 </v>
   <v>       0.48995243      -0.49712620      -0.25561530 </v>
   <v>       0.38804722      -0.38804722      -0.34167487 </v>
   <v>      -0.50000000      -0.38250681      -0.34021320 </v>
   <v>       0.44576027      -0.32826707      -0.41691977 </v>
   <v>      -0.44576027      -0.32826707      -0.41691977 </v>
   <v>       0.48840797      -0.49668447      -0.21804963 </v>
   <v>      -0.50000000      -0.27609445       0.50000000 </v>
   <v>      -0.38804722      -0.38804722      -0.34167487 </v>
  </varray>
 </structure>
 <varray name="primitive_index" >
  <v type="int" >        1 </v>
  <v type="int" >        3 </v>
  <v type="int" >        5 </v>
  <v type="int" >        7 </v>
  <v type="int" >       15 </v>
  <v type="int" >       29 </v>
  <v type="int" >       28 </v>
  <v type="int" >       34 </v>
  <v type="int" >       21 </v>
  <v type="int" >       19 </v>
  <v type="int" >       22 </v>
  <v type="int" >       11 </v>
  <v type="int" >       36 </v>
  <v type="int" >       38 </v>
  <v type="int" >       52 </v>
  <v type="int" >       24 </v>
  <v type="int" >       32 </v>
  <v type="int" >       44 </v>
  <v type="int" >       48 </v>
  <v type="int" >       42 </v>
  <v type="int" >       43 </v>
  <v type="int" >       40 </v>
  <v type="int" >        6 </v>
  <v type="int" >        4 </v>
  <v type="int" >       30 </v>
  <v type="int" >       26 </v>
  <v type="int" >        8 </v>
  <v type="int" >       16 </v>
  <v type="int" >       49 </v>
  <v type="int" >       47 </v>
  <v type="int" >       53 </v>
  <v type="int" >       12 </v>
  <v type="int" >       13 </v>
  <v type="int" >       33 </v>
  <v type="int" >       25 </v>
  <v type="int" >       45 </v>
  <v type="int" >       50 </v>
  <v type="int" >       55 </v>
  <v type="int" >       54 </v>
  <v type="int" >       39 </v>
  <v type="int" >       37 </v>
  <v type="int" >        2 </v>
  <v type="int" >        9 </v>
  <v type="int" >       17 </v>
  <v type="int" >       31 </v>
  <v type="int" >       27 </v>
  <v type="int" >       35 </v>
  <v type="int" >       20 </v>
  <v type="int" >       23 </v>
  <v type="int" >       56 </v>
  <v type="int" >       14 </v>
  <v type="int" >       51 </v>
  <v type="int" >       46 </v>
  <v type="int" >       41 </v>
  <v type="int" >       57 </v>
  <v type="int" >       10 </v>
  <v type="int" >       18 </v>
 </varray>
 <kpoints>
  <generation param="Monkhorst-Pack">
   <v type="int" name="divisions">       1        1        1 </v>
   <v name="usershift">      0.00000000       0.00000000       0.00000000 </v>
   <v name="genvec1">      1.00000000       0.00000000       0.00000000 </v>
   <v name="genvec2">      0.00000000       1.00000000       0.00000000 </v>
   <v name="genvec3">      0.00000000       0.00000000       1.00000000 </v>
   <v name="shift">      0.00000000       0.00000000       0.00000000 </v>
  </generation>
  <varray name="kpointlist" >
   <v>       0.00000000       0.00000000       0.00000000 </v>
  </varray>
  <varray name="weights" >
   <v>       1.00000000 </v>
  </varray>
 </kpoints>
 <parameters>
  <separator name="general" >
   <i type="string" name="SYSTEM">6_Pd100_top_free_z(O)</i>
   <i type="logical" name="LCOMPAT"> F  </i>
  </separator>
  <separator name="electronic" >
   <i type="string" name="PREC">normal</i>
   <i name="ENMAX">    400.00000000</i>
   <i name="ENAUG">    644.87300000</i>
   <i name="EDIFF">      0.00010000</i>
   <i type="int" name="IALGO">    68</i>
   <i type="int" name="IWAVPR">    10</i>
   <i type="int" name="NBANDS">   336</i>
   <i name="NELECT">    560.00000000</i>
   <i type="int" name="TURBO">     0</i>
   <i type="int" name="IRESTART">     0</i>
   <i type="int" name="NREBOOT">     0</i>
   <i type="int" name="NMIN">     0</i>
   <i name="EREF">      0.00000000</i>
   <separator name="electronic smearing" >
    <i type="int" name="ISMEAR">     2</i>
    <i name="SIGMA">      0.20000000</i>
    <i name="KSPACING">      0.50000000</i>
    <i type="logical" name="KGAMMA"> T  </i>
   </separator>
   <separator name="electronic projectors" >
    <i type="logical" name="LREAL"> T  </i>
    <v name="ROPT">     -0.00050000     -0.00050000     -0.00050000</v>
    <i type="int" name="LMAXPAW">  -100</i>
    <i type="int" name="LMAXMIX">     2</i>
    <i type="logical" name="NLSPLINE"> F  </i>
   </separator>
   <separator name="electronic startup" >
    <i type="int" name="ISTART">     0</i>
    <i type="int" name="ICHARG">     2</i>
    <i type="int" name="INIWAV">     1</i>
   </separator>
   <separator name="electronic spin" >
    <i type="int" name="ISPIN">     1</i>
    <i type="logical" name="LNONCOLLINEAR"> F  </i>
    <v name="MAGMOM">      1.00000000      1.00000000      1.00000000      1.00000000      1.00000000      1.00000000      1.00000000      1.00000000      1.00000000      1.00000000      1.00000000      1.00000000      1.00000000      1.00000000      1.00000000      1.00000000      1.00000000      1.00000000      1.00000000      1.00000000
      1.00000000      1.00000000      1.00000000      1.00000000      1.00000000      1.00000000      1.00000000      1.00000000      1.00000000      1.00000000      1.00000000      1.00000000      1.00000000      1.00000000      1.00000000      1.00000000      1.00000000      1.00000000      1.00000000      1.00000000
      1.00000000      1.00000000      1.00000000      1.00000000      1.00000000      1.00000000      1.00000000      1.00000000      1.00000000      1.00000000      1.00000000      1.00000000      1.00000000      1.00000000      1.00000000      1.00000000      1.00000000</v>
    <i name="NUPDOWN">     -1.00000000</i>
    <i type="logical" name="LSORBIT"> F  </i>
    <v name="SAXIS">      0.00000000      0.00000000      1.00000000</v>
    <i type="logical" name="LSPIRAL"> F  </i>
    <v name="QSPIRAL">      0.00000000      0.00000000      0.00000000</v>
    <i type="logical" name="LZEROZ"> F  </i>
   </separator>
   <separator name="electronic exchange-correlation" >
    <i type="logical" name="LASPH"> F  </i>
    <i type="logical" name="LMETAGGA"> F  </i>
   </separator>
   <separator name="electronic convergence" >
    <i type="int" name="NELM">   100</i>
    <i type="int" name="NELMDL">    -5</i>
    <i type="int" name="NELMIN">     6</i>
    <i name="ENINI">    400.00000000</i>
    <separator name="electronic convergence detail" >
     <i type="logical" name="LDIAG"> T  </i>
     <i type="logical" name="LSUBROT"> F  </i>
     <i name="WEIMIN">      0.00000000</i>
     <i name="EBREAK">      0.00000007</i>
     <i name="DEPER">      0.30000000</i>
     <i type="int" name="NRMM">     4</i>
     <i name="TIME">      0.40000000</i>
    </separator>
   </separator>
   <separator name="electronic mixer" >
    <i name="AMIX">      0.40000000</i>
    <i name="BMIX">      1.00000000</i>
    <i name="AMIN">      0.10000000</i>
    <i name="AMIX_MAG">      1.60000000</i>
    <i name="BMIX_MAG">      1.00000000</i>
    <separator name="electronic mixer details" >
     <i type="int" name="IMIX">     4</i>
     <i type="logical" name="MIXFIRST"> F  </i>
     <i type="int" name="MAXMIX">   -45</i>
     <i name="WC">    100.00000000</i>
     <i type="int" name="INIMIX">     1</i>
     <i type="int" name="MIXPRE">     1</i>
     <i type="int" name="MREMOVE">     5</i>
    </separator>
   </separator>
   <separator name="electronic dipolcorrection" >
    <i type="logical" name="LDIPOL"> F  </i>
    <i type="logical" name="LMONO"> F  </i>
    <i type="int" name="IDIPOL">     0</i>
    <i name="EPSILON">      1.00000000</i>
    <v name="DIPOL">   -100.00000000   -100.00000000   -100.00000000</v>
    <i name="EFIELD">      0.00000000</i>
   </separator>
  </separator>
  <separator name="grids" >
   <i type="int" name="NGX">   150</i>
   <i type="int" name="NGY">   150</i>
   <i type="int" name="NGZ">   150</i>
   <i type="int" name="NGXF">   300</i>
   <i type="int" name="NGYF">   300</i>
   <i type="int" name="NGZF">   300</i>
   <i type="logical" name="ADDGRID"> F  </i>
  </separator>
  <separator name="ionic" >
   <i type="int" name="NSW">     0</i>
   <i type="int" name="IBRION">    -1</i>
   <i type="int" name="MDALGO">     0</i>
   <i type="int" name="ISIF">     2</i>
   <i name="PSTRESS">      0.00000000</i>
   <i name="EDIFFG">     -0.05000000</i>
   <i type="int" name="NFREE">     1</i>
   <i name="POTIM">      0.50000000</i>
   <i name="SMASS">     -3.00000000</i>
   <i name="SCALEE">      1.00000000</i>
  </separator>
  <separator name="ionic md" >
   <i name="TEBEG">      0.00010000</i>
   <i name="TEEND">      0.00010000</i>
   <i type="int" name="NBLOCK">     1</i>
   <i type="int" name="KBLOCK">     1</i>
   <i type="int" name="NPACO">   256</i>
   <i name="APACO">     16.00000000</i>
  </separator>
  <separator name="symmetry" >
   <i type="int" name="ISYM">     2</i>
   <i name="SYMPREC">      0.00001000</i>
  </separator>
  <separator name="dos" >
   <i type="int" name="LORBIT">     0</i>
   <v name="RWIGS">     -1.00000000     -1.00000000     -1.00000000</v>
   <i type="int" name="NEDOS">   301</i>
   <i name="EMIN">     10.00000000</i>
   <i name="EMAX">    -10.00000000</i>
   <i name="EFERMI">      0.00000000</i>
  </separator>
  <separator name="writing" >
   <i type="int" name="NWRITE">     2</i>
   <i type="logical" name="LWAVE"> F  </i>
   <i type="logical" name="LDOWNSAMPLE"> F  </i>
   <i type="logical" name="LCHARG"> F  </i>
   <i type="logical" name="LPARD"> F  </i>
   <i type="logical" name="LVTOT"> F  </i>
   <i type="logical" name="LVHAR"> F  </i>
   <i type="logical" name="LELF"> F  </i>
   <i type="logical" name="LOPTICS"> F  </i>
   <v name="STM">      0.00000000      0.00000000      0.00000000      0.00000000      0.00000000      0.00000000      0.00000000</v>
  </separator>
  <separator name="performance" >
   <i type="int" name="NPAR">     1</i>
   <i type="int" name="NSIM">     4</i>
   <i type="int" name="NBLK">    -1</i>
   <i type="logical" name="LPLANE"> T  </i>
   <i type="logical" name="LSCALAPACK"> T  </i>
   <i type="logical" name="LSCAAWARE"> F  </i>
   <i type="logical" name="LSCALU"> F  </i>
   <i type="logical" name="LASYNC"> F  </i>
   <i type="logical" name="LORBITALREAL"> F  </i>
  </separator>
  <separator name="miscellaneous" >
   <i type="int" name="IDIOT">     3</i>
   <i type="int" name="ISPECIAL">     0</i>
   <i type="logical" name="LMUSIC"> F  </i>
   <v name="POMASS">    106.42000000     12.01100000     16.00000000</v>
   <v name="DARWINR">      0.00000000      0.00000000      0.00000000</v>
   <v name="DARWINV">      1.00000000      1.00000000      1.00000000</v>
   <i type="logical" name="LCORR"> T  </i>
  </separator>
  <i type="logical" name="GGA_COMPAT"> T  </i>
  <i type="logical" name="LBERRY"> F  </i>
  <i type="int" name="ICORELEVEL">     0</i>
  <i type="logical" name="LDAU"> F  </i>
  <i type="int" name="I_CONSTRAINED_M">     0</i>
  <separator name="electronic exchange-correlation" >
   <i type="string" name="GGA">RP</i>
   <i type="int" name="VOSKOWN">     0</i>
   <i type="logical" name="LHFCALC"> F  </i>
   <i type="string" name="PRECFOCK"></i>
   <i type="logical" name="LSYMGRAD"> F  </i>
   <i type="logical" name="LHFONE"> F  </i>
   <i type="logical" name="LRHFCALC"> F  </i>
   <i type="logical" name="LTHOMAS"> F  </i>
   <i type="logical" name="LMODELHF"> F  </i>
   <i name="ENCUT4O">     -1.00000000</i>
   <i type="int" name="EXXOEP">     0</i>
   <i type="int" name="FOURORBIT">     0</i>
   <i name="AEXX">      0.00000000</i>
   <i name="HFALPHA">      0.00000000</i>
   <i name="MCALPHA">      0.00000000</i>
   <i name="ALDAX">      1.00000000</i>
   <i name="AGGAX">      1.00000000</i>
   <i name="ALDAC">      1.00000000</i>
   <i name="AGGAC">      1.00000000</i>
   <i type="int" name="NKREDX">     1</i>
   <i type="int" name="NKREDY">     1</i>
   <i type="int" name="NKREDZ">     1</i>
   <i type="logical" name="SHIFTRED"> F  </i>
   <i type="logical" name="ODDONLY"> F  </i>
   <i type="logical" name="EVENONLY"> F  </i>
   <i type="int" name="LMAXFOCK">     0</i>
   <i type="int" name="NMAXFOCKAE">     0</i>
   <i type="logical" name="LFOCKAEDFT"> F  </i>
   <i name="HFSCREEN">      0.00000000</i>
   <i name="HFSCREENC">      0.00000000</i>
   <i type="int" name="NBANDSGWLOW">     0</i>
  </separator>
  <separator name="vdW DFT" >
   <i type="logical" name="LUSE_VDW"> F  </i>
   <i name="Zab_VDW">     -0.84910000</i>
   <i name="PARAM1">      0.12340000</i>
   <i name="PARAM2">      1.00000000</i>
   <i name="PARAM3">      0.00000000</i>
  </separator>
  <separator name="model GW" >
   <i type="int" name="MODEL_GW">     0</i>
   <i name="MODEL_EPS0">    284.21052632</i>
   <i name="MODEL_ALPHA">      1.00000000</i>
  </separator>
  <separator name="linear response parameters" >
   <i type="logical" name="LEPSILON"> F  </i>
   <i type="logical" name="LRPA"> F  </i>
   <i type="logical" name="LNABLA"> F  </i>
   <i type="logical" name="LVEL"> F  </i>
   <i type="int" name="KINTER">     0</i>
   <i name="CSHIFT">      0.10000000</i>
   <i name="OMEGAMAX">     -1.00000000</i>
   <i name="DEG_THRESHOLD">      0.00200000</i>
   <i name="RTIME">     -0.10000000</i>
   <i name="WPLASMAI">      0.00000000</i>
   <v name="DFIELD">      0.00000000      0.00000000      0.00000000</v>
   <v name="WPLASMA">      0.00000000      0.00000000      0.00000000      0.00000000      0.00000000      0.00000000      0.00000000      0.00000000      0.00000000</v>
  </separator>
  <separator name="orbital magnetization" >
   <i type="logical" name="NUCIND"> F  </i>
   <v name="MAGPOS">      0.00000000      0.00000000      0.00000000</v>
   <i type="logical" name="LNICSALL"> T  </i>
   <i type="logical" name="ORBITALMAG"> F  </i>
   <i type="logical" name="LMAGBLOCH"> F  </i>
   <i type="logical" name="LCHIMAG"> F  </i>
   <i type="logical" name="LGAUGE"> T  </i>
   <i type="int" name="MAGATOM">     0</i>
   <v name="MAGDIPOL">      0.00000000      0.00000000      0.00000000</v>
   <v name="AVECCONST">      0.00000000      0.00000000      0.00000000</v>
  </separator>
  <separator name="response functions" >
   <i type="logical" name="LADDER"> F  </i>
   <i type="logical" name="LRPAFORCE"> F  </i>
   <i type="logical" name="LFXC"> F  </i>
   <i type="logical" name="LHARTREE"> T  </i>
   <i type="int" name="IBSE">     0</i>
   <v type="int" name="KPOINT">    -1     0     0     0</v>
   <i type="logical" name="LTCTE"> F  </i>
   <i type="logical" name="LTETE"> F  </i>
   <i type="logical" name="LTRIPLET"> F  </i>
   <i type="logical" name="LFXCEPS"> F  </i>
   <i type="logical" name="LFXHEG"> F  </i>
   <i type="int" name="NATURALO">     2</i>
   <i type="logical" name="L2ORDER"> F  </i>
   <i type="logical" name="LMP2LT"> F  </i>
   <i type="logical" name="LUSEW"> F  </i>
   <i name="ENCUTGW">     -2.00000000</i>
   <i name="ENCUTGWSOFT">     -2.00000000</i>
   <i name="ENCUTLF">     -1.00000000</i>
   <i type="int" name="LMAXMP2">    -1</i>
   <i name="SCISSOR">      0.00000000</i>
   <i type="int" name="NOMEGA">     0</i>
   <i type="int" name="NOMEGAR">     0</i>
   <i type="int" name="NBANDSGW">    -1</i>
   <i type="int" name="NBANDSO">    -1</i>
   <i type="int" name="NBANDSV">    -1</i>
   <i type="int" name="NELM">   100</i>
   <i type="int" name="NELMHF">     1</i>
   <i type="int" name="DIM">     3</i>
   <i type="int" name="ANTIRES">     0</i>
   <i name="OMEGAMAX">    -30.00000000</i>
   <i name="OMEGAMIN">    -30.00000000</i>
   <i name="OMEGATL">   -200.00000000</i>
   <i type="int" name="OMEGAGRID">   140</i>
   <i name="CSHIFT">     -0.10000000</i>
   <i type="logical" name="SELFENERGY"> F  </i>
   <i type="logical" name="LSPECTRAL"> F  </i>
   <i type="logical" name="LSPECTRALGW"> F  </i>
   <i type="logical" name="LSINGLES"> F  </i>
   <i type="logical" name="LFERMIGW"> F  </i>
   <i type="logical" name="ODDONLYGW"> F  </i>
   <i type="logical" name="EVENONLYGW"> F  </i>
   <i type="int" name="NKREDLFX">     1</i>
   <i type="int" name="NKREDLFY">     1</i>
   <i type="int" name="NKREDLFZ">     1</i>
   <i type="int" name="MAXMEM"> 10000</i>
   <i type="int" name="TELESCOPE">     0</i>
   <i type="int" name="TAUPAR">     1</i>
   <i type="int" name="OMEGAPAR">    -1</i>
   <i name="LAMBDA">      1.00000000</i>
  </separator>
  <separator name="External order field" >
   <i name="OFIELD_KAPPA">      0.00000000</i>
   <v name="OFIELD_K">      0.00000000      0.00000000      0.00000000</v>
   <i name="OFIELD_Q6_NEAR">      0.00000000</i>
   <i name="OFIELD_Q6_FAR">      0.00000000</i>
   <i name="OFIELD_A">      0.00000000</i>
  </separator>
 </parameters>
 <atominfo>
  <atoms>      57 </atoms>
  <types>       3 </types>
  <array name="atoms" >
   <dimension dim="1">ion</dimension>
   <field type="string">element</field>
   <field type="int">atomtype</field>
   <set>
    <rc><c>Pd</c><c>   1</c></rc>
    <rc><c>Pd</c><c>   1</c></rc>
    <rc><c>Pd</c><c>   1</c></rc>
    <rc><c>Pd</c><c>   1</c></rc>
    <rc><c>Pd</c><c>   1</c></rc>
    <rc><c>Pd</c><c>   1</c></rc>
    <rc><c>Pd</c><c>   1</c></rc>
    <rc><c>Pd</c><c>   1</c></rc>
    <rc><c>Pd</c><c>   1</c></rc>
    <rc><c>Pd</c><c>   1</c></rc>
    <rc><c>Pd</c><c>   1</c></rc>
    <rc><c>Pd</c><c>   1</c></rc>
    <rc><c>Pd</c><c>   1</c></rc>
    <rc><c>Pd</c><c>   1</c></rc>
    <rc><c>Pd</c><c>   1</c></rc>
    <rc><c>Pd</c><c>   1</c></rc>
    <rc><c>Pd</c><c>   1</c></rc>
    <rc><c>Pd</c><c>   1</c></rc>
    <rc><c>Pd</c><c>   1</c></rc>
    <rc><c>Pd</c><c>   1</c></rc>
    <rc><c>Pd</c><c>   1</c></rc>
    <rc><c>Pd</c><c>   1</c></rc>
    <rc><c>Pd</c><c>   1</c></rc>
    <rc><c>Pd</c><c>   1</c></rc>
    <rc><c>Pd</c><c>   1</c></rc>
    <rc><c>Pd</c><c>   1</c></rc>
    <rc><c>Pd</c><c>   1</c></rc>
    <rc><c>Pd</c><c>   1</c></rc>
    <rc><c>Pd</c><c>   1</c></rc>
    <rc><c>Pd</c><c>   1</c></rc>
    <rc><c>Pd</c><c>   1</c></rc>
    <rc><c>Pd</c><c>   1</c></rc>
    <rc><c>Pd</c><c>   1</c></rc>
    <rc><c>Pd</c><c>   1</c></rc>
    <rc><c>Pd</c><c>   1</c></rc>
    <rc><c>Pd</c><c>   1</c></rc>
    <rc><c>Pd</c><c>   1</c></rc>
    <rc><c>Pd</c><c>   1</c></rc>
    <rc><c>Pd</c><c>   1</c></rc>
    <rc><c>Pd</c><c>   1</c></rc>
    <rc><c>Pd</c><c>   1</c></rc>
    <rc><c>Pd</c><c>   1</c></rc>
    <rc><c>Pd</c><c>   1</c></rc>
    <rc><c>Pd</c><c>   1</c></rc>
    <rc><c>Pd</c><c>   1</c></rc>
    <rc><c>Pd</c><c>   1</c></rc>
    <rc><c>Pd</c><c>   1</c></rc>
    <rc><c>Pd</c><c>   1</c></rc>
    <rc><c>Pd</c><c>   1</c></rc>
    <rc><c>Pd</c><c>   1</c></rc>
    <rc><c>Pd</c><c>   1</c></rc>
    <rc><c>Pd</c><c>   1</c></rc>
    <rc><c>Pd</c><c>   1</c></rc>
    <rc><c>Pd</c><c>   1</c></rc>
    <rc><c>Pd</c><c>   1</c></rc>
    <rc><c>C </c><c>   2</c></rc>
    <rc><c>O </c><c>   3</c></rc>
   </set>
  </array>
  <array name="atomtypes" >
   <dimension dim="1">type</dimension>
   <field type="int">atomspertype</field>
   <field type="string">element</field>
   <field>mass</field>
   <field>valence</field>
   <field type="string">pseudopotential</field>
   <set>
    <rc><c>  55</c><c>Pd</c><c>    106.42000000</c><c>     10.00000000</c><c>  PAW_PBE Pd 04Jan2005                  </c></rc>
    <rc><c>   1</c><c>C </c><c>     12.01100000</c><c>      4.00000000</c><c>  PAW_PBE C 08Apr2002                   </c></rc>
    <rc><c>   1</c><c>O </c><c>     16.00000000</c><c>      6.00000000</c><c>  PAW_PBE O 08Apr2002                   </c></rc>
   </set>
  </array>
 </atominfo>
 <structure name="initialpos" >
  <crystal>
   <varray name="basis" >
    <v>      30.00000000       0.00000000       0.00000000 </v>
    <v>       0.00000000      30.00000000       0.00000000 </v>
    <v>       0.00000000       0.00000000      30.00000000 </v>
   </varray>
   <i name="volume">  27000.00000000 </i>
   <varray name="rec_basis" >
    <v>       0.03333333       0.00000000       0.00000000 </v>
    <v>       0.00000000       0.03333333       0.00000000 </v>
    <v>       0.00000000       0.00000000       0.03333333 </v>
   </varray>
  </crystal>
  <varray name="positions" >
   <v>       0.44576020       0.32826710       0.41691983 </v>
   <v>       0.67173288       0.55423978       0.41691983 </v>
   <v>       0.55423980       0.32826710       0.41691983 </v>
   <v>       0.32826712       0.55423978       0.41691983 </v>
   <v>       0.50000000       0.38250690       0.34021317 </v>
   <v>       0.50000000       0.38250690       0.65978680 </v>
   <v>       0.50000000       0.27609440       0.50000000 </v>
   <v>       0.27609443       0.49999998       0.50000000 </v>
   <v>       0.72390557       0.49999998       0.50000000 </v>
   <v>       0.50000000       0.72390555       0.50000000 </v>
   <v>       0.61195280       0.38804720       0.34167483 </v>
   <v>       0.61195280       0.38804720       0.65832513 </v>
   <v>       0.38804722       0.61195278       0.34167483 </v>
   <v>       0.38804722       0.61195278       0.65832513 </v>
   <v>       0.38804720       0.38804720       0.34167483 </v>
   <v>       0.38804720       0.38804720       0.65832513 </v>
   <v>       0.61195278       0.61195278       0.34167483 </v>
   <v>       0.61195278       0.61195278       0.65832513 </v>
   <v>       0.44576020       0.32826710       0.58308023 </v>
   <v>       0.67173288       0.55423978       0.58308023 </v>
   <v>       0.55791699       0.44208301       0.41809300 </v>
   <v>       0.32826705       0.44576024       0.41691983 </v>
   <v>       0.55423973       0.67173293       0.41691983 </v>
   <v>       0.55423980       0.32826710       0.58308023 </v>
   <v>       0.32826712       0.55423978       0.58308023 </v>
   <v>       0.67173295       0.44576024       0.41691983 </v>
   <v>       0.44576027       0.67173293       0.41691983 </v>
   <v>       0.44208301       0.44208301       0.41809300 </v>
   <v>       0.50000000       0.38416601       0.50000000 </v>
   <v>       0.61749315       0.50000005       0.34021317 </v>
   <v>       0.61749315       0.50000005       0.65978680 </v>
   <v>       0.38250685       0.50000005       0.34021317 </v>
   <v>       0.38250685       0.50000005       0.65978680 </v>
   <v>       0.38317830       0.38317830       0.50000000 </v>
   <v>       0.61682172       0.61682172       0.50000000 </v>
   <v>       0.61682170       0.38317830       0.50000000 </v>
   <v>       0.38317828       0.61682172       0.50000000 </v>
   <v>       0.50000000       0.50000000       0.33478917 </v>
   <v>       0.50000000       0.50000000       0.66521087 </v>
   <v>       0.32826705       0.44576024       0.58308023 </v>
   <v>       0.55423973       0.67173293       0.58308023 </v>
   <v>       0.55791699       0.44208301       0.58190703 </v>
   <v>       0.44208298       0.55791702       0.41809300 </v>
   <v>       0.44208301       0.44208301       0.58190703 </v>
   <v>       0.67173295       0.44576024       0.58308023 </v>
   <v>       0.44576027       0.67173293       0.58308023 </v>
   <v>       0.55791702       0.55791702       0.41809300 </v>
   <v>       0.38416599       0.50000002       0.50000000 </v>
   <v>       0.61583401       0.50000002       0.50000000 </v>
   <v>       0.50000000       0.61749319       0.34021317 </v>
   <v>       0.50000000       0.61749319       0.65978680 </v>
   <v>       0.50000000       0.50000000       0.50000000 </v>
   <v>       0.44208298       0.55791702       0.58190703 </v>
   <v>       0.55791702       0.55791702       0.58190703 </v>
   <v>       0.50000000       0.61583404       0.50000000 </v>
   <v>       0.48995243       0.50287380       0.74438470 </v>
   <v>       0.48840797       0.50331553       0.78195037 </v>
  </varray>
  <varray name="selective"  type="logical" >
   <v type="logical" >  F  F  F </v>
   <v type="logical" >  F  F  F </v>
   <v type="logical" >  F  F  F </v>
   <v type="logical" >  F  F  F </v>
   <v type="logical" >  F  F  F </v>
   <v type="logical" >  F  F  F </v>
   <v type="logical" >  F  F  F </v>
   <v type="logical" >  F  F  F </v>
   <v type="logical" >  F  F  F </v>
   <v type="logical" >  F  F  F </v>
   <v type="logical" >  F  F  F </v>
   <v type="logical" >  F  F  F </v>
   <v type="logical" >  F  F  F </v>
   <v type="logical" >  F  F  F </v>
   <v type="logical" >  F  F  F </v>
   <v type="logical" >  F  F  F </v>
   <v type="logical" >  F  F  F </v>
   <v type="logical" >  F  F  F </v>
   <v type="logical" >  F  F  F </v>
   <v type="logical" >  F  F  F </v>
   <v type="logical" >  F  F  F </v>
   <v type="logical" >  F  F  F </v>
   <v type="logical" >  F  F  F </v>
   <v type="logical" >  F  F  F </v>
   <v type="logical" >  F  F  F </v>
   <v type="logical" >  F  F  F </v>
   <v type="logical" >  F  F  F </v>
   <v type="logical" >  F  F  F </v>
   <v type="logical" >  F  F  F </v>
   <v type="logical" >  F  F  F </v>
   <v type="logical" >  F  F  F </v>
   <v type="logical" >  F  F  F </v>
   <v type="logical" >  F  F  F </v>
   <v type="logical" >  F  F  F </v>
   <v type="logical" >  F  F  F </v>
   <v type="logical" >  F  F  F </v>
   <v type="logical" >  F  F  F </v>
   <v type="logical" >  F  F  F </v>
   <v type="logical" >  F  F  F </v>
   <v type="logical" >  F  F  F </v>
   <v type="logical" >  F  F  F </v>
   <v type="logical" >  F  F  F </v>
   <v type="logical" >  F  F  F </v>
   <v type="logical" >  F  F  F </v>
   <v type="logical" >  F  F  F </v>
   <v type="logical" >  F  F  F </v>
   <v type="logical" >  F  F  F </v>
   <v type="logical" >  F  F  F </v>
   <v type="logical" >  F  F  F </v>
   <v type="logical" >  F  F  F </v>
   <v type="logical" >  F  F  F </v>
   <v type="logical" >  F  F  F </v>
   <v type="logical" >  F  F  F </v>
   <v type="logical" >  F  F  F </v>
   <v type="logical" >  F  F  F </v>
   <v type="logical" >  F  F  F </v>
   <v type="logical" >  F  F  F </v>
  </varray>
  <nose>
   <v>      -3.00000000       0.00000000       0.00010000       0.00010000 </v>
  </nose>
 </structure>
 <calculation>
  <scstep>
   <time name="dav">  370.05  370.13</time>
   <time name="total">  384.76  384.84</time>
   <energy>
    <i name="alphaZ">     75.25431677 </i>
    <i name="ewald"> 138124.24617705 </i>
    <i name="hartreedc">-181491.01057236 </i>
    <i name="XCdc">  -1703.79794871 </i>
    <i name="pawpsdc">  44873.02882129 </i>
    <i name="pawaedc"> -41398.84523641 </i>
    <i name="eentropy">      0.01394021 </i>
    <i name="bandstr">    818.84579419 </i>
    <i name="atom">  45086.50549395 </i>
    <i name="e_fr_energy">   4384.24078599 </i>
    <i name="e_wo_entrp">   4384.22684578 </i>
    <i name="e_0_energy">   4384.23730094 </i>
   </energy>
  </scstep>
  <scstep>
   <time name="dav">  581.89  581.90</time>
   <time name="total">  581.89  581.90</time>
   <energy>
    <i name="e_fr_energy">   2013.44355534 </i>
    <i name="e_wo_entrp">   2013.49491611 </i>
    <i name="e_0_energy">   2013.45639553 </i>
   </energy>
  </scstep>
  <scstep>
   <time name="dav">  491.55  491.55</time>
   <time name="total">  491.55  491.56</time>
   <energy>
    <i name="e_fr_energy">    232.46237026 </i>
    <i name="e_wo_entrp">    232.48518806 </i>
    <i name="e_0_energy">    232.46807471 </i>
   </energy>
  </scstep>
  <scstep>
   <time name="dav">  428.04  428.04</time>
   <time name="total">  428.04  428.04</time>
   <energy>
    <i name="e_fr_energy">   -134.69130221 </i>
    <i name="e_wo_entrp">   -134.68126409 </i>
    <i name="e_0_energy">   -134.68879268 </i>
   </energy>
  </scstep>
  <scstep>
   <time name="dav">  516.47  516.49</time>
   <time name="total">  542.80  542.82</time>
   <energy>
    <i name="e_fr_energy">   -178.94537138 </i>
    <i name="e_wo_entrp">   -179.45367311 </i>
    <i name="e_0_energy">   -179.07244681 </i>
   </energy>
  </scstep>
  <scstep>
   <time name="diag">   67.92   67.92</time>
   <time name="diis">  189.55  189.55</time>
   <time name="orth">   13.63   13.63</time>
   <time name="total">  310.89  310.89</time>
   <energy>
    <i name="e_fr_energy">   -179.09638897 </i>
    <i name="e_wo_entrp">   -179.13219854 </i>
    <i name="e_0_energy">   -179.10534136 </i>
   </energy>
  </scstep>
  <scstep>
   <time name="diag">   67.69   67.69</time>
   <time name="diis">  221.61  221.61</time>
   <time name="orth">   13.29   13.29</time>
   <time name="total">  341.55  341.55</time>
   <energy>
    <i name="e_fr_energy">   -181.88581343 </i>
    <i name="e_wo_entrp">   -181.91172667 </i>
    <i name="e_0_energy">   -181.89229174 </i>
   </energy>
  </scstep>
  <scstep>
   <time name="diag">   68.27   68.27</time>
   <time name="diis">  205.76  205.77</time>
   <time name="orth">   13.41   13.41</time>
   <time name="total">  326.91  326.92</time>
   <energy>
    <i name="e_fr_energy">   -182.49341620 </i>
    <i name="e_wo_entrp">   -182.29001382 </i>
    <i name="e_0_energy">   -182.44256561 </i>
   </energy>
  </scstep>
  <scstep>
   <time name="diag">   69.02   69.02</time>
   <time name="diis">  192.03  192.03</time>
   <time name="orth">   13.72   13.72</time>
   <time name="total">  314.22  314.22</time>
   <energy>
    <i name="e_fr_energy">   -181.02740469 </i>
    <i name="e_wo_entrp">   -181.04054962 </i>
    <i name="e_0_energy">   -181.03069092 </i>
   </energy>
  </scstep>
  <scstep>
   <time name="diag">   68.43   68.43</time>
   <time name="diis">  191.88  191.88</time>
   <time name="orth">   13.52   13.52</time>
   <time name="total">  313.30  313.31</time>
   <energy>
    <i name="e_fr_energy">   -179.20312472 </i>
    <i name="e_wo_entrp">   -179.18580095 </i>
    <i name="e_0_energy">   -179.19879378 </i>
   </energy>
  </scstep>
  <scstep>
   <time name="diag">   67.31   67.31</time>
   <time name="diis">  194.41  194.41</time>
   <time name="orth">   13.55   13.55</time>
   <time name="total">  314.58  314.58</time>
   <energy>
    <i name="e_fr_energy">   -177.78669501 </i>
    <i name="e_wo_entrp">   -177.69893391 </i>
    <i name="e_0_energy">   -177.76475473 </i>
   </energy>
  </scstep>
  <scstep>
   <time name="diag">   67.59   67.59</time>
   <time name="diis">  189.35  189.36</time>
   <time name="orth">   13.58   13.58</time>
   <time name="total">  309.97  309.98</time>
   <energy>
    <i name="e_fr_energy">   -176.67885798 </i>
    <i name="e_wo_entrp">   -176.58175541 </i>
    <i name="e_0_energy">   -176.65458234 </i>
   </energy>
  </scstep>
  <scstep>
   <time name="diag">   67.58   67.59</time>
   <time name="diis">  189.46  189.47</time>
   <time name="orth">   13.67   13.67</time>
   <time name="total">  310.33  310.34</time>
   <energy>
    <i name="e_fr_energy">   -176.15925455 </i>
    <i name="e_wo_entrp">   -176.07313052 </i>
    <i name="e_0_energy">   -176.13772354 </i>
   </energy>
  </scstep>
  <scstep>
   <time name="diag">   67.03   67.03</time>
   <time name="diis">  190.80  190.80</time>
   <time name="orth">   13.60   13.60</time>
   <time name="total">  310.30  310.30</time>
   <energy>
    <i name="e_fr_energy">   -176.21426594 </i>
    <i name="e_wo_entrp">   -176.21193386 </i>
    <i name="e_0_energy">   -176.21368292 </i>
   </energy>
  </scstep>
  <scstep>
   <time name="diag">   67.17   67.18</time>
   <time name="diis">  191.33  191.33</time>
   <time name="orth">   13.43   13.43</time>
   <time name="total">  311.18  311.18</time>
   <energy>
    <i name="e_fr_energy">   -176.92866845 </i>
    <i name="e_wo_entrp">   -176.89954981 </i>
    <i name="e_0_energy">   -176.92138879 </i>
   </energy>
  </scstep>
  <scstep>
   <time name="diag">   67.47   67.47</time>
   <time name="diis">  191.73  191.73</time>
   <time name="orth">   13.46   13.46</time>
   <time name="total">  311.56  311.57</time>
   <energy>
    <i name="e_fr_energy">   -175.83622194 </i>
    <i name="e_wo_entrp">   -175.83951930 </i>
    <i name="e_0_energy">   -175.83704628 </i>
   </energy>
  </scstep>
  <scstep>
   <time name="diag">   67.36   67.36</time>
   <time name="diis">  189.44  189.44</time>
   <time name="orth">   13.54   13.54</time>
   <time name="total">  309.63  309.63</time>
   <energy>
    <i name="e_fr_energy">   -174.99583924 </i>
    <i name="e_wo_entrp">   -175.02334715 </i>
    <i name="e_0_energy">   -175.00271622 </i>
   </energy>
  </scstep>
  <scstep>
   <time name="diag">   66.66   66.66</time>
   <time name="diis">  189.70  189.70</time>
   <time name="orth">   13.35   13.35</time>
   <time name="total">  308.84  308.85</time>
   <energy>
    <i name="e_fr_energy">   -174.85580442 </i>
    <i name="e_wo_entrp">   -174.85734083 </i>
    <i name="e_0_energy">   -174.85618853 </i>
   </energy>
  </scstep>
  <scstep>
   <time name="diag">   66.66   66.66</time>
   <time name="diis">  190.75  190.75</time>
   <time name="orth">   13.38   13.38</time>
   <time name="total">  309.97  309.97</time>
   <energy>
    <i name="e_fr_energy">   -174.82422486 </i>
    <i name="e_wo_entrp">   -174.81008043 </i>
    <i name="e_0_energy">   -174.82068875 </i>
   </energy>
  </scstep>
  <scstep>
   <time name="diag">   66.59   66.59</time>
   <time name="diis">  186.13  186.13</time>
   <time name="orth">   13.29   13.29</time>
   <time name="total">  305.07  305.07</time>
   <energy>
    <i name="e_fr_energy">   -174.66963329 </i>
    <i name="e_wo_entrp">   -174.63484552 </i>
    <i name="e_0_energy">   -174.66093634 </i>
   </energy>
  </scstep>
  <scstep>
   <time name="diag">   66.37   66.37</time>
   <time name="diis">  185.65  185.65</time>
   <time name="orth">   13.21   13.21</time>
   <time name="total">  304.57  304.57</time>
   <energy>
    <i name="e_fr_energy">   -174.56287775 </i>
    <i name="e_wo_entrp">   -174.48780857 </i>
    <i name="e_0_energy">   -174.54411046 </i>
   </energy>
  </scstep>
  <scstep>
   <time name="diag">   66.48   66.48</time>
   <time name="diis">  187.49  187.49</time>
   <time name="orth">   13.50   13.50</time>
   <time name="total">  306.97  306.97</time>
   <energy>
    <i name="e_fr_energy">   -174.53583383 </i>
    <i name="e_wo_entrp">   -174.45804612 </i>
    <i name="e_0_energy">   -174.51638691 </i>
   </energy>
  </scstep>
  <scstep>
   <time name="diag">   66.46   66.45</time>
   <time name="diis">  186.34  186.34</time>
   <time name="orth">   13.69   13.69</time>
   <time name="total">  305.80  305.81</time>
   <energy>
    <i name="e_fr_energy">   -174.48917738 </i>
    <i name="e_wo_entrp">   -174.42791696 </i>
    <i name="e_0_energy">   -174.47386227 </i>
   </energy>
  </scstep>
  <scstep>
   <time name="diag">   66.40   66.40</time>
   <time name="diis">  187.69  187.69</time>
   <time name="orth">   13.60   13.60</time>
   <time name="total">  307.41  307.41</time>
   <energy>
    <i name="e_fr_energy">   -174.47101262 </i>
    <i name="e_wo_entrp">   -174.39025168 </i>
    <i name="e_0_energy">   -174.45082239 </i>
   </energy>
  </scstep>
  <scstep>
   <time name="diag">   66.53   66.53</time>
   <time name="diis">  187.06  187.06</time>
   <time name="orth">   13.70   13.70</time>
   <time name="total">  306.95  306.95</time>
   <energy>
    <i name="e_fr_energy">   -174.38158861 </i>
    <i name="e_wo_entrp">   -174.31358129 </i>
    <i name="e_0_energy">   -174.36458678 </i>
   </energy>
  </scstep>
  <scstep>
   <time name="diag">   66.72   66.72</time>
   <time name="diis">  186.55  186.55</time>
   <time name="orth">   13.82   13.81</time>
   <time name="total">  306.94  306.95</time>
   <energy>
    <i name="e_fr_energy">   -174.33125863 </i>
    <i name="e_wo_entrp">   -174.26857279 </i>
    <i name="e_0_energy">   -174.31558717 </i>
   </energy>
  </scstep>
  <scstep>
   <time name="diag">   66.60   66.60</time>
   <time name="diis">  185.37  185.37</time>
   <time name="orth">   13.65   13.65</time>
   <time name="total">  305.60  305.61</time>
   <energy>
    <i name="e_fr_energy">   -174.28919212 </i>
    <i name="e_wo_entrp">   -174.22835761 </i>
    <i name="e_0_energy">   -174.27398350 </i>
   </energy>
  </scstep>
  <scstep>
   <time name="diag">   66.77   66.77</time>
   <time name="diis">  185.53  185.53</time>
   <time name="orth">   13.74   13.74</time>
   <time name="total">  306.04  306.04</time>
   <energy>
    <i name="e_fr_energy">   -174.28485886 </i>
    <i name="e_wo_entrp">   -174.22891240 </i>
    <i name="e_0_energy">   -174.27087224 </i>
   </energy>
  </scstep>
  <scstep>
   <time name="diag">   67.17   67.17</time>
   <time name="diis">  189.97  189.97</time>
   <time name="orth">   13.68   13.68</time>
   <time name="total">  310.61  310.61</time>
   <energy>
    <i name="e_fr_energy">   -174.25634455 </i>
    <i name="e_wo_entrp">   -174.18835974 </i>
    <i name="e_0_energy">   -174.23934835 </i>
   </energy>
  </scstep>
  <scstep>
   <time name="diag">   67.72   67.72</time>
   <time name="diis">  189.79  189.80</time>
   <time name="orth">   13.76   13.76</time>
   <time name="total">  311.30  311.30</time>
   <energy>
    <i name="e_fr_energy">   -174.24811586 </i>
    <i name="e_wo_entrp">   -174.17711523 </i>
    <i name="e_0_energy">   -174.23036570 </i>
   </energy>
  </scstep>
  <scstep>
   <time name="diag">   67.62   67.62</time>
   <time name="diis">  190.70  190.70</time>
   <time name="orth">   14.04   14.04</time>
   <time name="total">  313.01  313.02</time>
   <energy>
    <i name="e_fr_energy">   -174.24652416 </i>
    <i name="e_wo_entrp">   -174.17030995 </i>
    <i name="e_0_energy">   -174.22747061 </i>
   </energy>
  </scstep>
  <scstep>
   <time name="diag">   67.43   67.43</time>
   <time name="diis">  189.36  189.37</time>
   <time name="orth">   13.73   13.73</time>
   <time name="total">  311.90  311.91</time>
   <energy>
    <i name="e_fr_energy">   -174.24071294 </i>
    <i name="e_wo_entrp">   -174.16888639 </i>
    <i name="e_0_energy">   -174.22275630 </i>
   </energy>
  </scstep>
  <scstep>
   <time name="diag">   66.93   66.93</time>
   <time name="diis">  190.07  190.07</time>
   <time name="orth">   13.85   13.85</time>
   <time name="total">  311.97  311.97</time>
   <energy>
    <i name="e_fr_energy">   -174.24141862 </i>
    <i name="e_wo_entrp">   -174.17006824 </i>
    <i name="e_0_energy">   -174.22358103 </i>
   </energy>
  </scstep>
  <scstep>
   <time name="diag">   66.43   66.42</time>
   <time name="diis">  188.90  188.90</time>
   <time name="orth">   14.04   14.04</time>
   <time name="total">  310.12  310.12</time>
   <energy>
    <i name="e_fr_energy">   -174.23964453 </i>
    <i name="e_wo_entrp">   -174.16384363 </i>
    <i name="e_0_energy">   -174.22069431 </i>
   </energy>
  </scstep>
  <scstep>
   <time name="diag">   67.04   67.04</time>
   <time name="diis">  187.74  187.74</time>
   <time name="orth">   14.16   14.16</time>
   <time name="total">  310.48  310.48</time>
   <energy>
    <i name="e_fr_energy">   -174.23879351 </i>
    <i name="e_wo_entrp">   -174.16466461 </i>
    <i name="e_0_energy">   -174.22026129 </i>
   </energy>
  </scstep>
  <scstep>
   <time name="diag">   67.12   67.12</time>
   <time name="diis">  187.47  187.47</time>
   <time name="orth">   14.20   14.20</time>
   <time name="total">  311.26  311.27</time>
   <energy>
    <i name="e_fr_energy">   -174.24035250 </i>
    <i name="e_wo_entrp">   -174.16708418 </i>
    <i name="e_0_energy">   -174.22203542 </i>
   </energy>
  </scstep>
  <scstep>
   <time name="diag">   66.70   66.70</time>
   <time name="diis">  187.27  187.27</time>
   <time name="orth">   14.06   14.06</time>
   <time name="total">  309.99  310.00</time>
   <energy>
    <i name="e_fr_energy">   -174.24176601 </i>
    <i name="e_wo_entrp">   -174.16930521 </i>
    <i name="e_0_energy">   -174.22365081 </i>
   </energy>
  </scstep>
  <scstep>
   <time name="diag">   66.67   66.67</time>
   <time name="diis">  177.58  177.58</time>
   <time name="orth">   14.03   14.03</time>
   <time name="total">  300.75  300.76</time>
   <energy>
    <i name="e_fr_energy">   -174.24343614 </i>
    <i name="e_wo_entrp">   -174.17065412 </i>
    <i name="e_0_energy">   -174.22524064 </i>
   </energy>
  </scstep>
  <scstep>
   <time name="diag">   67.68   67.68</time>
   <time name="diis">  183.11  183.11</time>
   <time name="orth">   14.08   14.08</time>
   <time name="total">  307.82  307.83</time>
   <energy>
    <i name="e_fr_energy">   -174.24681776 </i>
    <i name="e_wo_entrp">   -174.17402310 </i>
    <i name="e_0_energy">   -174.22861910 </i>
   </energy>
  </scstep>
  <scstep>
   <time name="diag">   67.65   67.65</time>
   <time name="diis">  170.01  170.01</time>
   <time name="orth">   13.93   13.93</time>
   <time name="total">  294.80  294.80</time>
   <energy>
    <i name="e_fr_energy">   -174.24945247 </i>
    <i name="e_wo_entrp">   -174.17713060 </i>
    <i name="e_0_energy">   -174.23137200 </i>
   </energy>
  </scstep>
  <scstep>
   <time name="diag">   67.38   67.38</time>
   <time name="diis">  155.61  155.61</time>
   <time name="orth">   13.89   13.89</time>
   <time name="total">  280.16  280.16</time>
   <energy>
    <i name="e_fr_energy">   -174.25211233 </i>
    <i name="e_wo_entrp">   -174.18176219 </i>
    <i name="e_0_energy">   -174.23452480 </i>
   </energy>
  </scstep>
  <scstep>
   <time name="diag">   69.47   69.49</time>
   <time name="diis">  140.88  140.88</time>
   <time name="orth">   14.03   14.03</time>
   <time name="total">  268.18  268.19</time>
   <energy>
    <i name="e_fr_energy">   -174.25472990 </i>
    <i name="e_wo_entrp">   -174.18335013 </i>
    <i name="e_0_energy">   -174.23688496 </i>
   </energy>
  </scstep>
  <scstep>
   <time name="diag">   70.44   70.44</time>
   <time name="diis">  119.95  119.95</time>
   <time name="orth">   13.60   13.60</time>
   <time name="total">  247.61  247.61</time>
   <energy>
    <i name="e_fr_energy">   -174.25607529 </i>
    <i name="e_wo_entrp">   -174.18426667 </i>
    <i name="e_0_energy">   -174.23812314 </i>
   </energy>
  </scstep>
  <scstep>
   <time name="diag">   70.22   70.22</time>
   <time name="diis">  121.55  121.55</time>
   <time name="orth">   13.40   13.40</time>
   <time name="total">  247.38  247.38</time>
   <energy>
    <i name="e_fr_energy">   -174.25771170 </i>
    <i name="e_wo_entrp">   -174.18575480 </i>
    <i name="e_0_energy">   -174.23972248 </i>
   </energy>
  </scstep>
  <scstep>
   <time name="diag">   68.72   68.72</time>
   <time name="diis">  119.29  119.29</time>
   <time name="orth">   13.59   13.58</time>
   <time name="total">  244.07  244.07</time>
   <energy>
    <i name="e_fr_energy">   -174.25893261 </i>
    <i name="e_wo_entrp">   -174.18735141 </i>
    <i name="e_0_energy">   -174.24103731 </i>
   </energy>
  </scstep>
  <scstep>
   <time name="diag">   66.95   66.95</time>
   <time name="diis">  119.03  119.03</time>
   <time name="orth">   13.72   13.72</time>
   <time name="total">  243.21  243.21</time>
   <energy>
    <i name="e_fr_energy">   -174.26050647 </i>
    <i name="e_wo_entrp">   -174.18912379 </i>
    <i name="e_0_energy">   -174.24266080 </i>
   </energy>
  </scstep>
  <scstep>
   <time name="diag">   67.73   67.73</time>
   <time name="diis">  116.81  116.81</time>
   <time name="orth">   13.75   13.75</time>
   <time name="total">  241.91  241.91</time>
   <energy>
    <i name="e_fr_energy">   -174.26257854 </i>
    <i name="e_wo_entrp">   -174.19091449 </i>
    <i name="e_0_energy">   -174.24466253 </i>
   </energy>
  </scstep>
  <scstep>
   <time name="diag">   69.99   69.99</time>
   <time name="diis">  115.96  115.96</time>
   <time name="orth">   13.43   13.43</time>
   <time name="total">  243.04  243.04</time>
   <energy>
    <i name="e_fr_energy">   -174.26313041 </i>
    <i name="e_wo_entrp">   -174.19131686 </i>
    <i name="e_0_energy">   -174.24517703 </i>
   </energy>
  </scstep>
  <scstep>
   <time name="diag">   69.80   69.80</time>
   <time name="diis">  118.98  118.98</time>
   <time name="orth">   13.16   13.16</time>
   <time name="total">  244.86  244.86</time>
   <energy>
    <i name="e_fr_energy">   -174.26393193 </i>
    <i name="e_wo_entrp">   -174.19228332 </i>
    <i name="e_0_energy">   -174.24601978 </i>
   </energy>
  </scstep>
  <scstep>
   <time name="diag">   68.40   68.40</time>
   <time name="diis">  115.94  115.94</time>
   <time name="orth">   13.67   13.67</time>
   <time name="total">  240.98  240.99</time>
   <energy>
    <i name="e_fr_energy">   -174.26423171 </i>
    <i name="e_wo_entrp">   -174.19263011 </i>
    <i name="e_0_energy">   -174.24633131 </i>
   </energy>
  </scstep>
  <scstep>
   <time name="diag">   67.65   67.65</time>
   <time name="diis">  105.25  105.25</time>
   <time name="orth">   13.70   13.70</time>
   <time name="total">  230.28  230.28</time>
   <energy>
    <i name="e_fr_energy">   -174.26471113 </i>
    <i name="e_wo_entrp">   -174.19308804 </i>
    <i name="e_0_energy">   -174.24680536 </i>
   </energy>
  </scstep>
  <scstep>
   <time name="diag">   69.09   69.08</time>
   <time name="diis">  100.92  100.92</time>
   <time name="orth">   13.58   13.58</time>
   <time name="total">  227.18  227.18</time>
   <energy>
    <i name="e_fr_energy">   -174.26519750 </i>
    <i name="e_wo_entrp">   -174.19358320 </i>
    <i name="e_0_energy">   -174.24729393 </i>
   </energy>
  </scstep>
  <scstep>
   <time name="diag">   69.47   69.47</time>
   <time name="diis">   86.27   86.27</time>
   <time name="orth">   13.62   13.62</time>
   <time name="total">  212.00  212.00</time>
   <energy>
    <i name="e_fr_energy">   -174.26545689 </i>
    <i name="e_wo_entrp">   -174.19388507 </i>
    <i name="e_0_energy">   -174.24756393 </i>
   </energy>
  </scstep>
  <scstep>
   <time name="diag">   67.65   67.65</time>
   <time name="diis">  106.39  106.39</time>
   <time name="orth">   13.52   13.52</time>
   <time name="total">  231.55  231.56</time>
   <energy>
    <i name="e_fr_energy">   -174.26608000 </i>
    <i name="e_wo_entrp">   -174.19452842 </i>
    <i name="e_0_energy">   -174.24819211 </i>
   </energy>
  </scstep>
  <scstep>
   <time name="diag">   67.35   67.35</time>
   <time name="diis">   79.39   79.39</time>
   <time name="orth">   13.88   13.88</time>
   <time name="total">  204.45  204.46</time>
   <energy>
    <i name="e_fr_energy">   -174.26624831 </i>
    <i name="e_wo_entrp">   -174.19465133 </i>
    <i name="e_0_energy">   -174.24834907 </i>
   </energy>
  </scstep>
  <scstep>
   <time name="diag">   68.69   68.69</time>
   <time name="diis">   97.83   97.83</time>
   <time name="orth">   13.60   13.60</time>
   <time name="total">  223.73  223.73</time>
   <energy>
    <i name="e_fr_energy">   -174.26664886 </i>
    <i name="e_wo_entrp">   -174.19500866 </i>
    <i name="e_0_energy">   -174.24873881 </i>
   </energy>
  </scstep>
  <scstep>
   <time name="diag">   68.64   68.64</time>
   <time name="diis">   85.08   85.08</time>
   <time name="orth">   13.46   13.46</time>
   <time name="total">  210.34  210.34</time>
   <energy>
    <i name="e_fr_energy">   -174.26682027 </i>
    <i name="e_wo_entrp">   -174.19522735 </i>
    <i name="e_0_energy">   -174.24892204 </i>
   </energy>
  </scstep>
  <scstep>
   <time name="diag">   67.35   67.35</time>
   <time name="diis">   90.61   90.61</time>
   <time name="orth">   13.95   13.95</time>
   <time name="total">  215.52  215.52</time>
   <energy>
    <i name="e_fr_energy">   -174.26700459 </i>
    <i name="e_wo_entrp">   -174.19535121 </i>
    <i name="e_0_energy">   -174.24909124 </i>
   </energy>
  </scstep>
  <scstep>
   <time name="diag">   68.56   68.56</time>
   <time name="diis">   79.48   79.48</time>
   <time name="orth">   13.78   13.78</time>
   <time name="total">  176.15  176.15</time>
   <energy>
    <i name="alphaZ">     75.25431677 </i>
    <i name="ewald"> 138124.24617705 </i>
    <i name="hartreedc">-182496.98737136 </i>
    <i name="XCdc">  -1693.13384835 </i>
    <i name="pawpsdc">  46057.26490148 </i>
    <i name="pawaedc"> -42526.89711196 </i>
    <i name="eentropy">     -0.07158545 </i>
    <i name="bandstr">  -2800.44803527 </i>
    <i name="atom">  45086.50549395 </i>
    <i name="e_fr_energy">   -174.26706314 </i>
    <i name="e_wo_entrp">   -174.19547768 </i>
    <i name="e_0_energy">   -174.24916677 </i>
   </energy>
  </scstep>
  <structure>
   <crystal>
    <varray name="basis" >
     <v>      30.00000000       0.00000000       0.00000000 </v>
     <v>       0.00000000      30.00000000       0.00000000 </v>
     <v>       0.00000000       0.00000000      30.00000000 </v>
    </varray>
    <i name="volume">  27000.00000000 </i>
    <varray name="rec_basis" >
     <v>       0.03333333       0.00000000       0.00000000 </v>
     <v>       0.00000000       0.03333333       0.00000000 </v>
     <v>       0.00000000       0.00000000       0.03333333 </v>
    </varray>
   </crystal>
   <varray name="positions" >
    <v>       0.44576020       0.32826710       0.41691983 </v>
    <v>       0.67173288       0.55423978       0.41691983 </v>
    <v>       0.55423980       0.32826710       0.41691983 </v>
    <v>       0.32826712       0.55423978       0.41691983 </v>
    <v>       0.50000000       0.38250690       0.34021317 </v>
    <v>       0.50000000       0.38250690       0.65978680 </v>
    <v>       0.50000000       0.27609440       0.50000000 </v>
    <v>       0.27609443       0.49999998       0.50000000 </v>
    <v>       0.72390557       0.49999998       0.50000000 </v>
    <v>       0.50000000       0.72390555       0.50000000 </v>
    <v>       0.61195280       0.38804720       0.34167483 </v>
    <v>       0.61195280       0.38804720       0.65832513 </v>
    <v>       0.38804722       0.61195278       0.34167483 </v>
    <v>       0.38804722       0.61195278       0.65832513 </v>
    <v>       0.38804720       0.38804720       0.34167483 </v>
    <v>       0.38804720       0.38804720       0.65832513 </v>
    <v>       0.61195278       0.61195278       0.34167483 </v>
    <v>       0.61195278       0.61195278       0.65832513 </v>
    <v>       0.44576020       0.32826710       0.58308023 </v>
    <v>       0.67173288       0.55423978       0.58308023 </v>
    <v>       0.55791699       0.44208301       0.41809300 </v>
    <v>       0.32826705       0.44576024       0.41691983 </v>
    <v>       0.55423973       0.67173293       0.41691983 </v>
    <v>       0.55423980       0.32826710       0.58308023 </v>
    <v>       0.32826712       0.55423978       0.58308023 </v>
    <v>       0.67173295       0.44576024       0.41691983 </v>
    <v>       0.44576027       0.67173293       0.41691983 </v>
    <v>       0.44208301       0.44208301       0.41809300 </v>
    <v>       0.50000000       0.38416601       0.50000000 </v>
    <v>       0.61749315       0.50000005       0.34021317 </v>
    <v>       0.61749315       0.50000005       0.65978680 </v>
    <v>       0.38250685       0.50000005       0.34021317 </v>
    <v>       0.38250685       0.50000005       0.65978680 </v>
    <v>       0.38317830       0.38317830       0.50000000 </v>
    <v>       0.61682172       0.61682172       0.50000000 </v>
    <v>       0.61682170       0.38317830       0.50000000 </v>
    <v>       0.38317828       0.61682172       0.50000000 </v>
    <v>       0.50000000       0.50000000       0.33478917 </v>
    <v>       0.50000000       0.50000000       0.66521087 </v>
    <v>       0.32826705       0.44576024       0.58308023 </v>
    <v>       0.55423973       0.67173293       0.58308023 </v>
    <v>       0.55791699       0.44208301       0.58190703 </v>
    <v>       0.44208298       0.55791702       0.41809300 </v>
    <v>       0.44208301       0.44208301       0.58190703 </v>
    <v>       0.67173295       0.44576024       0.58308023 </v>
    <v>       0.44576027       0.67173293       0.58308023 </v>
    <v>       0.55791702       0.55791702       0.41809300 </v>
    <v>       0.38416599       0.50000002       0.50000000 </v>
    <v>       0.61583401       0.50000002       0.50000000 </v>
    <v>       0.50000000       0.61749319       0.34021317 </v>
    <v>       0.50000000       0.61749319       0.65978680 </v>
    <v>       0.50000000       0.50000000       0.50000000 </v>
    <v>       0.44208298       0.55791702       0.58190703 </v>
    <v>       0.55791702       0.55791702       0.58190703 </v>
    <v>       0.50000000       0.61583404       0.50000000 </v>
    <v>       0.48995243       0.50287380       0.74438470 </v>
    <v>       0.48840797       0.50331553       0.78195037 </v>
   </varray>
  </structure>
  <varray name="forces" >
   <v>       0.70127833       1.10766160       0.29109237 </v>
   <v>      -1.10741772      -0.70115634       0.29182412 </v>
   <v>      -0.70081303       1.10820663       0.29196323 </v>
   <v>       1.10844632      -0.70094456       0.29055719 </v>
   <v>      -0.00023559       0.40691053       1.28164781 </v>
   <v>       0.00171132       0.37995472      -1.32383903 </v>
   <v>      -0.00016366       1.51254547       0.00324834 </v>
   <v>       1.51177033       0.00010290       0.00437895 </v>
   <v>      -1.51275362       0.00006299       0.00258867 </v>
   <v>      -0.00021480      -1.51202750       0.00371936 </v>
   <v>      -0.75446605       0.75414728       1.07390786 </v>
   <v>      -0.75335679       0.75386969      -1.07313268 </v>
   <v>       0.75425244      -0.75461239       1.07354351 </v>
   <v>       0.75171869      -0.75068312      -1.07485960 </v>
   <v>       0.75405324       0.75477849       1.07363412 </v>
   <v>       0.75260979       0.75111811      -1.07439525 </v>
   <v>      -0.75463564      -0.75390797       1.07381268 </v>
   <v>      -0.75263102      -0.75363545      -1.07344656 </v>
   <v>       0.70069392       1.10558417      -0.29141140 </v>
   <v>      -1.10607233      -0.70055893      -0.29023673 </v>
   <v>       0.11320891      -0.11307126      -0.15444941 </v>
   <v>       1.10856471       0.70079947       0.29072818 </v>
   <v>      -0.70071878      -1.10844672       0.29152576 </v>
   <v>      -0.70178465       1.10710629      -0.28935837 </v>
   <v>       1.10574500      -0.70181630      -0.29119605 </v>
   <v>      -1.10768817       0.70119825       0.29212177 </v>
   <v>       0.70120609      -1.10781047       0.29077193 </v>
   <v>      -0.11291086      -0.11322186      -0.15467122 </v>
   <v>       0.00070566      -0.21772586      -0.00065038 </v>
   <v>      -0.40638039       0.00008910       1.28164264 </v>
   <v>      -0.38415657      -0.00033494      -1.32190893 </v>
   <v>       0.40750244       0.00011669       1.28144040 </v>
   <v>       0.37263003      -0.00049963      -1.32475256 </v>
   <v>       0.82084567       0.81976552      -0.01283843 </v>
   <v>      -0.81809687      -0.81927178      -0.01560472 </v>
   <v>      -0.81784591       0.81857705      -0.01636116 </v>
   <v>       0.82130612      -0.82065620      -0.01145171 </v>
   <v>      -0.00163448       0.00051468       1.18433983 </v>
   <v>      -0.19032258       0.05460978       0.76048600 </v>
   <v>       1.10649742       0.70230322      -0.29056279 </v>
   <v>      -0.70214542      -1.10714643      -0.28947413 </v>
   <v>       0.10032084      -0.09597834       0.16086232 </v>
   <v>      -0.11291608       0.11321410      -0.15469497 </v>
   <v>      -0.11568596      -0.12262855       0.14519348 </v>
   <v>      -1.10639284       0.70096814      -0.28971947 </v>
   <v>       0.70106877      -1.10539443      -0.29166121 </v>
   <v>       0.11323293       0.11309906      -0.15451297 </v>
   <v>      -0.21747907      -0.00014236      -0.00168035 </v>
   <v>       0.21781774      -0.00015760      -0.00001476 </v>
   <v>      -0.00023608      -0.40715484       1.28154660 </v>
   <v>       0.00187794      -0.37624222      -1.32503335 </v>
   <v>       0.00030073      -0.00001956       0.01089454 </v>
   <v>      -0.12169382       0.12554604       0.14222060 </v>
   <v>       0.10887564       0.10140696       0.15540195 </v>
   <v>       0.00066705       0.21763100      -0.00114797 </v>
   <v>       0.36995602      -0.10499247      -4.76217494 </v>
   <v>      -0.14801530       0.03835017       3.03014688 </v>
  </varray>
  <varray name="stress" >
   <v>      -6.73204783       0.00133773       0.02666017 </v>
   <v>       0.00133774      -6.72919211      -0.00757566 </v>
   <v>       0.02666019      -0.00757568      -6.79748137 </v>
  </varray>
  <energy>
   <i name="e_fr_energy">   -174.26706314 </i>
   <i name="e_wo_entrp">   -174.24916677 </i>
   <i name="e_0_energy">     -0.07158545 </i>
  </energy>
  <time name="totalsc">18076.6818076.99</time>
  <eigenvalues>
   <array>
    <dimension dim="1">band</dimension>
    <dimension dim="2">kpoint</dimension>
    <dimension dim="3">spin</dimension>
    <field>eigene</field>
    <field>occ</field>
    <set>
     <set comment="spin 1">
      <set comment="kpoint 1">
       <r>  -29.1174    1.0000 </r>
       <r>  -13.6629    1.0000 </r>
       <r>  -11.4230    1.0000 </r>
       <r>  -11.4219    1.0000 </r>
       <r>   -9.7097    1.0000 </r>
       <r>   -6.6254    1.0000 </r>
       <r>   -6.1084    1.0000 </r>
       <r>   -6.1083    1.0000 </r>
       <r>   -6.1021    1.0000 </r>
       <r>   -5.7951    1.0000 </r>
       <r>   -5.7951    1.0000 </r>
       <r>   -5.7915    1.0000 </r>
       <r>   -5.7249    1.0000 </r>
       <r>   -5.6730    1.0000 </r>
       <r>   -5.6644    1.0000 </r>
       <r>   -5.6644    1.0000 </r>
       <r>   -5.6641    1.0000 </r>
       <r>   -5.6029    1.0000 </r>
       <r>   -5.6014    1.0000 </r>
       <r>   -5.5863    1.0000 </r>
       <r>   -5.5777    1.0000 </r>
       <r>   -5.5775    1.0000 </r>
       <r>   -5.5758    1.0000 </r>
       <r>   -5.5444    1.0000 </r>
       <r>   -5.5435    1.0000 </r>
       <r>   -5.5343    1.0000 </r>
       <r>   -5.5298    1.0000 </r>
       <r>   -5.5027    1.0000 </r>
       <r>   -5.5021    1.0000 </r>
       <r>   -5.5018    1.0000 </r>
       <r>   -5.4972    1.0000 </r>
       <r>   -5.4953    1.0000 </r>
       <r>   -5.4952    1.0000 </r>
       <r>   -5.4942    1.0000 </r>
       <r>   -5.4912    1.0000 </r>
       <r>   -5.4587    1.0000 </r>
       <r>   -5.4573    1.0000 </r>
       <r>   -5.4556    1.0000 </r>
       <r>   -5.4553    1.0000 </r>
       <r>   -5.4476    1.0000 </r>
       <r>   -5.4466    1.0000 </r>
       <r>   -5.4465    1.0000 </r>
       <r>   -5.4464    1.0000 </r>
       <r>   -5.4215    1.0000 </r>
       <r>   -5.4182    1.0000 </r>
       <r>   -5.4137    1.0000 </r>
       <r>   -5.4112    1.0000 </r>
       <r>   -5.4081    1.0000 </r>
       <r>   -5.4080    1.0000 </r>
       <r>   -5.4062    1.0000 </r>
       <r>   -5.4041    1.0000 </r>
       <r>   -5.3888    1.0000 </r>
       <r>   -5.3865    1.0000 </r>
       <r>   -5.3864    1.0000 </r>
       <r>   -5.3714    1.0000 </r>
       <r>   -5.3178    1.0000 </r>
       <r>   -5.3168    1.0000 </r>
       <r>   -5.3115    1.0000 </r>
       <r>   -5.3086    1.0000 </r>
       <r>   -5.2957    1.0000 </r>
       <r>   -5.2952    1.0000 </r>
       <r>   -5.2952    1.0000 </r>
       <r>   -5.2853    1.0000 </r>
       <r>   -5.2853    1.0000 </r>
       <r>   -5.2821    1.0000 </r>
       <r>   -5.2747    1.0000 </r>
       <r>   -5.2690    1.0000 </r>
       <r>   -5.2051    1.0000 </r>
       <r>   -5.2045    1.0000 </r>
       <r>   -5.1980    1.0000 </r>
       <r>   -5.1940    1.0000 </r>
       <r>   -5.1602    1.0000 </r>
       <r>   -5.1588    1.0000 </r>
       <r>   -5.1587    1.0000 </r>
       <r>   -5.1557    1.0000 </r>
       <r>   -5.1529    1.0000 </r>
       <r>   -5.1477    1.0000 </r>
       <r>   -5.1472    1.0000 </r>
       <r>   -5.1448    1.0000 </r>
       <r>   -5.1263    1.0000 </r>
       <r>   -5.1069    1.0000 </r>
       <r>   -5.1037    1.0000 </r>
       <r>   -5.1028    1.0000 </r>
       <r>   -5.0969    1.0000 </r>
       <r>   -5.0884    1.0000 </r>
       <r>   -5.0873    1.0000 </r>
       <r>   -5.0814    1.0000 </r>
       <r>   -5.0588    1.0000 </r>
       <r>   -5.0569    1.0000 </r>
       <r>   -5.0418    1.0000 </r>
       <r>   -5.0374    1.0000 </r>
       <r>   -5.0369    1.0000 </r>
       <r>   -5.0349    1.0000 </r>
       <r>   -5.0300    1.0000 </r>
       <r>   -5.0299    1.0000 </r>
       <r>   -5.0269    1.0000 </r>
       <r>   -5.0268    1.0000 </r>
       <r>   -5.0057    1.0000 </r>
       <r>   -4.9972    1.0000 </r>
       <r>   -4.9970    1.0000 </r>
       <r>   -4.9852    1.0000 </r>
       <r>   -4.9843    1.0000 </r>
       <r>   -4.9842    1.0000 </r>
       <r>   -4.9790    1.0000 </r>
       <r>   -4.9786    1.0000 </r>
       <r>   -4.9696    1.0000 </r>
       <r>   -4.9602    1.0000 </r>
       <r>   -4.9585    1.0000 </r>
       <r>   -4.9585    1.0000 </r>
       <r>   -4.9546    1.0000 </r>
       <r>   -4.9492    1.0000 </r>
       <r>   -4.9473    1.0000 </r>
       <r>   -4.9465    1.0000 </r>
       <r>   -4.9366    1.0000 </r>
       <r>   -4.9339    1.0000 </r>
       <r>   -4.9335    1.0000 </r>
       <r>   -4.9199    1.0000 </r>
       <r>   -4.9086    1.0000 </r>
       <r>   -4.9051    1.0000 </r>
       <r>   -4.8961    1.0000 </r>
       <r>   -4.8961    1.0000 </r>
       <r>   -4.8958    1.0000 </r>
       <r>   -4.8878    1.0000 </r>
       <r>   -4.8864    1.0000 </r>
       <r>   -4.8806    1.0000 </r>
       <r>   -4.8806    1.0000 </r>
       <r>   -4.8437    1.0000 </r>
       <r>   -4.8430    1.0000 </r>
       <r>   -4.8340    1.0000 </r>
       <r>   -4.8284    1.0000 </r>
       <r>   -4.8216    1.0000 </r>
       <r>   -4.8195    1.0000 </r>
       <r>   -4.8105    1.0000 </r>
       <r>   -4.8105    1.0000 </r>
       <r>   -4.8090    1.0000 </r>
       <r>   -4.7897    0.9999 </r>
       <r>   -4.7868    0.9999 </r>
       <r>   -4.7740    0.9999 </r>
       <r>   -4.7704    0.9999 </r>
       <r>   -4.7678    0.9999 </r>
       <r>   -4.7659    0.9999 </r>
       <r>   -4.7383    0.9998 </r>
       <r>   -4.7163    0.9996 </r>
       <r>   -4.7163    0.9996 </r>
       <r>   -4.7150    0.9996 </r>
       <r>   -4.7117    0.9996 </r>
       <r>   -4.7107    0.9996 </r>
       <r>   -4.6972    0.9994 </r>
       <r>   -4.6953    0.9994 </r>
       <r>   -4.6857    0.9993 </r>
       <r>   -4.6737    0.9991 </r>
       <r>   -4.6611    0.9988 </r>
       <r>   -4.6606    0.9988 </r>
       <r>   -4.6549    0.9987 </r>
       <r>   -4.6547    0.9987 </r>
       <r>   -4.6523    0.9986 </r>
       <r>   -4.6510    0.9986 </r>
       <r>   -4.6510    0.9986 </r>
       <r>   -4.6408    0.9984 </r>
       <r>   -4.6343    0.9982 </r>
       <r>   -4.6320    0.9981 </r>
       <r>   -4.6305    0.9981 </r>
       <r>   -4.6290    0.9980 </r>
       <r>   -4.6290    0.9980 </r>
       <r>   -4.6239    0.9978 </r>
       <r>   -4.6239    0.9978 </r>
       <r>   -4.6215    0.9978 </r>
       <r>   -4.6194    0.9977 </r>
       <r>   -4.6083    0.9973 </r>
       <r>   -4.6064    0.9972 </r>
       <r>   -4.6011    0.9971 </r>
       <r>   -4.5996    0.9970 </r>
       <r>   -4.5870    0.9965 </r>
       <r>   -4.5756    0.9961 </r>
       <r>   -4.5756    0.9961 </r>
       <r>   -4.5727    0.9960 </r>
       <r>   -4.5718    0.9960 </r>
       <r>   -4.5651    0.9957 </r>
       <r>   -4.5643    0.9957 </r>
       <r>   -4.5643    0.9957 </r>
       <r>   -4.5514    0.9953 </r>
       <r>   -4.5364    0.9951 </r>
       <r>   -4.5318    0.9951 </r>
       <r>   -4.5317    0.9951 </r>
       <r>   -4.5304    0.9951 </r>
       <r>   -4.5294    0.9951 </r>
       <r>   -4.5293    0.9951 </r>
       <r>   -4.5292    0.9951 </r>
       <r>   -4.5269    0.9951 </r>
       <r>   -4.5268    0.9951 </r>
       <r>   -4.4895    0.9968 </r>
       <r>   -4.4861    0.9972 </r>
       <r>   -4.4860    0.9972 </r>
       <r>   -4.4820    0.9976 </r>
       <r>   -4.4818    0.9977 </r>
       <r>   -4.4692    0.9995 </r>
       <r>   -4.4594    1.0014 </r>
       <r>   -4.4594    1.0014 </r>
       <r>   -4.4554    1.0023 </r>
       <r>   -4.4469    1.0044 </r>
       <r>   -4.4462    1.0046 </r>
       <r>   -4.4399    1.0064 </r>
       <r>   -4.4353    1.0079 </r>
       <r>   -4.4351    1.0079 </r>
       <r>   -4.4278    1.0104 </r>
       <r>   -4.4268    1.0108 </r>
       <r>   -4.4268    1.0108 </r>
       <r>   -4.4247    1.0115 </r>
       <r>   -4.4247    1.0115 </r>
       <r>   -4.4174    1.0143 </r>
       <r>   -4.4034    1.0203 </r>
       <r>   -4.3911    1.0260 </r>
       <r>   -4.3867    1.0281 </r>
       <r>   -4.3866    1.0281 </r>
       <r>   -4.3859    1.0285 </r>
       <r>   -4.3807    1.0310 </r>
       <r>   -4.3791    1.0317 </r>
       <r>   -4.3790    1.0318 </r>
       <r>   -4.3768    1.0329 </r>
       <r>   -4.3584    1.0413 </r>
       <r>   -4.3580    1.0415 </r>
       <r>   -4.3379    1.0487 </r>
       <r>   -4.3271    1.0510 </r>
       <r>   -4.3262    1.0511 </r>
       <r>   -4.3200    1.0516 </r>
       <r>   -4.3168    1.0516 </r>
       <r>   -4.3156    1.0516 </r>
       <r>   -4.3146    1.0515 </r>
       <r>   -4.3145    1.0515 </r>
       <r>   -4.3107    1.0511 </r>
       <r>   -4.3071    1.0505 </r>
       <r>   -4.3071    1.0505 </r>
       <r>   -4.3022    1.0492 </r>
       <r>   -4.3008    1.0488 </r>
       <r>   -4.2998    1.0484 </r>
       <r>   -4.2988    1.0480 </r>
       <r>   -4.2987    1.0480 </r>
       <r>   -4.2982    1.0478 </r>
       <r>   -4.2948    1.0463 </r>
       <r>   -4.2948    1.0463 </r>
       <r>   -4.2823    1.0381 </r>
       <r>   -4.2780    1.0342 </r>
       <r>   -4.2717    1.0276 </r>
       <r>   -4.2716    1.0274 </r>
       <r>   -4.2642    1.0180 </r>
       <r>   -4.2615    1.0141 </r>
       <r>   -4.2615    1.0141 </r>
       <r>   -4.2610    1.0132 </r>
       <r>   -4.2559    1.0052 </r>
       <r>   -4.2503    0.9950 </r>
       <r>   -4.2410    0.9757 </r>
       <r>   -4.2347    0.9609 </r>
       <r>   -4.2345    0.9602 </r>
       <r>   -4.2340    0.9591 </r>
       <r>   -4.2273    0.9415 </r>
       <r>   -4.2273    0.9413 </r>
       <r>   -4.2272    0.9410 </r>
       <r>   -4.2243    0.9327 </r>
       <r>   -4.2210    0.9232 </r>
       <r>   -4.2210    0.9232 </r>
       <r>   -4.2153    0.9051 </r>
       <r>   -4.2139    0.9008 </r>
       <r>   -4.2139    0.9007 </r>
       <r>   -4.2137    0.9000 </r>
       <r>   -4.2109    0.8906 </r>
       <r>   -4.1990    0.8475 </r>
       <r>   -4.1960    0.8358 </r>
       <r>   -4.1958    0.8349 </r>
       <r>   -4.1956    0.8342 </r>
       <r>   -4.1927    0.8223 </r>
       <r>   -4.1916    0.8180 </r>
       <r>   -4.1868    0.7980 </r>
       <r>   -4.1712    0.7283 </r>
       <r>   -4.1706    0.7252 </r>
       <r>   -4.1695    0.7203 </r>
       <r>   -4.1599    0.6736 </r>
       <r>   -4.1599    0.6734 </r>
       <r>   -4.1538    0.6429 </r>
       <r>   -4.1464    0.6051 </r>
       <r>   -4.1463    0.6046 </r>
       <r>   -4.1458    0.6020 </r>
       <r>   -4.1320    0.5300 </r>
       <r>   -4.1091    0.4089 </r>
       <r>   -4.1073    0.4001 </r>
       <r>   -4.1072    0.3995 </r>
       <r>   -4.1025    0.3753 </r>
       <r>   -4.0928    0.3264 </r>
       <r>   -4.0879    0.3022 </r>
       <r>   -4.0633    0.1909 </r>
       <r>   -3.9433   -0.0509 </r>
       <r>   -3.8771   -0.0334 </r>
       <r>   -3.7976   -0.0024 </r>
       <r>   -3.7971   -0.0022 </r>
       <r>   -3.7967   -0.0022 </r>
       <r>   -3.4705    0.0001 </r>
       <r>   -3.4703    0.0001 </r>
       <r>   -3.4073    0.0000 </r>
       <r>   -3.0362    0.0000 </r>
       <r>   -3.0360    0.0000 </r>
       <r>   -2.9978    0.0000 </r>
       <r>   -2.9925    0.0000 </r>
       <r>   -2.9916    0.0000 </r>
       <r>   -2.9912    0.0000 </r>
       <r>   -2.9080    0.0000 </r>
       <r>   -2.8414    0.0000 </r>
       <r>   -2.5390    0.0000 </r>
       <r>   -2.5373    0.0000 </r>
       <r>   -2.4972    0.0000 </r>
       <r>   -2.2448    0.0000 </r>
       <r>   -2.1071    0.0000 </r>
       <r>   -2.1062    0.0000 </r>
       <r>   -2.0957    0.0000 </r>
       <r>   -1.9327    0.0000 </r>
       <r>   -1.9319    0.0000 </r>
       <r>   -1.8609    0.0000 </r>
       <r>   -1.8371    0.0000 </r>
       <r>   -1.8277    0.0000 </r>
       <r>   -1.7581    0.0000 </r>
       <r>   -1.7567    0.0000 </r>
       <r>   -1.7018    0.0000 </r>
       <r>   -1.6214    0.0000 </r>
       <r>   -1.5298    0.0000 </r>
       <r>   -1.4921    0.0000 </r>
       <r>   -1.4577    0.0000 </r>
       <r>   -1.4531    0.0000 </r>
       <r>   -1.1297    0.0000 </r>
       <r>   -1.1273    0.0000 </r>
       <r>   -1.0398    0.0000 </r>
       <r>   -0.9653    0.0000 </r>
       <r>   -0.9638    0.0000 </r>
       <r>   -0.9560    0.0000 </r>
       <r>   -0.9220    0.0000 </r>
       <r>   -0.9106    0.0000 </r>
       <r>   -0.9038    0.0000 </r>
       <r>   -0.8016    0.0000 </r>
       <r>   -0.7275    0.0000 </r>
      </set>
     </set>
    </set>
   </array>
  </eigenvalues>
  <separator name="orbital magnetization" >
   <v name="MAGDIPOLOUT">      0.00000000      0.00000000      0.00000000</v>
  </separator>
  <dos>
   <i name="efermi">     -4.12637744 </i>
   <total>
    <array>
     <dimension dim="1">gridpoints</dimension>
     <dimension dim="2">spin</dimension>
     <field>energy</field>
     <field>total</field>
     <field>integrated</field>
     <set>
      <set comment="spin 1">
       <r>   -31.1174     0.0000     0.0000 </r>
       <r>   -31.0094     0.0000     0.0000 </r>
       <r>   -30.9014     0.0000     0.0000 </r>
       <r>   -30.7935     0.0000     0.0000 </r>
       <r>   -30.6855     0.0000     0.0000 </r>
       <r>   -30.5775     0.0000     0.0000 </r>
       <r>   -30.4696     0.0000     0.0000 </r>
       <r>   -30.3616     0.0000     0.0000 </r>
       <r>   -30.2536     0.0000     0.0000 </r>
       <r>   -30.1457     0.0000     0.0000 </r>
       <r>   -30.0377     0.0000     0.0000 </r>
       <r>   -29.9297     0.0000     0.0000 </r>
       <r>   -29.8218     0.0003     0.0000 </r>
       <r>   -29.7138     0.0057     0.0006 </r>
       <r>   -29.6058     0.0395     0.0049 </r>
       <r>   -29.4979     0.0365     0.0089 </r>
       <r>   -29.3899    -0.4957    -0.0447 </r>
       <r>   -29.2819    -0.4050    -0.0884 </r>
       <r>   -29.1740     4.8656     0.4369 </r>
       <r>   -29.0660     9.9984     1.5164 </r>
       <r>   -28.9580     5.2335     2.0815 </r>
       <r>   -28.8501    -0.2956     2.0495 </r>
       <r>   -28.7421    -0.5357     1.9917 </r>
       <r>   -28.6341     0.0279     1.9947 </r>
       <r>   -28.5262     0.0421     1.9993 </r>
       <r>   -28.4182     0.0064     2.0000 </r>
       <r>   -28.3102     0.0004     2.0000 </r>
       <r>   -28.2023     0.0000     2.0000 </r>
       <r>   -28.0943     0.0000     2.0000 </r>
       <r>   -27.9863     0.0000     2.0000 </r>
       <r>   -27.8784     0.0000     2.0000 </r>
       <r>   -27.7704     0.0000     2.0000 </r>
       <r>   -27.6624     0.0000     2.0000 </r>
       <r>   -27.5545     0.0000     2.0000 </r>
       <r>   -27.4465     0.0000     2.0000 </r>
       <r>   -27.3385     0.0000     2.0000 </r>
       <r>   -27.2306     0.0000     2.0000 </r>
       <r>   -27.1226     0.0000     2.0000 </r>
       <r>   -27.0146     0.0000     2.0000 </r>
       <r>   -26.9067     0.0000     2.0000 </r>
       <r>   -26.7987     0.0000     2.0000 </r>
       <r>   -26.6908     0.0000     2.0000 </r>
       <r>   -26.5828     0.0000     2.0000 </r>
       <r>   -26.4748     0.0000     2.0000 </r>
       <r>   -26.3669     0.0000     2.0000 </r>
       <r>   -26.2589     0.0000     2.0000 </r>
       <r>   -26.1509     0.0000     2.0000 </r>
       <r>   -26.0430     0.0000     2.0000 </r>
       <r>   -25.9350     0.0000     2.0000 </r>
       <r>   -25.8270     0.0000     2.0000 </r>
       <r>   -25.7191     0.0000     2.0000 </r>
       <r>   -25.6111     0.0000     2.0000 </r>
       <r>   -25.5031     0.0000     2.0000 </r>
       <r>   -25.3952     0.0000     2.0000 </r>
       <r>   -25.2872     0.0000     2.0000 </r>
       <r>   -25.1792     0.0000     2.0000 </r>
       <r>   -25.0713     0.0000     2.0000 </r>
       <r>   -24.9633     0.0000     2.0000 </r>
       <r>   -24.8553     0.0000     2.0000 </r>
       <r>   -24.7474     0.0000     2.0000 </r>
       <r>   -24.6394     0.0000     2.0000 </r>
       <r>   -24.5314     0.0000     2.0000 </r>
       <r>   -24.4235     0.0000     2.0000 </r>
       <r>   -24.3155     0.0000     2.0000 </r>
       <r>   -24.2075     0.0000     2.0000 </r>
       <r>   -24.0996     0.0000     2.0000 </r>
       <r>   -23.9916     0.0000     2.0000 </r>
       <r>   -23.8836     0.0000     2.0000 </r>
       <r>   -23.7757     0.0000     2.0000 </r>
       <r>   -23.6677     0.0000     2.0000 </r>
       <r>   -23.5597     0.0000     2.0000 </r>
       <r>   -23.4518     0.0000     2.0000 </r>
       <r>   -23.3438     0.0000     2.0000 </r>
       <r>   -23.2358     0.0000     2.0000 </r>
       <r>   -23.1279     0.0000     2.0000 </r>
       <r>   -23.0199     0.0000     2.0000 </r>
       <r>   -22.9119     0.0000     2.0000 </r>
       <r>   -22.8040     0.0000     2.0000 </r>
       <r>   -22.6960     0.0000     2.0000 </r>
       <r>   -22.5880     0.0000     2.0000 </r>
       <r>   -22.4801     0.0000     2.0000 </r>
       <r>   -22.3721     0.0000     2.0000 </r>
       <r>   -22.2641     0.0000     2.0000 </r>
       <r>   -22.1562     0.0000     2.0000 </r>
       <r>   -22.0482     0.0000     2.0000 </r>
       <r>   -21.9402     0.0000     2.0000 </r>
       <r>   -21.8323     0.0000     2.0000 </r>
       <r>   -21.7243     0.0000     2.0000 </r>
       <r>   -21.6163     0.0000     2.0000 </r>
       <r>   -21.5084     0.0000     2.0000 </r>
       <r>   -21.4004     0.0000     2.0000 </r>
       <r>   -21.2924     0.0000     2.0000 </r>
       <r>   -21.1845     0.0000     2.0000 </r>
       <r>   -21.0765     0.0000     2.0000 </r>
       <r>   -20.9685     0.0000     2.0000 </r>
       <r>   -20.8606     0.0000     2.0000 </r>
       <r>   -20.7526     0.0000     2.0000 </r>
       <r>   -20.6446     0.0000     2.0000 </r>
       <r>   -20.5367     0.0000     2.0000 </r>
       <r>   -20.4287     0.0000     2.0000 </r>
       <r>   -20.3207     0.0000     2.0000 </r>
       <r>   -20.2128     0.0000     2.0000 </r>
       <r>   -20.1048     0.0000     2.0000 </r>
       <r>   -19.9968     0.0000     2.0000 </r>
       <r>   -19.8889     0.0000     2.0000 </r>
       <r>   -19.7809     0.0000     2.0000 </r>
       <r>   -19.6729     0.0000     2.0000 </r>
       <r>   -19.5650     0.0000     2.0000 </r>
       <r>   -19.4570     0.0000     2.0000 </r>
       <r>   -19.3490     0.0000     2.0000 </r>
       <r>   -19.2411     0.0000     2.0000 </r>
       <r>   -19.1331     0.0000     2.0000 </r>
       <r>   -19.0251     0.0000     2.0000 </r>
       <r>   -18.9172     0.0000     2.0000 </r>
       <r>   -18.8092     0.0000     2.0000 </r>
       <r>   -18.7012     0.0000     2.0000 </r>
       <r>   -18.5933     0.0000     2.0000 </r>
       <r>   -18.4853     0.0000     2.0000 </r>
       <r>   -18.3773     0.0000     2.0000 </r>
       <r>   -18.2694     0.0000     2.0000 </r>
       <r>   -18.1614     0.0000     2.0000 </r>
       <r>   -18.0534     0.0000     2.0000 </r>
       <r>   -17.9455     0.0000     2.0000 </r>
       <r>   -17.8375     0.0000     2.0000 </r>
       <r>   -17.7295     0.0000     2.0000 </r>
       <r>   -17.6216     0.0000     2.0000 </r>
       <r>   -17.5136     0.0000     2.0000 </r>
       <r>   -17.4056     0.0000     2.0000 </r>
       <r>   -17.2977     0.0000     2.0000 </r>
       <r>   -17.1897     0.0000     2.0000 </r>
       <r>   -17.0817     0.0000     2.0000 </r>
       <r>   -16.9738     0.0000     2.0000 </r>
       <r>   -16.8658     0.0000     2.0000 </r>
       <r>   -16.7578     0.0000     2.0000 </r>
       <r>   -16.6499     0.0000     2.0000 </r>
       <r>   -16.5419     0.0000     2.0000 </r>
       <r>   -16.4339     0.0000     2.0000 </r>
       <r>   -16.3260     0.0000     2.0000 </r>
       <r>   -16.2180     0.0000     2.0000 </r>
       <r>   -16.1100     0.0000     2.0000 </r>
       <r>   -16.0021     0.0000     2.0000 </r>
       <r>   -15.8941     0.0000     2.0000 </r>
       <r>   -15.7862     0.0000     2.0000 </r>
       <r>   -15.6782     0.0000     2.0000 </r>
       <r>   -15.5702     0.0000     2.0000 </r>
       <r>   -15.4623     0.0000     2.0000 </r>
       <r>   -15.3543     0.0000     2.0000 </r>
       <r>   -15.2463     0.0000     2.0000 </r>
       <r>   -15.1384     0.0000     2.0000 </r>
       <r>   -15.0304     0.0000     2.0000 </r>
       <r>   -14.9224     0.0000     2.0000 </r>
       <r>   -14.8145     0.0000     2.0000 </r>
       <r>   -14.7065     0.0000     2.0000 </r>
       <r>   -14.5985     0.0000     2.0000 </r>
       <r>   -14.4906     0.0000     2.0000 </r>
       <r>   -14.3826     0.0002     2.0000 </r>
       <r>   -14.2746     0.0040     2.0005 </r>
       <r>   -14.1667     0.0321     2.0039 </r>
       <r>   -14.0587     0.0541     2.0098 </r>
       <r>   -13.9507    -0.3801     1.9687 </r>
       <r>   -13.8428    -0.6428     1.8993 </r>
       <r>   -13.7348     3.8096     2.3106 </r>
       <r>   -13.6268     9.8294     3.3719 </r>
       <r>   -13.5189     6.3001     4.0521 </r>
       <r>   -13.4109     0.1123     4.0642 </r>
       <r>   -13.3029    -0.6477     3.9943 </r>
       <r>   -13.1950    -0.0063     3.9936 </r>
       <r>   -13.0870     0.0498     3.9990 </r>
       <r>   -12.9790     0.0088     3.9999 </r>
       <r>   -12.8711     0.0006     4.0000 </r>
       <r>   -12.7631     0.0000     4.0000 </r>
       <r>   -12.6551     0.0000     4.0000 </r>
       <r>   -12.5472     0.0000     4.0000 </r>
       <r>   -12.4392     0.0000     4.0000 </r>
       <r>   -12.3312     0.0000     4.0000 </r>
       <r>   -12.2233     0.0000     4.0000 </r>
       <r>   -12.1153     0.0009     4.0001 </r>
       <r>   -12.0073     0.0146     4.0017 </r>
       <r>   -11.8994     0.0907     4.0115 </r>
       <r>   -11.7914     0.0309     4.0148 </r>
       <r>   -11.6834    -1.1662     3.8889 </r>
       <r>   -11.5755    -0.2871     3.8579 </r>
       <r>   -11.4675    11.3527     5.0836 </r>
       <r>   -11.3595    19.9176     7.2340 </r>
       <r>   -11.2516     8.8507     8.1896 </r>
       <r>   -11.1436    -1.0345     8.0779 </r>
       <r>   -11.0356    -0.8950     7.9813 </r>
       <r>   -10.9277     0.0901     7.9910 </r>
       <r>   -10.8197     0.0727     7.9989 </r>
       <r>   -10.7117     0.0098     7.9999 </r>
       <r>   -10.6038     0.0006     8.0000 </r>
       <r>   -10.4958     0.0000     8.0000 </r>
       <r>   -10.3878     0.0007     8.0001 </r>
       <r>   -10.2799     0.0100     8.0012 </r>
       <r>   -10.1719     0.0526     8.0068 </r>
       <r>   -10.0639    -0.0227     8.0044 </r>
       <r>    -9.9560    -0.6857     7.9304 </r>
       <r>    -9.8480     0.2990     7.9626 </r>
       <r>    -9.7400     6.6867     8.6846 </r>
       <r>    -9.6321     9.7038     9.7322 </r>
       <r>    -9.5241     3.4301    10.1026 </r>
       <r>    -9.4161    -0.7027    10.0267 </r>
       <r>    -9.3082    -0.3387     9.9901 </r>
       <r>    -9.2002     0.0582     9.9964 </r>
       <r>    -9.0922     0.0295     9.9996 </r>
       <r>    -8.9843     0.0035    10.0000 </r>
       <r>    -8.8763     0.0002    10.0000 </r>
       <r>    -8.7683     0.0000    10.0000 </r>
       <r>    -8.6604     0.0000    10.0000 </r>
       <r>    -8.5524     0.0000    10.0000 </r>
       <r>    -8.4444     0.0000    10.0000 </r>
       <r>    -8.3365     0.0000    10.0000 </r>
       <r>    -8.2285     0.0000    10.0000 </r>
       <r>    -8.1205     0.0000    10.0000 </r>
       <r>    -8.0126     0.0000    10.0000 </r>
       <r>    -7.9046     0.0000    10.0000 </r>
       <r>    -7.7966     0.0000    10.0000 </r>
       <r>    -7.6887     0.0000    10.0000 </r>
       <r>    -7.5807     0.0000    10.0000 </r>
       <r>    -7.4727     0.0000    10.0000 </r>
       <r>    -7.3648     0.0001    10.0000 </r>
       <r>    -7.2568     0.0025    10.0003 </r>
       <r>    -7.1488     0.0237    10.0028 </r>
       <r>    -7.0409     0.0635    10.0097 </r>
       <r>    -6.9329    -0.2443     9.9833 </r>
       <r>    -6.8249    -0.7920     9.8978 </r>
       <r>    -6.7170     2.5608    10.1743 </r>
       <r>    -6.6090     9.3596    11.1848 </r>
       <r>    -6.5010     7.7464    12.0212 </r>
       <r>    -6.3931    -0.3077    11.9879 </r>
       <r>    -6.2851    -2.5059    11.7174 </r>
       <r>    -6.1771    11.9154    13.0038 </r>
       <r>    -6.0692    28.8005    16.1133 </r>
       <r>    -5.9612    16.4775    17.8923 </r>
       <r>    -5.8532     9.2266    18.8885 </r>
       <r>    -5.7453    36.0181    22.7773 </r>
       <r>    -5.6373    92.1154    32.7226 </r>
       <r>    -5.5293   206.0846    54.9728 </r>
       <r>    -5.4214   306.3515    88.0485 </r>
       <r>    -5.3134   273.0737   117.5312 </r>
       <r>    -5.2054   204.8950   139.6530 </r>
       <r>    -5.0975   247.6898   166.3951 </r>
       <r>    -4.9895   349.0665   204.0826 </r>
       <r>    -4.8816   361.0454   243.0633 </r>
       <r>    -4.7736   297.1489   275.1454 </r>
       <r>    -4.6656   329.2204   310.6901 </r>
       <r>    -4.5577   412.7420   355.2524 </r>
       <r>    -4.4497   416.4545   400.2154 </r>
       <r>    -4.3417   459.8867   449.8677 </r>
       <r>    -4.2338   559.9836   510.3271 </r>
       <r>    -4.1258   461.8576   560.1922 </r>
       <r>    -4.0178   178.5707   579.4718 </r>
       <r>    -3.9099    20.3785   581.6720 </r>
       <r>    -3.8019    25.3219   584.4059 </r>
       <r>    -3.6939    27.9266   587.4210 </r>
       <r>    -3.5860     7.8217   588.2655 </r>
       <r>    -3.4780    17.9817   590.2069 </r>
       <r>    -3.3700    27.2498   593.1490 </r>
       <r>    -3.2621     6.8787   593.8916 </r>
       <r>    -3.1541    -1.4370   593.7365 </r>
       <r>    -3.0461    35.0128   597.5167 </r>
       <r>    -2.9382    67.2280   604.7751 </r>
       <r>    -2.8302    42.2669   609.3385 </r>
       <r>    -2.7222     6.1023   609.9973 </r>
       <r>    -2.6143     6.2551   610.6726 </r>
       <r>    -2.5063    26.2617   613.5080 </r>
       <r>    -2.3983    21.3089   615.8087 </r>
       <r>    -2.2904     6.4319   616.5031 </r>
       <r>    -2.1824    16.4080   618.2746 </r>
       <r>    -2.0744    31.0104   621.6227 </r>
       <r>    -1.9665    33.5092   625.2406 </r>
       <r>    -1.8585    45.8662   630.1926 </r>
       <r>    -1.7505    54.6012   636.0877 </r>
       <r>    -1.6426    39.9372   640.3995 </r>
       <r>    -1.5346    34.7792   644.1545 </r>
       <r>    -1.4266    37.8524   648.2413 </r>
       <r>    -1.3187    16.7231   650.0468 </r>
       <r>    -1.2107     2.2475   650.2895 </r>
       <r>    -1.1027    19.9143   652.4395 </r>
       <r>    -0.9948    51.5768   658.0081 </r>
       <r>    -0.8868    67.2978   665.2740 </r>
       <r>    -0.7788    45.0390   670.1367 </r>
       <r>    -0.6709    16.0068   671.8649 </r>
       <r>    -0.5629     2.3548   672.1191 </r>
       <r>    -0.4549    -1.0239   672.0086 </r>
       <r>    -0.3470    -0.2784   671.9785 </r>
       <r>    -0.2390     0.1376   671.9934 </r>
       <r>    -0.1310     0.0542   671.9992 </r>
       <r>    -0.0231     0.0066   672.0000 </r>
       <r>     0.0849     0.0004   672.0000 </r>
       <r>     0.1929     0.0000   672.0000 </r>
       <r>     0.3008     0.0000   672.0000 </r>
       <r>     0.4088     0.0000   672.0000 </r>
       <r>     0.5168     0.0000   672.0000 </r>
       <r>     0.6247     0.0000   672.0000 </r>
       <r>     0.7327     0.0000   672.0000 </r>
       <r>     0.8407     0.0000   672.0000 </r>
       <r>     0.9486     0.0000   672.0000 </r>
       <r>     1.0566     0.0000   672.0000 </r>
       <r>     1.1646     0.0000   672.0000 </r>
       <r>     1.2725     0.0000   672.0000 </r>
      </set>
     </set>
    </array>
   </total>
  </dos>
 </calculation>
 <structure name="finalpos" >
  <crystal>
   <varray name="basis" >
    <v>      30.00000000       0.00000000       0.00000000 </v>
    <v>       0.00000000      30.00000000       0.00000000 </v>
    <v>       0.00000000       0.00000000      30.00000000 </v>
   </varray>
   <i name="volume">  27000.00000000 </i>
   <varray name="rec_basis" >
    <v>       0.03333333       0.00000000       0.00000000 </v>
    <v>       0.00000000       0.03333333       0.00000000 </v>
    <v>       0.00000000       0.00000000       0.03333333 </v>
   </varray>
  </crystal>
  <varray name="positions" >
   <v>       0.44576020       0.32826710       0.41691983 </v>
   <v>       0.67173288       0.55423978       0.41691983 </v>
   <v>       0.55423980       0.32826710       0.41691983 </v>
   <v>       0.32826712       0.55423978       0.41691983 </v>
   <v>       0.50000000       0.38250690       0.34021317 </v>
   <v>       0.50000000       0.38250690       0.65978680 </v>
   <v>       0.50000000       0.27609440       0.50000000 </v>
   <v>       0.27609443       0.49999998       0.50000000 </v>
   <v>       0.72390557       0.49999998       0.50000000 </v>
   <v>       0.50000000       0.72390555       0.50000000 </v>
   <v>       0.61195280       0.38804720       0.34167483 </v>
   <v>       0.61195280       0.38804720       0.65832513 </v>
   <v>       0.38804722       0.61195278       0.34167483 </v>
   <v>       0.38804722       0.61195278       0.65832513 </v>
   <v>       0.38804720       0.38804720       0.34167483 </v>
   <v>       0.38804720       0.38804720       0.65832513 </v>
   <v>       0.61195278       0.61195278       0.34167483 </v>
   <v>       0.61195278       0.61195278       0.65832513 </v>
   <v>       0.44576020       0.32826710       0.58308023 </v>
   <v>       0.67173288       0.55423978       0.58308023 </v>
   <v>       0.55791699       0.44208301       0.41809300 </v>
   <v>       0.32826705       0.44576024       0.41691983 </v>
   <v>       0.55423973       0.67173293       0.41691983 </v>
   <v>       0.55423980       0.32826710       0.58308023 </v>
   <v>       0.32826712       0.55423978       0.58308023 </v>
   <v>       0.67173295       0.44576024       0.41691983 </v>
   <v>       0.44576027       0.67173293       0.41691983 </v>
   <v>       0.44208301       0.44208301       0.41809300 </v>
   <v>       0.50000000       0.38416601       0.50000000 </v>
   <v>       0.61749315       0.50000005       0.34021317 </v>
   <v>       0.61749315       0.50000005       0.65978680 </v>
   <v>       0.38250685       0.50000005       0.34021317 </v>
   <v>       0.38250685       0.50000005       0.65978680 </v>
   <v>       0.38317830       0.38317830       0.50000000 </v>
   <v>       0.61682172       0.61682172       0.50000000 </v>
   <v>       0.61682170       0.38317830       0.50000000 </v>
   <v>       0.38317828       0.61682172       0.50000000 </v>
   <v>       0.50000000       0.50000000       0.33478917 </v>
   <v>       0.50000000       0.50000000       0.66521087 </v>
   <v>       0.32826705       0.44576024       0.58308023 </v>
   <v>       0.55423973       0.67173293       0.58308023 </v>
   <v>       0.55791699       0.44208301       0.58190703 </v>
   <v>       0.44208298       0.55791702       0.41809300 </v>
   <v>       0.44208301       0.44208301       0.58190703 </v>
   <v>       0.67173295       0.44576024       0.58308023 </v>
   <v>       0.44576027       0.67173293       0.58308023 </v>
   <v>       0.55791702       0.55791702       0.41809300 </v>
   <v>       0.38416599       0.50000002       0.50000000 </v>
   <v>       0.61583401       0.50000002       0.50000000 </v>
   <v>       0.50000000       0.61749319       0.34021317 </v>
   <v>       0.50000000       0.61749319       0.65978680 </v>
   <v>       0.50000000       0.50000000       0.50000000 </v>
   <v>       0.44208298       0.55791702       0.58190703 </v>
   <v>       0.55791702       0.55791702       0.58190703 </v>
   <v>       0.50000000       0.61583404       0.50000000 </v>
   <v>       0.48995243       0.50287380       0.74438470 </v>
   <v>       0.48840797       0.50331553       0.78195037 </v>
  </varray>
  <varray name="selective"  type="logical" >
   <v type="logical" >  F  F  F </v>
   <v type="logical" >  F  F  F </v>
   <v type="logical" >  F  F  F </v>
   <v type="logical" >  F  F  F </v>
   <v type="logical" >  F  F  F </v>
   <v type="logical" >  F  F  F </v>
   <v type="logical" >  F  F  F </v>
   <v type="logical" >  F  F  F </v>
   <v type="logical" >  F  F  F </v>
   <v type="logical" >  F  F  F </v>
   <v type="logical" >  F  F  F </v>
   <v type="logical" >  F  F  F </v>
   <v type="logical" >  F  F  F </v>
   <v type="logical" >  F  F  F </v>
   <v type="logical" >  F  F  F </v>
   <v type="logical" >  F  F  F </v>
   <v type="logical" >  F  F  F </v>
   <v type="logical" >  F  F  F </v>
   <v type="logical" >  F  F  F </v>
   <v type="logical" >  F  F  F </v>
   <v type="logical" >  F  F  F </v>
   <v type="logical" >  F  F  F </v>
   <v type="logical" >  F  F  F </v>
   <v type="logical" >  F  F  F </v>
   <v type="logical" >  F  F  F </v>
   <v type="logical" >  F  F  F </v>
   <v type="logical" >  F  F  F </v>
   <v type="logical" >  F  F  F </v>
   <v type="logical" >  F  F  F </v>
   <v type="logical" >  F  F  F </v>
   <v type="logical" >  F  F  F </v>
   <v type="logical" >  F  F  F </v>
   <v type="logical" >  F  F  F </v>
   <v type="logical" >  F  F  F </v>
   <v type="logical" >  F  F  F </v>
   <v type="logical" >  F  F  F </v>
   <v type="logical" >  F  F  F </v>
   <v type="logical" >  F  F  F </v>
   <v type="logical" >  F  F  F </v>
   <v type="logical" >  F  F  F </v>
   <v type="logical" >  F  F  F </v>
   <v type="logical" >  F  F  F </v>
   <v type="logical" >  F  F  F </v>
   <v type="logical" >  F  F  F </v>
   <v type="logical" >  F  F  F </v>
   <v type="logical" >  F  F  F </v>
   <v type="logical" >  F  F  F </v>
   <v type="logical" >  F  F  F </v>
   <v type="logical" >  F  F  F </v>
   <v type="logical" >  F  F  F </v>
   <v type="logical" >  F  F  F </v>
   <v type="logical" >  F  F  F </v>
   <v type="logical" >  F  F  F </v>
   <v type="logical" >  F  F  F </v>
   <v type="logical" >  F  F  F </v>
   <v type="logical" >  F  F  F </v>
   <v type="logical" >  F  F  F </v>
  </varray>
  <nose>
   <v>      -3.00000000       0.00000000       0.00010000       0.00010000 </v>
  </nose>
 </structure>
</modeling>
