<?xml version="1.0" encoding="ISO-8859-1"?>
<modeling>
 <generator>
  <i name="program" type="string">vasp </i>
  <i name="version" type="string">5.4.4.18Apr17-6-g9f103f2a35  </i>
  <i name="subversion" type="string">(build Sep 03 2018 23:53:05) complex            parallel </i>
  <i name="platform" type="string">LinuxIFC </i>
  <i name="date" type="string">2021 12 03 </i>
  <i name="time" type="string">06:29:16 </i>
 </generator>
 <incar>
  <i type="string" name="SYSTEM"> 6_Pd100_top_free_z(O)</i>
  <i type="int" name="ISTART">     0</i>
  <i type="string" name="PREC">normal   			! encut=max(enmax), ngx,y,z</i>
  <i type="string" name="ALGO"> Fast     			! Mix RMM-DIIS and Dav</i>
  <i type="logical" name="ADDGRID"> F  </i>
  <i type="int" name="ISPIN">     1</i>
  <i type="int" name="ICHARG">     2</i>
  <i type="int" name="NELM">   100</i>
  <i type="int" name="NELMIN">     6</i>
  <i type="int" name="IBRION">     2</i>
  <i name="EDIFF">      0.00010000</i>
  <i name="EDIFFG">     -0.05000000</i>
  <i type="int" name="NSW">     0</i>
  <i type="int" name="ISIF">     2</i>
  <i type="int" name="ISYM">     2</i>
  <i name="ENCUT">    400.00000000</i>
  <i type="string" name="LREAL"> Auto     			! Auto or A projection done</i>
  <i type="int" name="ISMEAR">     2</i>
  <i name="SIGMA">      0.20000000</i>
  <i type="logical" name="LWAVE"> F  </i>
  <i type="logical" name="LCHARG"> F  </i>
  <v type="int" name="KPOINT_BSE">    -1     0     0     0</v>
  <i type="int" name="MAXMEM"> 10000</i>
  <i type="int" name="NELM">   100</i>
  <i type="string" name="GGA"> RP         			! Revised PBE</i>
 </incar>
 <structure name="primitive_cell" >
  <crystal>
   <varray name="basis" >
    <v>      30.00000000       0.00000000       0.00000000 </v>
    <v>       0.00000000      30.00000000       0.00000000 </v>
    <v>       0.00000000       0.00000000      30.00000000 </v>
   </varray>
   <i name="volume">  27000.00000000 </i>
   <varray name="rec_basis" >
    <v>       0.03333333       0.00000000       0.00000000 </v>
    <v>       0.00000000       0.03333333       0.00000000 </v>
    <v>       0.00000000       0.00000000       0.03333333 </v>
   </varray>
  </crystal>
  <varray name="positions" >
   <v>       0.44576020       0.32826710       0.41691983 </v>
   <v>       0.46962357       0.30793660       0.36180763 </v>
   <v>       0.46483577       0.27766433       0.34002630 </v>
   <v>      -0.44576020       0.32826710       0.41691983 </v>
   <v>      -0.50000000       0.38250690       0.34021317 </v>
   <v>      -0.50000000       0.27609440      -0.50000000 </v>
   <v>       0.38804720       0.38804720       0.34167483 </v>
   <v>      -0.50000000       0.38416601      -0.50000000 </v>
   <v>       0.44208300       0.44208300       0.41809300 </v>
   <v>       0.38317830       0.38317830      -0.50000000 </v>
   <v>      -0.44208300       0.44208300       0.41809300 </v>
   <v>       0.44576020       0.32826710      -0.41691977 </v>
   <v>       0.32826705       0.44576024       0.41691983 </v>
   <v>      -0.38804720       0.38804720       0.34167483 </v>
   <v>      -0.38317830       0.38317830      -0.50000000 </v>
   <v>      -0.50000000      -0.50000000       0.33478917 </v>
   <v>      -0.50000000      -0.50000000      -0.50000000 </v>
   <v>      -0.44576020       0.32826710      -0.41691977 </v>
   <v>       0.38250685      -0.49999995       0.34021317 </v>
   <v>       0.44208300       0.44208300      -0.41809297 </v>
   <v>       0.38416599      -0.49999998      -0.50000000 </v>
   <v>      -0.44208300       0.44208300      -0.41809297 </v>
   <v>       0.44208298      -0.44208298       0.41809300 </v>
   <v>       0.32826705       0.44576024      -0.41691977 </v>
   <v>      -0.50000000       0.38250690      -0.34021320 </v>
   <v>       0.32826712      -0.44576022       0.41691983 </v>
   <v>      -0.38250685      -0.49999995       0.34021317 </v>
   <v>      -0.32826705       0.44576024       0.41691983 </v>
   <v>       0.27609443       0.49999998      -0.50000000 </v>
   <v>       0.38804720       0.38804720      -0.34167487 </v>
   <v>      -0.38416599      -0.49999998      -0.50000000 </v>
   <v>      -0.44208298      -0.44208298       0.41809300 </v>
   <v>       0.44208298      -0.44208298      -0.41809297 </v>
   <v>      -0.38804720       0.38804720      -0.34167487 </v>
   <v>       0.38804722      -0.38804722       0.34167483 </v>
   <v>       0.38250685      -0.49999995      -0.34021320 </v>
   <v>       0.32826712      -0.44576022      -0.41691977 </v>
   <v>      -0.32826705       0.44576024      -0.41691977 </v>
   <v>       0.50000000      -0.38250681       0.34021317 </v>
   <v>      -0.50000000      -0.38416596      -0.50000000 </v>
   <v>      -0.44208298      -0.44208298      -0.41809297 </v>
   <v>      -0.50000000      -0.50000000      -0.33478913 </v>
   <v>       0.38317828      -0.38317828      -0.50000000 </v>
   <v>      -0.32826712      -0.44576022       0.41691983 </v>
   <v>      -0.27609443       0.49999998      -0.50000000 </v>
   <v>      -0.38804722      -0.38804722       0.34167483 </v>
   <v>      -0.38250685      -0.49999995      -0.34021320 </v>
   <v>       0.44576027      -0.32826707       0.41691983 </v>
   <v>      -0.38317828      -0.38317828      -0.50000000 </v>
   <v>      -0.32826712      -0.44576022      -0.41691977 </v>
   <v>      -0.44576027      -0.32826707       0.41691983 </v>
   <v>       0.38804722      -0.38804722      -0.34167487 </v>
   <v>      -0.50000000      -0.38250681      -0.34021320 </v>
   <v>       0.44576027      -0.32826707      -0.41691977 </v>
   <v>      -0.44576027      -0.32826707      -0.41691977 </v>
   <v>      -0.50000000      -0.27609445       0.50000000 </v>
   <v>      -0.38804722      -0.38804722      -0.34167487 </v>
  </varray>
 </structure>
 <varray name="primitive_index" >
  <v type="int" >        1 </v>
  <v type="int" >       56 </v>
  <v type="int" >       57 </v>
  <v type="int" >        3 </v>
  <v type="int" >        5 </v>
  <v type="int" >        7 </v>
  <v type="int" >       15 </v>
  <v type="int" >       29 </v>
  <v type="int" >       28 </v>
  <v type="int" >       34 </v>
  <v type="int" >       21 </v>
  <v type="int" >       19 </v>
  <v type="int" >       22 </v>
  <v type="int" >       11 </v>
  <v type="int" >       36 </v>
  <v type="int" >       38 </v>
  <v type="int" >       52 </v>
  <v type="int" >       24 </v>
  <v type="int" >       32 </v>
  <v type="int" >       44 </v>
  <v type="int" >       48 </v>
  <v type="int" >       42 </v>
  <v type="int" >       43 </v>
  <v type="int" >       40 </v>
  <v type="int" >        6 </v>
  <v type="int" >        4 </v>
  <v type="int" >       30 </v>
  <v type="int" >       26 </v>
  <v type="int" >        8 </v>
  <v type="int" >       16 </v>
  <v type="int" >       49 </v>
  <v type="int" >       47 </v>
  <v type="int" >       53 </v>
  <v type="int" >       12 </v>
  <v type="int" >       13 </v>
  <v type="int" >       33 </v>
  <v type="int" >       25 </v>
  <v type="int" >       45 </v>
  <v type="int" >       50 </v>
  <v type="int" >       55 </v>
  <v type="int" >       54 </v>
  <v type="int" >       39 </v>
  <v type="int" >       37 </v>
  <v type="int" >        2 </v>
  <v type="int" >        9 </v>
  <v type="int" >       17 </v>
  <v type="int" >       31 </v>
  <v type="int" >       27 </v>
  <v type="int" >       35 </v>
  <v type="int" >       20 </v>
  <v type="int" >       23 </v>
  <v type="int" >       14 </v>
  <v type="int" >       51 </v>
  <v type="int" >       46 </v>
  <v type="int" >       41 </v>
  <v type="int" >       10 </v>
  <v type="int" >       18 </v>
 </varray>
 <kpoints>
  <generation param="Monkhorst-Pack">
   <v type="int" name="divisions">       1        1        1 </v>
   <v name="usershift">      0.00000000       0.00000000       0.00000000 </v>
   <v name="genvec1">      1.00000000       0.00000000       0.00000000 </v>
   <v name="genvec2">      0.00000000       1.00000000       0.00000000 </v>
   <v name="genvec3">      0.00000000       0.00000000       1.00000000 </v>
   <v name="shift">      0.00000000       0.00000000       0.00000000 </v>
  </generation>
  <varray name="kpointlist" >
   <v>       0.00000000       0.00000000       0.00000000 </v>
  </varray>
  <varray name="weights" >
   <v>       1.00000000 </v>
  </varray>
 </kpoints>
 <parameters>
  <separator name="general" >
   <i type="string" name="SYSTEM">6_Pd100_top_free_z(O)</i>
   <i type="logical" name="LCOMPAT"> F  </i>
  </separator>
  <separator name="electronic" >
   <i type="string" name="PREC">normal</i>
   <i name="ENMAX">    400.00000000</i>
   <i name="ENAUG">    644.87300000</i>
   <i name="EDIFF">      0.00010000</i>
   <i type="int" name="IALGO">    68</i>
   <i type="int" name="IWAVPR">    10</i>
   <i type="int" name="NBANDS">   336</i>
   <i name="NELECT">    560.00000000</i>
   <i type="int" name="TURBO">     0</i>
   <i type="int" name="IRESTART">     0</i>
   <i type="int" name="NREBOOT">     0</i>
   <i type="int" name="NMIN">     0</i>
   <i name="EREF">      0.00000000</i>
   <separator name="electronic smearing" >
    <i type="int" name="ISMEAR">     2</i>
    <i name="SIGMA">      0.20000000</i>
    <i name="KSPACING">      0.50000000</i>
    <i type="logical" name="KGAMMA"> T  </i>
   </separator>
   <separator name="electronic projectors" >
    <i type="logical" name="LREAL"> T  </i>
    <v name="ROPT">     -0.00050000     -0.00050000     -0.00050000</v>
    <i type="int" name="LMAXPAW">  -100</i>
    <i type="int" name="LMAXMIX">     2</i>
    <i type="logical" name="NLSPLINE"> F  </i>
   </separator>
   <separator name="electronic startup" >
    <i type="int" name="ISTART">     0</i>
    <i type="int" name="ICHARG">     2</i>
    <i type="int" name="INIWAV">     1</i>
   </separator>
   <separator name="electronic spin" >
    <i type="int" name="ISPIN">     1</i>
    <i type="logical" name="LNONCOLLINEAR"> F  </i>
    <v name="MAGMOM">      1.00000000      1.00000000      1.00000000      1.00000000      1.00000000      1.00000000      1.00000000      1.00000000      1.00000000      1.00000000      1.00000000      1.00000000      1.00000000      1.00000000      1.00000000      1.00000000      1.00000000      1.00000000      1.00000000      1.00000000
      1.00000000      1.00000000      1.00000000      1.00000000      1.00000000      1.00000000      1.00000000      1.00000000      1.00000000      1.00000000      1.00000000      1.00000000      1.00000000      1.00000000      1.00000000      1.00000000      1.00000000      1.00000000      1.00000000      1.00000000
      1.00000000      1.00000000      1.00000000      1.00000000      1.00000000      1.00000000      1.00000000      1.00000000      1.00000000      1.00000000      1.00000000      1.00000000      1.00000000      1.00000000      1.00000000      1.00000000      1.00000000</v>
    <i name="NUPDOWN">     -1.00000000</i>
    <i type="logical" name="LSORBIT"> F  </i>
    <v name="SAXIS">      0.00000000      0.00000000      1.00000000</v>
    <i type="logical" name="LSPIRAL"> F  </i>
    <v name="QSPIRAL">      0.00000000      0.00000000      0.00000000</v>
    <i type="logical" name="LZEROZ"> F  </i>
   </separator>
   <separator name="electronic exchange-correlation" >
    <i type="logical" name="LASPH"> F  </i>
    <i type="logical" name="LMETAGGA"> F  </i>
   </separator>
   <separator name="electronic convergence" >
    <i type="int" name="NELM">   100</i>
    <i type="int" name="NELMDL">    -5</i>
    <i type="int" name="NELMIN">     6</i>
    <i name="ENINI">    400.00000000</i>
    <separator name="electronic convergence detail" >
     <i type="logical" name="LDIAG"> T  </i>
     <i type="logical" name="LSUBROT"> F  </i>
     <i name="WEIMIN">      0.00000000</i>
     <i name="EBREAK">      0.00000007</i>
     <i name="DEPER">      0.30000000</i>
     <i type="int" name="NRMM">     4</i>
     <i name="TIME">      0.40000000</i>
    </separator>
   </separator>
   <separator name="electronic mixer" >
    <i name="AMIX">      0.40000000</i>
    <i name="BMIX">      1.00000000</i>
    <i name="AMIN">      0.10000000</i>
    <i name="AMIX_MAG">      1.60000000</i>
    <i name="BMIX_MAG">      1.00000000</i>
    <separator name="electronic mixer details" >
     <i type="int" name="IMIX">     4</i>
     <i type="logical" name="MIXFIRST"> F  </i>
     <i type="int" name="MAXMIX">   -45</i>
     <i name="WC">    100.00000000</i>
     <i type="int" name="INIMIX">     1</i>
     <i type="int" name="MIXPRE">     1</i>
     <i type="int" name="MREMOVE">     5</i>
    </separator>
   </separator>
   <separator name="electronic dipolcorrection" >
    <i type="logical" name="LDIPOL"> F  </i>
    <i type="logical" name="LMONO"> F  </i>
    <i type="int" name="IDIPOL">     0</i>
    <i name="EPSILON">      1.00000000</i>
    <v name="DIPOL">   -100.00000000   -100.00000000   -100.00000000</v>
    <i name="EFIELD">      0.00000000</i>
   </separator>
  </separator>
  <separator name="grids" >
   <i type="int" name="NGX">   150</i>
   <i type="int" name="NGY">   150</i>
   <i type="int" name="NGZ">   150</i>
   <i type="int" name="NGXF">   300</i>
   <i type="int" name="NGYF">   300</i>
   <i type="int" name="NGZF">   300</i>
   <i type="logical" name="ADDGRID"> F  </i>
  </separator>
  <separator name="ionic" >
   <i type="int" name="NSW">     0</i>
   <i type="int" name="IBRION">    -1</i>
   <i type="int" name="MDALGO">     0</i>
   <i type="int" name="ISIF">     2</i>
   <i name="PSTRESS">      0.00000000</i>
   <i name="EDIFFG">     -0.05000000</i>
   <i type="int" name="NFREE">     1</i>
   <i name="POTIM">      0.50000000</i>
   <i name="SMASS">     -3.00000000</i>
   <i name="SCALEE">      1.00000000</i>
  </separator>
  <separator name="ionic md" >
   <i name="TEBEG">      0.00010000</i>
   <i name="TEEND">      0.00010000</i>
   <i type="int" name="NBLOCK">     1</i>
   <i type="int" name="KBLOCK">     1</i>
   <i type="int" name="NPACO">   256</i>
   <i name="APACO">     16.00000000</i>
  </separator>
  <separator name="symmetry" >
   <i type="int" name="ISYM">     2</i>
   <i name="SYMPREC">      0.00001000</i>
  </separator>
  <separator name="dos" >
   <i type="int" name="LORBIT">     0</i>
   <v name="RWIGS">     -1.00000000     -1.00000000     -1.00000000</v>
   <i type="int" name="NEDOS">   301</i>
   <i name="EMIN">     10.00000000</i>
   <i name="EMAX">    -10.00000000</i>
   <i name="EFERMI">      0.00000000</i>
  </separator>
  <separator name="writing" >
   <i type="int" name="NWRITE">     2</i>
   <i type="logical" name="LWAVE"> F  </i>
   <i type="logical" name="LDOWNSAMPLE"> F  </i>
   <i type="logical" name="LCHARG"> F  </i>
   <i type="logical" name="LPARD"> F  </i>
   <i type="logical" name="LVTOT"> F  </i>
   <i type="logical" name="LVHAR"> F  </i>
   <i type="logical" name="LELF"> F  </i>
   <i type="logical" name="LOPTICS"> F  </i>
   <v name="STM">      0.00000000      0.00000000      0.00000000      0.00000000      0.00000000      0.00000000      0.00000000</v>
  </separator>
  <separator name="performance" >
   <i type="int" name="NPAR">     1</i>
   <i type="int" name="NSIM">     4</i>
   <i type="int" name="NBLK">    -1</i>
   <i type="logical" name="LPLANE"> T  </i>
   <i type="logical" name="LSCALAPACK"> T  </i>
   <i type="logical" name="LSCAAWARE"> F  </i>
   <i type="logical" name="LSCALU"> F  </i>
   <i type="logical" name="LASYNC"> F  </i>
   <i type="logical" name="LORBITALREAL"> F  </i>
  </separator>
  <separator name="miscellaneous" >
   <i type="int" name="IDIOT">     3</i>
   <i type="int" name="ISPECIAL">     0</i>
   <i type="logical" name="LMUSIC"> F  </i>
   <v name="POMASS">    106.42000000     12.01100000     16.00000000</v>
   <v name="DARWINR">      0.00000000      0.00000000      0.00000000</v>
   <v name="DARWINV">      1.00000000      1.00000000      1.00000000</v>
   <i type="logical" name="LCORR"> T  </i>
  </separator>
  <i type="logical" name="GGA_COMPAT"> T  </i>
  <i type="logical" name="LBERRY"> F  </i>
  <i type="int" name="ICORELEVEL">     0</i>
  <i type="logical" name="LDAU"> F  </i>
  <i type="int" name="I_CONSTRAINED_M">     0</i>
  <separator name="electronic exchange-correlation" >
   <i type="string" name="GGA">RP</i>
   <i type="int" name="VOSKOWN">     0</i>
   <i type="logical" name="LHFCALC"> F  </i>
   <i type="string" name="PRECFOCK"></i>
   <i type="logical" name="LSYMGRAD"> F  </i>
   <i type="logical" name="LHFONE"> F  </i>
   <i type="logical" name="LRHFCALC"> F  </i>
   <i type="logical" name="LTHOMAS"> F  </i>
   <i type="logical" name="LMODELHF"> F  </i>
   <i name="ENCUT4O">     -1.00000000</i>
   <i type="int" name="EXXOEP">     0</i>
   <i type="int" name="FOURORBIT">     0</i>
   <i name="AEXX">      0.00000000</i>
   <i name="HFALPHA">      0.00000000</i>
   <i name="MCALPHA">      0.00000000</i>
   <i name="ALDAX">      1.00000000</i>
   <i name="AGGAX">      1.00000000</i>
   <i name="ALDAC">      1.00000000</i>
   <i name="AGGAC">      1.00000000</i>
   <i type="int" name="NKREDX">     1</i>
   <i type="int" name="NKREDY">     1</i>
   <i type="int" name="NKREDZ">     1</i>
   <i type="logical" name="SHIFTRED"> F  </i>
   <i type="logical" name="ODDONLY"> F  </i>
   <i type="logical" name="EVENONLY"> F  </i>
   <i type="int" name="LMAXFOCK">     0</i>
   <i type="int" name="NMAXFOCKAE">     0</i>
   <i type="logical" name="LFOCKAEDFT"> F  </i>
   <i name="HFSCREEN">      0.00000000</i>
   <i name="HFSCREENC">      0.00000000</i>
   <i type="int" name="NBANDSGWLOW">     0</i>
  </separator>
  <separator name="vdW DFT" >
   <i type="logical" name="LUSE_VDW"> F  </i>
   <i name="Zab_VDW">     -0.84910000</i>
   <i name="PARAM1">      0.12340000</i>
   <i name="PARAM2">      1.00000000</i>
   <i name="PARAM3">      0.00000000</i>
  </separator>
  <separator name="model GW" >
   <i type="int" name="MODEL_GW">     0</i>
   <i name="MODEL_EPS0">    284.21052632</i>
   <i name="MODEL_ALPHA">      1.00000000</i>
  </separator>
  <separator name="linear response parameters" >
   <i type="logical" name="LEPSILON"> F  </i>
   <i type="logical" name="LRPA"> F  </i>
   <i type="logical" name="LNABLA"> F  </i>
   <i type="logical" name="LVEL"> F  </i>
   <i type="int" name="KINTER">     0</i>
   <i name="CSHIFT">      0.10000000</i>
   <i name="OMEGAMAX">     -1.00000000</i>
   <i name="DEG_THRESHOLD">      0.00200000</i>
   <i name="RTIME">     -0.10000000</i>
   <i name="WPLASMAI">      0.00000000</i>
   <v name="DFIELD">      0.00000000      0.00000000      0.00000000</v>
   <v name="WPLASMA">      0.00000000      0.00000000      0.00000000      0.00000000      0.00000000      0.00000000      0.00000000      0.00000000      0.00000000</v>
  </separator>
  <separator name="orbital magnetization" >
   <i type="logical" name="NUCIND"> F  </i>
   <v name="MAGPOS">      0.00000000      0.00000000      0.00000000</v>
   <i type="logical" name="LNICSALL"> T  </i>
   <i type="logical" name="ORBITALMAG"> F  </i>
   <i type="logical" name="LMAGBLOCH"> F  </i>
   <i type="logical" name="LCHIMAG"> F  </i>
   <i type="logical" name="LGAUGE"> T  </i>
   <i type="int" name="MAGATOM">     0</i>
   <v name="MAGDIPOL">      0.00000000      0.00000000      0.00000000</v>
   <v name="AVECCONST">      0.00000000      0.00000000      0.00000000</v>
  </separator>
  <separator name="response functions" >
   <i type="logical" name="LADDER"> F  </i>
   <i type="logical" name="LRPAFORCE"> F  </i>
   <i type="logical" name="LFXC"> F  </i>
   <i type="logical" name="LHARTREE"> T  </i>
   <i type="int" name="IBSE">     0</i>
   <v type="int" name="KPOINT">    -1     0     0     0</v>
   <i type="logical" name="LTCTE"> F  </i>
   <i type="logical" name="LTETE"> F  </i>
   <i type="logical" name="LTRIPLET"> F  </i>
   <i type="logical" name="LFXCEPS"> F  </i>
   <i type="logical" name="LFXHEG"> F  </i>
   <i type="int" name="NATURALO">     2</i>
   <i type="logical" name="L2ORDER"> F  </i>
   <i type="logical" name="LMP2LT"> F  </i>
   <i type="logical" name="LUSEW"> F  </i>
   <i name="ENCUTGW">     -2.00000000</i>
   <i name="ENCUTGWSOFT">     -2.00000000</i>
   <i name="ENCUTLF">     -1.00000000</i>
   <i type="int" name="LMAXMP2">    -1</i>
   <i name="SCISSOR">      0.00000000</i>
   <i type="int" name="NOMEGA">     0</i>
   <i type="int" name="NOMEGAR">     0</i>
   <i type="int" name="NBANDSGW">    -1</i>
   <i type="int" name="NBANDSO">    -1</i>
   <i type="int" name="NBANDSV">    -1</i>
   <i type="int" name="NELM">   100</i>
   <i type="int" name="NELMHF">     1</i>
   <i type="int" name="DIM">     3</i>
   <i type="int" name="ANTIRES">     0</i>
   <i name="OMEGAMAX">    -30.00000000</i>
   <i name="OMEGAMIN">    -30.00000000</i>
   <i name="OMEGATL">   -200.00000000</i>
   <i type="int" name="OMEGAGRID">   140</i>
   <i name="CSHIFT">     -0.10000000</i>
   <i type="logical" name="SELFENERGY"> F  </i>
   <i type="logical" name="LSPECTRAL"> F  </i>
   <i type="logical" name="LSPECTRALGW"> F  </i>
   <i type="logical" name="LSINGLES"> F  </i>
   <i type="logical" name="LFERMIGW"> F  </i>
   <i type="logical" name="ODDONLYGW"> F  </i>
   <i type="logical" name="EVENONLYGW"> F  </i>
   <i type="int" name="NKREDLFX">     1</i>
   <i type="int" name="NKREDLFY">     1</i>
   <i type="int" name="NKREDLFZ">     1</i>
   <i type="int" name="MAXMEM"> 10000</i>
   <i type="int" name="TELESCOPE">     0</i>
   <i type="int" name="TAUPAR">     1</i>
   <i type="int" name="OMEGAPAR">    -1</i>
   <i name="LAMBDA">      1.00000000</i>
  </separator>
  <separator name="External order field" >
   <i name="OFIELD_KAPPA">      0.00000000</i>
   <v name="OFIELD_K">      0.00000000      0.00000000      0.00000000</v>
   <i name="OFIELD_Q6_NEAR">      0.00000000</i>
   <i name="OFIELD_Q6_FAR">      0.00000000</i>
   <i name="OFIELD_A">      0.00000000</i>
  </separator>
 </parameters>
 <atominfo>
  <atoms>      57 </atoms>
  <types>       3 </types>
  <array name="atoms" >
   <dimension dim="1">ion</dimension>
   <field type="string">element</field>
   <field type="int">atomtype</field>
   <set>
    <rc><c>Pd</c><c>   1</c></rc>
    <rc><c>Pd</c><c>   1</c></rc>
    <rc><c>Pd</c><c>   1</c></rc>
    <rc><c>Pd</c><c>   1</c></rc>
    <rc><c>Pd</c><c>   1</c></rc>
    <rc><c>Pd</c><c>   1</c></rc>
    <rc><c>Pd</c><c>   1</c></rc>
    <rc><c>Pd</c><c>   1</c></rc>
    <rc><c>Pd</c><c>   1</c></rc>
    <rc><c>Pd</c><c>   1</c></rc>
    <rc><c>Pd</c><c>   1</c></rc>
    <rc><c>Pd</c><c>   1</c></rc>
    <rc><c>Pd</c><c>   1</c></rc>
    <rc><c>Pd</c><c>   1</c></rc>
    <rc><c>Pd</c><c>   1</c></rc>
    <rc><c>Pd</c><c>   1</c></rc>
    <rc><c>Pd</c><c>   1</c></rc>
    <rc><c>Pd</c><c>   1</c></rc>
    <rc><c>Pd</c><c>   1</c></rc>
    <rc><c>Pd</c><c>   1</c></rc>
    <rc><c>Pd</c><c>   1</c></rc>
    <rc><c>Pd</c><c>   1</c></rc>
    <rc><c>Pd</c><c>   1</c></rc>
    <rc><c>Pd</c><c>   1</c></rc>
    <rc><c>Pd</c><c>   1</c></rc>
    <rc><c>Pd</c><c>   1</c></rc>
    <rc><c>Pd</c><c>   1</c></rc>
    <rc><c>Pd</c><c>   1</c></rc>
    <rc><c>Pd</c><c>   1</c></rc>
    <rc><c>Pd</c><c>   1</c></rc>
    <rc><c>Pd</c><c>   1</c></rc>
    <rc><c>Pd</c><c>   1</c></rc>
    <rc><c>Pd</c><c>   1</c></rc>
    <rc><c>Pd</c><c>   1</c></rc>
    <rc><c>Pd</c><c>   1</c></rc>
    <rc><c>Pd</c><c>   1</c></rc>
    <rc><c>Pd</c><c>   1</c></rc>
    <rc><c>Pd</c><c>   1</c></rc>
    <rc><c>Pd</c><c>   1</c></rc>
    <rc><c>Pd</c><c>   1</c></rc>
    <rc><c>Pd</c><c>   1</c></rc>
    <rc><c>Pd</c><c>   1</c></rc>
    <rc><c>Pd</c><c>   1</c></rc>
    <rc><c>Pd</c><c>   1</c></rc>
    <rc><c>Pd</c><c>   1</c></rc>
    <rc><c>Pd</c><c>   1</c></rc>
    <rc><c>Pd</c><c>   1</c></rc>
    <rc><c>Pd</c><c>   1</c></rc>
    <rc><c>Pd</c><c>   1</c></rc>
    <rc><c>Pd</c><c>   1</c></rc>
    <rc><c>Pd</c><c>   1</c></rc>
    <rc><c>Pd</c><c>   1</c></rc>
    <rc><c>Pd</c><c>   1</c></rc>
    <rc><c>Pd</c><c>   1</c></rc>
    <rc><c>Pd</c><c>   1</c></rc>
    <rc><c>C </c><c>   2</c></rc>
    <rc><c>O </c><c>   3</c></rc>
   </set>
  </array>
  <array name="atomtypes" >
   <dimension dim="1">type</dimension>
   <field type="int">atomspertype</field>
   <field type="string">element</field>
   <field>mass</field>
   <field>valence</field>
   <field type="string">pseudopotential</field>
   <set>
    <rc><c>  55</c><c>Pd</c><c>    106.42000000</c><c>     10.00000000</c><c>  PAW_PBE Pd 04Jan2005                  </c></rc>
    <rc><c>   1</c><c>C </c><c>     12.01100000</c><c>      4.00000000</c><c>  PAW_PBE C 08Apr2002                   </c></rc>
    <rc><c>   1</c><c>O </c><c>     16.00000000</c><c>      6.00000000</c><c>  PAW_PBE O 08Apr2002                   </c></rc>
   </set>
  </array>
 </atominfo>
 <structure name="initialpos" >
  <crystal>
   <varray name="basis" >
    <v>      30.00000000       0.00000000       0.00000000 </v>
    <v>       0.00000000      30.00000000       0.00000000 </v>
    <v>       0.00000000       0.00000000      30.00000000 </v>
   </varray>
   <i name="volume">  27000.00000000 </i>
   <varray name="rec_basis" >
    <v>       0.03333333       0.00000000       0.00000000 </v>
    <v>       0.00000000       0.03333333       0.00000000 </v>
    <v>       0.00000000       0.00000000       0.03333333 </v>
   </varray>
  </crystal>
  <varray name="positions" >
   <v>       0.44576020       0.32826710       0.41691983 </v>
   <v>       0.67173288       0.55423978       0.41691983 </v>
   <v>       0.55423980       0.32826710       0.41691983 </v>
   <v>       0.32826712       0.55423978       0.41691983 </v>
   <v>       0.50000000       0.38250690       0.34021317 </v>
   <v>       0.50000000       0.38250690       0.65978680 </v>
   <v>       0.50000000       0.27609440       0.50000000 </v>
   <v>       0.27609443       0.49999998       0.50000000 </v>
   <v>       0.72390557       0.49999998       0.50000000 </v>
   <v>       0.50000000       0.72390555       0.50000000 </v>
   <v>       0.61195280       0.38804720       0.34167483 </v>
   <v>       0.61195280       0.38804720       0.65832513 </v>
   <v>       0.38804722       0.61195278       0.34167483 </v>
   <v>       0.38804722       0.61195278       0.65832513 </v>
   <v>       0.38804720       0.38804720       0.34167483 </v>
   <v>       0.38804720       0.38804720       0.65832513 </v>
   <v>       0.61195278       0.61195278       0.34167483 </v>
   <v>       0.61195278       0.61195278       0.65832513 </v>
   <v>       0.44576020       0.32826710       0.58308023 </v>
   <v>       0.67173288       0.55423978       0.58308023 </v>
   <v>       0.55791699       0.44208301       0.41809300 </v>
   <v>       0.32826705       0.44576024       0.41691983 </v>
   <v>       0.55423973       0.67173293       0.41691983 </v>
   <v>       0.55423980       0.32826710       0.58308023 </v>
   <v>       0.32826712       0.55423978       0.58308023 </v>
   <v>       0.67173295       0.44576024       0.41691983 </v>
   <v>       0.44576027       0.67173293       0.41691983 </v>
   <v>       0.44208301       0.44208301       0.41809300 </v>
   <v>       0.50000000       0.38416601       0.50000000 </v>
   <v>       0.61749315       0.50000005       0.34021317 </v>
   <v>       0.61749315       0.50000005       0.65978680 </v>
   <v>       0.38250685       0.50000005       0.34021317 </v>
   <v>       0.38250685       0.50000005       0.65978680 </v>
   <v>       0.38317830       0.38317830       0.50000000 </v>
   <v>       0.61682172       0.61682172       0.50000000 </v>
   <v>       0.61682170       0.38317830       0.50000000 </v>
   <v>       0.38317828       0.61682172       0.50000000 </v>
   <v>       0.50000000       0.50000000       0.33478917 </v>
   <v>       0.50000000       0.50000000       0.66521087 </v>
   <v>       0.32826705       0.44576024       0.58308023 </v>
   <v>       0.55423973       0.67173293       0.58308023 </v>
   <v>       0.55791699       0.44208301       0.58190703 </v>
   <v>       0.44208298       0.55791702       0.41809300 </v>
   <v>       0.44208301       0.44208301       0.58190703 </v>
   <v>       0.67173295       0.44576024       0.58308023 </v>
   <v>       0.44576027       0.67173293       0.58308023 </v>
   <v>       0.55791702       0.55791702       0.41809300 </v>
   <v>       0.38416599       0.50000002       0.50000000 </v>
   <v>       0.61583401       0.50000002       0.50000000 </v>
   <v>       0.50000000       0.61749319       0.34021317 </v>
   <v>       0.50000000       0.61749319       0.65978680 </v>
   <v>       0.50000000       0.50000000       0.50000000 </v>
   <v>       0.44208298       0.55791702       0.58190703 </v>
   <v>       0.55791702       0.55791702       0.58190703 </v>
   <v>       0.50000000       0.61583404       0.50000000 </v>
   <v>       0.46962357       0.30793660       0.36180763 </v>
   <v>       0.46483577       0.27766433       0.34002630 </v>
  </varray>
  <varray name="selective"  type="logical" >
   <v type="logical" >  F  F  F </v>
   <v type="logical" >  F  F  F </v>
   <v type="logical" >  F  F  F </v>
   <v type="logical" >  F  F  F </v>
   <v type="logical" >  F  F  F </v>
   <v type="logical" >  F  F  F </v>
   <v type="logical" >  F  F  F </v>
   <v type="logical" >  F  F  F </v>
   <v type="logical" >  F  F  F </v>
   <v type="logical" >  F  F  F </v>
   <v type="logical" >  F  F  F </v>
   <v type="logical" >  F  F  F </v>
   <v type="logical" >  F  F  F </v>
   <v type="logical" >  F  F  F </v>
   <v type="logical" >  F  F  F </v>
   <v type="logical" >  F  F  F </v>
   <v type="logical" >  F  F  F </v>
   <v type="logical" >  F  F  F </v>
   <v type="logical" >  F  F  F </v>
   <v type="logical" >  F  F  F </v>
   <v type="logical" >  F  F  F </v>
   <v type="logical" >  F  F  F </v>
   <v type="logical" >  F  F  F </v>
   <v type="logical" >  F  F  F </v>
   <v type="logical" >  F  F  F </v>
   <v type="logical" >  F  F  F </v>
   <v type="logical" >  F  F  F </v>
   <v type="logical" >  F  F  F </v>
   <v type="logical" >  F  F  F </v>
   <v type="logical" >  F  F  F </v>
   <v type="logical" >  F  F  F </v>
   <v type="logical" >  F  F  F </v>
   <v type="logical" >  F  F  F </v>
   <v type="logical" >  F  F  F </v>
   <v type="logical" >  F  F  F </v>
   <v type="logical" >  F  F  F </v>
   <v type="logical" >  F  F  F </v>
   <v type="logical" >  F  F  F </v>
   <v type="logical" >  F  F  F </v>
   <v type="logical" >  F  F  F </v>
   <v type="logical" >  F  F  F </v>
   <v type="logical" >  F  F  F </v>
   <v type="logical" >  F  F  F </v>
   <v type="logical" >  F  F  F </v>
   <v type="logical" >  F  F  F </v>
   <v type="logical" >  F  F  F </v>
   <v type="logical" >  F  F  F </v>
   <v type="logical" >  F  F  F </v>
   <v type="logical" >  F  F  F </v>
   <v type="logical" >  F  F  F </v>
   <v type="logical" >  F  F  F </v>
   <v type="logical" >  F  F  F </v>
   <v type="logical" >  F  F  F </v>
   <v type="logical" >  F  F  F </v>
   <v type="logical" >  F  F  F </v>
   <v type="logical" >  F  F  F </v>
   <v type="logical" >  F  F  F </v>
  </varray>
  <nose>
   <v>      -3.00000000       0.00000000       0.00010000       0.00010000 </v>
  </nose>
 </structure>
 <calculation>
  <scstep>
   <time name="dav">  369.23  369.30</time>
   <time name="total">  383.75  383.82</time>
   <energy>
    <i name="alphaZ">     75.25431677 </i>
    <i name="ewald"> 138634.40134976 </i>
    <i name="hartreedc">-181991.80116262 </i>
    <i name="XCdc">  -1702.56536955 </i>
    <i name="pawpsdc">  44873.02882129 </i>
    <i name="pawaedc"> -41398.84523641 </i>
    <i name="eentropy">      0.03708999 </i>
    <i name="bandstr">    816.13978081 </i>
    <i name="atom">  45086.50549395 </i>
    <i name="e_fr_energy">   4392.15508398 </i>
    <i name="e_wo_entrp">   4392.11799399 </i>
    <i name="e_0_energy">   4392.14581149 </i>
   </energy>
  </scstep>
  <scstep>
   <time name="dav">  580.82  580.83</time>
   <time name="total">  580.82  580.83</time>
   <energy>
    <i name="e_fr_energy">   2024.30278615 </i>
    <i name="e_wo_entrp">   2024.33772885 </i>
    <i name="e_0_energy">   2024.31152183 </i>
   </energy>
  </scstep>
  <scstep>
   <time name="dav">  499.26  499.26</time>
   <time name="total">  499.26  499.26</time>
   <energy>
    <i name="e_fr_energy">    241.50516563 </i>
    <i name="e_wo_entrp">    241.53311793 </i>
    <i name="e_0_energy">    241.51215371 </i>
   </energy>
  </scstep>
  <scstep>
   <time name="dav">  426.45  426.45</time>
   <time name="total">  426.45  426.45</time>
   <energy>
    <i name="e_fr_energy">   -134.22012043 </i>
    <i name="e_wo_entrp">   -134.14668156 </i>
    <i name="e_0_energy">   -134.20176072 </i>
   </energy>
  </scstep>
  <scstep>
   <time name="dav">  519.31  519.31</time>
   <time name="total">  545.59  545.60</time>
   <energy>
    <i name="e_fr_energy">   -180.37172637 </i>
    <i name="e_wo_entrp">   -180.80972756 </i>
    <i name="e_0_energy">   -180.48122667 </i>
   </energy>
  </scstep>
  <scstep>
   <time name="diag">   68.63   68.64</time>
   <time name="diis">  192.46  192.47</time>
   <time name="orth">   13.80   13.80</time>
   <time name="total">  314.43  314.44</time>
   <energy>
    <i name="e_fr_energy">   -179.67478749 </i>
    <i name="e_wo_entrp">   -179.54498019 </i>
    <i name="e_0_energy">   -179.64233566 </i>
   </energy>
  </scstep>
  <scstep>
   <time name="diag">   68.01   68.01</time>
   <time name="diis">  224.98  224.98</time>
   <time name="orth">   13.45   13.45</time>
   <time name="total">  345.70  345.71</time>
   <energy>
    <i name="e_fr_energy">   -182.06382535 </i>
    <i name="e_wo_entrp">   -181.90750040 </i>
    <i name="e_0_energy">   -182.02474411 </i>
   </energy>
  </scstep>
  <scstep>
   <time name="diag">   69.50   69.50</time>
   <time name="diis">  198.51  198.52</time>
   <time name="orth">   13.69   13.69</time>
   <time name="total">  321.07  321.08</time>
   <energy>
    <i name="e_fr_energy">   -184.67810220 </i>
    <i name="e_wo_entrp">   -184.54324544 </i>
    <i name="e_0_energy">   -184.64438801 </i>
   </energy>
  </scstep>
  <scstep>
   <time name="diag">   68.80   68.81</time>
   <time name="diis">  194.36  194.36</time>
   <time name="orth">   13.54   13.54</time>
   <time name="total">  316.04  316.04</time>
   <energy>
    <i name="e_fr_energy">   -181.63568866 </i>
    <i name="e_wo_entrp">   -181.52692075 </i>
    <i name="e_0_energy">   -181.60849669 </i>
   </energy>
  </scstep>
  <scstep>
   <time name="diag">   69.02   69.03</time>
   <time name="diis">  191.12  191.13</time>
   <time name="orth">   13.26   13.26</time>
   <time name="total">  312.56  312.57</time>
   <energy>
    <i name="e_fr_energy">   -179.53763017 </i>
    <i name="e_wo_entrp">   -179.39639184 </i>
    <i name="e_0_energy">   -179.50232059 </i>
   </energy>
  </scstep>
  <scstep>
   <time name="diag">   68.84   68.84</time>
   <time name="diis">  190.05  190.05</time>
   <time name="orth">   13.39   13.39</time>
   <time name="total">  311.88  311.89</time>
   <energy>
    <i name="e_fr_energy">   -178.35426458 </i>
    <i name="e_wo_entrp">   -178.22090572 </i>
    <i name="e_0_energy">   -178.32092486 </i>
   </energy>
  </scstep>
  <scstep>
   <time name="diag">   67.70   67.70</time>
   <time name="diis">  181.02  181.02</time>
   <time name="orth">   13.00   13.01</time>
   <time name="total">  301.05  301.05</time>
   <energy>
    <i name="e_fr_energy">   -178.02016406 </i>
    <i name="e_wo_entrp">   -177.89638741 </i>
    <i name="e_0_energy">   -177.98921990 </i>
   </energy>
  </scstep>
  <scstep>
   <time name="diag">   66.69   66.69</time>
   <time name="diis">  179.97  179.97</time>
   <time name="orth">   13.07   13.07</time>
   <time name="total">  298.32  298.32</time>
   <energy>
    <i name="e_fr_energy">   -177.59255133 </i>
    <i name="e_wo_entrp">   -177.58140021 </i>
    <i name="e_0_energy">   -177.58976355 </i>
   </energy>
  </scstep>
  <scstep>
   <time name="diag">   66.85   66.85</time>
   <time name="diis">  177.93  177.93</time>
   <time name="orth">   13.17   13.17</time>
   <time name="total">  296.19  296.20</time>
   <energy>
    <i name="e_fr_energy">   -177.02331151 </i>
    <i name="e_wo_entrp">   -176.96031768 </i>
    <i name="e_0_energy">   -177.00756305 </i>
   </energy>
  </scstep>
  <scstep>
   <time name="diag">   67.57   67.57</time>
   <time name="diis">  177.98  177.98</time>
   <time name="orth">   13.04   13.04</time>
   <time name="total">  297.69  297.69</time>
   <energy>
    <i name="e_fr_energy">   -176.63457157 </i>
    <i name="e_wo_entrp">   -176.59027773 </i>
    <i name="e_0_energy">   -176.62349811 </i>
   </energy>
  </scstep>
  <scstep>
   <time name="diag">   66.65   66.66</time>
   <time name="diis">  178.84  178.84</time>
   <time name="orth">   13.04   13.04</time>
   <time name="total">  296.75  296.75</time>
   <energy>
    <i name="e_fr_energy">   -176.79319363 </i>
    <i name="e_wo_entrp">   -176.85904864 </i>
    <i name="e_0_energy">   -176.80965738 </i>
   </energy>
  </scstep>
  <scstep>
   <time name="diag">   66.78   66.78</time>
   <time name="diis">  177.33  177.34</time>
   <time name="orth">   13.22   13.22</time>
   <time name="total">  295.99  296.00</time>
   <energy>
    <i name="e_fr_energy">   -176.13583334 </i>
    <i name="e_wo_entrp">   -176.09292467 </i>
    <i name="e_0_energy">   -176.12510617 </i>
   </energy>
  </scstep>
  <scstep>
   <time name="diag">   66.96   66.96</time>
   <time name="diis">  176.43  176.43</time>
   <time name="orth">   12.99   12.99</time>
   <time name="total">  295.05  295.06</time>
   <energy>
    <i name="e_fr_energy">   -176.01094577 </i>
    <i name="e_wo_entrp">   -175.97505511 </i>
    <i name="e_0_energy">   -176.00197311 </i>
   </energy>
  </scstep>
  <scstep>
   <time name="diag">   66.24   66.24</time>
   <time name="diis">  174.19  174.20</time>
   <time name="orth">   12.80   12.80</time>
   <time name="total">  291.40  291.41</time>
   <energy>
    <i name="e_fr_energy">   -175.99347398 </i>
    <i name="e_wo_entrp">   -175.94256179 </i>
    <i name="e_0_energy">   -175.98074593 </i>
   </energy>
  </scstep>
  <scstep>
   <time name="diag">   65.41   65.41</time>
   <time name="diis">  174.03  174.03</time>
   <time name="orth">   12.78   12.78</time>
   <time name="total">  290.03  290.04</time>
   <energy>
    <i name="e_fr_energy">   -176.08936067 </i>
    <i name="e_wo_entrp">   -176.10547001 </i>
    <i name="e_0_energy">   -176.09338800 </i>
   </energy>
  </scstep>
  <scstep>
   <time name="diag">   65.06   65.06</time>
   <time name="diis">  173.00  173.01</time>
   <time name="orth">   12.80   12.80</time>
   <time name="total">  288.49  288.50</time>
   <energy>
    <i name="e_fr_energy">   -175.64500235 </i>
    <i name="e_wo_entrp">   -175.54889196 </i>
    <i name="e_0_energy">   -175.62097476 </i>
   </energy>
  </scstep>
  <scstep>
   <time name="diag">   65.04   65.04</time>
   <time name="diis">  167.21  167.21</time>
   <time name="orth">   12.57   12.57</time>
   <time name="total">  282.06  282.08</time>
   <energy>
    <i name="e_fr_energy">   -175.48829172 </i>
    <i name="e_wo_entrp">   -175.38201517 </i>
    <i name="e_0_energy">   -175.46172259 </i>
   </energy>
  </scstep>
  <scstep>
   <time name="diag">   63.85   63.85</time>
   <time name="diis">  166.18  166.19</time>
   <time name="orth">   12.61   12.61</time>
   <time name="total">  279.52  279.53</time>
   <energy>
    <i name="e_fr_energy">   -175.43129032 </i>
    <i name="e_wo_entrp">   -175.32077538 </i>
    <i name="e_0_energy">   -175.40366158 </i>
   </energy>
  </scstep>
  <scstep>
   <time name="diag">   63.97   63.97</time>
   <time name="diis">  165.24  165.25</time>
   <time name="orth">   12.59   12.59</time>
   <time name="total">  278.79  278.81</time>
   <energy>
    <i name="e_fr_energy">   -175.41634710 </i>
    <i name="e_wo_entrp">   -175.34122587 </i>
    <i name="e_0_energy">   -175.39756679 </i>
   </energy>
  </scstep>
  <scstep>
   <time name="diag">   63.80   63.81</time>
   <time name="diis">  165.29  165.29</time>
   <time name="orth">   12.74   12.74</time>
   <time name="total">  278.72  278.73</time>
   <energy>
    <i name="e_fr_energy">   -175.38013810 </i>
    <i name="e_wo_entrp">   -175.30677080 </i>
    <i name="e_0_energy">   -175.36179628 </i>
   </energy>
  </scstep>
  <scstep>
   <time name="diag">   63.84   63.84</time>
   <time name="diis">  164.87  164.87</time>
   <time name="orth">   12.71   12.71</time>
   <time name="total">  278.51  278.51</time>
   <energy>
    <i name="e_fr_energy">   -175.27341300 </i>
    <i name="e_wo_entrp">   -175.20047427 </i>
    <i name="e_0_energy">   -175.25517832 </i>
   </energy>
  </scstep>
  <scstep>
   <time name="diag">   63.77   63.77</time>
   <time name="diis">  165.08  165.08</time>
   <time name="orth">   12.58   12.58</time>
   <time name="total">  278.33  278.34</time>
   <energy>
    <i name="e_fr_energy">   -175.24783528 </i>
    <i name="e_wo_entrp">   -175.13531839 </i>
    <i name="e_0_energy">   -175.21970606 </i>
   </energy>
  </scstep>
  <scstep>
   <time name="diag">   63.81   63.81</time>
   <time name="diis">  166.74  166.74</time>
   <time name="orth">   12.67   12.67</time>
   <time name="total">  280.18  280.18</time>
   <energy>
    <i name="e_fr_energy">   -175.23853514 </i>
    <i name="e_wo_entrp">   -175.12232552 </i>
    <i name="e_0_energy">   -175.20948273 </i>
   </energy>
  </scstep>
  <scstep>
   <time name="diag">   63.67   63.67</time>
   <time name="diis">  165.56  165.55</time>
   <time name="orth">   12.54   12.54</time>
   <time name="total">  278.77  278.77</time>
   <energy>
    <i name="e_fr_energy">   -175.20406446 </i>
    <i name="e_wo_entrp">   -175.08437909 </i>
    <i name="e_0_energy">   -175.17414312 </i>
   </energy>
  </scstep>
  <scstep>
   <time name="diag">   63.86   63.86</time>
   <time name="diis">  165.08  165.08</time>
   <time name="orth">   12.66   12.66</time>
   <time name="total">  278.90  278.90</time>
   <energy>
    <i name="e_fr_energy">   -175.18911427 </i>
    <i name="e_wo_entrp">   -175.06651119 </i>
    <i name="e_0_energy">   -175.15846350 </i>
   </energy>
  </scstep>
  <scstep>
   <time name="diag">   63.78   63.78</time>
   <time name="diis">  164.85  164.86</time>
   <time name="orth">   12.65   12.65</time>
   <time name="total">  278.69  278.69</time>
   <energy>
    <i name="e_fr_energy">   -175.18605604 </i>
    <i name="e_wo_entrp">   -175.05773667 </i>
    <i name="e_0_energy">   -175.15397620 </i>
   </energy>
  </scstep>
  <scstep>
   <time name="diag">   63.75   63.75</time>
   <time name="diis">  164.91  164.92</time>
   <time name="orth">   12.61   12.61</time>
   <time name="total">  278.48  278.49</time>
   <energy>
    <i name="e_fr_energy">   -175.18179261 </i>
    <i name="e_wo_entrp">   -175.06328185 </i>
    <i name="e_0_energy">   -175.15216492 </i>
   </energy>
  </scstep>
  <scstep>
   <time name="diag">   63.70   63.70</time>
   <time name="diis">  165.36  165.36</time>
   <time name="orth">   12.58   12.58</time>
   <time name="total">  278.76  278.77</time>
   <energy>
    <i name="e_fr_energy">   -175.17700425 </i>
    <i name="e_wo_entrp">   -175.05717524 </i>
    <i name="e_0_energy">   -175.14704700 </i>
   </energy>
  </scstep>
  <scstep>
   <time name="diag">   63.84   63.84</time>
   <time name="diis">  164.10  164.10</time>
   <time name="orth">   12.65   12.65</time>
   <time name="total">  278.08  278.09</time>
   <energy>
    <i name="e_fr_energy">   -175.17883022 </i>
    <i name="e_wo_entrp">   -175.06157477 </i>
    <i name="e_0_energy">   -175.14951636 </i>
   </energy>
  </scstep>
  <scstep>
   <time name="diag">   63.73   63.73</time>
   <time name="diis">  164.07  164.07</time>
   <time name="orth">   12.56   12.56</time>
   <time name="total">  278.01  278.01</time>
   <energy>
    <i name="e_fr_energy">   -175.17748356 </i>
    <i name="e_wo_entrp">   -175.05829381 </i>
    <i name="e_0_energy">   -175.14768612 </i>
   </energy>
  </scstep>
  <scstep>
   <time name="diag">   63.64   63.64</time>
   <time name="diis">  164.01  164.02</time>
   <time name="orth">   12.54   12.54</time>
   <time name="total">  277.44  277.44</time>
   <energy>
    <i name="e_fr_energy">   -175.17803623 </i>
    <i name="e_wo_entrp">   -175.06180899 </i>
    <i name="e_0_energy">   -175.14897942 </i>
   </energy>
  </scstep>
  <scstep>
   <time name="diag">   63.58   63.59</time>
   <time name="diis">  162.94  162.95</time>
   <time name="orth">   12.62   12.62</time>
   <time name="total">  276.96  276.98</time>
   <energy>
    <i name="e_fr_energy">   -175.17980308 </i>
    <i name="e_wo_entrp">   -175.06225499 </i>
    <i name="e_0_energy">   -175.15041606 </i>
   </energy>
  </scstep>
  <scstep>
   <time name="diag">   63.47   63.47</time>
   <time name="diis">  162.54  162.55</time>
   <time name="orth">   12.55   12.55</time>
   <time name="total">  276.56  276.57</time>
   <energy>
    <i name="e_fr_energy">   -175.18048785 </i>
    <i name="e_wo_entrp">   -175.06402891 </i>
    <i name="e_0_energy">   -175.15137311 </i>
   </energy>
  </scstep>
  <scstep>
   <time name="diag">   63.23   63.23</time>
   <time name="diis">  151.83  151.83</time>
   <time name="orth">   12.32   12.32</time>
   <time name="total">  265.15  265.16</time>
   <energy>
    <i name="e_fr_energy">   -175.18249434 </i>
    <i name="e_wo_entrp">   -175.06333313 </i>
    <i name="e_0_energy">   -175.15270404 </i>
   </energy>
  </scstep>
  <scstep>
   <time name="diag">   63.04   63.04</time>
   <time name="diis">  132.00  132.01</time>
   <time name="orth">   12.62   12.62</time>
   <time name="total">  245.48  245.49</time>
   <energy>
    <i name="e_fr_energy">   -175.18432312 </i>
    <i name="e_wo_entrp">   -175.06366259 </i>
    <i name="e_0_energy">   -175.15415799 </i>
   </energy>
  </scstep>
  <scstep>
   <time name="diag">   63.38   63.38</time>
   <time name="diis">  107.30  107.30</time>
   <time name="orth">   12.16   12.16</time>
   <time name="total">  219.71  219.72</time>
   <energy>
    <i name="e_fr_energy">   -175.18613568 </i>
    <i name="e_wo_entrp">   -175.06646984 </i>
    <i name="e_0_energy">   -175.15621922 </i>
   </energy>
  </scstep>
  <scstep>
   <time name="diag">   61.22   61.22</time>
   <time name="diis">  107.20  107.20</time>
   <time name="orth">   12.12   12.12</time>
   <time name="total">  216.93  216.94</time>
   <energy>
    <i name="e_fr_energy">   -175.18821645 </i>
    <i name="e_wo_entrp">   -175.06895138 </i>
    <i name="e_0_energy">   -175.15840018 </i>
   </energy>
  </scstep>
  <scstep>
   <time name="diag">   61.48   61.49</time>
   <time name="diis">  131.50  131.51</time>
   <time name="orth">   11.98   11.98</time>
   <time name="total">  241.56  241.56</time>
   <energy>
    <i name="e_fr_energy">   -175.19162331 </i>
    <i name="e_wo_entrp">   -175.07259940 </i>
    <i name="e_0_energy">   -175.16186733 </i>
   </energy>
  </scstep>
  <scstep>
   <time name="diag">   61.16   61.17</time>
   <time name="diis">  129.60  129.60</time>
   <time name="orth">   12.07   12.07</time>
   <time name="total">  239.51  239.52</time>
   <energy>
    <i name="e_fr_energy">   -175.19439477 </i>
    <i name="e_wo_entrp">   -175.07483424 </i>
    <i name="e_0_energy">   -175.16450464 </i>
   </energy>
  </scstep>
  <scstep>
   <time name="diag">   61.31   61.31</time>
   <time name="diis">  104.95  104.95</time>
   <time name="orth">   12.09   12.09</time>
   <time name="total">  216.22  216.23</time>
   <energy>
    <i name="e_fr_energy">   -175.19574322 </i>
    <i name="e_wo_entrp">   -175.07600337 </i>
    <i name="e_0_energy">   -175.16580826 </i>
   </energy>
  </scstep>
  <scstep>
   <time name="diag">   63.47   63.48</time>
   <time name="diis">  118.70  118.71</time>
   <time name="orth">   12.46   12.46</time>
   <time name="total">  233.72  233.75</time>
   <energy>
    <i name="e_fr_energy">   -175.19827729 </i>
    <i name="e_wo_entrp">   -175.07858498 </i>
    <i name="e_0_energy">   -175.16835421 </i>
   </energy>
  </scstep>
  <scstep>
   <time name="diag">   61.88   61.89</time>
   <time name="diis">  105.59  105.60</time>
   <time name="orth">   12.47   12.48</time>
   <time name="total">  218.35  218.38</time>
   <energy>
    <i name="e_fr_energy">   -175.19900229 </i>
    <i name="e_wo_entrp">   -175.07934143 </i>
    <i name="e_0_energy">   -175.16908708 </i>
   </energy>
  </scstep>
  <scstep>
   <time name="diag">   62.08   62.08</time>
   <time name="diis">  106.62  106.63</time>
   <time name="orth">   12.45   12.45</time>
   <time name="total">  219.15  219.17</time>
   <energy>
    <i name="e_fr_energy">   -175.20041902 </i>
    <i name="e_wo_entrp">   -175.08081923 </i>
    <i name="e_0_energy">   -175.17051907 </i>
   </energy>
  </scstep>
  <scstep>
   <time name="diag">   61.95   61.95</time>
   <time name="diis">  104.70  104.71</time>
   <time name="orth">   12.45   12.45</time>
   <time name="total">  217.41  217.43</time>
   <energy>
    <i name="e_fr_energy">   -175.20088309 </i>
    <i name="e_wo_entrp">   -175.08149739 </i>
    <i name="e_0_energy">   -175.17103666 </i>
   </energy>
  </scstep>
  <scstep>
   <time name="diag">   62.39   62.40</time>
   <time name="diis">  103.35  103.37</time>
   <time name="orth">   12.29   12.29</time>
   <time name="total">  216.57  216.60</time>
   <energy>
    <i name="e_fr_energy">   -175.20175373 </i>
    <i name="e_wo_entrp">   -175.08236396 </i>
    <i name="e_0_energy">   -175.17190629 </i>
   </energy>
  </scstep>
  <scstep>
   <time name="diag">   62.34   62.35</time>
   <time name="diis">  103.73  103.74</time>
   <time name="orth">   12.51   12.51</time>
   <time name="total">  216.71  216.73</time>
   <energy>
    <i name="e_fr_energy">   -175.20249744 </i>
    <i name="e_wo_entrp">   -175.08311457 </i>
    <i name="e_0_energy">   -175.17265173 </i>
   </energy>
  </scstep>
  <scstep>
   <time name="diag">   62.27   62.28</time>
   <time name="diis">   91.26   91.27</time>
   <time name="orth">   12.28   12.28</time>
   <time name="total">  203.61  203.64</time>
   <energy>
    <i name="e_fr_energy">   -175.20276883 </i>
    <i name="e_wo_entrp">   -175.08332451 </i>
    <i name="e_0_energy">   -175.17290775 </i>
   </energy>
  </scstep>
  <scstep>
   <time name="diag">   62.24   62.25</time>
   <time name="diis">   96.33   96.35</time>
   <time name="orth">   12.31   12.31</time>
   <time name="total">  209.60  209.63</time>
   <energy>
    <i name="e_fr_energy">   -175.20354302 </i>
    <i name="e_wo_entrp">   -175.08430888 </i>
    <i name="e_0_energy">   -175.17373449 </i>
   </energy>
  </scstep>
  <scstep>
   <time name="diag">   62.86   62.87</time>
   <time name="diis">   77.74   77.75</time>
   <time name="orth">   12.19   12.19</time>
   <time name="total">  191.29  191.31</time>
   <energy>
    <i name="e_fr_energy">   -175.20380531 </i>
    <i name="e_wo_entrp">   -175.08440691 </i>
    <i name="e_0_energy">   -175.17395571 </i>
   </energy>
  </scstep>
  <scstep>
   <time name="diag">   61.91   61.92</time>
   <time name="diis">   88.75   88.76</time>
   <time name="orth">   12.19   12.20</time>
   <time name="total">  200.92  200.95</time>
   <energy>
    <i name="e_fr_energy">   -175.20424282 </i>
    <i name="e_wo_entrp">   -175.08489793 </i>
    <i name="e_0_energy">   -175.17440660 </i>
   </energy>
  </scstep>
  <scstep>
   <time name="diag">   62.09   62.10</time>
   <time name="diis">   77.35   77.36</time>
   <time name="orth">   12.25   12.25</time>
   <time name="total">  189.71  189.74</time>
   <energy>
    <i name="e_fr_energy">   -175.20453513 </i>
    <i name="e_wo_entrp">   -175.08516018 </i>
    <i name="e_0_energy">   -175.17469140 </i>
   </energy>
  </scstep>
  <scstep>
   <time name="diag">   62.61   62.62</time>
   <time name="diis">   79.89   79.90</time>
   <time name="orth">   12.43   12.43</time>
   <time name="total">  193.51  193.54</time>
   <energy>
    <i name="e_fr_energy">   -175.20469141 </i>
    <i name="e_wo_entrp">   -175.08528956 </i>
    <i name="e_0_energy">   -175.17484095 </i>
   </energy>
  </scstep>
  <scstep>
   <time name="diag">   62.92   62.92</time>
   <time name="diis">   79.05   79.06</time>
   <time name="orth">   12.20   12.20</time>
   <time name="total">  192.83  192.85</time>
   <energy>
    <i name="e_fr_energy">   -175.20489876 </i>
    <i name="e_wo_entrp">   -175.08554532 </i>
    <i name="e_0_energy">   -175.17506040 </i>
   </energy>
  </scstep>
  <scstep>
   <time name="diag">   61.92   61.92</time>
   <time name="diis">   69.03   69.04</time>
   <time name="orth">   12.19   12.19</time>
   <time name="total">  155.09  155.10</time>
   <energy>
    <i name="alphaZ">     75.25431677 </i>
    <i name="ewald"> 138634.40134976 </i>
    <i name="hartreedc">-182982.22719968 </i>
    <i name="XCdc">  -1691.98438073 </i>
    <i name="pawpsdc">  46203.21997227 </i>
    <i name="pawaedc"> -42674.43795318 </i>
    <i name="eentropy">     -0.11936031 </i>
    <i name="bandstr">  -2825.81721444 </i>
    <i name="atom">  45086.50549395 </i>
    <i name="e_fr_energy">   -175.20497558 </i>
    <i name="e_wo_entrp">   -175.08561527 </i>
    <i name="e_0_energy">   -175.17513550 </i>
   </energy>
  </scstep>
  <structure>
   <crystal>
    <varray name="basis" >
     <v>      30.00000000       0.00000000       0.00000000 </v>
     <v>       0.00000000      30.00000000       0.00000000 </v>
     <v>       0.00000000       0.00000000      30.00000000 </v>
    </varray>
    <i name="volume">  27000.00000000 </i>
    <varray name="rec_basis" >
     <v>       0.03333333       0.00000000       0.00000000 </v>
     <v>       0.00000000       0.03333333       0.00000000 </v>
     <v>       0.00000000       0.00000000       0.03333333 </v>
    </varray>
   </crystal>
   <varray name="positions" >
    <v>       0.44576020       0.32826710       0.41691983 </v>
    <v>       0.67173288       0.55423978       0.41691983 </v>
    <v>       0.55423980       0.32826710       0.41691983 </v>
    <v>       0.32826712       0.55423978       0.41691983 </v>
    <v>       0.50000000       0.38250690       0.34021317 </v>
    <v>       0.50000000       0.38250690       0.65978680 </v>
    <v>       0.50000000       0.27609440       0.50000000 </v>
    <v>       0.27609443       0.49999998       0.50000000 </v>
    <v>       0.72390557       0.49999998       0.50000000 </v>
    <v>       0.50000000       0.72390555       0.50000000 </v>
    <v>       0.61195280       0.38804720       0.34167483 </v>
    <v>       0.61195280       0.38804720       0.65832513 </v>
    <v>       0.38804722       0.61195278       0.34167483 </v>
    <v>       0.38804722       0.61195278       0.65832513 </v>
    <v>       0.38804720       0.38804720       0.34167483 </v>
    <v>       0.38804720       0.38804720       0.65832513 </v>
    <v>       0.61195278       0.61195278       0.34167483 </v>
    <v>       0.61195278       0.61195278       0.65832513 </v>
    <v>       0.44576020       0.32826710       0.58308023 </v>
    <v>       0.67173288       0.55423978       0.58308023 </v>
    <v>       0.55791699       0.44208301       0.41809300 </v>
    <v>       0.32826705       0.44576024       0.41691983 </v>
    <v>       0.55423973       0.67173293       0.41691983 </v>
    <v>       0.55423980       0.32826710       0.58308023 </v>
    <v>       0.32826712       0.55423978       0.58308023 </v>
    <v>       0.67173295       0.44576024       0.41691983 </v>
    <v>       0.44576027       0.67173293       0.41691983 </v>
    <v>       0.44208301       0.44208301       0.41809300 </v>
    <v>       0.50000000       0.38416601       0.50000000 </v>
    <v>       0.61749315       0.50000005       0.34021317 </v>
    <v>       0.61749315       0.50000005       0.65978680 </v>
    <v>       0.38250685       0.50000005       0.34021317 </v>
    <v>       0.38250685       0.50000005       0.65978680 </v>
    <v>       0.38317830       0.38317830       0.50000000 </v>
    <v>       0.61682172       0.61682172       0.50000000 </v>
    <v>       0.61682170       0.38317830       0.50000000 </v>
    <v>       0.38317828       0.61682172       0.50000000 </v>
    <v>       0.50000000       0.50000000       0.33478917 </v>
    <v>       0.50000000       0.50000000       0.66521087 </v>
    <v>       0.32826705       0.44576024       0.58308023 </v>
    <v>       0.55423973       0.67173293       0.58308023 </v>
    <v>       0.55791699       0.44208301       0.58190703 </v>
    <v>       0.44208298       0.55791702       0.41809300 </v>
    <v>       0.44208301       0.44208301       0.58190703 </v>
    <v>       0.67173295       0.44576024       0.58308023 </v>
    <v>       0.44576027       0.67173293       0.58308023 </v>
    <v>       0.55791702       0.55791702       0.41809300 </v>
    <v>       0.38416599       0.50000002       0.50000000 </v>
    <v>       0.61583401       0.50000002       0.50000000 </v>
    <v>       0.50000000       0.61749319       0.34021317 </v>
    <v>       0.50000000       0.61749319       0.65978680 </v>
    <v>       0.50000000       0.50000000       0.50000000 </v>
    <v>       0.44208298       0.55791702       0.58190703 </v>
    <v>       0.55791702       0.55791702       0.58190703 </v>
    <v>       0.50000000       0.61583404       0.50000000 </v>
    <v>       0.46962357       0.30793660       0.36180763 </v>
    <v>       0.46483577       0.27766433       0.34002630 </v>
   </varray>
  </structure>
  <varray name="forces" >
   <v>       0.73199400       1.19613701       0.35553814 </v>
   <v>      -1.11042357      -0.70280032       0.29310934 </v>
   <v>      -0.65303190       1.05705363       0.28315443 </v>
   <v>       1.11030288      -0.71400550       0.28793710 </v>
   <v>      -0.31533407      -0.50878419       1.39780485 </v>
   <v>      -0.00228749       0.41322367      -1.28380654 </v>
   <v>       0.00688532       1.51180916       0.06444175 </v>
   <v>       1.51937381       0.00522397       0.00587685 </v>
   <v>      -1.52246692       0.00243955       0.01045703 </v>
   <v>      -0.00047569      -1.52193509      -0.00810115 </v>
   <v>      -0.73781821       0.79056564       1.08426664 </v>
   <v>      -0.75223357       0.76919645      -1.07391092 </v>
   <v>       0.76295785      -0.74722972       1.07801375 </v>
   <v>       0.75198084      -0.76539584      -1.07593067 </v>
   <v>       0.69423297       0.77158859       1.03932737 </v>
   <v>       0.75571753       0.76570753      -1.07077783 </v>
   <v>      -0.76345606      -0.75028659       1.07822573 </v>
   <v>      -0.75377751      -0.76222528      -1.07432392 </v>
   <v>       0.70824169       1.10259943      -0.30049525 </v>
   <v>      -1.10569806      -0.71918871      -0.29745671 </v>
   <v>       0.13081205      -0.07530368      -0.14064847 </v>
   <v>       1.09977548       0.71863760       0.28732083 </v>
   <v>      -0.71260560      -1.11249134       0.28162791 </v>
   <v>      -0.71234793       1.10005951      -0.29689506 </v>
   <v>       1.11030070      -0.71714846      -0.28418988 </v>
   <v>      -1.11260429       0.69577672       0.28139969 </v>
   <v>       0.71221825      -1.11274428       0.28201431 </v>
   <v>      -0.12607924      -0.01024658      -0.10036255 </v>
   <v>      -0.00620615      -0.19000003       0.05810938 </v>
   <v>      -0.41456747      -0.01171249       1.27923728 </v>
   <v>      -0.40823101      -0.01339040      -1.28885748 </v>
   <v>       0.39732486       0.00843985       1.28746690 </v>
   <v>       0.40268551      -0.00107707      -1.29100671 </v>
   <v>       0.84795729       0.82174067       0.01248941 </v>
   <v>      -0.82710168      -0.82602157      -0.00186638 </v>
   <v>      -0.83141393       0.82190066      -0.01514336 </v>
   <v>       0.82693131      -0.82677367       0.00064506 </v>
   <v>       0.01897804       0.01006090       1.17841089 </v>
   <v>      -0.00241259      -0.00012885      -1.17468526 </v>
   <v>       1.10504265       0.74798884      -0.25621989 </v>
   <v>      -0.71016994      -1.10836926      -0.28812758 </v>
   <v>       0.12706023      -0.10237416       0.17058566 </v>
   <v>      -0.10949599       0.12136859      -0.15877000 </v>
   <v>      -0.11345411      -0.12139184       0.15387772 </v>
   <v>      -1.10737711       0.72370793      -0.27591666 </v>
   <v>       0.70860587      -1.10791989      -0.28826912 </v>
   <v>       0.11193139       0.11049091      -0.16241468 </v>
   <v>      -0.23039821      -0.00361665      -0.00354453 </v>
   <v>       0.23564712       0.00387812       0.01061847 </v>
   <v>       0.00099279      -0.38198275       1.30315663 </v>
   <v>      -0.00021229      -0.40920615      -1.28587472 </v>
   <v>       0.00288510      -0.01183915      -0.01029159 </v>
   <v>      -0.11303129       0.10735531       0.15479025 </v>
   <v>       0.10760063       0.11379249       0.15614692 </v>
   <v>      -0.00054760       0.22801542      -0.00094209 </v>
   <v>       0.60458600       5.23601743       3.32103608 </v>
   <v>      -0.33776268      -4.61918608      -3.68825736 </v>
  </varray>
  <varray name="stress" >
   <v>      -6.75249070      -0.02590108       0.03758035 </v>
   <v>      -0.02590108      -6.57529639       0.23867022 </v>
   <v>       0.03758038       0.23867020      -6.58206789 </v>
  </varray>
  <energy>
   <i name="e_fr_energy">   -175.20497558 </i>
   <i name="e_wo_entrp">   -175.17513550 </i>
   <i name="e_0_energy">     -0.11936031 </i>
  </energy>
  <time name="totalsc">16850.9016851.66</time>
  <eigenvalues>
   <array>
    <dimension dim="1">band</dimension>
    <dimension dim="2">kpoint</dimension>
    <dimension dim="3">spin</dimension>
    <field>eigene</field>
    <field>occ</field>
    <set>
     <set comment="spin 1">
      <set comment="kpoint 1">
       <r>  -28.2653    1.0000 </r>
       <r>  -13.3416    1.0000 </r>
       <r>  -11.1375    1.0000 </r>
       <r>  -10.8383    1.0000 </r>
       <r>  -10.4859    1.0000 </r>
       <r>   -6.6713    1.0000 </r>
       <r>   -6.3667    1.0000 </r>
       <r>   -6.2857    1.0000 </r>
       <r>   -6.1568    1.0000 </r>
       <r>   -6.1459    1.0000 </r>
       <r>   -6.1289    1.0000 </r>
       <r>   -5.8776    1.0000 </r>
       <r>   -5.8604    1.0000 </r>
       <r>   -5.8262    1.0000 </r>
       <r>   -5.7881    1.0000 </r>
       <r>   -5.7578    1.0000 </r>
       <r>   -5.7320    1.0000 </r>
       <r>   -5.7090    1.0000 </r>
       <r>   -5.7006    1.0000 </r>
       <r>   -5.6932    1.0000 </r>
       <r>   -5.6840    1.0000 </r>
       <r>   -5.6431    1.0000 </r>
       <r>   -5.6311    1.0000 </r>
       <r>   -5.6225    1.0000 </r>
       <r>   -5.6174    1.0000 </r>
       <r>   -5.5959    1.0000 </r>
       <r>   -5.5957    1.0000 </r>
       <r>   -5.5888    1.0000 </r>
       <r>   -5.5692    1.0000 </r>
       <r>   -5.5654    1.0000 </r>
       <r>   -5.5598    1.0000 </r>
       <r>   -5.5471    1.0000 </r>
       <r>   -5.5387    1.0000 </r>
       <r>   -5.5359    1.0000 </r>
       <r>   -5.5322    1.0000 </r>
       <r>   -5.5296    1.0000 </r>
       <r>   -5.5275    1.0000 </r>
       <r>   -5.5157    1.0000 </r>
       <r>   -5.5068    1.0000 </r>
       <r>   -5.4965    1.0000 </r>
       <r>   -5.4914    1.0000 </r>
       <r>   -5.4882    1.0000 </r>
       <r>   -5.4853    1.0000 </r>
       <r>   -5.4847    1.0000 </r>
       <r>   -5.4825    1.0000 </r>
       <r>   -5.4737    1.0000 </r>
       <r>   -5.4618    1.0000 </r>
       <r>   -5.4537    1.0000 </r>
       <r>   -5.4468    1.0000 </r>
       <r>   -5.4452    1.0000 </r>
       <r>   -5.4417    1.0000 </r>
       <r>   -5.4311    1.0000 </r>
       <r>   -5.4248    1.0000 </r>
       <r>   -5.4204    1.0000 </r>
       <r>   -5.4186    1.0000 </r>
       <r>   -5.4124    1.0000 </r>
       <r>   -5.4062    1.0000 </r>
       <r>   -5.3885    1.0000 </r>
       <r>   -5.3529    1.0000 </r>
       <r>   -5.3444    1.0000 </r>
       <r>   -5.3437    1.0000 </r>
       <r>   -5.3342    1.0000 </r>
       <r>   -5.3328    1.0000 </r>
       <r>   -5.3279    1.0000 </r>
       <r>   -5.3196    1.0000 </r>
       <r>   -5.3159    1.0000 </r>
       <r>   -5.3119    1.0000 </r>
       <r>   -5.3014    1.0000 </r>
       <r>   -5.2913    1.0000 </r>
       <r>   -5.2674    1.0000 </r>
       <r>   -5.2451    1.0000 </r>
       <r>   -5.2233    1.0000 </r>
       <r>   -5.2172    1.0000 </r>
       <r>   -5.2122    1.0000 </r>
       <r>   -5.2086    1.0000 </r>
       <r>   -5.2016    1.0000 </r>
       <r>   -5.1919    1.0000 </r>
       <r>   -5.1904    1.0000 </r>
       <r>   -5.1863    1.0000 </r>
       <r>   -5.1804    1.0000 </r>
       <r>   -5.1768    1.0000 </r>
       <r>   -5.1743    1.0000 </r>
       <r>   -5.1614    1.0000 </r>
       <r>   -5.1515    1.0000 </r>
       <r>   -5.1478    1.0000 </r>
       <r>   -5.1413    1.0000 </r>
       <r>   -5.1318    1.0000 </r>
       <r>   -5.1222    1.0000 </r>
       <r>   -5.1129    1.0000 </r>
       <r>   -5.0989    1.0000 </r>
       <r>   -5.0922    1.0000 </r>
       <r>   -5.0805    1.0000 </r>
       <r>   -5.0705    1.0000 </r>
       <r>   -5.0693    1.0000 </r>
       <r>   -5.0669    1.0000 </r>
       <r>   -5.0659    1.0000 </r>
       <r>   -5.0643    1.0000 </r>
       <r>   -5.0536    1.0000 </r>
       <r>   -5.0512    1.0000 </r>
       <r>   -5.0473    1.0000 </r>
       <r>   -5.0459    1.0000 </r>
       <r>   -5.0428    1.0000 </r>
       <r>   -5.0332    1.0000 </r>
       <r>   -5.0254    1.0000 </r>
       <r>   -5.0207    1.0000 </r>
       <r>   -5.0190    1.0000 </r>
       <r>   -5.0126    1.0000 </r>
       <r>   -5.0103    1.0000 </r>
       <r>   -5.0057    1.0000 </r>
       <r>   -4.9988    1.0000 </r>
       <r>   -4.9956    1.0000 </r>
       <r>   -4.9892    1.0000 </r>
       <r>   -4.9807    1.0000 </r>
       <r>   -4.9781    1.0000 </r>
       <r>   -4.9740    1.0000 </r>
       <r>   -4.9688    1.0000 </r>
       <r>   -4.9606    1.0000 </r>
       <r>   -4.9538    1.0000 </r>
       <r>   -4.9499    1.0000 </r>
       <r>   -4.9420    1.0000 </r>
       <r>   -4.9293    1.0000 </r>
       <r>   -4.9265    1.0000 </r>
       <r>   -4.9249    1.0000 </r>
       <r>   -4.9213    1.0000 </r>
       <r>   -4.9193    1.0000 </r>
       <r>   -4.9161    1.0000 </r>
       <r>   -4.9027    1.0000 </r>
       <r>   -4.8957    1.0000 </r>
       <r>   -4.8712    1.0000 </r>
       <r>   -4.8631    1.0000 </r>
       <r>   -4.8609    1.0000 </r>
       <r>   -4.8575    1.0000 </r>
       <r>   -4.8548    1.0000 </r>
       <r>   -4.8502    1.0000 </r>
       <r>   -4.8470    1.0000 </r>
       <r>   -4.8355    0.9999 </r>
       <r>   -4.8221    0.9999 </r>
       <r>   -4.8195    0.9999 </r>
       <r>   -4.8099    0.9999 </r>
       <r>   -4.7986    0.9999 </r>
       <r>   -4.7948    0.9998 </r>
       <r>   -4.7849    0.9998 </r>
       <r>   -4.7788    0.9998 </r>
       <r>   -4.7635    0.9997 </r>
       <r>   -4.7570    0.9996 </r>
       <r>   -4.7567    0.9996 </r>
       <r>   -4.7529    0.9996 </r>
       <r>   -4.7465    0.9995 </r>
       <r>   -4.7339    0.9994 </r>
       <r>   -4.7191    0.9992 </r>
       <r>   -4.7112    0.9990 </r>
       <r>   -4.7081    0.9990 </r>
       <r>   -4.6993    0.9988 </r>
       <r>   -4.6955    0.9987 </r>
       <r>   -4.6914    0.9986 </r>
       <r>   -4.6880    0.9985 </r>
       <r>   -4.6852    0.9985 </r>
       <r>   -4.6820    0.9984 </r>
       <r>   -4.6810    0.9983 </r>
       <r>   -4.6775    0.9982 </r>
       <r>   -4.6717    0.9981 </r>
       <r>   -4.6670    0.9979 </r>
       <r>   -4.6647    0.9979 </r>
       <r>   -4.6625    0.9978 </r>
       <r>   -4.6600    0.9977 </r>
       <r>   -4.6588    0.9977 </r>
       <r>   -4.6580    0.9976 </r>
       <r>   -4.6555    0.9975 </r>
       <r>   -4.6511    0.9974 </r>
       <r>   -4.6450    0.9972 </r>
       <r>   -4.6313    0.9967 </r>
       <r>   -4.6234    0.9964 </r>
       <r>   -4.6169    0.9961 </r>
       <r>   -4.6154    0.9961 </r>
       <r>   -4.6145    0.9960 </r>
       <r>   -4.6100    0.9959 </r>
       <r>   -4.6088    0.9958 </r>
       <r>   -4.6032    0.9957 </r>
       <r>   -4.6019    0.9956 </r>
       <r>   -4.5914    0.9953 </r>
       <r>   -4.5896    0.9953 </r>
       <r>   -4.5879    0.9953 </r>
       <r>   -4.5851    0.9952 </r>
       <r>   -4.5740    0.9951 </r>
       <r>   -4.5727    0.9951 </r>
       <r>   -4.5702    0.9951 </r>
       <r>   -4.5685    0.9951 </r>
       <r>   -4.5648    0.9951 </r>
       <r>   -4.5629    0.9951 </r>
       <r>   -4.5581    0.9952 </r>
       <r>   -4.5509    0.9954 </r>
       <r>   -4.5354    0.9963 </r>
       <r>   -4.5235    0.9975 </r>
       <r>   -4.5226    0.9976 </r>
       <r>   -4.5199    0.9980 </r>
       <r>   -4.5140    0.9988 </r>
       <r>   -4.5094    0.9996 </r>
       <r>   -4.5076    0.9999 </r>
       <r>   -4.4949    1.0025 </r>
       <r>   -4.4911    1.0035 </r>
       <r>   -4.4902    1.0037 </r>
       <r>   -4.4847    1.0052 </r>
       <r>   -4.4779    1.0072 </r>
       <r>   -4.4718    1.0092 </r>
       <r>   -4.4702    1.0098 </r>
       <r>   -4.4650    1.0116 </r>
       <r>   -4.4631    1.0124 </r>
       <r>   -4.4604    1.0134 </r>
       <r>   -4.4567    1.0149 </r>
       <r>   -4.4467    1.0191 </r>
       <r>   -4.4417    1.0213 </r>
       <r>   -4.4395    1.0223 </r>
       <r>   -4.4330    1.0254 </r>
       <r>   -4.4283    1.0276 </r>
       <r>   -4.4257    1.0288 </r>
       <r>   -4.4220    1.0306 </r>
       <r>   -4.4206    1.0313 </r>
       <r>   -4.4194    1.0319 </r>
       <r>   -4.4145    1.0342 </r>
       <r>   -4.4105    1.0361 </r>
       <r>   -4.3923    1.0440 </r>
       <r>   -4.3884    1.0455 </r>
       <r>   -4.3832    1.0473 </r>
       <r>   -4.3791    1.0485 </r>
       <r>   -4.3706    1.0505 </r>
       <r>   -4.3621    1.0515 </r>
       <r>   -4.3585    1.0516 </r>
       <r>   -4.3541    1.0514 </r>
       <r>   -4.3515    1.0512 </r>
       <r>   -4.3498    1.0509 </r>
       <r>   -4.3488    1.0507 </r>
       <r>   -4.3476    1.0505 </r>
       <r>   -4.3466    1.0503 </r>
       <r>   -4.3417    1.0489 </r>
       <r>   -4.3415    1.0488 </r>
       <r>   -4.3399    1.0482 </r>
       <r>   -4.3388    1.0478 </r>
       <r>   -4.3374    1.0472 </r>
       <r>   -4.3350    1.0461 </r>
       <r>   -4.3259    1.0404 </r>
       <r>   -4.3236    1.0387 </r>
       <r>   -4.3226    1.0378 </r>
       <r>   -4.3107    1.0258 </r>
       <r>   -4.3072    1.0213 </r>
       <r>   -4.3044    1.0175 </r>
       <r>   -4.3035    1.0162 </r>
       <r>   -4.2997    1.0104 </r>
       <r>   -4.2974    1.0067 </r>
       <r>   -4.2925    0.9982 </r>
       <r>   -4.2889    0.9912 </r>
       <r>   -4.2845    0.9822 </r>
       <r>   -4.2797    0.9716 </r>
       <r>   -4.2786    0.9690 </r>
       <r>   -4.2754    0.9612 </r>
       <r>   -4.2737    0.9569 </r>
       <r>   -4.2683    0.9426 </r>
       <r>   -4.2673    0.9397 </r>
       <r>   -4.2640    0.9302 </r>
       <r>   -4.2610    0.9213 </r>
       <r>   -4.2608    0.9206 </r>
       <r>   -4.2589    0.9150 </r>
       <r>   -4.2583    0.9131 </r>
       <r>   -4.2544    0.9005 </r>
       <r>   -4.2535    0.8974 </r>
       <r>   -4.2525    0.8939 </r>
       <r>   -4.2421    0.8569 </r>
       <r>   -4.2405    0.8510 </r>
       <r>   -4.2400    0.8490 </r>
       <r>   -4.2354    0.8312 </r>
       <r>   -4.2333    0.8228 </r>
       <r>   -4.2311    0.8137 </r>
       <r>   -4.2191    0.7619 </r>
       <r>   -4.2148    0.7420 </r>
       <r>   -4.2077    0.7088 </r>
       <r>   -4.1992    0.6672 </r>
       <r>   -4.1972    0.6572 </r>
       <r>   -4.1946    0.6440 </r>
       <r>   -4.1908    0.6250 </r>
       <r>   -4.1898    0.6198 </r>
       <r>   -4.1874    0.6076 </r>
       <r>   -4.1758    0.5466 </r>
       <r>   -4.1590    0.4581 </r>
       <r>   -4.1551    0.4377 </r>
       <r>   -4.1472    0.3966 </r>
       <r>   -4.1453    0.3866 </r>
       <r>   -4.1432    0.3756 </r>
       <r>   -4.1401    0.3599 </r>
       <r>   -4.1329    0.3239 </r>
       <r>   -4.1301    0.3103 </r>
       <r>   -3.9767   -0.0516 </r>
       <r>   -3.8512   -0.0058 </r>
       <r>   -3.8451   -0.0041 </r>
       <r>   -3.8301   -0.0006 </r>
       <r>   -3.7023    0.0033 </r>
       <r>   -3.5198    0.0001 </r>
       <r>   -3.5054    0.0001 </r>
       <r>   -3.3294    0.0000 </r>
       <r>   -3.1030    0.0000 </r>
       <r>   -3.0746    0.0000 </r>
       <r>   -3.0715    0.0000 </r>
       <r>   -3.0459    0.0000 </r>
       <r>   -3.0418    0.0000 </r>
       <r>   -2.9565    0.0000 </r>
       <r>   -2.9536    0.0000 </r>
       <r>   -2.7259    0.0000 </r>
       <r>   -2.6094    0.0000 </r>
       <r>   -2.5443    0.0000 </r>
       <r>   -2.5316    0.0000 </r>
       <r>   -2.2939    0.0000 </r>
       <r>   -2.1270    0.0000 </r>
       <r>   -2.1258    0.0000 </r>
       <r>   -2.0791    0.0000 </r>
       <r>   -2.0510    0.0000 </r>
       <r>   -2.0105    0.0000 </r>
       <r>   -1.9402    0.0000 </r>
       <r>   -1.8955    0.0000 </r>
       <r>   -1.8094    0.0000 </r>
       <r>   -1.6881    0.0000 </r>
       <r>   -1.6581    0.0000 </r>
       <r>   -1.6534    0.0000 </r>
       <r>   -1.6258    0.0000 </r>
       <r>   -1.6165    0.0000 </r>
       <r>   -1.5628    0.0000 </r>
       <r>   -1.3865    0.0000 </r>
       <r>   -1.2660    0.0000 </r>
       <r>   -1.1485    0.0000 </r>
       <r>   -1.1106    0.0000 </r>
       <r>   -1.0276    0.0000 </r>
       <r>   -0.9911    0.0000 </r>
       <r>   -0.9792    0.0000 </r>
       <r>   -0.9515    0.0000 </r>
       <r>   -0.9391    0.0000 </r>
       <r>   -0.9184    0.0000 </r>
       <r>   -0.9008    0.0000 </r>
       <r>   -0.8077    0.0000 </r>
       <r>   -0.6709    0.0000 </r>
      </set>
     </set>
    </set>
   </array>
  </eigenvalues>
  <separator name="orbital magnetization" >
   <v name="MAGDIPOLOUT">      0.00000000      0.00000000      0.00000000</v>
  </separator>
  <dos>
   <i name="efermi">     -4.16694140 </i>
   <total>
    <array>
     <dimension dim="1">gridpoints</dimension>
     <dimension dim="2">spin</dimension>
     <field>energy</field>
     <field>total</field>
     <field>integrated</field>
     <set>
      <set comment="spin 1">
       <r>   -30.2653     0.0000     0.0000 </r>
       <r>   -30.1600     0.0000     0.0000 </r>
       <r>   -30.0546     0.0000     0.0000 </r>
       <r>   -29.9493     0.0000     0.0000 </r>
       <r>   -29.8440     0.0000     0.0000 </r>
       <r>   -29.7387     0.0000     0.0000 </r>
       <r>   -29.6334     0.0000     0.0000 </r>
       <r>   -29.5281     0.0000     0.0000 </r>
       <r>   -29.4228     0.0000     0.0000 </r>
       <r>   -29.3174     0.0000     0.0000 </r>
       <r>   -29.2121     0.0000     0.0000 </r>
       <r>   -29.1068     0.0000     0.0000 </r>
       <r>   -29.0015     0.0001     0.0000 </r>
       <r>   -28.8962     0.0025     0.0003 </r>
       <r>   -28.7909     0.0233     0.0027 </r>
       <r>   -28.6855     0.0645     0.0095 </r>
       <r>   -28.5802    -0.2044    -0.0120 </r>
       <r>   -28.4749    -0.8204    -0.0984 </r>
       <r>   -28.3696     1.8726     0.0988 </r>
       <r>   -28.2643     8.6553     1.0103 </r>
       <r>   -28.1590     8.5558     1.9114 </r>
       <r>   -28.0537     1.7660     2.0974 </r>
       <r>   -27.9483    -0.8215     2.0109 </r>
       <r>   -27.8430    -0.1928     1.9906 </r>
       <r>   -27.7377     0.0646     1.9974 </r>
       <r>   -27.6324     0.0225     1.9997 </r>
       <r>   -27.5271     0.0024     2.0000 </r>
       <r>   -27.4218     0.0001     2.0000 </r>
       <r>   -27.3165     0.0000     2.0000 </r>
       <r>   -27.2111     0.0000     2.0000 </r>
       <r>   -27.1058     0.0000     2.0000 </r>
       <r>   -27.0005     0.0000     2.0000 </r>
       <r>   -26.8952     0.0000     2.0000 </r>
       <r>   -26.7899     0.0000     2.0000 </r>
       <r>   -26.6846     0.0000     2.0000 </r>
       <r>   -26.5793     0.0000     2.0000 </r>
       <r>   -26.4739     0.0000     2.0000 </r>
       <r>   -26.3686     0.0000     2.0000 </r>
       <r>   -26.2633     0.0000     2.0000 </r>
       <r>   -26.1580     0.0000     2.0000 </r>
       <r>   -26.0527     0.0000     2.0000 </r>
       <r>   -25.9474     0.0000     2.0000 </r>
       <r>   -25.8421     0.0000     2.0000 </r>
       <r>   -25.7367     0.0000     2.0000 </r>
       <r>   -25.6314     0.0000     2.0000 </r>
       <r>   -25.5261     0.0000     2.0000 </r>
       <r>   -25.4208     0.0000     2.0000 </r>
       <r>   -25.3155     0.0000     2.0000 </r>
       <r>   -25.2102     0.0000     2.0000 </r>
       <r>   -25.1049     0.0000     2.0000 </r>
       <r>   -24.9995     0.0000     2.0000 </r>
       <r>   -24.8942     0.0000     2.0000 </r>
       <r>   -24.7889     0.0000     2.0000 </r>
       <r>   -24.6836     0.0000     2.0000 </r>
       <r>   -24.5783     0.0000     2.0000 </r>
       <r>   -24.4730     0.0000     2.0000 </r>
       <r>   -24.3677     0.0000     2.0000 </r>
       <r>   -24.2623     0.0000     2.0000 </r>
       <r>   -24.1570     0.0000     2.0000 </r>
       <r>   -24.0517     0.0000     2.0000 </r>
       <r>   -23.9464     0.0000     2.0000 </r>
       <r>   -23.8411     0.0000     2.0000 </r>
       <r>   -23.7358     0.0000     2.0000 </r>
       <r>   -23.6304     0.0000     2.0000 </r>
       <r>   -23.5251     0.0000     2.0000 </r>
       <r>   -23.4198     0.0000     2.0000 </r>
       <r>   -23.3145     0.0000     2.0000 </r>
       <r>   -23.2092     0.0000     2.0000 </r>
       <r>   -23.1039     0.0000     2.0000 </r>
       <r>   -22.9986     0.0000     2.0000 </r>
       <r>   -22.8932     0.0000     2.0000 </r>
       <r>   -22.7879     0.0000     2.0000 </r>
       <r>   -22.6826     0.0000     2.0000 </r>
       <r>   -22.5773     0.0000     2.0000 </r>
       <r>   -22.4720     0.0000     2.0000 </r>
       <r>   -22.3667     0.0000     2.0000 </r>
       <r>   -22.2614     0.0000     2.0000 </r>
       <r>   -22.1560     0.0000     2.0000 </r>
       <r>   -22.0507     0.0000     2.0000 </r>
       <r>   -21.9454     0.0000     2.0000 </r>
       <r>   -21.8401     0.0000     2.0000 </r>
       <r>   -21.7348     0.0000     2.0000 </r>
       <r>   -21.6295     0.0000     2.0000 </r>
       <r>   -21.5242     0.0000     2.0000 </r>
       <r>   -21.4188     0.0000     2.0000 </r>
       <r>   -21.3135     0.0000     2.0000 </r>
       <r>   -21.2082     0.0000     2.0000 </r>
       <r>   -21.1029     0.0000     2.0000 </r>
       <r>   -20.9976     0.0000     2.0000 </r>
       <r>   -20.8923     0.0000     2.0000 </r>
       <r>   -20.7870     0.0000     2.0000 </r>
       <r>   -20.6816     0.0000     2.0000 </r>
       <r>   -20.5763     0.0000     2.0000 </r>
       <r>   -20.4710     0.0000     2.0000 </r>
       <r>   -20.3657     0.0000     2.0000 </r>
       <r>   -20.2604     0.0000     2.0000 </r>
       <r>   -20.1551     0.0000     2.0000 </r>
       <r>   -20.0498     0.0000     2.0000 </r>
       <r>   -19.9444     0.0000     2.0000 </r>
       <r>   -19.8391     0.0000     2.0000 </r>
       <r>   -19.7338     0.0000     2.0000 </r>
       <r>   -19.6285     0.0000     2.0000 </r>
       <r>   -19.5232     0.0000     2.0000 </r>
       <r>   -19.4179     0.0000     2.0000 </r>
       <r>   -19.3125     0.0000     2.0000 </r>
       <r>   -19.2072     0.0000     2.0000 </r>
       <r>   -19.1019     0.0000     2.0000 </r>
       <r>   -18.9966     0.0000     2.0000 </r>
       <r>   -18.8913     0.0000     2.0000 </r>
       <r>   -18.7860     0.0000     2.0000 </r>
       <r>   -18.6807     0.0000     2.0000 </r>
       <r>   -18.5753     0.0000     2.0000 </r>
       <r>   -18.4700     0.0000     2.0000 </r>
       <r>   -18.3647     0.0000     2.0000 </r>
       <r>   -18.2594     0.0000     2.0000 </r>
       <r>   -18.1541     0.0000     2.0000 </r>
       <r>   -18.0488     0.0000     2.0000 </r>
       <r>   -17.9435     0.0000     2.0000 </r>
       <r>   -17.8381     0.0000     2.0000 </r>
       <r>   -17.7328     0.0000     2.0000 </r>
       <r>   -17.6275     0.0000     2.0000 </r>
       <r>   -17.5222     0.0000     2.0000 </r>
       <r>   -17.4169     0.0000     2.0000 </r>
       <r>   -17.3116     0.0000     2.0000 </r>
       <r>   -17.2063     0.0000     2.0000 </r>
       <r>   -17.1009     0.0000     2.0000 </r>
       <r>   -16.9956     0.0000     2.0000 </r>
       <r>   -16.8903     0.0000     2.0000 </r>
       <r>   -16.7850     0.0000     2.0000 </r>
       <r>   -16.6797     0.0000     2.0000 </r>
       <r>   -16.5744     0.0000     2.0000 </r>
       <r>   -16.4691     0.0000     2.0000 </r>
       <r>   -16.3637     0.0000     2.0000 </r>
       <r>   -16.2584     0.0000     2.0000 </r>
       <r>   -16.1531     0.0000     2.0000 </r>
       <r>   -16.0478     0.0000     2.0000 </r>
       <r>   -15.9425     0.0000     2.0000 </r>
       <r>   -15.8372     0.0000     2.0000 </r>
       <r>   -15.7319     0.0000     2.0000 </r>
       <r>   -15.6265     0.0000     2.0000 </r>
       <r>   -15.5212     0.0000     2.0000 </r>
       <r>   -15.4159     0.0000     2.0000 </r>
       <r>   -15.3106     0.0000     2.0000 </r>
       <r>   -15.2053     0.0000     2.0000 </r>
       <r>   -15.1000     0.0000     2.0000 </r>
       <r>   -14.9947     0.0000     2.0000 </r>
       <r>   -14.8893     0.0000     2.0000 </r>
       <r>   -14.7840     0.0000     2.0000 </r>
       <r>   -14.6787     0.0000     2.0000 </r>
       <r>   -14.5734     0.0000     2.0000 </r>
       <r>   -14.4681     0.0000     2.0000 </r>
       <r>   -14.3628     0.0000     2.0000 </r>
       <r>   -14.2574     0.0000     2.0000 </r>
       <r>   -14.1521     0.0000     2.0000 </r>
       <r>   -14.0468     0.0003     2.0000 </r>
       <r>   -13.9415     0.0053     2.0006 </r>
       <r>   -13.8362     0.0371     2.0045 </r>
       <r>   -13.7309     0.0474     2.0095 </r>
       <r>   -13.6256    -0.4183     1.9654 </r>
       <r>   -13.5202    -0.6219     1.8999 </r>
       <r>   -13.4149     3.7994     2.3001 </r>
       <r>   -13.3096     9.7994     3.3321 </r>
       <r>   -13.2043     6.6706     4.0346 </r>
       <r>   -13.0990     0.3653     4.0731 </r>
       <r>   -12.9937    -0.7188     3.9974 </r>
       <r>   -12.8884    -0.0463     3.9925 </r>
       <r>   -12.7830     0.0573     3.9985 </r>
       <r>   -12.6777     0.0128     3.9999 </r>
       <r>   -12.5724     0.0011     4.0000 </r>
       <r>   -12.4671     0.0000     4.0000 </r>
       <r>   -12.3618     0.0000     4.0000 </r>
       <r>   -12.2565     0.0000     4.0000 </r>
       <r>   -12.1512     0.0000     4.0000 </r>
       <r>   -12.0458     0.0000     4.0000 </r>
       <r>   -11.9405     0.0000     4.0000 </r>
       <r>   -11.8352     0.0004     4.0000 </r>
       <r>   -11.7299     0.0063     4.0007 </r>
       <r>   -11.6246     0.0408     4.0050 </r>
       <r>   -11.5193     0.0383     4.0090 </r>
       <r>   -11.4140    -0.4661     3.9600 </r>
       <r>   -11.3086    -0.4634     3.9112 </r>
       <r>   -11.2033     4.3136     4.3654 </r>
       <r>   -11.0980     9.3351     5.3486 </r>
       <r>   -10.9927     6.0347     5.9841 </r>
       <r>   -10.8874     5.6639     6.5806 </r>
       <r>   -10.7821     9.0221     7.5308 </r>
       <r>   -10.6768     4.2129     7.9745 </r>
       <r>   -10.5714     2.7202     8.2609 </r>
       <r>   -10.4661     8.9177     9.2001 </r>
       <r>   -10.3608     7.4909     9.9890 </r>
       <r>   -10.2555     0.8936    10.0831 </r>
       <r>   -10.1502    -0.7737    10.0016 </r>
       <r>   -10.0449    -0.0949     9.9916 </r>
       <r>    -9.9395     0.0618     9.9981 </r>
       <r>    -9.8342     0.0161     9.9998 </r>
       <r>    -9.7289     0.0015    10.0000 </r>
       <r>    -9.6236     0.0001    10.0000 </r>
       <r>    -9.5183     0.0000    10.0000 </r>
       <r>    -9.4130     0.0000    10.0000 </r>
       <r>    -9.3077     0.0000    10.0000 </r>
       <r>    -9.2023     0.0000    10.0000 </r>
       <r>    -9.0970     0.0000    10.0000 </r>
       <r>    -8.9917     0.0000    10.0000 </r>
       <r>    -8.8864     0.0000    10.0000 </r>
       <r>    -8.7811     0.0000    10.0000 </r>
       <r>    -8.6758     0.0000    10.0000 </r>
       <r>    -8.5705     0.0000    10.0000 </r>
       <r>    -8.4651     0.0000    10.0000 </r>
       <r>    -8.3598     0.0000    10.0000 </r>
       <r>    -8.2545     0.0000    10.0000 </r>
       <r>    -8.1492     0.0000    10.0000 </r>
       <r>    -8.0439     0.0000    10.0000 </r>
       <r>    -7.9386     0.0000    10.0000 </r>
       <r>    -7.8333     0.0000    10.0000 </r>
       <r>    -7.7279     0.0000    10.0000 </r>
       <r>    -7.6226     0.0000    10.0000 </r>
       <r>    -7.5173     0.0000    10.0000 </r>
       <r>    -7.4120     0.0001    10.0000 </r>
       <r>    -7.3067     0.0023    10.0003 </r>
       <r>    -7.2014     0.0216    10.0025 </r>
       <r>    -7.0961     0.0647    10.0093 </r>
       <r>    -6.9907    -0.1751     9.9909 </r>
       <r>    -6.8854    -0.7895     9.9078 </r>
       <r>    -6.7801     1.7410    10.0911 </r>
       <r>    -6.6748     8.2900    10.9642 </r>
       <r>    -6.5695     7.7414    11.7795 </r>
       <r>    -6.4642     3.1377    12.1099 </r>
       <r>    -6.3589     9.6878    13.1302 </r>
       <r>    -6.2535    22.9601    15.5482 </r>
       <r>    -6.1482    32.5960    18.9810 </r>
       <r>    -6.0429    23.4180    21.4473 </r>
       <r>    -5.9376    11.0164    22.6075 </r>
       <r>    -5.8323    30.4353    25.8128 </r>
       <r>    -5.7270    71.9947    33.3948 </r>
       <r>    -5.6217   145.8897    48.7592 </r>
       <r>    -5.5163   253.1110    75.4154 </r>
       <r>    -5.4110   291.3776   106.1018 </r>
       <r>    -5.3057   234.6577   130.8146 </r>
       <r>    -5.2004   215.1668   153.4749 </r>
       <r>    -5.0951   285.9330   183.5878 </r>
       <r>    -4.9898   352.8254   220.7454 </r>
       <r>    -4.8844   325.7255   255.0491 </r>
       <r>    -4.7791   286.9997   285.2744 </r>
       <r>    -4.6738   354.0743   322.5636 </r>
       <r>    -4.5685   425.3075   367.3546 </r>
       <r>    -4.4632   425.8846   412.2065 </r>
       <r>    -4.3579   486.5546   463.4478 </r>
       <r>    -4.2526   558.8986   522.3080 </r>
       <r>    -4.1472   413.8381   565.8912 </r>
       <r>    -4.0419   137.4207   580.3636 </r>
       <r>    -3.9366     6.2831   581.0253 </r>
       <r>    -3.8313    19.6746   583.0973 </r>
       <r>    -3.7260    30.3641   586.2951 </r>
       <r>    -3.6207    17.4394   588.1317 </r>
       <r>    -3.5154    17.6559   589.9912 </r>
       <r>    -3.4100    19.3981   592.0341 </r>
       <r>    -3.3047     9.8078   593.0670 </r>
       <r>    -3.1994     7.8343   593.8920 </r>
       <r>    -3.0941    35.5666   597.6377 </r>
       <r>    -2.9888    59.2144   603.8739 </r>
       <r>    -2.8835    36.4369   607.7112 </r>
       <r>    -2.7782     8.3866   608.5944 </r>
       <r>    -2.6728    12.3898   609.8993 </r>
       <r>    -2.5675    27.8859   612.8361 </r>
       <r>    -2.4622    24.9942   615.4683 </r>
       <r>    -2.3569     9.1591   616.4329 </r>
       <r>    -2.2516     7.5296   617.2259 </r>
       <r>    -2.1463    25.7716   619.9400 </r>
       <r>    -2.0410    46.4967   624.8368 </r>
       <r>    -1.9356    43.2911   629.3960 </r>
       <r>    -1.8303    26.3270   632.1686 </r>
       <r>    -1.7250    30.6226   635.3936 </r>
       <r>    -1.6197    52.5260   640.9254 </r>
       <r>    -1.5144    43.0633   645.4605 </r>
       <r>    -1.4091    15.6633   647.1101 </r>
       <r>    -1.3038    10.6534   648.2321 </r>
       <r>    -1.1984    16.2508   649.9435 </r>
       <r>    -1.0931    29.2574   653.0247 </r>
       <r>    -0.9878    56.7675   659.0032 </r>
       <r>    -0.8825    65.8985   665.9433 </r>
       <r>    -0.7772    37.3320   669.8749 </r>
       <r>    -0.6719    13.2376   671.2690 </r>
       <r>    -0.5665     6.2593   671.9282 </r>
       <r>    -0.4612     1.2800   672.0630 </r>
       <r>    -0.3559    -0.6087   671.9989 </r>
       <r>    -0.2506    -0.0981   671.9886 </r>
       <r>    -0.1453     0.0814   671.9971 </r>
       <r>    -0.0400     0.0245   671.9997 </r>
       <r>     0.0653     0.0026   672.0000 </r>
       <r>     0.1707     0.0001   672.0000 </r>
       <r>     0.2760     0.0000   672.0000 </r>
       <r>     0.3813     0.0000   672.0000 </r>
       <r>     0.4866     0.0000   672.0000 </r>
       <r>     0.5919     0.0000   672.0000 </r>
       <r>     0.6972     0.0000   672.0000 </r>
       <r>     0.8025     0.0000   672.0000 </r>
       <r>     0.9079     0.0000   672.0000 </r>
       <r>     1.0132     0.0000   672.0000 </r>
       <r>     1.1185     0.0000   672.0000 </r>
       <r>     1.2238     0.0000   672.0000 </r>
       <r>     1.3291     0.0000   672.0000 </r>
      </set>
     </set>
    </array>
   </total>
  </dos>
 </calculation>
 <structure name="finalpos" >
  <crystal>
   <varray name="basis" >
    <v>      30.00000000       0.00000000       0.00000000 </v>
    <v>       0.00000000      30.00000000       0.00000000 </v>
    <v>       0.00000000       0.00000000      30.00000000 </v>
   </varray>
   <i name="volume">  27000.00000000 </i>
   <varray name="rec_basis" >
    <v>       0.03333333       0.00000000       0.00000000 </v>
    <v>       0.00000000       0.03333333       0.00000000 </v>
    <v>       0.00000000       0.00000000       0.03333333 </v>
   </varray>
  </crystal>
  <varray name="positions" >
   <v>       0.44576020       0.32826710       0.41691983 </v>
   <v>       0.67173288       0.55423978       0.41691983 </v>
   <v>       0.55423980       0.32826710       0.41691983 </v>
   <v>       0.32826712       0.55423978       0.41691983 </v>
   <v>       0.50000000       0.38250690       0.34021317 </v>
   <v>       0.50000000       0.38250690       0.65978680 </v>
   <v>       0.50000000       0.27609440       0.50000000 </v>
   <v>       0.27609443       0.49999998       0.50000000 </v>
   <v>       0.72390557       0.49999998       0.50000000 </v>
   <v>       0.50000000       0.72390555       0.50000000 </v>
   <v>       0.61195280       0.38804720       0.34167483 </v>
   <v>       0.61195280       0.38804720       0.65832513 </v>
   <v>       0.38804722       0.61195278       0.34167483 </v>
   <v>       0.38804722       0.61195278       0.65832513 </v>
   <v>       0.38804720       0.38804720       0.34167483 </v>
   <v>       0.38804720       0.38804720       0.65832513 </v>
   <v>       0.61195278       0.61195278       0.34167483 </v>
   <v>       0.61195278       0.61195278       0.65832513 </v>
   <v>       0.44576020       0.32826710       0.58308023 </v>
   <v>       0.67173288       0.55423978       0.58308023 </v>
   <v>       0.55791699       0.44208301       0.41809300 </v>
   <v>       0.32826705       0.44576024       0.41691983 </v>
   <v>       0.55423973       0.67173293       0.41691983 </v>
   <v>       0.55423980       0.32826710       0.58308023 </v>
   <v>       0.32826712       0.55423978       0.58308023 </v>
   <v>       0.67173295       0.44576024       0.41691983 </v>
   <v>       0.44576027       0.67173293       0.41691983 </v>
   <v>       0.44208301       0.44208301       0.41809300 </v>
   <v>       0.50000000       0.38416601       0.50000000 </v>
   <v>       0.61749315       0.50000005       0.34021317 </v>
   <v>       0.61749315       0.50000005       0.65978680 </v>
   <v>       0.38250685       0.50000005       0.34021317 </v>
   <v>       0.38250685       0.50000005       0.65978680 </v>
   <v>       0.38317830       0.38317830       0.50000000 </v>
   <v>       0.61682172       0.61682172       0.50000000 </v>
   <v>       0.61682170       0.38317830       0.50000000 </v>
   <v>       0.38317828       0.61682172       0.50000000 </v>
   <v>       0.50000000       0.50000000       0.33478917 </v>
   <v>       0.50000000       0.50000000       0.66521087 </v>
   <v>       0.32826705       0.44576024       0.58308023 </v>
   <v>       0.55423973       0.67173293       0.58308023 </v>
   <v>       0.55791699       0.44208301       0.58190703 </v>
   <v>       0.44208298       0.55791702       0.41809300 </v>
   <v>       0.44208301       0.44208301       0.58190703 </v>
   <v>       0.67173295       0.44576024       0.58308023 </v>
   <v>       0.44576027       0.67173293       0.58308023 </v>
   <v>       0.55791702       0.55791702       0.41809300 </v>
   <v>       0.38416599       0.50000002       0.50000000 </v>
   <v>       0.61583401       0.50000002       0.50000000 </v>
   <v>       0.50000000       0.61749319       0.34021317 </v>
   <v>       0.50000000       0.61749319       0.65978680 </v>
   <v>       0.50000000       0.50000000       0.50000000 </v>
   <v>       0.44208298       0.55791702       0.58190703 </v>
   <v>       0.55791702       0.55791702       0.58190703 </v>
   <v>       0.50000000       0.61583404       0.50000000 </v>
   <v>       0.46962357       0.30793660       0.36180763 </v>
   <v>       0.46483577       0.27766433       0.34002630 </v>
  </varray>
  <varray name="selective"  type="logical" >
   <v type="logical" >  F  F  F </v>
   <v type="logical" >  F  F  F </v>
   <v type="logical" >  F  F  F </v>
   <v type="logical" >  F  F  F </v>
   <v type="logical" >  F  F  F </v>
   <v type="logical" >  F  F  F </v>
   <v type="logical" >  F  F  F </v>
   <v type="logical" >  F  F  F </v>
   <v type="logical" >  F  F  F </v>
   <v type="logical" >  F  F  F </v>
   <v type="logical" >  F  F  F </v>
   <v type="logical" >  F  F  F </v>
   <v type="logical" >  F  F  F </v>
   <v type="logical" >  F  F  F </v>
   <v type="logical" >  F  F  F </v>
   <v type="logical" >  F  F  F </v>
   <v type="logical" >  F  F  F </v>
   <v type="logical" >  F  F  F </v>
   <v type="logical" >  F  F  F </v>
   <v type="logical" >  F  F  F </v>
   <v type="logical" >  F  F  F </v>
   <v type="logical" >  F  F  F </v>
   <v type="logical" >  F  F  F </v>
   <v type="logical" >  F  F  F </v>
   <v type="logical" >  F  F  F </v>
   <v type="logical" >  F  F  F </v>
   <v type="logical" >  F  F  F </v>
   <v type="logical" >  F  F  F </v>
   <v type="logical" >  F  F  F </v>
   <v type="logical" >  F  F  F </v>
   <v type="logical" >  F  F  F </v>
   <v type="logical" >  F  F  F </v>
   <v type="logical" >  F  F  F </v>
   <v type="logical" >  F  F  F </v>
   <v type="logical" >  F  F  F </v>
   <v type="logical" >  F  F  F </v>
   <v type="logical" >  F  F  F </v>
   <v type="logical" >  F  F  F </v>
   <v type="logical" >  F  F  F </v>
   <v type="logical" >  F  F  F </v>
   <v type="logical" >  F  F  F </v>
   <v type="logical" >  F  F  F </v>
   <v type="logical" >  F  F  F </v>
   <v type="logical" >  F  F  F </v>
   <v type="logical" >  F  F  F </v>
   <v type="logical" >  F  F  F </v>
   <v type="logical" >  F  F  F </v>
   <v type="logical" >  F  F  F </v>
   <v type="logical" >  F  F  F </v>
   <v type="logical" >  F  F  F </v>
   <v type="logical" >  F  F  F </v>
   <v type="logical" >  F  F  F </v>
   <v type="logical" >  F  F  F </v>
   <v type="logical" >  F  F  F </v>
   <v type="logical" >  F  F  F </v>
   <v type="logical" >  F  F  F </v>
   <v type="logical" >  F  F  F </v>
  </varray>
  <nose>
   <v>      -3.00000000       0.00000000       0.00010000       0.00010000 </v>
  </nose>
 </structure>
</modeling>
