       N       E                     dE             d eps       ncg     rms          rms(c)
DAV:   1     0.438906810440E+04    0.43891E+04   -0.10051E+05   688   0.815E+02
DAV:   2     0.200841839027E+04   -0.23806E+04   -0.21411E+04  1224   0.105E+02
DAV:   3     0.229494801480E+03   -0.17789E+04   -0.16729E+04  1000   0.921E+01
DAV:   4    -0.135184641082E+03   -0.36468E+03   -0.30760E+03   824   0.435E+01
DAV:   5    -0.180066655180E+03   -0.44882E+02   -0.36798E+02  1048   0.145E+01    0.151E+01
RMM:   6    -0.180253150257E+03   -0.18650E+00   -0.58381E+01   724   0.903E+00    0.227E+01
RMM:   7    -0.183427887294E+03   -0.31747E+01   -0.18789E+01   851   0.450E+00    0.236E+01
RMM:   8    -0.183751330906E+03   -0.32344E+00   -0.68765E+00   790   0.343E+00    0.245E+01
RMM:   9    -0.181331884883E+03    0.24194E+01   -0.52705E+00   725   0.326E+00    0.227E+01
RMM:  10    -0.180589526701E+03    0.74236E+00   -0.30809E+00   733   0.255E+00    0.249E+01
RMM:  11    -0.178196606496E+03    0.23929E+01   -0.16433E+00   737   0.186E+00    0.152E+01
RMM:  12    -0.177073959232E+03    0.11226E+01   -0.17018E+00   723   0.196E+00    0.144E+01
RMM:  13    -0.176954880114E+03    0.11908E+00   -0.15657E+00   718   0.180E+00    0.138E+01
RMM:  14    -0.177785241291E+03   -0.83036E+00   -0.13319E+00   716   0.169E+00    0.204E+01
RMM:  15    -0.176980034885E+03    0.80521E+00   -0.84334E-01   716   0.138E+00    0.171E+01
RMM:  16    -0.176598875191E+03    0.38116E+00   -0.82297E-01   711   0.138E+00    0.127E+01
RMM:  17    -0.175769269705E+03    0.82961E+00   -0.59951E-01   703   0.119E+00    0.950E+00
RMM:  18    -0.175619188051E+03    0.15008E+00   -0.40009E-01   699   0.955E-01    0.794E+00
RMM:  19    -0.175949636628E+03   -0.33045E+00   -0.38278E-01   709   0.936E-01    0.127E+01
RMM:  20    -0.175588763637E+03    0.36087E+00   -0.30485E-01   709   0.853E-01    0.847E+00
RMM:  21    -0.175359518150E+03    0.22925E+00   -0.23114E-01   697   0.752E-01    0.569E+00
RMM:  22    -0.175406503285E+03   -0.46985E-01   -0.20149E-01   696   0.688E-01    0.702E+00
RMM:  23    -0.175237729023E+03    0.16877E+00   -0.13650E-01   698   0.586E-01    0.422E+00
RMM:  24    -0.175182138367E+03    0.55591E-01   -0.11776E-01   696   0.528E-01    0.386E+00
RMM:  25    -0.175163328298E+03    0.18810E-01   -0.66635E-02   700   0.406E-01    0.367E+00
RMM:  26    -0.175118040721E+03    0.45288E-01   -0.42539E-02   695   0.334E-01    0.257E+00
RMM:  27    -0.175098525894E+03    0.19515E-01   -0.27962E-02   692   0.274E-01    0.198E+00
RMM:  28    -0.175091931042E+03    0.65949E-02   -0.19228E-02   695   0.225E-01    0.172E+00
RMM:  29    -0.175076642898E+03    0.15288E-01   -0.11302E-02   695   0.183E-01    0.110E+00
RMM:  30    -0.175074794140E+03    0.18488E-02   -0.68435E-03   691   0.139E-01    0.109E+00
RMM:  31    -0.175069140684E+03    0.56535E-02   -0.50691E-03   694   0.112E-01    0.830E-01
RMM:  32    -0.175066268631E+03    0.28721E-02   -0.29264E-03   692   0.916E-02    0.535E-01
RMM:  33    -0.175068110697E+03   -0.18421E-02   -0.37051E-03   693   0.917E-02    0.741E-01
RMM:  34    -0.175067211933E+03    0.89876E-03   -0.24412E-03   689   0.861E-02    0.534E-01
RMM:  35    -0.175067964844E+03   -0.75291E-03   -0.14710E-03   689   0.622E-02    0.405E-01
RMM:  36    -0.175069965108E+03   -0.20003E-02   -0.11839E-03   688   0.549E-02    0.277E-01
RMM:  37    -0.175072199732E+03   -0.22346E-02   -0.75208E-04   678   0.434E-02    0.318E-01
RMM:  38    -0.175074341169E+03   -0.21414E-02   -0.64917E-04   642   0.387E-02    0.229E-01
RMM:  39    -0.175076754609E+03   -0.24134E-02   -0.49051E-04   544   0.337E-02    0.198E-01
RMM:  40    -0.175080014202E+03   -0.32596E-02   -0.61175E-04   589   0.346E-02    0.174E-01
RMM:  41    -0.175081890946E+03   -0.18767E-02   -0.33835E-04   451   0.267E-02    0.164E-01
RMM:  42    -0.175084576954E+03   -0.26860E-02   -0.44818E-04   521   0.269E-02    0.150E-01
RMM:  43    -0.175085984562E+03   -0.14076E-02   -0.25150E-04   433   0.211E-02    0.109E-01
RMM:  44    -0.175087400774E+03   -0.14162E-02   -0.19576E-04   425   0.179E-02    0.114E-01
RMM:  45    -0.175089010990E+03   -0.16102E-02   -0.18680E-04   423   0.170E-02    0.688E-02
RMM:  46    -0.175089686308E+03   -0.67532E-03   -0.92697E-05   413   0.119E-02    0.612E-02
RMM:  47    -0.175090877982E+03   -0.11917E-02   -0.76027E-05   413   0.103E-02    0.573E-02
RMM:  48    -0.175091414354E+03   -0.53637E-03   -0.44303E-05   402   0.815E-03    0.460E-02
RMM:  49    -0.175092208657E+03   -0.79430E-03   -0.37154E-05   404   0.728E-03    0.355E-02
RMM:  50    -0.175092636432E+03   -0.42778E-03   -0.21056E-05   341   0.576E-03    0.302E-02
RMM:  51    -0.175093071066E+03   -0.43463E-03   -0.15028E-05   324   0.519E-03    0.249E-02
RMM:  52    -0.175093635688E+03   -0.56462E-03   -0.14850E-05   290   0.497E-03    0.155E-02
RMM:  53    -0.175093813321E+03   -0.17763E-03   -0.29804E-06   145   0.380E-03    0.126E-02
RMM:  54    -0.175094280835E+03   -0.46751E-03   -0.17726E-05   296   0.484E-03    0.135E-02
RMM:  55    -0.175094493045E+03   -0.21221E-03   -0.47626E-06   153   0.372E-03    0.101E-02
RMM:  56    -0.175094781611E+03   -0.28857E-03   -0.19221E-05   268   0.457E-03    0.914E-03
RMM:  57    -0.175094865911E+03   -0.84300E-04   -0.15389E-06   113   0.339E-03
   1 F= -.17509487E+03 E0= -.17508447E+03  d E =-.416027E-01
