<?xml version="1.0" encoding="ISO-8859-1"?>
<modeling>
 <generator>
  <i name="program" type="string">vasp </i>
  <i name="version" type="string">5.4.4.18Apr17-6-g9f103f2a35  </i>
  <i name="subversion" type="string">(build Sep 03 2018 23:53:05) complex            parallel </i>
  <i name="platform" type="string">LinuxIFC </i>
  <i name="date" type="string">2021 11 26 </i>
  <i name="time" type="string">08:10:04 </i>
 </generator>
 <incar>
  <i type="string" name="SYSTEM"> 6_Pd100_top_free_z(O)</i>
  <i type="int" name="ISTART">     0</i>
  <i type="string" name="PREC">normal   			! encut=max(enmax), ngx,y,z</i>
  <i type="string" name="ALGO"> Fast     			! Mix RMM-DIIS and Dav</i>
  <i type="logical" name="ADDGRID"> F  </i>
  <i type="int" name="ISPIN">     1</i>
  <i type="int" name="ICHARG">     2</i>
  <i type="int" name="NELM">   100</i>
  <i type="int" name="NELMIN">     6</i>
  <i type="int" name="IBRION">     2</i>
  <i name="EDIFF">      0.00010000</i>
  <i name="EDIFFG">     -0.05000000</i>
  <i type="int" name="NSW">     0</i>
  <i type="int" name="ISIF">     2</i>
  <i type="int" name="ISYM">     2</i>
  <i name="ENCUT">    400.00000000</i>
  <i type="string" name="LREAL"> Auto     			! Auto or A projection done</i>
  <i type="int" name="ISMEAR">     2</i>
  <i name="SIGMA">      0.20000000</i>
  <i type="logical" name="LWAVE"> F  </i>
  <i type="logical" name="LCHARG"> F  </i>
  <v type="int" name="KPOINT_BSE">    -1     0     0     0</v>
  <i type="int" name="MAXMEM"> 10000</i>
  <i type="int" name="NELM">   100</i>
  <i type="string" name="GGA"> RP         			! Revised PBE</i>
 </incar>
 <structure name="primitive_cell" >
  <crystal>
   <varray name="basis" >
    <v>      30.00000000       0.00000000       0.00000000 </v>
    <v>       0.00000000      30.00000000       0.00000000 </v>
    <v>       0.00000000       0.00000000      30.00000000 </v>
   </varray>
   <i name="volume">  27000.00000000 </i>
   <varray name="rec_basis" >
    <v>       0.03333333       0.00000000       0.00000000 </v>
    <v>       0.00000000       0.03333333       0.00000000 </v>
    <v>       0.00000000       0.00000000       0.03333333 </v>
   </varray>
  </crystal>
  <varray name="positions" >
   <v>       0.44576020       0.32826710       0.41691983 </v>
   <v>      -0.44576020       0.32826710       0.41691983 </v>
   <v>      -0.50000000       0.38250690       0.34021317 </v>
   <v>      -0.50000000       0.27609440      -0.50000000 </v>
   <v>       0.38804720       0.38804720       0.34167483 </v>
   <v>      -0.50000000       0.38416601      -0.50000000 </v>
   <v>       0.44208300       0.44208300       0.41809300 </v>
   <v>       0.38317830       0.38317830      -0.50000000 </v>
   <v>      -0.44208300       0.44208300       0.41809300 </v>
   <v>       0.44576020       0.32826710      -0.41691977 </v>
   <v>       0.32826705       0.44576024       0.41691983 </v>
   <v>      -0.38804720       0.38804720       0.34167483 </v>
   <v>      -0.38317830       0.38317830      -0.50000000 </v>
   <v>      -0.50000000      -0.50000000       0.33478917 </v>
   <v>      -0.50000000      -0.50000000      -0.50000000 </v>
   <v>      -0.44576020       0.32826710      -0.41691977 </v>
   <v>       0.38250685      -0.49999995       0.34021317 </v>
   <v>       0.44208300       0.44208300      -0.41809297 </v>
   <v>       0.38416599      -0.49999998      -0.50000000 </v>
   <v>      -0.44208300       0.44208300      -0.41809297 </v>
   <v>       0.44208298      -0.44208298       0.41809300 </v>
   <v>       0.32826705       0.44576024      -0.41691977 </v>
   <v>      -0.50000000       0.38250690      -0.34021320 </v>
   <v>       0.32826712      -0.44576022       0.41691983 </v>
   <v>      -0.38250685      -0.49999995       0.34021317 </v>
   <v>      -0.32826705       0.44576024       0.41691983 </v>
   <v>       0.27609443       0.49999998      -0.50000000 </v>
   <v>       0.38804720       0.38804720      -0.34167487 </v>
   <v>      -0.38416599      -0.49999998      -0.50000000 </v>
   <v>      -0.44208298      -0.44208298       0.41809300 </v>
   <v>       0.44208298      -0.44208298      -0.41809297 </v>
   <v>      -0.38804720       0.38804720      -0.34167487 </v>
   <v>       0.38804722      -0.38804722       0.34167483 </v>
   <v>       0.38250685      -0.49999995      -0.34021320 </v>
   <v>       0.32826712      -0.44576022      -0.41691977 </v>
   <v>      -0.32826705       0.44576024      -0.41691977 </v>
   <v>       0.50000000      -0.38250681       0.34021317 </v>
   <v>      -0.50000000      -0.38416596      -0.50000000 </v>
   <v>      -0.44208298      -0.44208298      -0.41809297 </v>
   <v>      -0.50000000      -0.50000000      -0.33478913 </v>
   <v>       0.38317828      -0.38317828      -0.50000000 </v>
   <v>      -0.32826712      -0.44576022       0.41691983 </v>
   <v>      -0.27609443       0.49999998      -0.50000000 </v>
   <v>      -0.38804722      -0.38804722       0.34167483 </v>
   <v>      -0.38250685      -0.49999995      -0.34021320 </v>
   <v>       0.44576027      -0.32826707       0.41691983 </v>
   <v>      -0.38317828      -0.38317828      -0.50000000 </v>
   <v>      -0.32826712      -0.44576022      -0.41691977 </v>
   <v>      -0.44576027      -0.32826707       0.41691983 </v>
   <v>       0.38804722      -0.38804722      -0.34167487 </v>
   <v>      -0.50000000      -0.38250681      -0.34021320 </v>
   <v>       0.44576027      -0.32826707      -0.41691977 </v>
   <v>      -0.44576027      -0.32826707      -0.41691977 </v>
   <v>      -0.50000000      -0.27609445       0.50000000 </v>
   <v>      -0.38804722      -0.38804722      -0.34167487 </v>
   <v>       0.40910647      -0.24475100      -0.37476947 </v>
   <v>       0.39765683      -0.21259797      -0.35899450 </v>
  </varray>
 </structure>
 <varray name="primitive_index" >
  <v type="int" >        1 </v>
  <v type="int" >        3 </v>
  <v type="int" >        5 </v>
  <v type="int" >        7 </v>
  <v type="int" >       15 </v>
  <v type="int" >       29 </v>
  <v type="int" >       28 </v>
  <v type="int" >       34 </v>
  <v type="int" >       21 </v>
  <v type="int" >       19 </v>
  <v type="int" >       22 </v>
  <v type="int" >       11 </v>
  <v type="int" >       36 </v>
  <v type="int" >       38 </v>
  <v type="int" >       52 </v>
  <v type="int" >       24 </v>
  <v type="int" >       32 </v>
  <v type="int" >       44 </v>
  <v type="int" >       48 </v>
  <v type="int" >       42 </v>
  <v type="int" >       43 </v>
  <v type="int" >       40 </v>
  <v type="int" >        6 </v>
  <v type="int" >        4 </v>
  <v type="int" >       30 </v>
  <v type="int" >       26 </v>
  <v type="int" >        8 </v>
  <v type="int" >       16 </v>
  <v type="int" >       49 </v>
  <v type="int" >       47 </v>
  <v type="int" >       53 </v>
  <v type="int" >       12 </v>
  <v type="int" >       13 </v>
  <v type="int" >       33 </v>
  <v type="int" >       25 </v>
  <v type="int" >       45 </v>
  <v type="int" >       50 </v>
  <v type="int" >       55 </v>
  <v type="int" >       54 </v>
  <v type="int" >       39 </v>
  <v type="int" >       37 </v>
  <v type="int" >        2 </v>
  <v type="int" >        9 </v>
  <v type="int" >       17 </v>
  <v type="int" >       31 </v>
  <v type="int" >       27 </v>
  <v type="int" >       35 </v>
  <v type="int" >       20 </v>
  <v type="int" >       23 </v>
  <v type="int" >       14 </v>
  <v type="int" >       51 </v>
  <v type="int" >       46 </v>
  <v type="int" >       41 </v>
  <v type="int" >       10 </v>
  <v type="int" >       18 </v>
  <v type="int" >       56 </v>
  <v type="int" >       57 </v>
 </varray>
 <kpoints>
  <generation param="Monkhorst-Pack">
   <v type="int" name="divisions">       1        1        1 </v>
   <v name="usershift">      0.00000000       0.00000000       0.00000000 </v>
   <v name="genvec1">      1.00000000       0.00000000       0.00000000 </v>
   <v name="genvec2">      0.00000000       1.00000000       0.00000000 </v>
   <v name="genvec3">      0.00000000       0.00000000       1.00000000 </v>
   <v name="shift">      0.00000000       0.00000000       0.00000000 </v>
  </generation>
  <varray name="kpointlist" >
   <v>       0.00000000       0.00000000       0.00000000 </v>
  </varray>
  <varray name="weights" >
   <v>       1.00000000 </v>
  </varray>
 </kpoints>
 <parameters>
  <separator name="general" >
   <i type="string" name="SYSTEM">6_Pd100_top_free_z(O)</i>
   <i type="logical" name="LCOMPAT"> F  </i>
  </separator>
  <separator name="electronic" >
   <i type="string" name="PREC">normal</i>
   <i name="ENMAX">    400.00000000</i>
   <i name="ENAUG">    644.87300000</i>
   <i name="EDIFF">      0.00010000</i>
   <i type="int" name="IALGO">    68</i>
   <i type="int" name="IWAVPR">    10</i>
   <i type="int" name="NBANDS">   336</i>
   <i name="NELECT">    560.00000000</i>
   <i type="int" name="TURBO">     0</i>
   <i type="int" name="IRESTART">     0</i>
   <i type="int" name="NREBOOT">     0</i>
   <i type="int" name="NMIN">     0</i>
   <i name="EREF">      0.00000000</i>
   <separator name="electronic smearing" >
    <i type="int" name="ISMEAR">     2</i>
    <i name="SIGMA">      0.20000000</i>
    <i name="KSPACING">      0.50000000</i>
    <i type="logical" name="KGAMMA"> T  </i>
   </separator>
   <separator name="electronic projectors" >
    <i type="logical" name="LREAL"> T  </i>
    <v name="ROPT">     -0.00050000     -0.00050000     -0.00050000</v>
    <i type="int" name="LMAXPAW">  -100</i>
    <i type="int" name="LMAXMIX">     2</i>
    <i type="logical" name="NLSPLINE"> F  </i>
   </separator>
   <separator name="electronic startup" >
    <i type="int" name="ISTART">     0</i>
    <i type="int" name="ICHARG">     2</i>
    <i type="int" name="INIWAV">     1</i>
   </separator>
   <separator name="electronic spin" >
    <i type="int" name="ISPIN">     1</i>
    <i type="logical" name="LNONCOLLINEAR"> F  </i>
    <v name="MAGMOM">      1.00000000      1.00000000      1.00000000      1.00000000      1.00000000      1.00000000      1.00000000      1.00000000      1.00000000      1.00000000      1.00000000      1.00000000      1.00000000      1.00000000      1.00000000      1.00000000      1.00000000      1.00000000      1.00000000      1.00000000
      1.00000000      1.00000000      1.00000000      1.00000000      1.00000000      1.00000000      1.00000000      1.00000000      1.00000000      1.00000000      1.00000000      1.00000000      1.00000000      1.00000000      1.00000000      1.00000000      1.00000000      1.00000000      1.00000000      1.00000000
      1.00000000      1.00000000      1.00000000      1.00000000      1.00000000      1.00000000      1.00000000      1.00000000      1.00000000      1.00000000      1.00000000      1.00000000      1.00000000      1.00000000      1.00000000      1.00000000      1.00000000</v>
    <i name="NUPDOWN">     -1.00000000</i>
    <i type="logical" name="LSORBIT"> F  </i>
    <v name="SAXIS">      0.00000000      0.00000000      1.00000000</v>
    <i type="logical" name="LSPIRAL"> F  </i>
    <v name="QSPIRAL">      0.00000000      0.00000000      0.00000000</v>
    <i type="logical" name="LZEROZ"> F  </i>
   </separator>
   <separator name="electronic exchange-correlation" >
    <i type="logical" name="LASPH"> F  </i>
    <i type="logical" name="LMETAGGA"> F  </i>
   </separator>
   <separator name="electronic convergence" >
    <i type="int" name="NELM">   100</i>
    <i type="int" name="NELMDL">    -5</i>
    <i type="int" name="NELMIN">     6</i>
    <i name="ENINI">    400.00000000</i>
    <separator name="electronic convergence detail" >
     <i type="logical" name="LDIAG"> T  </i>
     <i type="logical" name="LSUBROT"> F  </i>
     <i name="WEIMIN">      0.00000000</i>
     <i name="EBREAK">      0.00000007</i>
     <i name="DEPER">      0.30000000</i>
     <i type="int" name="NRMM">     4</i>
     <i name="TIME">      0.40000000</i>
    </separator>
   </separator>
   <separator name="electronic mixer" >
    <i name="AMIX">      0.40000000</i>
    <i name="BMIX">      1.00000000</i>
    <i name="AMIN">      0.10000000</i>
    <i name="AMIX_MAG">      1.60000000</i>
    <i name="BMIX_MAG">      1.00000000</i>
    <separator name="electronic mixer details" >
     <i type="int" name="IMIX">     4</i>
     <i type="logical" name="MIXFIRST"> F  </i>
     <i type="int" name="MAXMIX">   -45</i>
     <i name="WC">    100.00000000</i>
     <i type="int" name="INIMIX">     1</i>
     <i type="int" name="MIXPRE">     1</i>
     <i type="int" name="MREMOVE">     5</i>
    </separator>
   </separator>
   <separator name="electronic dipolcorrection" >
    <i type="logical" name="LDIPOL"> F  </i>
    <i type="logical" name="LMONO"> F  </i>
    <i type="int" name="IDIPOL">     0</i>
    <i name="EPSILON">      1.00000000</i>
    <v name="DIPOL">   -100.00000000   -100.00000000   -100.00000000</v>
    <i name="EFIELD">      0.00000000</i>
   </separator>
  </separator>
  <separator name="grids" >
   <i type="int" name="NGX">   150</i>
   <i type="int" name="NGY">   150</i>
   <i type="int" name="NGZ">   150</i>
   <i type="int" name="NGXF">   300</i>
   <i type="int" name="NGYF">   300</i>
   <i type="int" name="NGZF">   300</i>
   <i type="logical" name="ADDGRID"> F  </i>
  </separator>
  <separator name="ionic" >
   <i type="int" name="NSW">     0</i>
   <i type="int" name="IBRION">    -1</i>
   <i type="int" name="MDALGO">     0</i>
   <i type="int" name="ISIF">     2</i>
   <i name="PSTRESS">      0.00000000</i>
   <i name="EDIFFG">     -0.05000000</i>
   <i type="int" name="NFREE">     1</i>
   <i name="POTIM">      0.50000000</i>
   <i name="SMASS">     -3.00000000</i>
   <i name="SCALEE">      1.00000000</i>
  </separator>
  <separator name="ionic md" >
   <i name="TEBEG">      0.00010000</i>
   <i name="TEEND">      0.00010000</i>
   <i type="int" name="NBLOCK">     1</i>
   <i type="int" name="KBLOCK">     1</i>
   <i type="int" name="NPACO">   256</i>
   <i name="APACO">     16.00000000</i>
  </separator>
  <separator name="symmetry" >
   <i type="int" name="ISYM">     2</i>
   <i name="SYMPREC">      0.00001000</i>
  </separator>
  <separator name="dos" >
   <i type="int" name="LORBIT">     0</i>
   <v name="RWIGS">     -1.00000000     -1.00000000     -1.00000000</v>
   <i type="int" name="NEDOS">   301</i>
   <i name="EMIN">     10.00000000</i>
   <i name="EMAX">    -10.00000000</i>
   <i name="EFERMI">      0.00000000</i>
  </separator>
  <separator name="writing" >
   <i type="int" name="NWRITE">     2</i>
   <i type="logical" name="LWAVE"> F  </i>
   <i type="logical" name="LDOWNSAMPLE"> F  </i>
   <i type="logical" name="LCHARG"> F  </i>
   <i type="logical" name="LPARD"> F  </i>
   <i type="logical" name="LVTOT"> F  </i>
   <i type="logical" name="LVHAR"> F  </i>
   <i type="logical" name="LELF"> F  </i>
   <i type="logical" name="LOPTICS"> F  </i>
   <v name="STM">      0.00000000      0.00000000      0.00000000      0.00000000      0.00000000      0.00000000      0.00000000</v>
  </separator>
  <separator name="performance" >
   <i type="int" name="NPAR">     1</i>
   <i type="int" name="NSIM">     4</i>
   <i type="int" name="NBLK">    -1</i>
   <i type="logical" name="LPLANE"> T  </i>
   <i type="logical" name="LSCALAPACK"> T  </i>
   <i type="logical" name="LSCAAWARE"> F  </i>
   <i type="logical" name="LSCALU"> F  </i>
   <i type="logical" name="LASYNC"> F  </i>
   <i type="logical" name="LORBITALREAL"> F  </i>
  </separator>
  <separator name="miscellaneous" >
   <i type="int" name="IDIOT">     3</i>
   <i type="int" name="ISPECIAL">     0</i>
   <i type="logical" name="LMUSIC"> F  </i>
   <v name="POMASS">    106.42000000     12.01100000     16.00000000</v>
   <v name="DARWINR">      0.00000000      0.00000000      0.00000000</v>
   <v name="DARWINV">      1.00000000      1.00000000      1.00000000</v>
   <i type="logical" name="LCORR"> T  </i>
  </separator>
  <i type="logical" name="GGA_COMPAT"> T  </i>
  <i type="logical" name="LBERRY"> F  </i>
  <i type="int" name="ICORELEVEL">     0</i>
  <i type="logical" name="LDAU"> F  </i>
  <i type="int" name="I_CONSTRAINED_M">     0</i>
  <separator name="electronic exchange-correlation" >
   <i type="string" name="GGA">RP</i>
   <i type="int" name="VOSKOWN">     0</i>
   <i type="logical" name="LHFCALC"> F  </i>
   <i type="string" name="PRECFOCK"></i>
   <i type="logical" name="LSYMGRAD"> F  </i>
   <i type="logical" name="LHFONE"> F  </i>
   <i type="logical" name="LRHFCALC"> F  </i>
   <i type="logical" name="LTHOMAS"> F  </i>
   <i type="logical" name="LMODELHF"> F  </i>
   <i name="ENCUT4O">     -1.00000000</i>
   <i type="int" name="EXXOEP">     0</i>
   <i type="int" name="FOURORBIT">     0</i>
   <i name="AEXX">      0.00000000</i>
   <i name="HFALPHA">      0.00000000</i>
   <i name="MCALPHA">      0.00000000</i>
   <i name="ALDAX">      1.00000000</i>
   <i name="AGGAX">      1.00000000</i>
   <i name="ALDAC">      1.00000000</i>
   <i name="AGGAC">      1.00000000</i>
   <i type="int" name="NKREDX">     1</i>
   <i type="int" name="NKREDY">     1</i>
   <i type="int" name="NKREDZ">     1</i>
   <i type="logical" name="SHIFTRED"> F  </i>
   <i type="logical" name="ODDONLY"> F  </i>
   <i type="logical" name="EVENONLY"> F  </i>
   <i type="int" name="LMAXFOCK">     0</i>
   <i type="int" name="NMAXFOCKAE">     0</i>
   <i type="logical" name="LFOCKAEDFT"> F  </i>
   <i name="HFSCREEN">      0.00000000</i>
   <i name="HFSCREENC">      0.00000000</i>
   <i type="int" name="NBANDSGWLOW">     0</i>
  </separator>
  <separator name="vdW DFT" >
   <i type="logical" name="LUSE_VDW"> F  </i>
   <i name="Zab_VDW">     -0.84910000</i>
   <i name="PARAM1">      0.12340000</i>
   <i name="PARAM2">      1.00000000</i>
   <i name="PARAM3">      0.00000000</i>
  </separator>
  <separator name="model GW" >
   <i type="int" name="MODEL_GW">     0</i>
   <i name="MODEL_EPS0">    284.21052632</i>
   <i name="MODEL_ALPHA">      1.00000000</i>
  </separator>
  <separator name="linear response parameters" >
   <i type="logical" name="LEPSILON"> F  </i>
   <i type="logical" name="LRPA"> F  </i>
   <i type="logical" name="LNABLA"> F  </i>
   <i type="logical" name="LVEL"> F  </i>
   <i type="int" name="KINTER">     0</i>
   <i name="CSHIFT">      0.10000000</i>
   <i name="OMEGAMAX">     -1.00000000</i>
   <i name="DEG_THRESHOLD">      0.00200000</i>
   <i name="RTIME">     -0.10000000</i>
   <i name="WPLASMAI">      0.00000000</i>
   <v name="DFIELD">      0.00000000      0.00000000      0.00000000</v>
   <v name="WPLASMA">      0.00000000      0.00000000      0.00000000      0.00000000      0.00000000      0.00000000      0.00000000      0.00000000      0.00000000</v>
  </separator>
  <separator name="orbital magnetization" >
   <i type="logical" name="NUCIND"> F  </i>
   <v name="MAGPOS">      0.00000000      0.00000000      0.00000000</v>
   <i type="logical" name="LNICSALL"> T  </i>
   <i type="logical" name="ORBITALMAG"> F  </i>
   <i type="logical" name="LMAGBLOCH"> F  </i>
   <i type="logical" name="LCHIMAG"> F  </i>
   <i type="logical" name="LGAUGE"> T  </i>
   <i type="int" name="MAGATOM">     0</i>
   <v name="MAGDIPOL">      0.00000000      0.00000000      0.00000000</v>
   <v name="AVECCONST">      0.00000000      0.00000000      0.00000000</v>
  </separator>
  <separator name="response functions" >
   <i type="logical" name="LADDER"> F  </i>
   <i type="logical" name="LRPAFORCE"> F  </i>
   <i type="logical" name="LFXC"> F  </i>
   <i type="logical" name="LHARTREE"> T  </i>
   <i type="int" name="IBSE">     0</i>
   <v type="int" name="KPOINT">    -1     0     0     0</v>
   <i type="logical" name="LTCTE"> F  </i>
   <i type="logical" name="LTETE"> F  </i>
   <i type="logical" name="LTRIPLET"> F  </i>
   <i type="logical" name="LFXCEPS"> F  </i>
   <i type="logical" name="LFXHEG"> F  </i>
   <i type="int" name="NATURALO">     2</i>
   <i type="logical" name="L2ORDER"> F  </i>
   <i type="logical" name="LMP2LT"> F  </i>
   <i type="logical" name="LUSEW"> F  </i>
   <i name="ENCUTGW">     -2.00000000</i>
   <i name="ENCUTGWSOFT">     -2.00000000</i>
   <i name="ENCUTLF">     -1.00000000</i>
   <i type="int" name="LMAXMP2">    -1</i>
   <i name="SCISSOR">      0.00000000</i>
   <i type="int" name="NOMEGA">     0</i>
   <i type="int" name="NOMEGAR">     0</i>
   <i type="int" name="NBANDSGW">    -1</i>
   <i type="int" name="NBANDSO">    -1</i>
   <i type="int" name="NBANDSV">    -1</i>
   <i type="int" name="NELM">   100</i>
   <i type="int" name="NELMHF">     1</i>
   <i type="int" name="DIM">     3</i>
   <i type="int" name="ANTIRES">     0</i>
   <i name="OMEGAMAX">    -30.00000000</i>
   <i name="OMEGAMIN">    -30.00000000</i>
   <i name="OMEGATL">   -200.00000000</i>
   <i type="int" name="OMEGAGRID">   140</i>
   <i name="CSHIFT">     -0.10000000</i>
   <i type="logical" name="SELFENERGY"> F  </i>
   <i type="logical" name="LSPECTRAL"> F  </i>
   <i type="logical" name="LSPECTRALGW"> F  </i>
   <i type="logical" name="LSINGLES"> F  </i>
   <i type="logical" name="LFERMIGW"> F  </i>
   <i type="logical" name="ODDONLYGW"> F  </i>
   <i type="logical" name="EVENONLYGW"> F  </i>
   <i type="int" name="NKREDLFX">     1</i>
   <i type="int" name="NKREDLFY">     1</i>
   <i type="int" name="NKREDLFZ">     1</i>
   <i type="int" name="MAXMEM"> 10000</i>
   <i type="int" name="TELESCOPE">     0</i>
   <i type="int" name="TAUPAR">     1</i>
   <i type="int" name="OMEGAPAR">    -1</i>
   <i name="LAMBDA">      1.00000000</i>
  </separator>
  <separator name="External order field" >
   <i name="OFIELD_KAPPA">      0.00000000</i>
   <v name="OFIELD_K">      0.00000000      0.00000000      0.00000000</v>
   <i name="OFIELD_Q6_NEAR">      0.00000000</i>
   <i name="OFIELD_Q6_FAR">      0.00000000</i>
   <i name="OFIELD_A">      0.00000000</i>
  </separator>
 </parameters>
 <atominfo>
  <atoms>      57 </atoms>
  <types>       3 </types>
  <array name="atoms" >
   <dimension dim="1">ion</dimension>
   <field type="string">element</field>
   <field type="int">atomtype</field>
   <set>
    <rc><c>Pd</c><c>   1</c></rc>
    <rc><c>Pd</c><c>   1</c></rc>
    <rc><c>Pd</c><c>   1</c></rc>
    <rc><c>Pd</c><c>   1</c></rc>
    <rc><c>Pd</c><c>   1</c></rc>
    <rc><c>Pd</c><c>   1</c></rc>
    <rc><c>Pd</c><c>   1</c></rc>
    <rc><c>Pd</c><c>   1</c></rc>
    <rc><c>Pd</c><c>   1</c></rc>
    <rc><c>Pd</c><c>   1</c></rc>
    <rc><c>Pd</c><c>   1</c></rc>
    <rc><c>Pd</c><c>   1</c></rc>
    <rc><c>Pd</c><c>   1</c></rc>
    <rc><c>Pd</c><c>   1</c></rc>
    <rc><c>Pd</c><c>   1</c></rc>
    <rc><c>Pd</c><c>   1</c></rc>
    <rc><c>Pd</c><c>   1</c></rc>
    <rc><c>Pd</c><c>   1</c></rc>
    <rc><c>Pd</c><c>   1</c></rc>
    <rc><c>Pd</c><c>   1</c></rc>
    <rc><c>Pd</c><c>   1</c></rc>
    <rc><c>Pd</c><c>   1</c></rc>
    <rc><c>Pd</c><c>   1</c></rc>
    <rc><c>Pd</c><c>   1</c></rc>
    <rc><c>Pd</c><c>   1</c></rc>
    <rc><c>Pd</c><c>   1</c></rc>
    <rc><c>Pd</c><c>   1</c></rc>
    <rc><c>Pd</c><c>   1</c></rc>
    <rc><c>Pd</c><c>   1</c></rc>
    <rc><c>Pd</c><c>   1</c></rc>
    <rc><c>Pd</c><c>   1</c></rc>
    <rc><c>Pd</c><c>   1</c></rc>
    <rc><c>Pd</c><c>   1</c></rc>
    <rc><c>Pd</c><c>   1</c></rc>
    <rc><c>Pd</c><c>   1</c></rc>
    <rc><c>Pd</c><c>   1</c></rc>
    <rc><c>Pd</c><c>   1</c></rc>
    <rc><c>Pd</c><c>   1</c></rc>
    <rc><c>Pd</c><c>   1</c></rc>
    <rc><c>Pd</c><c>   1</c></rc>
    <rc><c>Pd</c><c>   1</c></rc>
    <rc><c>Pd</c><c>   1</c></rc>
    <rc><c>Pd</c><c>   1</c></rc>
    <rc><c>Pd</c><c>   1</c></rc>
    <rc><c>Pd</c><c>   1</c></rc>
    <rc><c>Pd</c><c>   1</c></rc>
    <rc><c>Pd</c><c>   1</c></rc>
    <rc><c>Pd</c><c>   1</c></rc>
    <rc><c>Pd</c><c>   1</c></rc>
    <rc><c>Pd</c><c>   1</c></rc>
    <rc><c>Pd</c><c>   1</c></rc>
    <rc><c>Pd</c><c>   1</c></rc>
    <rc><c>Pd</c><c>   1</c></rc>
    <rc><c>Pd</c><c>   1</c></rc>
    <rc><c>Pd</c><c>   1</c></rc>
    <rc><c>C </c><c>   2</c></rc>
    <rc><c>O </c><c>   3</c></rc>
   </set>
  </array>
  <array name="atomtypes" >
   <dimension dim="1">type</dimension>
   <field type="int">atomspertype</field>
   <field type="string">element</field>
   <field>mass</field>
   <field>valence</field>
   <field type="string">pseudopotential</field>
   <set>
    <rc><c>  55</c><c>Pd</c><c>    106.42000000</c><c>     10.00000000</c><c>  PAW_PBE Pd 04Jan2005                  </c></rc>
    <rc><c>   1</c><c>C </c><c>     12.01100000</c><c>      4.00000000</c><c>  PAW_PBE C 08Apr2002                   </c></rc>
    <rc><c>   1</c><c>O </c><c>     16.00000000</c><c>      6.00000000</c><c>  PAW_PBE O 08Apr2002                   </c></rc>
   </set>
  </array>
 </atominfo>
 <structure name="initialpos" >
  <crystal>
   <varray name="basis" >
    <v>      30.00000000       0.00000000       0.00000000 </v>
    <v>       0.00000000      30.00000000       0.00000000 </v>
    <v>       0.00000000       0.00000000      30.00000000 </v>
   </varray>
   <i name="volume">  27000.00000000 </i>
   <varray name="rec_basis" >
    <v>       0.03333333       0.00000000       0.00000000 </v>
    <v>       0.00000000       0.03333333       0.00000000 </v>
    <v>       0.00000000       0.00000000       0.03333333 </v>
   </varray>
  </crystal>
  <varray name="positions" >
   <v>       0.44576020       0.32826710       0.41691983 </v>
   <v>       0.67173288       0.55423978       0.41691983 </v>
   <v>       0.55423980       0.32826710       0.41691983 </v>
   <v>       0.32826712       0.55423978       0.41691983 </v>
   <v>       0.50000000       0.38250690       0.34021317 </v>
   <v>       0.50000000       0.38250690       0.65978680 </v>
   <v>       0.50000000       0.27609440       0.50000000 </v>
   <v>       0.27609443       0.49999998       0.50000000 </v>
   <v>       0.72390557       0.49999998       0.50000000 </v>
   <v>       0.50000000       0.72390555       0.50000000 </v>
   <v>       0.61195280       0.38804720       0.34167483 </v>
   <v>       0.61195280       0.38804720       0.65832513 </v>
   <v>       0.38804722       0.61195278       0.34167483 </v>
   <v>       0.38804722       0.61195278       0.65832513 </v>
   <v>       0.38804720       0.38804720       0.34167483 </v>
   <v>       0.38804720       0.38804720       0.65832513 </v>
   <v>       0.61195278       0.61195278       0.34167483 </v>
   <v>       0.61195278       0.61195278       0.65832513 </v>
   <v>       0.44576020       0.32826710       0.58308023 </v>
   <v>       0.67173288       0.55423978       0.58308023 </v>
   <v>       0.55791699       0.44208301       0.41809300 </v>
   <v>       0.32826705       0.44576024       0.41691983 </v>
   <v>       0.55423973       0.67173293       0.41691983 </v>
   <v>       0.55423980       0.32826710       0.58308023 </v>
   <v>       0.32826712       0.55423978       0.58308023 </v>
   <v>       0.67173295       0.44576024       0.41691983 </v>
   <v>       0.44576027       0.67173293       0.41691983 </v>
   <v>       0.44208301       0.44208301       0.41809300 </v>
   <v>       0.50000000       0.38416601       0.50000000 </v>
   <v>       0.61749315       0.50000005       0.34021317 </v>
   <v>       0.61749315       0.50000005       0.65978680 </v>
   <v>       0.38250685       0.50000005       0.34021317 </v>
   <v>       0.38250685       0.50000005       0.65978680 </v>
   <v>       0.38317830       0.38317830       0.50000000 </v>
   <v>       0.61682172       0.61682172       0.50000000 </v>
   <v>       0.61682170       0.38317830       0.50000000 </v>
   <v>       0.38317828       0.61682172       0.50000000 </v>
   <v>       0.50000000       0.50000000       0.33478917 </v>
   <v>       0.50000000       0.50000000       0.66521087 </v>
   <v>       0.32826705       0.44576024       0.58308023 </v>
   <v>       0.55423973       0.67173293       0.58308023 </v>
   <v>       0.55791699       0.44208301       0.58190703 </v>
   <v>       0.44208298       0.55791702       0.41809300 </v>
   <v>       0.44208301       0.44208301       0.58190703 </v>
   <v>       0.67173295       0.44576024       0.58308023 </v>
   <v>       0.44576027       0.67173293       0.58308023 </v>
   <v>       0.55791702       0.55791702       0.41809300 </v>
   <v>       0.38416599       0.50000002       0.50000000 </v>
   <v>       0.61583401       0.50000002       0.50000000 </v>
   <v>       0.50000000       0.61749319       0.34021317 </v>
   <v>       0.50000000       0.61749319       0.65978680 </v>
   <v>       0.50000000       0.50000000       0.50000000 </v>
   <v>       0.44208298       0.55791702       0.58190703 </v>
   <v>       0.55791702       0.55791702       0.58190703 </v>
   <v>       0.50000000       0.61583404       0.50000000 </v>
   <v>       0.40910647       0.75524900       0.62523053 </v>
   <v>       0.39765683       0.78740203       0.64100550 </v>
  </varray>
  <varray name="selective"  type="logical" >
   <v type="logical" >  F  F  F </v>
   <v type="logical" >  F  F  F </v>
   <v type="logical" >  F  F  F </v>
   <v type="logical" >  F  F  F </v>
   <v type="logical" >  F  F  F </v>
   <v type="logical" >  F  F  F </v>
   <v type="logical" >  F  F  F </v>
   <v type="logical" >  F  F  F </v>
   <v type="logical" >  F  F  F </v>
   <v type="logical" >  F  F  F </v>
   <v type="logical" >  F  F  F </v>
   <v type="logical" >  F  F  F </v>
   <v type="logical" >  F  F  F </v>
   <v type="logical" >  F  F  F </v>
   <v type="logical" >  F  F  F </v>
   <v type="logical" >  F  F  F </v>
   <v type="logical" >  F  F  F </v>
   <v type="logical" >  F  F  F </v>
   <v type="logical" >  F  F  F </v>
   <v type="logical" >  F  F  F </v>
   <v type="logical" >  F  F  F </v>
   <v type="logical" >  F  F  F </v>
   <v type="logical" >  F  F  F </v>
   <v type="logical" >  F  F  F </v>
   <v type="logical" >  F  F  F </v>
   <v type="logical" >  F  F  F </v>
   <v type="logical" >  F  F  F </v>
   <v type="logical" >  F  F  F </v>
   <v type="logical" >  F  F  F </v>
   <v type="logical" >  F  F  F </v>
   <v type="logical" >  F  F  F </v>
   <v type="logical" >  F  F  F </v>
   <v type="logical" >  F  F  F </v>
   <v type="logical" >  F  F  F </v>
   <v type="logical" >  F  F  F </v>
   <v type="logical" >  F  F  F </v>
   <v type="logical" >  F  F  F </v>
   <v type="logical" >  F  F  F </v>
   <v type="logical" >  F  F  F </v>
   <v type="logical" >  F  F  F </v>
   <v type="logical" >  F  F  F </v>
   <v type="logical" >  F  F  F </v>
   <v type="logical" >  F  F  F </v>
   <v type="logical" >  F  F  F </v>
   <v type="logical" >  F  F  F </v>
   <v type="logical" >  F  F  F </v>
   <v type="logical" >  F  F  F </v>
   <v type="logical" >  F  F  F </v>
   <v type="logical" >  F  F  F </v>
   <v type="logical" >  F  F  F </v>
   <v type="logical" >  F  F  F </v>
   <v type="logical" >  F  F  F </v>
   <v type="logical" >  F  F  F </v>
   <v type="logical" >  F  F  F </v>
   <v type="logical" >  F  F  F </v>
   <v type="logical" >  F  F  F </v>
   <v type="logical" >  F  F  F </v>
  </varray>
  <nose>
   <v>      -3.00000000       0.00000000       0.00010000       0.00010000 </v>
  </nose>
 </structure>
 <calculation>
  <scstep>
   <time name="dav">  358.75  358.82</time>
   <time name="total">  373.09  373.16</time>
   <energy>
    <i name="alphaZ">     75.25431677 </i>
    <i name="ewald"> 136887.31401127 </i>
    <i name="hartreedc">-180256.05082088 </i>
    <i name="XCdc">  -1704.18269145 </i>
    <i name="pawpsdc">  44873.02882129 </i>
    <i name="pawaedc"> -41398.84523641 </i>
    <i name="eentropy">      0.00054245 </i>
    <i name="bandstr">    817.42231792 </i>
    <i name="atom">  45086.50549395 </i>
    <i name="e_fr_energy">   4380.44675491 </i>
    <i name="e_wo_entrp">   4380.44621246 </i>
    <i name="e_0_energy">   4380.44661930 </i>
   </energy>
  </scstep>
  <scstep>
   <time name="dav">  576.00  576.00</time>
   <time name="total">  576.00  576.00</time>
   <energy>
    <i name="e_fr_energy">   2024.60683589 </i>
    <i name="e_wo_entrp">   2024.63166569 </i>
    <i name="e_0_energy">   2024.61304334 </i>
   </energy>
  </scstep>
  <scstep>
   <time name="dav">  489.19  489.20</time>
   <time name="total">  489.20  489.20</time>
   <energy>
    <i name="e_fr_energy">    238.48374371 </i>
    <i name="e_wo_entrp">    238.45177593 </i>
    <i name="e_0_energy">    238.47575177 </i>
   </energy>
  </scstep>
  <scstep>
   <time name="dav">  422.87  422.88</time>
   <time name="total">  422.88  422.88</time>
   <energy>
    <i name="e_fr_energy">   -130.85270132 </i>
    <i name="e_wo_entrp">   -130.75465549 </i>
    <i name="e_0_energy">   -130.82818986 </i>
   </energy>
  </scstep>
  <scstep>
   <time name="dav">  513.38  513.38</time>
   <time name="total">  540.44  540.44</time>
   <energy>
    <i name="e_fr_energy">   -178.18353531 </i>
    <i name="e_wo_entrp">   -178.72460897 </i>
    <i name="e_0_energy">   -178.31880373 </i>
   </energy>
  </scstep>
  <scstep>
   <time name="diag">   70.13   70.14</time>
   <time name="diis">  193.34  193.34</time>
   <time name="orth">   13.66   13.66</time>
   <time name="total">  317.65  317.66</time>
   <energy>
    <i name="e_fr_energy">   -178.13142935 </i>
    <i name="e_wo_entrp">   -177.97540302 </i>
    <i name="e_0_energy">   -178.09242277 </i>
   </energy>
  </scstep>
  <scstep>
   <time name="diag">   70.49   70.49</time>
   <time name="diis">  227.15  227.15</time>
   <time name="orth">   13.96   13.96</time>
   <time name="total">  351.61  351.61</time>
   <energy>
    <i name="e_fr_energy">   -179.31307843 </i>
    <i name="e_wo_entrp">   -179.25252422 </i>
    <i name="e_0_energy">   -179.29793988 </i>
   </energy>
  </scstep>
  <scstep>
   <time name="diag">   70.00   70.00</time>
   <time name="diis">  209.14  209.14</time>
   <time name="orth">   13.84   13.84</time>
   <time name="total">  333.04  333.04</time>
   <energy>
    <i name="e_fr_energy">   -183.92942933 </i>
    <i name="e_wo_entrp">   -183.81018393 </i>
    <i name="e_0_energy">   -183.89961798 </i>
   </energy>
  </scstep>
  <scstep>
   <time name="diag">   69.80   69.80</time>
   <time name="diis">  201.00  201.00</time>
   <time name="orth">   13.61   13.61</time>
   <time name="total">  324.85  324.86</time>
   <energy>
    <i name="e_fr_energy">   -181.90643586 </i>
    <i name="e_wo_entrp">   -181.73934417 </i>
    <i name="e_0_energy">   -181.86466293 </i>
   </energy>
  </scstep>
  <scstep>
   <time name="diag">   69.34   69.34</time>
   <time name="diis">  194.11  194.11</time>
   <time name="orth">   13.62   13.62</time>
   <time name="total">  317.24  317.24</time>
   <energy>
    <i name="e_fr_energy">   -180.02031043 </i>
    <i name="e_wo_entrp">   -179.94270742 </i>
    <i name="e_0_energy">   -180.00090968 </i>
   </energy>
  </scstep>
  <scstep>
   <time name="diag">   69.38   69.38</time>
   <time name="diis">  199.39  199.39</time>
   <time name="orth">   13.83   13.83</time>
   <time name="total">  322.73  322.73</time>
   <energy>
    <i name="e_fr_energy">   -177.61196872 </i>
    <i name="e_wo_entrp">   -177.62553390 </i>
    <i name="e_0_energy">   -177.61536001 </i>
   </energy>
  </scstep>
  <scstep>
   <time name="diag">   69.28   69.28</time>
   <time name="diis">  193.87  193.89</time>
   <time name="orth">   13.95   13.95</time>
   <time name="total">  317.36  317.39</time>
   <energy>
    <i name="e_fr_energy">   -176.02159465 </i>
    <i name="e_wo_entrp">   -175.93489219 </i>
    <i name="e_0_energy">   -175.99991904 </i>
   </energy>
  </scstep>
  <scstep>
   <time name="diag">   69.09   69.09</time>
   <time name="diis">  195.33  195.34</time>
   <time name="orth">   13.80   13.80</time>
   <time name="total">  318.37  318.38</time>
   <energy>
    <i name="e_fr_energy">   -175.33359975 </i>
    <i name="e_wo_entrp">   -175.25155472 </i>
    <i name="e_0_energy">   -175.31308849 </i>
   </energy>
  </scstep>
  <scstep>
   <time name="diag">   68.91   68.92</time>
   <time name="diis">  194.00  194.00</time>
   <time name="orth">   13.75   13.75</time>
   <time name="total">  316.93  316.93</time>
   <energy>
    <i name="e_fr_energy">   -175.30905076 </i>
    <i name="e_wo_entrp">   -175.19804072 </i>
    <i name="e_0_energy">   -175.28129825 </i>
   </energy>
  </scstep>
  <scstep>
   <time name="diag">   68.59   68.59</time>
   <time name="diis">  190.25  190.25</time>
   <time name="orth">   13.83   13.83</time>
   <time name="total">  313.19  313.19</time>
   <energy>
    <i name="e_fr_energy">   -175.90566604 </i>
    <i name="e_wo_entrp">   -175.85264724 </i>
    <i name="e_0_energy">   -175.89241134 </i>
   </energy>
  </scstep>
  <scstep>
   <time name="diag">   68.88   68.88</time>
   <time name="diis">  191.39  191.40</time>
   <time name="orth">   13.82   13.82</time>
   <time name="total">  314.51  314.51</time>
   <energy>
    <i name="e_fr_energy">   -175.35374158 </i>
    <i name="e_wo_entrp">   -175.33030512 </i>
    <i name="e_0_energy">   -175.34788246 </i>
   </energy>
  </scstep>
  <scstep>
   <time name="diag">   68.72   68.72</time>
   <time name="diis">  188.65  188.65</time>
   <time name="orth">   13.77   13.77</time>
   <time name="total">  311.68  311.68</time>
   <energy>
    <i name="e_fr_energy">   -174.64514272 </i>
    <i name="e_wo_entrp">   -174.60403767 </i>
    <i name="e_0_energy">   -174.63486645 </i>
   </energy>
  </scstep>
  <scstep>
   <time name="diag">   68.51   68.51</time>
   <time name="diis">  189.28  189.28</time>
   <time name="orth">   13.73   13.73</time>
   <time name="total">  311.77  311.78</time>
   <energy>
    <i name="e_fr_energy">   -174.44103297 </i>
    <i name="e_wo_entrp">   -174.42819582 </i>
    <i name="e_0_energy">   -174.43782369 </i>
   </energy>
  </scstep>
  <scstep>
   <time name="diag">   68.38   68.38</time>
   <time name="diis">  191.70  191.70</time>
   <time name="orth">   13.71   13.71</time>
   <time name="total">  314.06  314.07</time>
   <energy>
    <i name="e_fr_energy">   -174.31744160 </i>
    <i name="e_wo_entrp">   -174.26250081 </i>
    <i name="e_0_energy">   -174.30370640 </i>
   </energy>
  </scstep>
  <scstep>
   <time name="diag">   68.15   68.15</time>
   <time name="diis">  191.87  191.88</time>
   <time name="orth">   13.75   13.75</time>
   <time name="total">  314.41  314.42</time>
   <energy>
    <i name="e_fr_energy">   -174.21701944 </i>
    <i name="e_wo_entrp">   -174.17351672 </i>
    <i name="e_0_energy">   -174.20614376 </i>
   </energy>
  </scstep>
  <scstep>
   <time name="diag">   68.44   68.44</time>
   <time name="diis">  193.24  193.24</time>
   <time name="orth">   13.86   13.86</time>
   <time name="total">  316.02  316.02</time>
   <energy>
    <i name="e_fr_energy">   -174.08830149 </i>
    <i name="e_wo_entrp">   -174.01965153 </i>
    <i name="e_0_energy">   -174.07113900 </i>
   </energy>
  </scstep>
  <scstep>
   <time name="diag">   68.40   68.40</time>
   <time name="diis">  193.97  193.97</time>
   <time name="orth">   13.79   13.79</time>
   <time name="total">  316.78  316.78</time>
   <energy>
    <i name="e_fr_energy">   -174.09335750 </i>
    <i name="e_wo_entrp">   -174.01678616 </i>
    <i name="e_0_energy">   -174.07421466 </i>
   </energy>
  </scstep>
  <scstep>
   <time name="diag">   68.42   68.42</time>
   <time name="diis">  191.34  191.34</time>
   <time name="orth">   13.80   13.80</time>
   <time name="total">  313.94  313.95</time>
   <energy>
    <i name="e_fr_energy">   -173.86665176 </i>
    <i name="e_wo_entrp">   -173.78201991 </i>
    <i name="e_0_energy">   -173.84549380 </i>
   </energy>
  </scstep>
  <scstep>
   <time name="diag">   68.41   68.41</time>
   <time name="diis">  191.80  191.80</time>
   <time name="orth">   13.70   13.70</time>
   <time name="total">  314.58  314.59</time>
   <energy>
    <i name="e_fr_energy">   -173.77785331 </i>
    <i name="e_wo_entrp">   -173.66267067 </i>
    <i name="e_0_energy">   -173.74905765 </i>
   </energy>
  </scstep>
  <scstep>
   <time name="diag">   68.46   68.46</time>
   <time name="diis">  192.87  192.87</time>
   <time name="orth">   13.60   13.60</time>
   <time name="total">  315.54  315.55</time>
   <energy>
    <i name="e_fr_energy">   -173.74991913 </i>
    <i name="e_wo_entrp">   -173.63427816 </i>
    <i name="e_0_energy">   -173.72100889 </i>
   </energy>
  </scstep>
  <scstep>
   <time name="diag">   68.55   68.56</time>
   <time name="diis">  193.93  193.93</time>
   <time name="orth">   13.61   13.61</time>
   <time name="total">  316.85  316.85</time>
   <energy>
    <i name="e_fr_energy">   -173.73500080 </i>
    <i name="e_wo_entrp">   -173.63827844 </i>
    <i name="e_0_energy">   -173.71082021 </i>
   </energy>
  </scstep>
  <scstep>
   <time name="diag">   68.39   68.39</time>
   <time name="diis">  193.36  193.37</time>
   <time name="orth">   13.83   13.83</time>
   <time name="total">  316.17  316.20</time>
   <energy>
    <i name="e_fr_energy">   -173.69871964 </i>
    <i name="e_wo_entrp">   -173.59285477 </i>
    <i name="e_0_energy">   -173.67225342 </i>
   </energy>
  </scstep>
  <scstep>
   <time name="diag">   68.08   68.09</time>
   <time name="diis">  192.41  192.44</time>
   <time name="orth">   13.66   13.66</time>
   <time name="total">  314.87  314.91</time>
   <energy>
    <i name="e_fr_energy">   -173.69625029 </i>
    <i name="e_wo_entrp">   -173.58799520 </i>
    <i name="e_0_energy">   -173.66918651 </i>
   </energy>
  </scstep>
  <scstep>
   <time name="diag">   68.25   68.25</time>
   <time name="diis">  192.52  192.52</time>
   <time name="orth">   13.48   13.48</time>
   <time name="total">  315.13  315.14</time>
   <energy>
    <i name="e_fr_energy">   -173.67930002 </i>
    <i name="e_wo_entrp">   -173.57732603 </i>
    <i name="e_0_energy">   -173.65380652 </i>
   </energy>
  </scstep>
  <scstep>
   <time name="diag">   68.12   68.13</time>
   <time name="diis">  192.88  192.90</time>
   <time name="orth">   13.54   13.54</time>
   <time name="total">  315.56  315.59</time>
   <energy>
    <i name="e_fr_energy">   -173.66584430 </i>
    <i name="e_wo_entrp">   -173.55957899 </i>
    <i name="e_0_energy">   -173.63927797 </i>
   </energy>
  </scstep>
  <scstep>
   <time name="diag">   68.40   68.40</time>
   <time name="diis">  194.09  194.11</time>
   <time name="orth">   13.58   13.58</time>
   <time name="total">  316.79  316.82</time>
   <energy>
    <i name="e_fr_energy">   -173.66443076 </i>
    <i name="e_wo_entrp">   -173.55603570 </i>
    <i name="e_0_energy">   -173.63733199 </i>
   </energy>
  </scstep>
  <scstep>
   <time name="diag">   68.75   68.76</time>
   <time name="diis">  192.28  192.31</time>
   <time name="orth">   13.59   13.59</time>
   <time name="total">  315.78  315.82</time>
   <energy>
    <i name="e_fr_energy">   -173.65936955 </i>
    <i name="e_wo_entrp">   -173.54978504 </i>
    <i name="e_0_energy">   -173.63197342 </i>
   </energy>
  </scstep>
  <scstep>
   <time name="diag">   68.99   69.00</time>
   <time name="diis">  190.86  190.86</time>
   <time name="orth">   14.03   14.03</time>
   <time name="total">  315.45  315.46</time>
   <energy>
    <i name="e_fr_energy">   -173.65680759 </i>
    <i name="e_wo_entrp">   -173.54607248 </i>
    <i name="e_0_energy">   -173.62912381 </i>
   </energy>
  </scstep>
  <scstep>
   <time name="diag">   68.94   68.94</time>
   <time name="diis">  189.88  189.88</time>
   <time name="orth">   13.83   13.83</time>
   <time name="total">  314.11  314.12</time>
   <energy>
    <i name="e_fr_energy">   -173.65722675 </i>
    <i name="e_wo_entrp">   -173.54669103 </i>
    <i name="e_0_energy">   -173.62959282 </i>
   </energy>
  </scstep>
  <scstep>
   <time name="diag">   68.26   68.26</time>
   <time name="diis">  190.47  190.47</time>
   <time name="orth">   13.49   13.49</time>
   <time name="total">  313.14  313.14</time>
   <energy>
    <i name="e_fr_energy">   -173.65737432 </i>
    <i name="e_wo_entrp">   -173.54667922 </i>
    <i name="e_0_energy">   -173.62970055 </i>
   </energy>
  </scstep>
  <scstep>
   <time name="diag">   67.96   67.96</time>
   <time name="diis">  189.64  189.64</time>
   <time name="orth">   13.34   13.34</time>
   <time name="total">  312.04  312.04</time>
   <energy>
    <i name="e_fr_energy">   -173.65871972 </i>
    <i name="e_wo_entrp">   -173.54813907 </i>
    <i name="e_0_energy">   -173.63107456 </i>
   </energy>
  </scstep>
  <scstep>
   <time name="diag">   69.23   69.23</time>
   <time name="diis">  186.47  186.47</time>
   <time name="orth">   13.57   13.57</time>
   <time name="total">  310.88  310.88</time>
   <energy>
    <i name="e_fr_energy">   -173.65996956 </i>
    <i name="e_wo_entrp">   -173.54718167 </i>
    <i name="e_0_energy">   -173.63177259 </i>
   </energy>
  </scstep>
  <scstep>
   <time name="diag">   69.51   69.51</time>
   <time name="diis">  174.73  174.73</time>
   <time name="orth">   13.74   13.74</time>
   <time name="total">  300.82  300.83</time>
   <energy>
    <i name="e_fr_energy">   -173.66126854 </i>
    <i name="e_wo_entrp">   -173.54947506 </i>
    <i name="e_0_energy">   -173.63332017 </i>
   </energy>
  </scstep>
  <scstep>
   <time name="diag">   68.80   68.81</time>
   <time name="diis">  159.33  159.33</time>
   <time name="orth">   13.58   13.58</time>
   <time name="total">  284.65  284.65</time>
   <energy>
    <i name="e_fr_energy">   -173.66339386 </i>
    <i name="e_wo_entrp">   -173.55286791 </i>
    <i name="e_0_energy">   -173.63576238 </i>
   </energy>
  </scstep>
  <scstep>
   <time name="diag">   68.15   68.15</time>
   <time name="diis">  166.08  166.08</time>
   <time name="orth">   13.79   13.79</time>
   <time name="total">  291.11  291.12</time>
   <energy>
    <i name="e_fr_energy">   -173.66662221 </i>
    <i name="e_wo_entrp">   -173.55656527 </i>
    <i name="e_0_energy">   -173.63910797 </i>
   </energy>
  </scstep>
  <scstep>
   <time name="diag">   67.58   67.58</time>
   <time name="diis">  129.46  129.46</time>
   <time name="orth">   13.78   13.78</time>
   <time name="total">  253.58  253.59</time>
   <energy>
    <i name="e_fr_energy">   -173.66828029 </i>
    <i name="e_wo_entrp">   -173.55893802 </i>
    <i name="e_0_energy">   -173.64094473 </i>
   </energy>
  </scstep>
  <scstep>
   <time name="diag">   67.60   67.60</time>
   <time name="diis">  154.95  154.95</time>
   <time name="orth">   13.45   13.45</time>
   <time name="total">  278.00  278.01</time>
   <energy>
    <i name="e_fr_energy">   -173.67156014 </i>
    <i name="e_wo_entrp">   -173.56178035 </i>
    <i name="e_0_energy">   -173.64411520 </i>
   </energy>
  </scstep>
  <scstep>
   <time name="diag">   66.95   66.95</time>
   <time name="diis">  125.19  125.19</time>
   <time name="orth">   13.57   13.57</time>
   <time name="total">  248.08  248.08</time>
   <energy>
    <i name="e_fr_energy">   -173.67286940 </i>
    <i name="e_wo_entrp">   -173.56242448 </i>
    <i name="e_0_energy">   -173.64525817 </i>
   </energy>
  </scstep>
  <scstep>
   <time name="diag">   66.86   66.86</time>
   <time name="diis">  130.87  130.87</time>
   <time name="orth">   13.82   13.82</time>
   <time name="total">  253.66  253.67</time>
   <energy>
    <i name="e_fr_energy">   -173.67508105 </i>
    <i name="e_wo_entrp">   -173.56414027 </i>
    <i name="e_0_energy">   -173.64734586 </i>
   </energy>
  </scstep>
  <scstep>
   <time name="diag">   66.39   66.39</time>
   <time name="diis">  127.50  127.50</time>
   <time name="orth">   13.21   13.21</time>
   <time name="total">  249.80  249.81</time>
   <energy>
    <i name="e_fr_energy">   -173.67707441 </i>
    <i name="e_wo_entrp">   -173.56681378 </i>
    <i name="e_0_energy">   -173.64950925 </i>
   </energy>
  </scstep>
  <scstep>
   <time name="diag">   66.64   66.64</time>
   <time name="diis">  122.06  122.06</time>
   <time name="orth">   13.43   13.44</time>
   <time name="total">  244.43  244.43</time>
   <energy>
    <i name="e_fr_energy">   -173.67787822 </i>
    <i name="e_wo_entrp">   -173.56834094 </i>
    <i name="e_0_energy">   -173.65049390 </i>
   </energy>
  </scstep>
  <scstep>
   <time name="diag">   66.59   66.59</time>
   <time name="diis">  121.69  121.69</time>
   <time name="orth">   13.37   13.37</time>
   <time name="total">  244.40  244.40</time>
   <energy>
    <i name="e_fr_energy">   -173.67968939 </i>
    <i name="e_wo_entrp">   -173.57009815 </i>
    <i name="e_0_energy">   -173.65229158 </i>
   </energy>
  </scstep>
  <scstep>
   <time name="diag">   66.61   66.61</time>
   <time name="diis">  119.79  119.79</time>
   <time name="orth">   13.40   13.40</time>
   <time name="total">  242.50  242.50</time>
   <energy>
    <i name="e_fr_energy">   -173.68034197 </i>
    <i name="e_wo_entrp">   -173.57067668 </i>
    <i name="e_0_energy">   -173.65292565 </i>
   </energy>
  </scstep>
  <scstep>
   <time name="diag">   66.55   66.55</time>
   <time name="diis">  117.53  117.53</time>
   <time name="orth">   13.31   13.31</time>
   <time name="total">  239.51  239.52</time>
   <energy>
    <i name="e_fr_energy">   -173.68143937 </i>
    <i name="e_wo_entrp">   -173.57156218 </i>
    <i name="e_0_energy">   -173.65397007 </i>
   </energy>
  </scstep>
  <scstep>
   <time name="diag">   66.62   66.62</time>
   <time name="diis">  115.99  115.99</time>
   <time name="orth">   13.30   13.30</time>
   <time name="total">  237.76  237.77</time>
   <energy>
    <i name="e_fr_energy">   -173.68229080 </i>
    <i name="e_wo_entrp">   -173.57242336 </i>
    <i name="e_0_energy">   -173.65482394 </i>
   </energy>
  </scstep>
  <scstep>
   <time name="diag">   67.31   67.31</time>
   <time name="diis">  110.73  110.73</time>
   <time name="orth">   13.26   13.26</time>
   <time name="total">  233.86  233.86</time>
   <energy>
    <i name="e_fr_energy">   -173.68268202 </i>
    <i name="e_wo_entrp">   -173.57289425 </i>
    <i name="e_0_energy">   -173.65523508 </i>
   </energy>
  </scstep>
  <scstep>
   <time name="diag">   66.99   66.99</time>
   <time name="diis">  102.33  102.33</time>
   <time name="orth">   13.16   13.16</time>
   <time name="total">  224.77  224.78</time>
   <energy>
    <i name="e_fr_energy">   -173.68319497 </i>
    <i name="e_wo_entrp">   -173.57342714 </i>
    <i name="e_0_energy">   -173.65575302 </i>
   </energy>
  </scstep>
  <scstep>
   <time name="diag">   66.94   66.94</time>
   <time name="diis">   90.38   90.38</time>
   <time name="orth">   13.33   13.33</time>
   <time name="total">  213.10  213.10</time>
   <energy>
    <i name="e_fr_energy">   -173.68347673 </i>
    <i name="e_wo_entrp">   -173.57384582 </i>
    <i name="e_0_energy">   -173.65606900 </i>
   </energy>
  </scstep>
  <scstep>
   <time name="diag">   67.28   67.28</time>
   <time name="diis">   88.66   88.67</time>
   <time name="orth">   13.34   13.34</time>
   <time name="total">  211.99  212.00</time>
   <energy>
    <i name="e_fr_energy">   -173.68385566 </i>
    <i name="e_wo_entrp">   -173.57405685 </i>
    <i name="e_0_energy">   -173.65640596 </i>
   </energy>
  </scstep>
  <scstep>
   <time name="diag">   66.71   66.71</time>
   <time name="diis">   86.51   86.51</time>
   <time name="orth">   13.29   13.29</time>
   <time name="total">  208.93  208.93</time>
   <energy>
    <i name="e_fr_energy">   -173.68410728 </i>
    <i name="e_wo_entrp">   -173.57428691 </i>
    <i name="e_0_energy">   -173.65665219 </i>
   </energy>
  </scstep>
  <scstep>
   <time name="diag">   67.06   67.06</time>
   <time name="diis">   97.62   97.62</time>
   <time name="orth">   13.19   13.19</time>
   <time name="total">  220.12  220.13</time>
   <energy>
    <i name="e_fr_energy">   -173.68454610 </i>
    <i name="e_wo_entrp">   -173.57471334 </i>
    <i name="e_0_energy">   -173.65708791 </i>
   </energy>
  </scstep>
  <scstep>
   <time name="diag">   66.75   66.75</time>
   <time name="diis">   82.53   82.53</time>
   <time name="orth">   13.21   13.21</time>
   <time name="total">  205.00  205.00</time>
   <energy>
    <i name="e_fr_energy">   -173.68469620 </i>
    <i name="e_wo_entrp">   -173.57487740 </i>
    <i name="e_0_energy">   -173.65724150 </i>
   </energy>
  </scstep>
  <scstep>
   <time name="diag">   67.08   67.08</time>
   <time name="diis">   87.56   87.56</time>
   <time name="orth">   13.32   13.32</time>
   <time name="total">  210.73  210.73</time>
   <energy>
    <i name="e_fr_energy">   -173.68487172 </i>
    <i name="e_wo_entrp">   -173.57510388 </i>
    <i name="e_0_energy">   -173.65742976 </i>
   </energy>
  </scstep>
  <scstep>
   <time name="diag">   66.83   66.83</time>
   <time name="diis">   81.92   81.92</time>
   <time name="orth">   13.34   13.34</time>
   <time name="total">  204.86  204.86</time>
   <energy>
    <i name="e_fr_energy">   -173.68497424 </i>
    <i name="e_wo_entrp">   -173.57516864 </i>
    <i name="e_0_energy">   -173.65752284 </i>
   </energy>
  </scstep>
  <scstep>
   <time name="diag">   66.89   66.89</time>
   <time name="diis">   77.07   77.07</time>
   <time name="orth">   13.27   13.27</time>
   <time name="total">  171.00  171.01</time>
   <energy>
    <i name="alphaZ">     75.25431677 </i>
    <i name="ewald"> 136887.31401127 </i>
    <i name="hartreedc">-181265.83127096 </i>
    <i name="XCdc">  -1693.49439088 </i>
    <i name="pawpsdc">  46031.22964367 </i>
    <i name="pawaedc"> -42500.67081791 </i>
    <i name="eentropy">     -0.10979680 </i>
    <i name="bandstr">  -2793.88222148 </i>
    <i name="atom">  45086.50549395 </i>
    <i name="e_fr_energy">   -173.68503237 </i>
    <i name="e_wo_entrp">   -173.57523557 </i>
    <i name="e_0_energy">   -173.65758317 </i>
   </energy>
  </scstep>
  <structure>
   <crystal>
    <varray name="basis" >
     <v>      30.00000000       0.00000000       0.00000000 </v>
     <v>       0.00000000      30.00000000       0.00000000 </v>
     <v>       0.00000000       0.00000000      30.00000000 </v>
    </varray>
    <i name="volume">  27000.00000000 </i>
    <varray name="rec_basis" >
     <v>       0.03333333       0.00000000       0.00000000 </v>
     <v>       0.00000000       0.03333333       0.00000000 </v>
     <v>       0.00000000       0.00000000       0.03333333 </v>
    </varray>
   </crystal>
   <varray name="positions" >
    <v>       0.44576020       0.32826710       0.41691983 </v>
    <v>       0.67173288       0.55423978       0.41691983 </v>
    <v>       0.55423980       0.32826710       0.41691983 </v>
    <v>       0.32826712       0.55423978       0.41691983 </v>
    <v>       0.50000000       0.38250690       0.34021317 </v>
    <v>       0.50000000       0.38250690       0.65978680 </v>
    <v>       0.50000000       0.27609440       0.50000000 </v>
    <v>       0.27609443       0.49999998       0.50000000 </v>
    <v>       0.72390557       0.49999998       0.50000000 </v>
    <v>       0.50000000       0.72390555       0.50000000 </v>
    <v>       0.61195280       0.38804720       0.34167483 </v>
    <v>       0.61195280       0.38804720       0.65832513 </v>
    <v>       0.38804722       0.61195278       0.34167483 </v>
    <v>       0.38804722       0.61195278       0.65832513 </v>
    <v>       0.38804720       0.38804720       0.34167483 </v>
    <v>       0.38804720       0.38804720       0.65832513 </v>
    <v>       0.61195278       0.61195278       0.34167483 </v>
    <v>       0.61195278       0.61195278       0.65832513 </v>
    <v>       0.44576020       0.32826710       0.58308023 </v>
    <v>       0.67173288       0.55423978       0.58308023 </v>
    <v>       0.55791699       0.44208301       0.41809300 </v>
    <v>       0.32826705       0.44576024       0.41691983 </v>
    <v>       0.55423973       0.67173293       0.41691983 </v>
    <v>       0.55423980       0.32826710       0.58308023 </v>
    <v>       0.32826712       0.55423978       0.58308023 </v>
    <v>       0.67173295       0.44576024       0.41691983 </v>
    <v>       0.44576027       0.67173293       0.41691983 </v>
    <v>       0.44208301       0.44208301       0.41809300 </v>
    <v>       0.50000000       0.38416601       0.50000000 </v>
    <v>       0.61749315       0.50000005       0.34021317 </v>
    <v>       0.61749315       0.50000005       0.65978680 </v>
    <v>       0.38250685       0.50000005       0.34021317 </v>
    <v>       0.38250685       0.50000005       0.65978680 </v>
    <v>       0.38317830       0.38317830       0.50000000 </v>
    <v>       0.61682172       0.61682172       0.50000000 </v>
    <v>       0.61682170       0.38317830       0.50000000 </v>
    <v>       0.38317828       0.61682172       0.50000000 </v>
    <v>       0.50000000       0.50000000       0.33478917 </v>
    <v>       0.50000000       0.50000000       0.66521087 </v>
    <v>       0.32826705       0.44576024       0.58308023 </v>
    <v>       0.55423973       0.67173293       0.58308023 </v>
    <v>       0.55791699       0.44208301       0.58190703 </v>
    <v>       0.44208298       0.55791702       0.41809300 </v>
    <v>       0.44208301       0.44208301       0.58190703 </v>
    <v>       0.67173295       0.44576024       0.58308023 </v>
    <v>       0.44576027       0.67173293       0.58308023 </v>
    <v>       0.55791702       0.55791702       0.41809300 </v>
    <v>       0.38416599       0.50000002       0.50000000 </v>
    <v>       0.61583401       0.50000002       0.50000000 </v>
    <v>       0.50000000       0.61749319       0.34021317 </v>
    <v>       0.50000000       0.61749319       0.65978680 </v>
    <v>       0.50000000       0.50000000       0.50000000 </v>
    <v>       0.44208298       0.55791702       0.58190703 </v>
    <v>       0.55791702       0.55791702       0.58190703 </v>
    <v>       0.50000000       0.61583404       0.50000000 </v>
    <v>       0.40910647       0.75524900       0.62523053 </v>
    <v>       0.39765683       0.78740203       0.64100550 </v>
   </varray>
  </structure>
  <varray name="forces" >
   <v>       0.70332614       1.10845934       0.29253945 </v>
   <v>      -1.10779385      -0.70290240       0.29093064 </v>
   <v>      -0.70319118       1.10843385       0.29232299 </v>
   <v>       1.10905394      -0.70779358       0.28985735 </v>
   <v>       0.00012906       0.41460724       1.28149593 </v>
   <v>      -0.00109208       0.41298011      -1.28056573 </v>
   <v>      -0.00016722       1.51600078      -0.00073325 </v>
   <v>       1.51729020      -0.00034446      -0.00065605 </v>
   <v>      -1.51739704       0.00031161      -0.00053012 </v>
   <v>       0.01447238      -1.52163694      -0.01775338 </v>
   <v>      -0.75692803       0.75506981       1.07196598 </v>
   <v>      -0.75729568       0.75627286      -1.07251324 </v>
   <v>       0.75619487      -0.75721070       1.07256295 </v>
   <v>       0.75032624      -0.78141073      -1.06120195 </v>
   <v>       0.75439812       0.75834889       1.07267439 </v>
   <v>       0.75859542       0.75336479      -1.07407626 </v>
   <v>      -0.75544352      -0.75998847       1.07253221 </v>
   <v>      -0.76048074      -0.75356807      -1.07216747 </v>
   <v>       0.70047126       1.11113984      -0.28997027 </v>
   <v>      -1.10788769      -0.70438562      -0.29340656 </v>
   <v>       0.11086404      -0.11395991      -0.15648887 </v>
   <v>       1.10864065       0.70389249       0.29065012 </v>
   <v>      -0.70515099      -1.10616914       0.29658162 </v>
   <v>      -0.70261117       1.10969373      -0.29098849 </v>
   <v>       1.10670991      -0.70447801      -0.29271692 </v>
   <v>      -1.10808145       0.70455136       0.29439563 </v>
   <v>       0.70300183      -1.10848465       0.29122651 </v>
   <v>      -0.11341874      -0.11298229      -0.15896615 </v>
   <v>       0.00084290      -0.22979292      -0.00196590 </v>
   <v>      -0.41535198       0.00386621       1.28050606 </v>
   <v>      -0.41425227      -0.00146413      -1.28112657 </v>
   <v>       0.41278799      -0.00124063       1.28122922 </v>
   <v>       0.41545132       0.00651168      -1.28004314 </v>
   <v>       0.82876456       0.82865776       0.00005601 </v>
   <v>      -0.83104929      -0.82768800       0.00363008 </v>
   <v>      -0.82967065       0.82942257      -0.00007120 </v>
   <v>       0.82881131      -0.84245427      -0.00933541 </v>
   <v>      -0.00019195       0.00017903       1.17826413 </v>
   <v>       0.00110057       0.00383037      -1.17835570 </v>
   <v>       1.10842355       0.70400398      -0.29247717 </v>
   <v>      -0.68117417      -1.11991361      -0.29880807 </v>
   <v>       0.11164994      -0.11270274       0.15789716 </v>
   <v>      -0.11296943       0.11439257      -0.15663033 </v>
   <v>      -0.11165569      -0.12212276       0.15898159 </v>
   <v>      -1.10791499       0.70286725      -0.29228245 </v>
   <v>       0.53873415      -0.75276743      -0.13671617 </v>
   <v>       0.11828229       0.10930629      -0.16404776 </v>
   <v>      -0.23064296       0.00181861       0.00104174 </v>
   <v>       0.23005920      -0.00002587      -0.00086014 </v>
   <v>      -0.00030306      -0.41433657       1.28162578 </v>
   <v>       0.01473527      -0.43643399      -1.27246743 </v>
   <v>      -0.00112348       0.00587323       0.00368713 </v>
   <v>      -0.10362127       0.12452576       0.14854464 </v>
   <v>       0.10985569       0.11268935       0.15648530 </v>
   <v>      -0.01396315       0.23420314       0.02566556 </v>
   <v>       0.87525886      -2.40114282      -1.19533244 </v>
   <v>      -0.73740801       2.10212623       1.03590444 </v>
  </varray>
  <varray name="stress" >
   <v>      -6.74976231      -0.02239039      -0.00966145 </v>
   <v>      -0.02239038      -6.68293414       0.03411485 </v>
   <v>      -0.00966147       0.03411484      -6.74279708 </v>
  </varray>
  <energy>
   <i name="e_fr_energy">   -173.68503237 </i>
   <i name="e_wo_entrp">   -173.65758317 </i>
   <i name="e_0_energy">     -0.10979680 </i>
  </energy>
  <time name="totalsc">18372.3418372.87</time>
  <eigenvalues>
   <array>
    <dimension dim="1">band</dimension>
    <dimension dim="2">kpoint</dimension>
    <dimension dim="3">spin</dimension>
    <field>eigene</field>
    <field>occ</field>
    <set>
     <set comment="spin 1">
      <set comment="kpoint 1">
       <r>  -29.3248    1.0000 </r>
       <r>  -13.8310    1.0000 </r>
       <r>  -11.6224    1.0000 </r>
       <r>  -11.6211    1.0000 </r>
       <r>   -9.0986    1.0000 </r>
       <r>   -6.6164    1.0000 </r>
       <r>   -6.0968    1.0000 </r>
       <r>   -6.0965    1.0000 </r>
       <r>   -6.0921    1.0000 </r>
       <r>   -5.7832    1.0000 </r>
       <r>   -5.7820    1.0000 </r>
       <r>   -5.7797    1.0000 </r>
       <r>   -5.7159    1.0000 </r>
       <r>   -5.6627    1.0000 </r>
       <r>   -5.6549    1.0000 </r>
       <r>   -5.6547    1.0000 </r>
       <r>   -5.6536    1.0000 </r>
       <r>   -5.5926    1.0000 </r>
       <r>   -5.5919    1.0000 </r>
       <r>   -5.5802    1.0000 </r>
       <r>   -5.5680    1.0000 </r>
       <r>   -5.5669    1.0000 </r>
       <r>   -5.5655    1.0000 </r>
       <r>   -5.5226    1.0000 </r>
       <r>   -5.5179    1.0000 </r>
       <r>   -5.5173    1.0000 </r>
       <r>   -5.5168    1.0000 </r>
       <r>   -5.4914    1.0000 </r>
       <r>   -5.4911    1.0000 </r>
       <r>   -5.4900    1.0000 </r>
       <r>   -5.4853    1.0000 </r>
       <r>   -5.4832    1.0000 </r>
       <r>   -5.4827    1.0000 </r>
       <r>   -5.4823    1.0000 </r>
       <r>   -5.4810    1.0000 </r>
       <r>   -5.4496    1.0000 </r>
       <r>   -5.4486    1.0000 </r>
       <r>   -5.4400    1.0000 </r>
       <r>   -5.4388    1.0000 </r>
       <r>   -5.4383    1.0000 </r>
       <r>   -5.4382    1.0000 </r>
       <r>   -5.4371    1.0000 </r>
       <r>   -5.4370    1.0000 </r>
       <r>   -5.4010    1.0000 </r>
       <r>   -5.4001    1.0000 </r>
       <r>   -5.3992    1.0000 </r>
       <r>   -5.3967    1.0000 </r>
       <r>   -5.3962    1.0000 </r>
       <r>   -5.3921    1.0000 </r>
       <r>   -5.3912    1.0000 </r>
       <r>   -5.3910    1.0000 </r>
       <r>   -5.3758    1.0000 </r>
       <r>   -5.3754    1.0000 </r>
       <r>   -5.3746    1.0000 </r>
       <r>   -5.3594    1.0000 </r>
       <r>   -5.2986    1.0000 </r>
       <r>   -5.2975    1.0000 </r>
       <r>   -5.2960    1.0000 </r>
       <r>   -5.2955    1.0000 </r>
       <r>   -5.2871    1.0000 </r>
       <r>   -5.2867    1.0000 </r>
       <r>   -5.2863    1.0000 </r>
       <r>   -5.2715    1.0000 </r>
       <r>   -5.2704    1.0000 </r>
       <r>   -5.2699    1.0000 </r>
       <r>   -5.2572    1.0000 </r>
       <r>   -5.2570    1.0000 </r>
       <r>   -5.1855    1.0000 </r>
       <r>   -5.1762    1.0000 </r>
       <r>   -5.1742    1.0000 </r>
       <r>   -5.1736    1.0000 </r>
       <r>   -5.1549    1.0000 </r>
       <r>   -5.1510    1.0000 </r>
       <r>   -5.1499    1.0000 </r>
       <r>   -5.1489    1.0000 </r>
       <r>   -5.1488    1.0000 </r>
       <r>   -5.1327    1.0000 </r>
       <r>   -5.1321    1.0000 </r>
       <r>   -5.1310    1.0000 </r>
       <r>   -5.1182    1.0000 </r>
       <r>   -5.0952    1.0000 </r>
       <r>   -5.0943    1.0000 </r>
       <r>   -5.0938    1.0000 </r>
       <r>   -5.0836    1.0000 </r>
       <r>   -5.0740    1.0000 </r>
       <r>   -5.0732    1.0000 </r>
       <r>   -5.0724    1.0000 </r>
       <r>   -5.0307    1.0000 </r>
       <r>   -5.0302    1.0000 </r>
       <r>   -5.0249    1.0000 </r>
       <r>   -5.0245    1.0000 </r>
       <r>   -5.0241    1.0000 </r>
       <r>   -5.0199    1.0000 </r>
       <r>   -5.0193    1.0000 </r>
       <r>   -5.0185    1.0000 </r>
       <r>   -5.0003    1.0000 </r>
       <r>   -4.9993    1.0000 </r>
       <r>   -4.9983    1.0000 </r>
       <r>   -4.9903    1.0000 </r>
       <r>   -4.9881    1.0000 </r>
       <r>   -4.9768    1.0000 </r>
       <r>   -4.9755    1.0000 </r>
       <r>   -4.9746    1.0000 </r>
       <r>   -4.9622    1.0000 </r>
       <r>   -4.9617    1.0000 </r>
       <r>   -4.9610    1.0000 </r>
       <r>   -4.9519    1.0000 </r>
       <r>   -4.9505    1.0000 </r>
       <r>   -4.9494    1.0000 </r>
       <r>   -4.9388    1.0000 </r>
       <r>   -4.9384    1.0000 </r>
       <r>   -4.9285    1.0000 </r>
       <r>   -4.9272    1.0000 </r>
       <r>   -4.9244    1.0000 </r>
       <r>   -4.9235    1.0000 </r>
       <r>   -4.9222    1.0000 </r>
       <r>   -4.9069    1.0000 </r>
       <r>   -4.8884    1.0000 </r>
       <r>   -4.8876    1.0000 </r>
       <r>   -4.8873    1.0000 </r>
       <r>   -4.8720    1.0000 </r>
       <r>   -4.8718    1.0000 </r>
       <r>   -4.8716    1.0000 </r>
       <r>   -4.8704    1.0000 </r>
       <r>   -4.8696    1.0000 </r>
       <r>   -4.8695    1.0000 </r>
       <r>   -4.8152    1.0000 </r>
       <r>   -4.8143    1.0000 </r>
       <r>   -4.8138    1.0000 </r>
       <r>   -4.8109    1.0000 </r>
       <r>   -4.8103    1.0000 </r>
       <r>   -4.8101    1.0000 </r>
       <r>   -4.8017    1.0000 </r>
       <r>   -4.8004    1.0000 </r>
       <r>   -4.7997    1.0000 </r>
       <r>   -4.7649    0.9999 </r>
       <r>   -4.7620    0.9999 </r>
       <r>   -4.7615    0.9999 </r>
       <r>   -4.7606    0.9999 </r>
       <r>   -4.7361    0.9998 </r>
       <r>   -4.7353    0.9998 </r>
       <r>   -4.7335    0.9998 </r>
       <r>   -4.7086    0.9996 </r>
       <r>   -4.7066    0.9996 </r>
       <r>   -4.7062    0.9996 </r>
       <r>   -4.6928    0.9995 </r>
       <r>   -4.6927    0.9995 </r>
       <r>   -4.6761    0.9993 </r>
       <r>   -4.6599    0.9990 </r>
       <r>   -4.6576    0.9989 </r>
       <r>   -4.6558    0.9989 </r>
       <r>   -4.6539    0.9989 </r>
       <r>   -4.6434    0.9986 </r>
       <r>   -4.6424    0.9986 </r>
       <r>   -4.6416    0.9986 </r>
       <r>   -4.6413    0.9986 </r>
       <r>   -4.6412    0.9986 </r>
       <r>   -4.6398    0.9985 </r>
       <r>   -4.6210    0.9980 </r>
       <r>   -4.6209    0.9980 </r>
       <r>   -4.6195    0.9980 </r>
       <r>   -4.6158    0.9979 </r>
       <r>   -4.6155    0.9979 </r>
       <r>   -4.6149    0.9978 </r>
       <r>   -4.6146    0.9978 </r>
       <r>   -4.6139    0.9978 </r>
       <r>   -4.6122    0.9977 </r>
       <r>   -4.6106    0.9977 </r>
       <r>   -4.5986    0.9973 </r>
       <r>   -4.5980    0.9973 </r>
       <r>   -4.5676    0.9961 </r>
       <r>   -4.5671    0.9961 </r>
       <r>   -4.5665    0.9961 </r>
       <r>   -4.5639    0.9960 </r>
       <r>   -4.5638    0.9960 </r>
       <r>   -4.5633    0.9960 </r>
       <r>   -4.5612    0.9959 </r>
       <r>   -4.5589    0.9958 </r>
       <r>   -4.5464    0.9954 </r>
       <r>   -4.5437    0.9954 </r>
       <r>   -4.5429    0.9953 </r>
       <r>   -4.5254    0.9951 </r>
       <r>   -4.5238    0.9951 </r>
       <r>   -4.5221    0.9951 </r>
       <r>   -4.5218    0.9951 </r>
       <r>   -4.5212    0.9951 </r>
       <r>   -4.5209    0.9951 </r>
       <r>   -4.5175    0.9951 </r>
       <r>   -4.5166    0.9951 </r>
       <r>   -4.5165    0.9951 </r>
       <r>   -4.4775    0.9972 </r>
       <r>   -4.4748    0.9975 </r>
       <r>   -4.4743    0.9975 </r>
       <r>   -4.4740    0.9976 </r>
       <r>   -4.4733    0.9977 </r>
       <r>   -4.4621    0.9993 </r>
       <r>   -4.4513    1.0013 </r>
       <r>   -4.4507    1.0015 </r>
       <r>   -4.4484    1.0020 </r>
       <r>   -4.4396    1.0041 </r>
       <r>   -4.4384    1.0044 </r>
       <r>   -4.4292    1.0071 </r>
       <r>   -4.4272    1.0077 </r>
       <r>   -4.4265    1.0079 </r>
       <r>   -4.4190    1.0105 </r>
       <r>   -4.4176    1.0110 </r>
       <r>   -4.4165    1.0114 </r>
       <r>   -4.4120    1.0131 </r>
       <r>   -4.4101    1.0138 </r>
       <r>   -4.4095    1.0141 </r>
       <r>   -4.3909    1.0221 </r>
       <r>   -4.3807    1.0269 </r>
       <r>   -4.3788    1.0278 </r>
       <r>   -4.3778    1.0283 </r>
       <r>   -4.3773    1.0285 </r>
       <r>   -4.3771    1.0286 </r>
       <r>   -4.3733    1.0304 </r>
       <r>   -4.3709    1.0316 </r>
       <r>   -4.3704    1.0318 </r>
       <r>   -4.3355    1.0468 </r>
       <r>   -4.3349    1.0471 </r>
       <r>   -4.3341    1.0473 </r>
       <r>   -4.3104    1.0516 </r>
       <r>   -4.3097    1.0516 </r>
       <r>   -4.3068    1.0516 </r>
       <r>   -4.3061    1.0515 </r>
       <r>   -4.3050    1.0514 </r>
       <r>   -4.3047    1.0514 </r>
       <r>   -4.3018    1.0511 </r>
       <r>   -4.3015    1.0510 </r>
       <r>   -4.3009    1.0509 </r>
       <r>   -4.2964    1.0500 </r>
       <r>   -4.2943    1.0494 </r>
       <r>   -4.2938    1.0493 </r>
       <r>   -4.2915    1.0485 </r>
       <r>   -4.2912    1.0484 </r>
       <r>   -4.2902    1.0480 </r>
       <r>   -4.2888    1.0474 </r>
       <r>   -4.2861    1.0462 </r>
       <r>   -4.2857    1.0460 </r>
       <r>   -4.2705    1.0352 </r>
       <r>   -4.2702    1.0349 </r>
       <r>   -4.2540    1.0156 </r>
       <r>   -4.2532    1.0144 </r>
       <r>   -4.2529    1.0139 </r>
       <r>   -4.2520    1.0125 </r>
       <r>   -4.2519    1.0124 </r>
       <r>   -4.2506    1.0104 </r>
       <r>   -4.2474    1.0052 </r>
       <r>   -4.2328    0.9766 </r>
       <r>   -4.2323    0.9755 </r>
       <r>   -4.2237    0.9547 </r>
       <r>   -4.2226    0.9518 </r>
       <r>   -4.2217    0.9493 </r>
       <r>   -4.2170    0.9363 </r>
       <r>   -4.2165    0.9349 </r>
       <r>   -4.2129    0.9244 </r>
       <r>   -4.2124    0.9230 </r>
       <r>   -4.2121    0.9219 </r>
       <r>   -4.2119    0.9213 </r>
       <r>   -4.2079    0.9089 </r>
       <r>   -4.2064    0.9041 </r>
       <r>   -4.2059    0.9024 </r>
       <r>   -4.2055    0.9010 </r>
       <r>   -4.2025    0.8909 </r>
       <r>   -4.1999    0.8820 </r>
       <r>   -4.1908    0.8487 </r>
       <r>   -4.1870    0.8340 </r>
       <r>   -4.1870    0.8337 </r>
       <r>   -4.1862    0.8307 </r>
       <r>   -4.1840    0.8217 </r>
       <r>   -4.1824    0.8151 </r>
       <r>   -4.1606    0.7181 </r>
       <r>   -4.1601    0.7159 </r>
       <r>   -4.1569    0.7005 </r>
       <r>   -4.1459    0.6463 </r>
       <r>   -4.1458    0.6458 </r>
       <r>   -4.1452    0.6427 </r>
       <r>   -4.1397    0.6143 </r>
       <r>   -4.1378    0.6045 </r>
       <r>   -4.1371    0.6009 </r>
       <r>   -4.1249    0.5371 </r>
       <r>   -4.0958    0.3845 </r>
       <r>   -4.0956    0.3836 </r>
       <r>   -4.0954    0.3823 </r>
       <r>   -4.0941    0.3758 </r>
       <r>   -4.0939    0.3746 </r>
       <r>   -4.0794    0.3024 </r>
       <r>   -4.0790    0.3002 </r>
       <r>   -3.9371   -0.0505 </r>
       <r>   -3.8593   -0.0289 </r>
       <r>   -3.7892   -0.0024 </r>
       <r>   -3.7838   -0.0012 </r>
       <r>   -3.7750    0.0005 </r>
       <r>   -3.4588    0.0001 </r>
       <r>   -3.4559    0.0001 </r>
       <r>   -3.4380    0.0000 </r>
       <r>   -3.0254    0.0000 </r>
       <r>   -3.0226    0.0000 </r>
       <r>   -3.0122    0.0000 </r>
       <r>   -2.9880    0.0000 </r>
       <r>   -2.9823    0.0000 </r>
       <r>   -2.9547    0.0000 </r>
       <r>   -2.9035    0.0000 </r>
       <r>   -2.8981    0.0000 </r>
       <r>   -2.4896    0.0000 </r>
       <r>   -2.4880    0.0000 </r>
       <r>   -2.4618    0.0000 </r>
       <r>   -2.3194    0.0000 </r>
       <r>   -2.0943    0.0000 </r>
       <r>   -2.0858    0.0000 </r>
       <r>   -2.0693    0.0000 </r>
       <r>   -1.9848    0.0000 </r>
       <r>   -1.9368    0.0000 </r>
       <r>   -1.9082    0.0000 </r>
       <r>   -1.8420    0.0000 </r>
       <r>   -1.7999    0.0000 </r>
       <r>   -1.7509    0.0000 </r>
       <r>   -1.7179    0.0000 </r>
       <r>   -1.7011    0.0000 </r>
       <r>   -1.6092    0.0000 </r>
       <r>   -1.5970    0.0000 </r>
       <r>   -1.5319    0.0000 </r>
       <r>   -1.5189    0.0000 </r>
       <r>   -1.4877    0.0000 </r>
       <r>   -1.2046    0.0000 </r>
       <r>   -1.1878    0.0000 </r>
       <r>   -0.9780    0.0000 </r>
       <r>   -0.9638    0.0000 </r>
       <r>   -0.9582    0.0000 </r>
       <r>   -0.9492    0.0000 </r>
       <r>   -0.9046    0.0000 </r>
       <r>   -0.8902    0.0000 </r>
       <r>   -0.7855    0.0000 </r>
       <r>   -0.7664    0.0000 </r>
       <r>   -0.5530    0.0000 </r>
      </set>
     </set>
    </set>
   </array>
  </eigenvalues>
  <separator name="orbital magnetization" >
   <v name="MAGDIPOLOUT">      0.00000000      0.00000000      0.00000000</v>
  </separator>
  <dos>
   <i name="efermi">     -4.11784918 </i>
   <total>
    <array>
     <dimension dim="1">gridpoints</dimension>
     <dimension dim="2">spin</dimension>
     <field>energy</field>
     <field>total</field>
     <field>integrated</field>
     <set>
      <set comment="spin 1">
       <r>   -31.3248     0.0000     0.0000 </r>
       <r>   -31.2156     0.0000     0.0000 </r>
       <r>   -31.1064     0.0000     0.0000 </r>
       <r>   -30.9971     0.0000     0.0000 </r>
       <r>   -30.8879     0.0000     0.0000 </r>
       <r>   -30.7787     0.0000     0.0000 </r>
       <r>   -30.6694     0.0000     0.0000 </r>
       <r>   -30.5602     0.0000     0.0000 </r>
       <r>   -30.4509     0.0000     0.0000 </r>
       <r>   -30.3417     0.0000     0.0000 </r>
       <r>   -30.2325     0.0000     0.0000 </r>
       <r>   -30.1232     0.0000     0.0000 </r>
       <r>   -30.0140     0.0005     0.0001 </r>
       <r>   -29.9047     0.0081     0.0009 </r>
       <r>   -29.7955     0.0482     0.0062 </r>
       <r>   -29.6863    -0.0015     0.0060 </r>
       <r>   -29.5770    -0.6413    -0.0640 </r>
       <r>   -29.4678     0.1334    -0.0494 </r>
       <r>   -29.3585     6.4151     0.6513 </r>
       <r>   -29.2493     9.7551     1.7170 </r>
       <r>   -29.1401     3.5282     2.1024 </r>
       <r>   -29.0308    -0.6963     2.0263 </r>
       <r>   -28.9216    -0.3314     1.9901 </r>
       <r>   -28.8123     0.0591     1.9966 </r>
       <r>   -28.7031     0.0280     1.9996 </r>
       <r>   -28.5939     0.0031     2.0000 </r>
       <r>   -28.4846     0.0001     2.0000 </r>
       <r>   -28.3754     0.0000     2.0000 </r>
       <r>   -28.2661     0.0000     2.0000 </r>
       <r>   -28.1569     0.0000     2.0000 </r>
       <r>   -28.0477     0.0000     2.0000 </r>
       <r>   -27.9384     0.0000     2.0000 </r>
       <r>   -27.8292     0.0000     2.0000 </r>
       <r>   -27.7200     0.0000     2.0000 </r>
       <r>   -27.6107     0.0000     2.0000 </r>
       <r>   -27.5015     0.0000     2.0000 </r>
       <r>   -27.3922     0.0000     2.0000 </r>
       <r>   -27.2830     0.0000     2.0000 </r>
       <r>   -27.1738     0.0000     2.0000 </r>
       <r>   -27.0645     0.0000     2.0000 </r>
       <r>   -26.9553     0.0000     2.0000 </r>
       <r>   -26.8460     0.0000     2.0000 </r>
       <r>   -26.7368     0.0000     2.0000 </r>
       <r>   -26.6276     0.0000     2.0000 </r>
       <r>   -26.5183     0.0000     2.0000 </r>
       <r>   -26.4091     0.0000     2.0000 </r>
       <r>   -26.2998     0.0000     2.0000 </r>
       <r>   -26.1906     0.0000     2.0000 </r>
       <r>   -26.0814     0.0000     2.0000 </r>
       <r>   -25.9721     0.0000     2.0000 </r>
       <r>   -25.8629     0.0000     2.0000 </r>
       <r>   -25.7536     0.0000     2.0000 </r>
       <r>   -25.6444     0.0000     2.0000 </r>
       <r>   -25.5352     0.0000     2.0000 </r>
       <r>   -25.4259     0.0000     2.0000 </r>
       <r>   -25.3167     0.0000     2.0000 </r>
       <r>   -25.2074     0.0000     2.0000 </r>
       <r>   -25.0982     0.0000     2.0000 </r>
       <r>   -24.9890     0.0000     2.0000 </r>
       <r>   -24.8797     0.0000     2.0000 </r>
       <r>   -24.7705     0.0000     2.0000 </r>
       <r>   -24.6612     0.0000     2.0000 </r>
       <r>   -24.5520     0.0000     2.0000 </r>
       <r>   -24.4428     0.0000     2.0000 </r>
       <r>   -24.3335     0.0000     2.0000 </r>
       <r>   -24.2243     0.0000     2.0000 </r>
       <r>   -24.1151     0.0000     2.0000 </r>
       <r>   -24.0058     0.0000     2.0000 </r>
       <r>   -23.8966     0.0000     2.0000 </r>
       <r>   -23.7873     0.0000     2.0000 </r>
       <r>   -23.6781     0.0000     2.0000 </r>
       <r>   -23.5689     0.0000     2.0000 </r>
       <r>   -23.4596     0.0000     2.0000 </r>
       <r>   -23.3504     0.0000     2.0000 </r>
       <r>   -23.2411     0.0000     2.0000 </r>
       <r>   -23.1319     0.0000     2.0000 </r>
       <r>   -23.0227     0.0000     2.0000 </r>
       <r>   -22.9134     0.0000     2.0000 </r>
       <r>   -22.8042     0.0000     2.0000 </r>
       <r>   -22.6949     0.0000     2.0000 </r>
       <r>   -22.5857     0.0000     2.0000 </r>
       <r>   -22.4765     0.0000     2.0000 </r>
       <r>   -22.3672     0.0000     2.0000 </r>
       <r>   -22.2580     0.0000     2.0000 </r>
       <r>   -22.1487     0.0000     2.0000 </r>
       <r>   -22.0395     0.0000     2.0000 </r>
       <r>   -21.9303     0.0000     2.0000 </r>
       <r>   -21.8210     0.0000     2.0000 </r>
       <r>   -21.7118     0.0000     2.0000 </r>
       <r>   -21.6025     0.0000     2.0000 </r>
       <r>   -21.4933     0.0000     2.0000 </r>
       <r>   -21.3841     0.0000     2.0000 </r>
       <r>   -21.2748     0.0000     2.0000 </r>
       <r>   -21.1656     0.0000     2.0000 </r>
       <r>   -21.0564     0.0000     2.0000 </r>
       <r>   -20.9471     0.0000     2.0000 </r>
       <r>   -20.8379     0.0000     2.0000 </r>
       <r>   -20.7286     0.0000     2.0000 </r>
       <r>   -20.6194     0.0000     2.0000 </r>
       <r>   -20.5102     0.0000     2.0000 </r>
       <r>   -20.4009     0.0000     2.0000 </r>
       <r>   -20.2917     0.0000     2.0000 </r>
       <r>   -20.1824     0.0000     2.0000 </r>
       <r>   -20.0732     0.0000     2.0000 </r>
       <r>   -19.9640     0.0000     2.0000 </r>
       <r>   -19.8547     0.0000     2.0000 </r>
       <r>   -19.7455     0.0000     2.0000 </r>
       <r>   -19.6362     0.0000     2.0000 </r>
       <r>   -19.5270     0.0000     2.0000 </r>
       <r>   -19.4178     0.0000     2.0000 </r>
       <r>   -19.3085     0.0000     2.0000 </r>
       <r>   -19.1993     0.0000     2.0000 </r>
       <r>   -19.0900     0.0000     2.0000 </r>
       <r>   -18.9808     0.0000     2.0000 </r>
       <r>   -18.8716     0.0000     2.0000 </r>
       <r>   -18.7623     0.0000     2.0000 </r>
       <r>   -18.6531     0.0000     2.0000 </r>
       <r>   -18.5438     0.0000     2.0000 </r>
       <r>   -18.4346     0.0000     2.0000 </r>
       <r>   -18.3254     0.0000     2.0000 </r>
       <r>   -18.2161     0.0000     2.0000 </r>
       <r>   -18.1069     0.0000     2.0000 </r>
       <r>   -17.9976     0.0000     2.0000 </r>
       <r>   -17.8884     0.0000     2.0000 </r>
       <r>   -17.7792     0.0000     2.0000 </r>
       <r>   -17.6699     0.0000     2.0000 </r>
       <r>   -17.5607     0.0000     2.0000 </r>
       <r>   -17.4515     0.0000     2.0000 </r>
       <r>   -17.3422     0.0000     2.0000 </r>
       <r>   -17.2330     0.0000     2.0000 </r>
       <r>   -17.1237     0.0000     2.0000 </r>
       <r>   -17.0145     0.0000     2.0000 </r>
       <r>   -16.9053     0.0000     2.0000 </r>
       <r>   -16.7960     0.0000     2.0000 </r>
       <r>   -16.6868     0.0000     2.0000 </r>
       <r>   -16.5775     0.0000     2.0000 </r>
       <r>   -16.4683     0.0000     2.0000 </r>
       <r>   -16.3591     0.0000     2.0000 </r>
       <r>   -16.2498     0.0000     2.0000 </r>
       <r>   -16.1406     0.0000     2.0000 </r>
       <r>   -16.0313     0.0000     2.0000 </r>
       <r>   -15.9221     0.0000     2.0000 </r>
       <r>   -15.8129     0.0000     2.0000 </r>
       <r>   -15.7036     0.0000     2.0000 </r>
       <r>   -15.5944     0.0000     2.0000 </r>
       <r>   -15.4851     0.0000     2.0000 </r>
       <r>   -15.3759     0.0000     2.0000 </r>
       <r>   -15.2667     0.0000     2.0000 </r>
       <r>   -15.1574     0.0000     2.0000 </r>
       <r>   -15.0482     0.0000     2.0000 </r>
       <r>   -14.9389     0.0000     2.0000 </r>
       <r>   -14.8297     0.0000     2.0000 </r>
       <r>   -14.7205     0.0000     2.0000 </r>
       <r>   -14.6112     0.0000     2.0000 </r>
       <r>   -14.5020     0.0009     2.0001 </r>
       <r>   -14.3928     0.0117     2.0014 </r>
       <r>   -14.2835     0.0566     2.0076 </r>
       <r>   -14.1743    -0.0590     2.0011 </r>
       <r>   -14.0650    -0.7508     1.9191 </r>
       <r>   -13.9558     0.8010     2.0066 </r>
       <r>   -13.8466     7.5949     2.8363 </r>
       <r>   -13.7373     9.1924     3.8404 </r>
       <r>   -13.6281     2.3878     4.1013 </r>
       <r>   -13.5188    -0.8017     4.0137 </r>
       <r>   -13.4096    -0.2121     3.9905 </r>
       <r>   -13.3004     0.0639     3.9975 </r>
       <r>   -13.1911     0.0208     3.9998 </r>
       <r>   -13.0819     0.0020     4.0000 </r>
       <r>   -12.9726     0.0001     4.0000 </r>
       <r>   -12.8634     0.0000     4.0000 </r>
       <r>   -12.7542     0.0000     4.0000 </r>
       <r>   -12.6449     0.0000     4.0000 </r>
       <r>   -12.5357     0.0000     4.0000 </r>
       <r>   -12.4264     0.0000     4.0000 </r>
       <r>   -12.3172     0.0009     4.0001 </r>
       <r>   -12.2080     0.0140     4.0016 </r>
       <r>   -12.0987     0.0899     4.0115 </r>
       <r>   -11.9895     0.0272     4.0144 </r>
       <r>   -11.8802    -1.1921     3.8842 </r>
       <r>   -11.7710    -0.1085     3.8724 </r>
       <r>   -11.6618    11.9561     5.1784 </r>
       <r>   -11.5525    19.7498     7.3359 </r>
       <r>   -11.4433     7.9094     8.1999 </r>
       <r>   -11.3340    -1.2547     8.0629 </r>
       <r>   -11.2248    -0.7546     7.9804 </r>
       <r>   -11.1156     0.1101     7.9925 </r>
       <r>   -11.0063     0.0615     7.9992 </r>
       <r>   -10.8971     0.0072     8.0000 </r>
       <r>   -10.7879     0.0004     8.0000 </r>
       <r>   -10.6786     0.0000     8.0000 </r>
       <r>   -10.5694     0.0000     8.0000 </r>
       <r>   -10.4601     0.0000     8.0000 </r>
       <r>   -10.3509     0.0000     8.0000 </r>
       <r>   -10.2417     0.0000     8.0000 </r>
       <r>   -10.1324     0.0000     8.0000 </r>
       <r>   -10.0232     0.0000     8.0000 </r>
       <r>    -9.9139     0.0000     8.0000 </r>
       <r>    -9.8047     0.0003     8.0000 </r>
       <r>    -9.6955     0.0055     8.0006 </r>
       <r>    -9.5862     0.0396     8.0050 </r>
       <r>    -9.4770     0.0337     8.0086 </r>
       <r>    -9.3677    -0.5166     7.9522 </r>
       <r>    -9.2585    -0.3163     7.9177 </r>
       <r>    -9.1493     5.2359     8.4896 </r>
       <r>    -9.0400     9.9806     9.5799 </r>
       <r>    -8.9308     4.6870    10.0919 </r>
       <r>    -8.8215    -0.4698    10.0406 </r>
       <r>    -8.7123    -0.4569     9.9907 </r>
       <r>    -8.6031     0.0446     9.9956 </r>
       <r>    -8.4938     0.0358     9.9995 </r>
       <r>    -8.3846     0.0046    10.0000 </r>
       <r>    -8.2753     0.0002    10.0000 </r>
       <r>    -8.1661     0.0000    10.0000 </r>
       <r>    -8.0569     0.0000    10.0000 </r>
       <r>    -7.9476     0.0000    10.0000 </r>
       <r>    -7.8384     0.0000    10.0000 </r>
       <r>    -7.7292     0.0000    10.0000 </r>
       <r>    -7.6199     0.0000    10.0000 </r>
       <r>    -7.5107     0.0000    10.0000 </r>
       <r>    -7.4014     0.0000    10.0000 </r>
       <r>    -7.2922     0.0008    10.0001 </r>
       <r>    -7.1830     0.0106    10.0012 </r>
       <r>    -7.0737     0.0545    10.0072 </r>
       <r>    -6.9645    -0.0415    10.0027 </r>
       <r>    -6.8552    -0.7253     9.9234 </r>
       <r>    -6.7460     0.6088     9.9899 </r>
       <r>    -6.6368     7.3454    10.7924 </r>
       <r>    -6.5275     9.5612    11.8368 </r>
       <r>    -6.4183     2.2341    12.0809 </r>
       <r>    -6.3090    -3.1378    11.7381 </r>
       <r>    -6.1998     5.3904    12.3269 </r>
       <r>    -6.0906    26.0256    15.1699 </r>
       <r>    -5.9813    22.2910    17.6050 </r>
       <r>    -5.8721     7.5432    18.4290 </r>
       <r>    -5.7628    26.9177    21.3695 </r>
       <r>    -5.6536    73.0762    29.3523 </r>
       <r>    -5.5444   170.2486    47.9501 </r>
       <r>    -5.4351   289.6514    79.5915 </r>
       <r>    -5.3259   290.2537   111.2986 </r>
       <r>    -5.2166   213.3625   134.6062 </r>
       <r>    -5.1074   229.3000   159.6547 </r>
       <r>    -4.9982   329.9536   195.6987 </r>
       <r>    -4.8889   364.9815   235.5690 </r>
       <r>    -4.7797   301.9212   268.5507 </r>
       <r>    -4.6704   316.5427   303.1296 </r>
       <r>    -4.5612   413.5814   348.3089 </r>
       <r>    -4.4520   427.6319   395.0232 </r>
       <r>    -4.3427   450.1442   444.1966 </r>
       <r>    -4.2335   555.3208   504.8595 </r>
       <r>    -4.1243   484.7205   557.8100 </r>
       <r>    -4.0150   197.3213   579.3653 </r>
       <r>    -3.9058    20.0012   581.5502 </r>
       <r>    -3.7965    22.5385   584.0123 </r>
       <r>    -3.6873    29.5764   587.2432 </r>
       <r>    -3.5781     9.6418   588.2965 </r>
       <r>    -3.4688    20.1398   590.4965 </r>
       <r>    -3.3596    27.2513   593.4734 </r>
       <r>    -3.2503     4.0920   593.9204 </r>
       <r>    -3.1411    -1.9416   593.7084 </r>
       <r>    -3.0319    38.3524   597.8979 </r>
       <r>    -2.9226    71.4660   605.7048 </r>
       <r>    -2.8134    40.5014   610.1292 </r>
       <r>    -2.7041    -0.0232   610.1266 </r>
       <r>    -2.5949    -0.1609   610.1091 </r>
       <r>    -2.4857    23.9087   612.7208 </r>
       <r>    -2.3764    30.3899   616.0406 </r>
       <r>    -2.2672    13.3250   617.4962 </r>
       <r>    -2.1579    11.5431   618.7572 </r>
       <r>    -2.0487    32.4762   622.3049 </r>
       <r>    -1.9395    43.7592   627.0851 </r>
       <r>    -1.8302    43.2696   631.8118 </r>
       <r>    -1.7210    45.7820   636.8130 </r>
       <r>    -1.6117    49.4802   642.2182 </r>
       <r>    -1.5025    46.6818   647.3177 </r>
       <r>    -1.3933    23.7474   649.9118 </r>
       <r>    -1.2840     6.5643   650.6289 </r>
       <r>    -1.1748    12.4234   651.9860 </r>
       <r>    -1.0656    20.1891   654.1915 </r>
       <r>    -0.9563    44.4430   659.0464 </r>
       <r>    -0.8471    58.3424   665.4197 </r>
       <r>    -0.7378    34.3890   669.1763 </r>
       <r>    -0.6286    12.1410   670.5026 </r>
       <r>    -0.5194     8.3827   671.4183 </r>
       <r>    -0.4101     5.5031   672.0195 </r>
       <r>    -0.3009     0.2834   672.0504 </r>
       <r>    -0.1916    -0.5336   671.9921 </r>
       <r>    -0.0824     0.0142   671.9937 </r>
       <r>     0.0268     0.0491   671.9991 </r>
       <r>     0.1361     0.0081   671.9999 </r>
       <r>     0.2453     0.0005   672.0000 </r>
       <r>     0.3546     0.0000   672.0000 </r>
       <r>     0.4638     0.0000   672.0000 </r>
       <r>     0.5730     0.0000   672.0000 </r>
       <r>     0.6823     0.0000   672.0000 </r>
       <r>     0.7915     0.0000   672.0000 </r>
       <r>     0.9008     0.0000   672.0000 </r>
       <r>     1.0100     0.0000   672.0000 </r>
       <r>     1.1192     0.0000   672.0000 </r>
       <r>     1.2285     0.0000   672.0000 </r>
       <r>     1.3377     0.0000   672.0000 </r>
       <r>     1.4470     0.0000   672.0000 </r>
      </set>
     </set>
    </array>
   </total>
  </dos>
 </calculation>
 <structure name="finalpos" >
  <crystal>
   <varray name="basis" >
    <v>      30.00000000       0.00000000       0.00000000 </v>
    <v>       0.00000000      30.00000000       0.00000000 </v>
    <v>       0.00000000       0.00000000      30.00000000 </v>
   </varray>
   <i name="volume">  27000.00000000 </i>
   <varray name="rec_basis" >
    <v>       0.03333333       0.00000000       0.00000000 </v>
    <v>       0.00000000       0.03333333       0.00000000 </v>
    <v>       0.00000000       0.00000000       0.03333333 </v>
   </varray>
  </crystal>
  <varray name="positions" >
   <v>       0.44576020       0.32826710       0.41691983 </v>
   <v>       0.67173288       0.55423978       0.41691983 </v>
   <v>       0.55423980       0.32826710       0.41691983 </v>
   <v>       0.32826712       0.55423978       0.41691983 </v>
   <v>       0.50000000       0.38250690       0.34021317 </v>
   <v>       0.50000000       0.38250690       0.65978680 </v>
   <v>       0.50000000       0.27609440       0.50000000 </v>
   <v>       0.27609443       0.49999998       0.50000000 </v>
   <v>       0.72390557       0.49999998       0.50000000 </v>
   <v>       0.50000000       0.72390555       0.50000000 </v>
   <v>       0.61195280       0.38804720       0.34167483 </v>
   <v>       0.61195280       0.38804720       0.65832513 </v>
   <v>       0.38804722       0.61195278       0.34167483 </v>
   <v>       0.38804722       0.61195278       0.65832513 </v>
   <v>       0.38804720       0.38804720       0.34167483 </v>
   <v>       0.38804720       0.38804720       0.65832513 </v>
   <v>       0.61195278       0.61195278       0.34167483 </v>
   <v>       0.61195278       0.61195278       0.65832513 </v>
   <v>       0.44576020       0.32826710       0.58308023 </v>
   <v>       0.67173288       0.55423978       0.58308023 </v>
   <v>       0.55791699       0.44208301       0.41809300 </v>
   <v>       0.32826705       0.44576024       0.41691983 </v>
   <v>       0.55423973       0.67173293       0.41691983 </v>
   <v>       0.55423980       0.32826710       0.58308023 </v>
   <v>       0.32826712       0.55423978       0.58308023 </v>
   <v>       0.67173295       0.44576024       0.41691983 </v>
   <v>       0.44576027       0.67173293       0.41691983 </v>
   <v>       0.44208301       0.44208301       0.41809300 </v>
   <v>       0.50000000       0.38416601       0.50000000 </v>
   <v>       0.61749315       0.50000005       0.34021317 </v>
   <v>       0.61749315       0.50000005       0.65978680 </v>
   <v>       0.38250685       0.50000005       0.34021317 </v>
   <v>       0.38250685       0.50000005       0.65978680 </v>
   <v>       0.38317830       0.38317830       0.50000000 </v>
   <v>       0.61682172       0.61682172       0.50000000 </v>
   <v>       0.61682170       0.38317830       0.50000000 </v>
   <v>       0.38317828       0.61682172       0.50000000 </v>
   <v>       0.50000000       0.50000000       0.33478917 </v>
   <v>       0.50000000       0.50000000       0.66521087 </v>
   <v>       0.32826705       0.44576024       0.58308023 </v>
   <v>       0.55423973       0.67173293       0.58308023 </v>
   <v>       0.55791699       0.44208301       0.58190703 </v>
   <v>       0.44208298       0.55791702       0.41809300 </v>
   <v>       0.44208301       0.44208301       0.58190703 </v>
   <v>       0.67173295       0.44576024       0.58308023 </v>
   <v>       0.44576027       0.67173293       0.58308023 </v>
   <v>       0.55791702       0.55791702       0.41809300 </v>
   <v>       0.38416599       0.50000002       0.50000000 </v>
   <v>       0.61583401       0.50000002       0.50000000 </v>
   <v>       0.50000000       0.61749319       0.34021317 </v>
   <v>       0.50000000       0.61749319       0.65978680 </v>
   <v>       0.50000000       0.50000000       0.50000000 </v>
   <v>       0.44208298       0.55791702       0.58190703 </v>
   <v>       0.55791702       0.55791702       0.58190703 </v>
   <v>       0.50000000       0.61583404       0.50000000 </v>
   <v>       0.40910647       0.75524900       0.62523053 </v>
   <v>       0.39765683       0.78740203       0.64100550 </v>
  </varray>
  <varray name="selective"  type="logical" >
   <v type="logical" >  F  F  F </v>
   <v type="logical" >  F  F  F </v>
   <v type="logical" >  F  F  F </v>
   <v type="logical" >  F  F  F </v>
   <v type="logical" >  F  F  F </v>
   <v type="logical" >  F  F  F </v>
   <v type="logical" >  F  F  F </v>
   <v type="logical" >  F  F  F </v>
   <v type="logical" >  F  F  F </v>
   <v type="logical" >  F  F  F </v>
   <v type="logical" >  F  F  F </v>
   <v type="logical" >  F  F  F </v>
   <v type="logical" >  F  F  F </v>
   <v type="logical" >  F  F  F </v>
   <v type="logical" >  F  F  F </v>
   <v type="logical" >  F  F  F </v>
   <v type="logical" >  F  F  F </v>
   <v type="logical" >  F  F  F </v>
   <v type="logical" >  F  F  F </v>
   <v type="logical" >  F  F  F </v>
   <v type="logical" >  F  F  F </v>
   <v type="logical" >  F  F  F </v>
   <v type="logical" >  F  F  F </v>
   <v type="logical" >  F  F  F </v>
   <v type="logical" >  F  F  F </v>
   <v type="logical" >  F  F  F </v>
   <v type="logical" >  F  F  F </v>
   <v type="logical" >  F  F  F </v>
   <v type="logical" >  F  F  F </v>
   <v type="logical" >  F  F  F </v>
   <v type="logical" >  F  F  F </v>
   <v type="logical" >  F  F  F </v>
   <v type="logical" >  F  F  F </v>
   <v type="logical" >  F  F  F </v>
   <v type="logical" >  F  F  F </v>
   <v type="logical" >  F  F  F </v>
   <v type="logical" >  F  F  F </v>
   <v type="logical" >  F  F  F </v>
   <v type="logical" >  F  F  F </v>
   <v type="logical" >  F  F  F </v>
   <v type="logical" >  F  F  F </v>
   <v type="logical" >  F  F  F </v>
   <v type="logical" >  F  F  F </v>
   <v type="logical" >  F  F  F </v>
   <v type="logical" >  F  F  F </v>
   <v type="logical" >  F  F  F </v>
   <v type="logical" >  F  F  F </v>
   <v type="logical" >  F  F  F </v>
   <v type="logical" >  F  F  F </v>
   <v type="logical" >  F  F  F </v>
   <v type="logical" >  F  F  F </v>
   <v type="logical" >  F  F  F </v>
   <v type="logical" >  F  F  F </v>
   <v type="logical" >  F  F  F </v>
   <v type="logical" >  F  F  F </v>
   <v type="logical" >  F  F  F </v>
   <v type="logical" >  F  F  F </v>
  </varray>
  <nose>
   <v>      -3.00000000       0.00000000       0.00010000       0.00010000 </v>
  </nose>
 </structure>
</modeling>
