       N       E                     dE             d eps       ncg     rms          rms(c)
DAV:   1     0.439933535903E+04    0.43993E+04   -0.10059E+05   688   0.815E+02
DAV:   2     0.201185992985E+04   -0.23875E+04   -0.21476E+04  1224   0.105E+02
DAV:   3     0.233719829413E+03   -0.17781E+04   -0.16735E+04  1008   0.917E+01
DAV:   4    -0.134621836310E+03   -0.36834E+03   -0.31231E+03   840   0.433E+01
DAV:   5    -0.179853254045E+03   -0.45231E+02   -0.37229E+02  1040   0.146E+01    0.164E+01
RMM:   6    -0.180702023263E+03   -0.84877E+00   -0.60445E+01   729   0.955E+00    0.253E+01
RMM:   7    -0.182040686948E+03   -0.13387E+01   -0.20306E+01   855   0.478E+00    0.237E+01
RMM:   8    -0.182931624325E+03   -0.89094E+00   -0.81870E+00   771   0.392E+00    0.275E+01
RMM:   9    -0.180577903762E+03    0.23537E+01   -0.55565E+00   734   0.317E+00    0.217E+01
RMM:  10    -0.178481474484E+03    0.20964E+01   -0.43614E+00   722   0.312E+00    0.217E+01
RMM:  11    -0.176656332127E+03    0.18251E+01   -0.34579E+00   717   0.257E+00    0.136E+01
RMM:  12    -0.177189308664E+03   -0.53298E+00   -0.29234E+00   720   0.251E+00    0.193E+01
RMM:  13    -0.178678632826E+03   -0.14893E+01   -0.12802E+00   722   0.165E+00    0.328E+01
RMM:  14    -0.175890543120E+03    0.27881E+01   -0.15385E+00   704   0.181E+00    0.129E+01
RMM:  15    -0.174836645551E+03    0.10539E+01   -0.10938E+00   698   0.158E+00    0.837E+00
RMM:  16    -0.174867496220E+03   -0.30851E-01   -0.54557E-01   704   0.108E+00    0.102E+01
RMM:  17    -0.174914386019E+03   -0.46890E-01   -0.59069E-01   710   0.114E+00    0.102E+01
RMM:  18    -0.174597653340E+03    0.31673E+00   -0.47285E-01   693   0.105E+00    0.669E+00
RMM:  19    -0.174525068883E+03    0.72584E-01   -0.30565E-01   693   0.833E-01    0.676E+00
RMM:  20    -0.174378391646E+03    0.14668E+00   -0.17362E-01   702   0.665E-01    0.605E+00
RMM:  21    -0.174238936858E+03    0.13945E+00   -0.16087E-01   695   0.620E-01    0.387E+00
RMM:  22    -0.174232055045E+03    0.68818E-02   -0.12426E-01   692   0.518E-01    0.396E+00
RMM:  23    -0.174159066005E+03    0.72989E-01   -0.60043E-02   697   0.391E-01    0.259E+00
RMM:  24    -0.174161202173E+03   -0.21362E-02   -0.46259E-02   693   0.330E-01    0.298E+00
RMM:  25    -0.174119310417E+03    0.41892E-01   -0.28814E-02   695   0.272E-01    0.155E+00
RMM:  26    -0.174110558059E+03    0.87524E-02   -0.23203E-02   690   0.245E-01    0.140E+00
RMM:  27    -0.174100172654E+03    0.10385E-01   -0.10701E-02   693   0.171E-01    0.888E-01
RMM:  28    -0.174096539081E+03    0.36336E-02   -0.61578E-03   692   0.135E-01    0.739E-01
RMM:  29    -0.174094505127E+03    0.20340E-02   -0.45822E-03   694   0.109E-01    0.713E-01
RMM:  30    -0.174092823251E+03    0.16819E-02   -0.33024E-03   687   0.911E-02    0.559E-01
RMM:  31    -0.174093278712E+03   -0.45546E-03   -0.25721E-03   689   0.828E-02    0.559E-01
RMM:  32    -0.174093756093E+03   -0.47738E-03   -0.19275E-03   686   0.691E-02    0.404E-01
RMM:  33    -0.174094972055E+03   -0.12160E-02   -0.15309E-03   687   0.626E-02    0.283E-01
RMM:  34    -0.174097418925E+03   -0.24469E-02   -0.10428E-03   682   0.488E-02    0.305E-01
RMM:  35    -0.174100368449E+03   -0.29495E-02   -0.79854E-04   679   0.442E-02    0.199E-01
RMM:  36    -0.174102765807E+03   -0.23974E-02   -0.54319E-04   577   0.351E-02    0.276E-01
RMM:  37    -0.174106225125E+03   -0.34593E-02   -0.56600E-04   562   0.337E-02    0.205E-01
RMM:  38    -0.174108660264E+03   -0.24351E-02   -0.51584E-04   545   0.313E-02    0.138E-01
RMM:  39    -0.174111553840E+03   -0.28936E-02   -0.55573E-04   554   0.277E-02    0.137E-01
RMM:  40    -0.174112831573E+03   -0.12777E-02   -0.24464E-04   437   0.205E-02    0.104E-01
RMM:  41    -0.174114965688E+03   -0.21341E-02   -0.24464E-04   432   0.182E-02    0.902E-02
RMM:  42    -0.174115802350E+03   -0.83666E-03   -0.12161E-04   416   0.139E-02    0.597E-02
RMM:  43    -0.174117251154E+03   -0.14488E-02   -0.10412E-04   407   0.118E-02    0.567E-02
RMM:  44    -0.174117859456E+03   -0.60830E-03   -0.61242E-05   410   0.927E-03    0.290E-02
RMM:  45    -0.174118647726E+03   -0.78827E-03   -0.42075E-05   401   0.751E-03    0.338E-02
RMM:  46    -0.174119113438E+03   -0.46571E-03   -0.20855E-05   319   0.545E-03    0.258E-02
RMM:  47    -0.174119741159E+03   -0.62772E-03   -0.21238E-05   355   0.550E-03    0.216E-02
RMM:  48    -0.174120195744E+03   -0.45458E-03   -0.11618E-05   246   0.449E-03    0.173E-02
RMM:  49    -0.174120593292E+03   -0.39755E-03   -0.14451E-05   258   0.461E-03    0.108E-02
RMM:  50    -0.174120875793E+03   -0.28250E-03   -0.10511E-05   221   0.427E-03    0.125E-02
RMM:  51    -0.174121235231E+03   -0.35944E-03   -0.23537E-05   278   0.481E-03    0.568E-03
RMM:  52    -0.174121361768E+03   -0.12654E-03   -0.51636E-06   149   0.364E-03    0.782E-03
RMM:  53    -0.174121493946E+03   -0.13218E-03   -0.98151E-06   178   0.389E-03    0.345E-03
RMM:  54    -0.174121545744E+03   -0.51798E-04   -0.35742E-06   122   0.353E-03
   1 F= -.17412155E+03 E0= -.17412065E+03  d E =-.359381E-02
